 Entering Gaussian System, Link 0=g16
 Initial command:
 /apps/gaussian/g16/C.01/g16/l1.exe "/local/jobs/762010/Gau-1220199.inp" -scrdir="/local/jobs/762010/"
 Default is to use a total of  12 processors:
                               12 via shared-memory
                                1 via Linda
 Entering Link 1 = /apps/gaussian/g16/C.01/g16/l1.exe PID=   1220204.
  
 Copyright (c) 1988-2019, Gaussian, Inc.  All Rights Reserved.
  
 This is part of the Gaussian(R) 16 program.  It is based on
 the Gaussian(R) 09 system (copyright 2009, Gaussian, Inc.),
 the Gaussian(R) 03 system (copyright 2003, Gaussian, Inc.),
 the Gaussian(R) 98 system (copyright 1998, Gaussian, Inc.),
 the Gaussian(R) 94 system (copyright 1995, Gaussian, Inc.),
 the Gaussian 92(TM) system (copyright 1992, Gaussian, Inc.),
 the Gaussian 90(TM) system (copyright 1990, Gaussian, Inc.),
 the Gaussian 88(TM) system (copyright 1988, Gaussian, Inc.),
 the Gaussian 86(TM) system (copyright 1986, Carnegie Mellon
 University), and the Gaussian 82(TM) system (copyright 1983,
 Carnegie Mellon University). Gaussian is a federally registered
 trademark of Gaussian, Inc.
  
 This software contains proprietary and confidential information,
 including trade secrets, belonging to Gaussian, Inc.
  
 This software is provided under written license and may be
 used, copied, transmitted, or stored only in accord with that
 written license.
  
 The following legend is applicable only to US Government
 contracts under FAR:
  
                    RESTRICTED RIGHTS LEGEND
  
 Use, reproduction and disclosure by the US Government is
 subject to restrictions as set forth in subparagraphs (a)
 and (c) of the Commercial Computer Software - Restricted
 Rights clause in FAR 52.227-19.
  
 Gaussian, Inc.
 340 Quinnipiac St., Bldg. 40, Wallingford CT 06492
  
  
 ---------------------------------------------------------------
 Warning -- This program may not be used in any manner that
 competes with the business of Gaussian, Inc. or will provide
 assistance to any competitor of Gaussian, Inc.  The licensee
 of this program is prohibited from giving any competitor of
 Gaussian, Inc. access to this program.  By using this program,
 the user acknowledges that Gaussian, Inc. is engaged in the
 business of creating and licensing software in the field of
 computational chemistry and represents and warrants to the
 licensee that it is not a competitor of Gaussian, Inc. and that
 it will not use this program in any manner prohibited above.
 ---------------------------------------------------------------
  

 Cite this work as:
 Gaussian 16, Revision C.01,
 M. J. Frisch, G. W. Trucks, H. B. Schlegel, G. E. Scuseria, 
 M. A. Robb, J. R. Cheeseman, G. Scalmani, V. Barone, 
 G. A. Petersson, H. Nakatsuji, X. Li, M. Caricato, A. V. Marenich, 
 J. Bloino, B. G. Janesko, R. Gomperts, B. Mennucci, H. P. Hratchian, 
 J. V. Ortiz, A. F. Izmaylov, J. L. Sonnenberg, D. Williams-Young, 
 F. Ding, F. Lipparini, F. Egidi, J. Goings, B. Peng, A. Petrone, 
 T. Henderson, D. Ranasinghe, V. G. Zakrzewski, J. Gao, N. Rega, 
 G. Zheng, W. Liang, M. Hada, M. Ehara, K. Toyota, R. Fukuda, 
 J. Hasegawa, M. Ishida, T. Nakajima, Y. Honda, O. Kitao, H. Nakai, 
 T. Vreven, K. Throssell, J. A. Montgomery, Jr., J. E. Peralta, 
 F. Ogliaro, M. J. Bearpark, J. J. Heyd, E. N. Brothers, K. N. Kudin, 
 V. N. Staroverov, T. A. Keith, R. Kobayashi, J. Normand, 
 K. Raghavachari, A. P. Rendell, J. C. Burant, S. S. Iyengar, 
 J. Tomasi, M. Cossi, J. M. Millam, M. Klene, C. Adamo, R. Cammi, 
 J. W. Ochterski, R. L. Martin, K. Morokuma, O. Farkas, 
 J. B. Foresman, and D. J. Fox, Gaussian, Inc., Wallingford CT, 2019.
 
 ******************************************
 Gaussian 16:  ES64L-G16RevC.01  3-Jul-2019
                29-Jul-2023 
 ******************************************
 %mem=48GB
 ----------------------------------
 # pm6 scrf=(iefpcm, solvent=water)
 ----------------------------------
 1/38=1,172=1/1;
 2/12=2,17=6,18=5,40=1/2;
 3/5=2,25=1,41=3900000,70=2201,72=1/1,2,3;
 4/35=1/1;
 5/5=2,35=1,38=5,53=1/2;
 6/7=2,8=2,9=2,10=2,28=1/1;
 99/5=1,9=1/99;
 -----------------------
 MA1_1_b3lyp.out,H,H,H,H
 -----------------------
 Symbolic Z-matrix:
 Charge =  0 Multiplicity = 1
 C                    -0.4766   -1.0855   -0.3955 
 C                    -1.5032   -0.1277   -0.8447 
 O                    -2.6914   -0.3079   -0.6079 
 C                     0.83     -0.853    -0.6423 
 C                     3.0848    0.6364    0.7253 
 H                     3.2434    1.3456   -0.0918 
 H                     3.281     1.1419    1.6752 
 H                     3.7912   -0.1906    0.6126 
 N                     1.708     0.1299    0.691 
 H                     1.0968    0.9295    0.8851 
 H                     1.5924   -0.4592    1.5229 
 H                     1.527    -1.6817   -0.4735 
 H                     1.111    -0.0769   -1.3631 
 H                    -0.8201   -1.9596    0.1428 
 H                    -1.1411    0.7549   -1.3973 
 
                          Input orientation:                          
 ---------------------------------------------------------------------
 Center     Atomic      Atomic             Coordinates (Angstroms)
 Number     Number       Type             X           Y           Z
 ---------------------------------------------------------------------
      1          6           0       -0.476600   -1.085500   -0.395500
      2          6           0       -1.503200   -0.127700   -0.844700
      3          8           0       -2.691400   -0.307900   -0.607900
      4          6           0        0.830000   -0.853000   -0.642300
      5          6           0        3.084800    0.636400    0.725300
      6          1           0        3.243400    1.345600   -0.091800
      7          1           0        3.281000    1.141900    1.675200
      8          1           0        3.791200   -0.190600    0.612600
      9          7           0        1.708000    0.129900    0.691000
     10          1           0        1.096800    0.929500    0.885100
     11          1           0        1.592400   -0.459200    1.522900
     12          1           0        1.527000   -1.681700   -0.473500
     13          1           0        1.111000   -0.076900   -1.363100
     14          1           0       -0.820100   -1.959600    0.142800
     15          1           0       -1.141100    0.754900   -1.397300
 ---------------------------------------------------------------------
                    Distance matrix (angstroms):
                    1          2          3          4          5
     1  C    0.000000
     2  C    1.474133   0.000000
     3  O    2.356929   1.224894   0.000000
     4  C    1.349878   2.451703   3.563506   0.000000
     5  C    4.111533   4.909022   6.002800   3.028657   0.000000
     6  H    4.454310   5.026697   6.182416   3.310799   1.093513
     7  H    4.834115   5.554309   6.556221   3.918907   1.093771
     8  H    4.475626   5.491662   6.597536   3.283634   1.093449
     9  N    2.725831   3.568829   4.607986   1.874744   1.467412
    10  H    2.859327   3.296950   4.255663   2.362507   2.015834
    11  H    2.890203   3.911286   4.786872   2.329039   2.015878
    12  H    2.091877   3.425612   4.438501   1.095923   3.039317
    13  H    2.115183   2.665588   3.883547   1.095831   2.960760
    14  H    1.082502   2.190351   2.606420   2.136300   4.725121
    15  H    2.198235   1.102482   2.038658   2.653413   4.730508
                    6          7          8          9         10
     6  H    0.000000
     7  H    1.779100   0.000000
     8  H    1.776563   1.779039   0.000000
     9  N    2.109065   2.113557   2.109168   0.000000
    10  H    2.394862   2.332402   2.930644   1.024988   0.000000
    11  H    2.930932   2.331971   2.394893   1.025895   1.606517
    12  H    3.500895   3.958048   2.920547   2.161184   2.974766
    13  H    2.861265   3.927549   3.331635   2.149070   2.463219
    14  H    5.243226   5.365312   4.961266   3.325331   3.545760
    15  H    4.612710   5.398610   5.409367   3.587338   3.201255
                   11         12         13         14         15
    11  H    0.000000
    12  H    2.341879   0.000000
    13  H    2.950745   1.881443   0.000000
    14  H    3.158486   2.442526   3.088922   0.000000
    15  H    4.180147   3.729502   2.401045   3.137429   0.000000
 Stoichiometry    C4H9NO
 Framework group  C1[X(C4H9NO)]
 Deg. of freedom    39
 Full point group                 C1      NOp   1
 Largest Abelian subgroup         C1      NOp   1
 Largest concise Abelian subgroup C1      NOp   1
                         Standard orientation:                         
 ---------------------------------------------------------------------
 Center     Atomic      Atomic             Coordinates (Angstroms)
 Number     Number       Type             X           Y           Z
 ---------------------------------------------------------------------
      1          6           0       -0.980248    0.691946   -0.208941
      2          6           0       -1.921682   -0.310005    0.322912
      3          8           0       -3.012261   -0.502193   -0.200600
      4          6           0        0.228288    0.867538    0.366193
      5          6           0        2.981709   -0.364317    0.094218
      6          1           0        3.022699   -0.739895    1.120392
      7          1           0        3.509958   -1.064099   -0.559688
      8          1           0        3.486673    0.604802    0.056111
      9          7           0        1.585219   -0.220820   -0.333007
     10          1           0        1.188392   -1.165508   -0.359316
     11          1           0        1.608477    0.049867   -1.322273
     12          1           0        0.801261    1.752852    0.067922
     13          1           0        0.422538    0.431468    1.352578
     14          1           0       -1.299645    1.257245   -1.075100
     15          1           0       -1.587199   -0.874417    1.208929
 ---------------------------------------------------------------------
 Rotational constants (GHZ):          11.2493233           1.2678579           1.2133754
 Standard basis: VSTO-6G (5D, 7F)
 There are    33 symmetry adapted cartesian basis functions of A   symmetry.
 There are    33 symmetry adapted basis functions of A   symmetry.
    33 basis functions,   198 primitive gaussians,    33 cartesian basis functions
    18 alpha electrons       18 beta electrons
       nuclear repulsion energy       152.2731376468 Hartrees.
 Integral buffers will be    131072 words long.
 Regular integral format.
 Two-electron integral symmetry is turned off.
 ------------------------------------------------------------------------------
 Polarizable Continuum Model (PCM)
 =================================
 Model                : PCM.
 Atomic radii         : UFF (Universal Force Field).
 Polarization charges : Total charges.
 Charge compensation  : None.
 Solution method      : On-the-fly selection.
 Cavity type          : Scaled VdW (van der Waals Surface) (Alpha=1.100).
 Cavity algorithm     : GePol (No added spheres)
                        Default sphere list used, NSphG=   15.
                        Lebedev-Laikov grids with approx.  5.0 points / Ang**2.
                        Smoothing algorithm: York/Karplus (Gamma=1.0000).
                        Polarization charges: spherical gaussians, with
                                              point-specific exponents (IZeta= 3).
                        Self-potential: point-specific (ISelfS= 7).
                        Self-field    : sphere-specific E.n sum rule (ISelfD= 2).
 Solvent              : Water, Eps=  78.355300 Eps(inf)=   1.777849
 ------------------------------------------------------------------------------
 Spheres list:
 ISph  on   Nord     Re0    Alpha      Xe            Ye            Ze
    1   C      1    1.9255  1.100     -0.980248      0.691946     -0.208941
    2   C      2    1.9255  1.100     -1.921682     -0.310005      0.322912
    3   O      3    1.7500  1.100     -3.012261     -0.502193     -0.200600
    4   C      4    1.9255  1.100      0.228288      0.867538      0.366193
    5   C      5    1.9255  1.100      2.981709     -0.364317      0.094218
    6   H      6    1.4430  1.100      3.022699     -0.739895      1.120392
    7   H      7    1.4430  1.100      3.509958     -1.064099     -0.559688
    8   H      8    1.4430  1.100      3.486673      0.604802      0.056111
    9   N      9    1.8300  1.100      1.585219     -0.220820     -0.333007
   10   H     10    1.4430  1.100      1.188392     -1.165508     -0.359316
   11   H     11    1.4430  1.100      1.608477      0.049867     -1.322273
   12   H     12    1.4430  1.100      0.801261      1.752852      0.067922
   13   H     13    1.4430  1.100      0.422538      0.431468      1.352578
   14   H     14    1.4430  1.100     -1.299645      1.257245     -1.075100
   15   H     15    1.4430  1.100     -1.587199     -0.874417      1.208929
 ------------------------------------------------------------------------------
 Do NDO integrals.
 One-electron integrals computed using PRISM.
 NBasis=    33 RedAO= F EigKep=  0.00D+00  NBF=    33
 NBsUse=    33 1.00D-04 EigRej=  0.00D+00 NBFU=    33
 Simple Huckel Guess.
 Keep J ints in memory in canonical form, NReq=1615266.
 Overlap will be assumed to be unity.
 Requested convergence on RMS density matrix=1.00D-08 within 128 cycles.
 Requested convergence on MAX density matrix=1.00D-06.
 Requested convergence on             energy=1.00D-06.
 No special actions if energy rises.
 Inv3:  Mode=1 IEnd=     4961388.
 Iteration    1 A*A^-1 deviation from unit magnitude is 3.11D-15 for   1095.
 Iteration    1 A*A^-1 deviation from orthogonality  is 2.00D-15 for   1142    723.
 Iteration    1 A^-1*A deviation from unit magnitude is 2.66D-15 for    728.
 Iteration    1 A^-1*A deviation from orthogonality  is 2.22D-15 for   1091     47.
 Error on total polarization charges = -0.00007
 SCF Done:  E(RPM6) = -0.282377796977E-01 A.U. after   15 cycles
            NFock= 14  Conv=0.46D-08     -V/T= 0.9996

 **********************************************************************

            Population analysis using the SCF Density.

 **********************************************************************

 Orbital symmetries:
       Occupied  (A) (A) (A) (A) (A) (A) (A) (A) (A) (A) (A) (A)
                 (A) (A) (A) (A) (A) (A)
       Virtual   (A) (A) (A) (A) (A) (A) (A) (A) (A) (A) (A) (A)
                 (A) (A) (A)
 The electronic state is 1-A.
 Alpha  occ. eigenvalues --   -1.18811  -1.13495  -1.00413  -0.88514  -0.83130
 Alpha  occ. eigenvalues --   -0.72845  -0.66407  -0.60967  -0.57805  -0.57718
 Alpha  occ. eigenvalues --   -0.55147  -0.52677  -0.50044  -0.48902  -0.46585
 Alpha  occ. eigenvalues --   -0.44738  -0.36965  -0.32727
 Alpha virt. eigenvalues --    0.00952   0.06587   0.12476   0.15459   0.17268
 Alpha virt. eigenvalues --    0.17939   0.18719   0.18867   0.19903   0.20560
 Alpha virt. eigenvalues --    0.21468   0.21806   0.21928   0.22293   0.25221
          Condensed to atoms (all electrons):
               1          2          3          4          5          6
     1  C    4.692726   0.000000   0.000000   0.000000   0.000000   0.000000
     2  C    0.000000   3.516933   0.000000   0.000000   0.000000   0.000000
     3  O    0.000000   0.000000   6.666490   0.000000   0.000000   0.000000
     4  C    0.000000   0.000000   0.000000   3.900394   0.000000   0.000000
     5  C    0.000000   0.000000   0.000000   0.000000   4.382721   0.000000
     6  H    0.000000   0.000000   0.000000   0.000000   0.000000   0.824102
     7  H    0.000000   0.000000   0.000000   0.000000   0.000000   0.000000
     8  H    0.000000   0.000000   0.000000   0.000000   0.000000   0.000000
     9  N    0.000000   0.000000   0.000000   0.000000   0.000000   0.000000
    10  H    0.000000   0.000000   0.000000   0.000000   0.000000   0.000000
    11  H    0.000000   0.000000   0.000000   0.000000   0.000000   0.000000
    12  H    0.000000   0.000000   0.000000   0.000000   0.000000   0.000000
    13  H    0.000000   0.000000   0.000000   0.000000   0.000000   0.000000
    14  H    0.000000   0.000000   0.000000   0.000000   0.000000   0.000000
    15  H    0.000000   0.000000   0.000000   0.000000   0.000000   0.000000
               7          8          9         10         11         12
     1  C    0.000000   0.000000   0.000000   0.000000   0.000000   0.000000
     2  C    0.000000   0.000000   0.000000   0.000000   0.000000   0.000000
     3  O    0.000000   0.000000   0.000000   0.000000   0.000000   0.000000
     4  C    0.000000   0.000000   0.000000   0.000000   0.000000   0.000000
     5  C    0.000000   0.000000   0.000000   0.000000   0.000000   0.000000
     6  H    0.000000   0.000000   0.000000   0.000000   0.000000   0.000000
     7  H    0.835725   0.000000   0.000000   0.000000   0.000000   0.000000
     8  H    0.000000   0.825148   0.000000   0.000000   0.000000   0.000000
     9  N    0.000000   0.000000   5.324915   0.000000   0.000000   0.000000
    10  H    0.000000   0.000000   0.000000   0.776235   0.000000   0.000000
    11  H    0.000000   0.000000   0.000000   0.000000   0.776230   0.000000
    12  H    0.000000   0.000000   0.000000   0.000000   0.000000   0.873220
    13  H    0.000000   0.000000   0.000000   0.000000   0.000000   0.000000
    14  H    0.000000   0.000000   0.000000   0.000000   0.000000   0.000000
    15  H    0.000000   0.000000   0.000000   0.000000   0.000000   0.000000
              13         14         15
     1  C    0.000000   0.000000   0.000000
     2  C    0.000000   0.000000   0.000000
     3  O    0.000000   0.000000   0.000000
     4  C    0.000000   0.000000   0.000000
     5  C    0.000000   0.000000   0.000000
     6  H    0.000000   0.000000   0.000000
     7  H    0.000000   0.000000   0.000000
     8  H    0.000000   0.000000   0.000000
     9  N    0.000000   0.000000   0.000000
    10  H    0.000000   0.000000   0.000000
    11  H    0.000000   0.000000   0.000000
    12  H    0.000000   0.000000   0.000000
    13  H    0.873898   0.000000   0.000000
    14  H    0.000000   0.817833   0.000000
    15  H    0.000000   0.000000   0.913430
 Mulliken charges:
               1
     1  C   -0.692726
     2  C    0.483067
     3  O   -0.666490
     4  C    0.099606
     5  C   -0.382721
     6  H    0.175898
     7  H    0.164275
     8  H    0.174852
     9  N   -0.324915
    10  H    0.223765
    11  H    0.223770
    12  H    0.126780
    13  H    0.126102
    14  H    0.182167
    15  H    0.086570
 Sum of Mulliken charges =  -0.00000
 Mulliken charges with hydrogens summed into heavy atoms:
               1
     1  C   -0.510559
     2  C    0.569638
     3  O   -0.666490
     4  C    0.352488
     5  C    0.132304
     9  N    0.122619
 Charge=             -0.0000 electrons
 Dipole moment (field-independent basis, Debye):
    X=             10.9746    Y=             -0.7611    Z=              0.8920  Tot=             11.0371
 N-N= 1.522731376468D+02 E-N=-2.161848309937D+02  KE=-6.462850285589D+01
 Unable to Open any file for archive entry.
 1\1\GINC-NODE-004\SP\RPM6\ZDO\C4H9N1O1\TLA25\29-Jul-2023\0\\# pm6 scrf
 =(iefpcm, solvent=water)\\MA1_1_b3lyp.out,H,H,H,H\\0,1\C,0,-0.4766,-1.
 0855,-0.3955\C,0,-1.5032,-0.1277,-0.8447\O,0,-2.6914,-0.3079,-0.6079\C
 ,0,0.83,-0.853,-0.6423\C,0,3.0848,0.6364,0.7253\H,0,3.2434,1.3456,-0.0
 918\H,0,3.281,1.1419,1.6752\H,0,3.7912,-0.1906,0.6126\N,0,1.708,0.1299
 ,0.691\H,0,1.0968,0.9295,0.8851\H,0,1.5924,-0.4592,1.5229\H,0,1.527,-1
 .6817,-0.4735\H,0,1.111,-0.0769,-1.3631\H,0,-0.8201,-1.9596,0.1428\H,0
 ,-1.1411,0.7549,-1.3973\\Version=ES64L-G16RevC.01\State=1-A\HF=-0.0282
 378\RMSD=4.601e-09\Dipole=4.0924607,1.0967069,0.9512373\PG=C01 [X(C4H9
 N1O1)]\\@
 The archive entry for this job was punched.


 THE FIRST MORNING OF CREATION WROTE WHAT THE LAST DAWN OF
 RECKONING SHALL READ. -- OMAR KHAYYAM
 Job cpu time:       0 days  0 hours  0 minutes 15.4 seconds.
 Elapsed time:       0 days  0 hours  0 minutes  1.4 seconds.
 File lengths (MBytes):  RWF=     35 Int=      0 D2E=      0 Chk=      2 Scr=      1
 Normal termination of Gaussian 16 at Sat Jul 29 12:00:01 2023.
