 Entering Gaussian System, Link 0=g16
 Initial command:
 /apps/gaussian/g16/C.01/g16/l1.exe "/local/jobs/762010/Gau-1255612.inp" -scrdir="/local/jobs/762010/"
 Default is to use a total of  12 processors:
                               12 via shared-memory
                                1 via Linda
 Entering Link 1 = /apps/gaussian/g16/C.01/g16/l1.exe PID=   1255616.
  
 Copyright (c) 1988-2019, Gaussian, Inc.  All Rights Reserved.
  
 This is part of the Gaussian(R) 16 program.  It is based on
 the Gaussian(R) 09 system (copyright 2009, Gaussian, Inc.),
 the Gaussian(R) 03 system (copyright 2003, Gaussian, Inc.),
 the Gaussian(R) 98 system (copyright 1998, Gaussian, Inc.),
 the Gaussian(R) 94 system (copyright 1995, Gaussian, Inc.),
 the Gaussian 92(TM) system (copyright 1992, Gaussian, Inc.),
 the Gaussian 90(TM) system (copyright 1990, Gaussian, Inc.),
 the Gaussian 88(TM) system (copyright 1988, Gaussian, Inc.),
 the Gaussian 86(TM) system (copyright 1986, Carnegie Mellon
 University), and the Gaussian 82(TM) system (copyright 1983,
 Carnegie Mellon University). Gaussian is a federally registered
 trademark of Gaussian, Inc.
  
 This software contains proprietary and confidential information,
 including trade secrets, belonging to Gaussian, Inc.
  
 This software is provided under written license and may be
 used, copied, transmitted, or stored only in accord with that
 written license.
  
 The following legend is applicable only to US Government
 contracts under FAR:
  
                    RESTRICTED RIGHTS LEGEND
  
 Use, reproduction and disclosure by the US Government is
 subject to restrictions as set forth in subparagraphs (a)
 and (c) of the Commercial Computer Software - Restricted
 Rights clause in FAR 52.227-19.
  
 Gaussian, Inc.
 340 Quinnipiac St., Bldg. 40, Wallingford CT 06492
  
  
 ---------------------------------------------------------------
 Warning -- This program may not be used in any manner that
 competes with the business of Gaussian, Inc. or will provide
 assistance to any competitor of Gaussian, Inc.  The licensee
 of this program is prohibited from giving any competitor of
 Gaussian, Inc. access to this program.  By using this program,
 the user acknowledges that Gaussian, Inc. is engaged in the
 business of creating and licensing software in the field of
 computational chemistry and represents and warrants to the
 licensee that it is not a competitor of Gaussian, Inc. and that
 it will not use this program in any manner prohibited above.
 ---------------------------------------------------------------
  

 Cite this work as:
 Gaussian 16, Revision C.01,
 M. J. Frisch, G. W. Trucks, H. B. Schlegel, G. E. Scuseria, 
 M. A. Robb, J. R. Cheeseman, G. Scalmani, V. Barone, 
 G. A. Petersson, H. Nakatsuji, X. Li, M. Caricato, A. V. Marenich, 
 J. Bloino, B. G. Janesko, R. Gomperts, B. Mennucci, H. P. Hratchian, 
 J. V. Ortiz, A. F. Izmaylov, J. L. Sonnenberg, D. Williams-Young, 
 F. Ding, F. Lipparini, F. Egidi, J. Goings, B. Peng, A. Petrone, 
 T. Henderson, D. Ranasinghe, V. G. Zakrzewski, J. Gao, N. Rega, 
 G. Zheng, W. Liang, M. Hada, M. Ehara, K. Toyota, R. Fukuda, 
 J. Hasegawa, M. Ishida, T. Nakajima, Y. Honda, O. Kitao, H. Nakai, 
 T. Vreven, K. Throssell, J. A. Montgomery, Jr., J. E. Peralta, 
 F. Ogliaro, M. J. Bearpark, J. J. Heyd, E. N. Brothers, K. N. Kudin, 
 V. N. Staroverov, T. A. Keith, R. Kobayashi, J. Normand, 
 K. Raghavachari, A. P. Rendell, J. C. Burant, S. S. Iyengar, 
 J. Tomasi, M. Cossi, J. M. Millam, M. Klene, C. Adamo, R. Cammi, 
 J. W. Ochterski, R. L. Martin, K. Morokuma, O. Farkas, 
 J. B. Foresman, and D. J. Fox, Gaussian, Inc., Wallingford CT, 2019.
 
 ******************************************
 Gaussian 16:  ES64L-G16RevC.01  3-Jul-2019
                29-Jul-2023 
 ******************************************
 %mem=48GB
 ----------------------------------
 # pm6 scrf=(iefpcm, solvent=water)
 ----------------------------------
 1/38=1,172=1/1;
 2/12=2,17=6,18=5,40=1/2;
 3/5=2,25=1,41=3900000,70=2201,72=1/1,2,3;
 4/35=1/1;
 5/5=2,35=1,38=5,53=1/2;
 6/7=2,8=2,9=2,10=2,28=1/1;
 99/5=1,9=1/99;
 ----------------------------
 MA1_1_b3lyp.out,H,Br,Ph,NHMe
 ----------------------------
 Symbolic Z-matrix:
 Charge =  0 Multiplicity = 1
 C                    -0.9426   -0.4822    0.2455 
 C                    -1.5756    0.5815   -0.5942 
 O                    -0.9283    1.4979   -1.0889 
 C                    -0.1081   -0.122     1.26 
 C                     2.6218   -1.0643    0.1777 
 H                     3.5135   -0.5843   -0.2353 
 H                     2.9099   -1.6492    1.0554 
 H                     2.2078   -1.7426   -0.5731 
 N                     1.6267   -0.056     0.5523 
 H                     2.0981    0.6134    1.1726 
 H                     1.4511    0.5131   -0.2904 
 H                     0.2663   -0.8837    1.9516 
 Br                   -0.2725    1.5615    2.1636 
 C                    -1.1285   -1.9099   -0.0981 
 C                    -0.9455   -2.344    -1.4191 
 C                    -1.1402   -3.684    -1.7606 
 C                    -1.5241   -4.6034   -0.7866 
 C                    -1.7142   -4.1849    0.5288 
 C                    -1.5195   -2.845     0.872 
 H                    -0.6381   -1.6414   -2.1919 
 H                    -0.989    -4.0092   -2.7868 
 H                    -1.6739   -5.6468   -1.0528 
 H                    -2.0146   -4.9018    1.2888 
 H                    -1.6821   -2.538     1.903 
 N                    -2.9252    0.3956   -0.7877 
 C                    -3.6828    1.2591   -1.654 
 H                    -3.3575   -0.4504   -0.4396 
 H                    -3.3487    2.2949   -1.5502 
 H                    -3.5367    0.9311   -2.6865 
 H                    -4.7392    1.1795   -1.3876 
 
                          Input orientation:                          
 ---------------------------------------------------------------------
 Center     Atomic      Atomic             Coordinates (Angstroms)
 Number     Number       Type             X           Y           Z
 ---------------------------------------------------------------------
      1          6           0       -0.942600   -0.482200    0.245500
      2          6           0       -1.575600    0.581500   -0.594200
      3          8           0       -0.928300    1.497900   -1.088900
      4          6           0       -0.108100   -0.122000    1.260000
      5          6           0        2.621800   -1.064300    0.177700
      6          1           0        3.513500   -0.584300   -0.235300
      7          1           0        2.909900   -1.649200    1.055400
      8          1           0        2.207800   -1.742600   -0.573100
      9          7           0        1.626700   -0.056000    0.552300
     10          1           0        2.098100    0.613400    1.172600
     11          1           0        1.451100    0.513100   -0.290400
     12          1           0        0.266300   -0.883700    1.951600
     13         35           0       -0.272500    1.561500    2.163600
     14          6           0       -1.128500   -1.909900   -0.098100
     15          6           0       -0.945500   -2.344000   -1.419100
     16          6           0       -1.140200   -3.684000   -1.760600
     17          6           0       -1.524100   -4.603400   -0.786600
     18          6           0       -1.714200   -4.184900    0.528800
     19          6           0       -1.519500   -2.845000    0.872000
     20          1           0       -0.638100   -1.641400   -2.191900
     21          1           0       -0.989000   -4.009200   -2.786800
     22          1           0       -1.673900   -5.646800   -1.052800
     23          1           0       -2.014600   -4.901800    1.288800
     24          1           0       -1.682100   -2.538000    1.903000
     25          7           0       -2.925200    0.395600   -0.787700
     26          6           0       -3.682800    1.259100   -1.654000
     27          1           0       -3.357500   -0.450400   -0.439600
     28          1           0       -3.348700    2.294900   -1.550200
     29          1           0       -3.536700    0.931100   -2.686500
     30          1           0       -4.739200    1.179500   -1.387600
 ---------------------------------------------------------------------
                    Distance matrix (angstroms):
                    1          2          3          4          5
     1  C    0.000000
     2  C    1.495742   0.000000
     3  O    2.387807   1.226179   0.000000
     4  C    1.362110   2.467089   2.968861   0.000000
     5  C    3.612255   4.574129   4.557670   3.084097   0.000000
     6  H    4.483126   5.233244   4.979335   3.945330   1.093663
     7  H    4.106042   5.274174   5.406851   3.388587   1.093374
     8  H    3.490521   4.440270   4.538944   3.368975   1.093246
     9  N    2.622418   3.460577   3.411183   1.874760   1.465339
    10  H    3.362397   4.076600   3.880183   2.327181   2.019595
    11  H    2.647189   3.042677   2.696104   2.288711   2.019368
    12  H    2.129183   3.467060   4.042738   1.094839   2.954271
    13  Br   2.881814   3.203737   3.318565   1.917731   4.383560
    14  C    1.480185   2.579358   3.554556   2.466219   3.854329
    15  C    2.497439   3.104197   3.856102   3.579958   4.112546
    16  C    3.783518   4.443484   5.229548   4.783001   4.977196
    17  C    4.288084   5.188724   6.137770   5.126068   5.535665
    18  C    3.792837   4.898868   5.960605   4.429601   5.353719
    19  C    2.511601   3.727438   4.801607   3.091492   4.561065
    20  H    2.716134   2.893585   3.340064   3.808555   4.071240
    21  H    4.651529   5.121144   5.763220   5.680044   5.522551
    22  H    5.375265   6.245934   7.183590   6.190653   6.400506
    23  H    4.665889   5.814206   6.913007   5.146072   6.120225
    24  H    2.742349   3.997328   5.080174   2.954316   4.865389
    25  N    2.401820   1.376016   2.300738   3.520943   5.816572
    26  C    3.761505   2.454101   2.821991   4.814282   6.964287
    27  H    2.510401   2.064918   3.180955   3.681723   6.042347
    28  H    4.089760   2.644534   2.589661   4.923425   7.065178
    29  H    4.162138   2.888919   3.110842   5.332840   7.079010
    30  H    4.454485   3.315939   3.835826   5.490972   7.852969
                    6          7          8          9         10
     6  H    0.000000
     7  H    1.778834   0.000000
     8  H    1.777813   1.775860   0.000000
     9  N    2.111736   2.106656   2.109223   0.000000
    10  H    2.328095   2.406681   2.934321   1.027174   0.000000
    11  H    2.336839   2.935101   2.395975   1.031917   1.602822
    12  H    3.926383   2.894440   3.298673   2.119862   2.490711
    13  Br   4.969203   4.654500   4.955653   2.969773   2.738744
    14  C    4.829514   4.207993   3.374094   3.383946   4.288668
    15  C    4.937672   4.633574   3.319744   3.967061   4.972587
    16  C    5.795826   5.336064   4.048246   5.115430   6.128450
    17  C    6.467960   5.637430   4.707105   5.692016   6.646337
    18  C    6.393514   5.299942   4.749852   5.311307   6.162126
    19  C    5.627430   4.591640   4.146850   4.216551   5.013773
    20  H    4.709727   4.809711   3.275653   3.895311   4.887819
    21  H    6.205852   5.961000   4.500830   5.798212   6.824622
    22  H    7.294267   6.437122   5.526345   6.687851   7.640058
    23  H    7.177993   5.906317   5.592484   6.106003   6.880787
    24  H    5.948406   4.753405   4.679215   4.351192   4.975411
    25  N    6.536223   6.451869   5.564678   4.766480   5.396643
    26  C    7.562907   7.698230   6.699083   5.898139   6.467256
    27  H    6.875341   6.553812   5.714907   5.097221   5.787437
    28  H    7.557019   7.843159   6.937638   5.890827   6.317334
    29  H    7.616439   7.887865   6.679402   6.174536   6.836999
    30  H    8.517385   8.513432   7.580428   6.768630   7.322825
                   11         12         13         14         15
    11  H    0.000000
    12  H    2.895059   0.000000
    13  Br   3.176800   2.512818   0.000000
    14  C    3.544326   2.683249   4.230679   0.000000
    15  C    3.896239   3.868146   5.342434   1.402488   0.000000
    16  C    5.147035   4.858019   6.608140   2.431352   1.396471
    17  C    5.939411   4.953730   6.948106   2.808109   2.416552
    18  C    5.723759   4.104225   6.145908   2.431393   2.788212
    19  C    4.631682   2.863794   4.758202   1.402992   2.414460
    20  H    3.552792   4.308206   5.418728   2.167160   1.088743
    21  H    5.712906   5.813516   7.486824   3.414034   2.155316
    22  H    6.949190   5.956334   8.016779   3.895297   3.401945
    23  H    6.620128   4.667648   6.750884   3.414693   3.875311
    24  H    4.892561   2.556430   4.342901   2.169190   3.408308
    25  N    4.406032   4.396140   4.135978   3.003167   3.438501
    26  C    5.364033   5.760845   5.127930   4.357503   4.531039
    27  H    4.906447   4.363200   4.510168   2.686113   3.219144
    28  H    5.272569   5.952674   4.877827   4.971743   5.226084
    29  H    5.549249   6.266441   5.880125   4.535474   4.364275
    30  H    6.322005   6.360981   5.719122   4.923856   5.177664
                   16         17         18         19         20
    16  C    0.000000
    17  C    1.393324   0.000000
    18  C    2.412826   1.393398   0.000000
    19  C    2.788973   2.417219   1.396791   0.000000
    20  H    2.147170   3.396072   3.876802   3.407786   0.000000
    21  H    1.087062   2.154114   3.398527   3.876030   2.466478
    22  H    2.153695   1.087192   2.154120   3.402760   4.291114
    23  H    3.398007   2.153350   1.087100   2.156217   4.963893
    24  H    3.876717   3.394818   2.145166   1.087956   4.319958
    25  N    4.558058   5.191636   4.917385   3.902830   3.369269
    26  C    5.559714   6.307240   6.186852   5.282441   4.239391
    27  H    4.137346   4.552930   4.193414   3.291299   3.447343
    28  H    6.377224   7.176266   6.998688   5.969221   4.822198
    29  H    5.282012   6.187962   6.311348   5.566952   3.906951
    30  H    6.061812   6.643794   6.449806   5.627509   5.042162
                   21         22         23         24         25
    21  H    0.000000
    22  H    2.481447   0.000000
    23  H    4.296406   2.480764   0.000000
    24  H    4.963773   4.289692   2.464822   0.000000
    25  N    5.210330   6.176296   5.762247   4.170273   0.000000
    26  C    6.024515   7.217242   7.028489   5.574318   1.438772
    27  H    4.876905   5.496644   4.960414   3.557079   1.011817
    28  H    6.843905   8.131603   7.850620   6.169203   2.090000
    29  H    5.559442   7.029066   7.220978   6.044643   2.065462
    30  H    6.553195   7.490429   7.181140   5.830413   2.065182
                   26         27         28         29         30
    26  C    0.000000
    27  H    2.122022   0.000000
    28  H    1.093288   2.961449   0.000000
    29  H    1.093154   2.643712   1.785069   0.000000
    30  H    1.092376   2.337600   1.789985   1.787414   0.000000
 Stoichiometry    C11H15BrN2O
 Framework group  C1[X(C11H15BrN2O)]
 Deg. of freedom    84
 Full point group                 C1      NOp   1
 Largest Abelian subgroup         C1      NOp   1
 Largest concise Abelian subgroup C1      NOp   1
                         Standard orientation:                         
 ---------------------------------------------------------------------
 Center     Atomic      Atomic             Coordinates (Angstroms)
 Number     Number       Type             X           Y           Z
 ---------------------------------------------------------------------
      1          6           0        0.061772    0.162216   -0.059875
      2          6           0       -0.400737    1.455836    0.531628
      3          8           0       -1.154285    1.502537    1.497806
      4          6           0       -0.853672   -0.805018   -0.345820
      5          6           0       -0.177655   -2.940691    1.773981
      6          1           0       -0.631182   -3.300643    2.701799
      7          1           0       -0.079376   -3.779895    1.080047
      8          1           0        0.820184   -2.553824    1.997228
      9          7           0       -1.005463   -1.890117    1.175444
     10          1           0       -1.954934   -2.271798    1.086502
     11          1           0       -1.128688   -1.163602    1.897833
     12          1           0       -0.541880   -1.705518   -0.884854
     13         35           0       -2.677897   -0.387462   -0.764800
     14          6           0        1.508336   -0.106675   -0.221425
     15          6           0        2.390431    0.133350    0.842186
     16          6           0        3.760311   -0.094496    0.695055
     17          6           0        4.263665   -0.560337   -0.517784
     18          6           0        3.399240   -0.798390   -1.584394
     19          6           0        2.028757   -0.571306   -1.438662
     20          1           0        2.014273    0.490022    1.799605
     21          1           0        4.432906    0.089375    1.529027
     22          1           0        5.330051   -0.739096   -0.631145
     23          1           0        3.791746   -1.160993   -2.531096
     24          1           0        1.372852   -0.755155   -2.286976
     25          7           0        0.139346    2.562680   -0.082072
     26          6           0       -0.107448    3.889618    0.416320
     27          1           0        0.842869    2.431186   -0.797291
     28          1           0       -1.141525    3.984351    0.758358
     29          1           0        0.571313    4.079206    1.251978
     30          1           0        0.086869    4.604651   -0.386335
 ---------------------------------------------------------------------
 Rotational constants (GHZ):           0.5707061           0.3130455           0.2543194
 Standard basis: VSTO-6G (5D, 7F)
 There are    81 symmetry adapted cartesian basis functions of A   symmetry.
 There are    80 symmetry adapted basis functions of A   symmetry.
    80 basis functions,   486 primitive gaussians,    81 cartesian basis functions
    41 alpha electrons       41 beta electrons
       nuclear repulsion energy       569.2406658798 Hartrees.
 Integral buffers will be    131072 words long.
 Regular integral format.
 Two-electron integral symmetry is turned off.
 ------------------------------------------------------------------------------
 Polarizable Continuum Model (PCM)
 =================================
 Model                : PCM.
 Atomic radii         : UFF (Universal Force Field).
 Polarization charges : Total charges.
 Charge compensation  : None.
 Solution method      : On-the-fly selection.
 Cavity type          : Scaled VdW (van der Waals Surface) (Alpha=1.100).
 Cavity algorithm     : GePol (No added spheres)
                        Default sphere list used, NSphG=   30.
                        Lebedev-Laikov grids with approx.  5.0 points / Ang**2.
                        Smoothing algorithm: York/Karplus (Gamma=1.0000).
                        Polarization charges: spherical gaussians, with
                                              point-specific exponents (IZeta= 3).
                        Self-potential: point-specific (ISelfS= 7).
                        Self-field    : sphere-specific E.n sum rule (ISelfD= 2).
 Solvent              : Water, Eps=  78.355300 Eps(inf)=   1.777849
 ------------------------------------------------------------------------------
 Do NDO integrals.
 One-electron integrals computed using PRISM.
 NBasis=    80 RedAO= F EigKep=  0.00D+00  NBF=    80
 NBsUse=    80 1.00D-04 EigRej=  0.00D+00 NBFU=    80
 Nonelectrostatic core Hamiltonian diagonalized for initial guess.
 Keep J ints in memory in canonical form, NReq=2253445.
 Overlap will be assumed to be unity.
 Requested convergence on RMS density matrix=1.00D-08 within 128 cycles.
 Requested convergence on MAX density matrix=1.00D-06.
 Requested convergence on             energy=1.00D-06.
 No special actions if energy rises.
 Inv3:  Mode=1 IEnd=    17612787.
 Iteration    1 A*A^-1 deviation from unit magnitude is 3.33D-15 for    254.
 Iteration    1 A*A^-1 deviation from orthogonality  is 2.05D-15 for   1758    175.
 Iteration    1 A^-1*A deviation from unit magnitude is 3.66D-15 for    254.
 Iteration    1 A^-1*A deviation from orthogonality  is 1.48D-11 for   1700   1674.
 Error on total polarization charges = -0.00037
 SCF Done:  E(RPM6) = -0.133437445372E-01 A.U. after   20 cycles
            NFock= 19  Conv=0.95D-08     -V/T= 0.9999

 **********************************************************************

            Population analysis using the SCF Density.

 **********************************************************************

 Orbital symmetries:
       Occupied  (A) (A) (A) (A) (A) (A) (A) (A) (A) (A) (A) (A)
                 (A) (A) (A) (A) (A) (A) (A) (A) (A) (A) (A) (A)
                 (A) (A) (A) (A) (A) (A) (A) (A) (A) (A) (A) (A)
                 (A) (A) (A) (A) (A)
       Virtual   (A) (A) (A) (A) (A) (A) (A) (A) (A) (A) (A) (A)
                 (A) (A) (A) (A) (A) (A) (A) (A) (A) (A) (A) (A)
                 (A) (A) (A) (A) (A) (A) (A) (A) (A) (A) (A) (A)
                 (A) (A) (A)
 The electronic state is 1-A.
 Alpha  occ. eigenvalues --   -1.21069  -1.19227  -1.12229  -1.10160  -1.03779
 Alpha  occ. eigenvalues --   -0.99809  -0.95787  -0.93863  -0.93240  -0.88432
 Alpha  occ. eigenvalues --   -0.81431  -0.78512  -0.77649  -0.73129  -0.66588
 Alpha  occ. eigenvalues --   -0.66269  -0.61899  -0.61082  -0.59728  -0.59442
 Alpha  occ. eigenvalues --   -0.57215  -0.56564  -0.55535  -0.54508  -0.53119
 Alpha  occ. eigenvalues --   -0.52559  -0.50915  -0.49773  -0.49183  -0.48822
 Alpha  occ. eigenvalues --   -0.48205  -0.46835  -0.44489  -0.44125  -0.41608
 Alpha  occ. eigenvalues --   -0.41185  -0.39739  -0.36851  -0.36252  -0.36238
 Alpha  occ. eigenvalues --   -0.31639
 Alpha virt. eigenvalues --   -0.01994   0.00431   0.00670   0.01752   0.05096
 Alpha virt. eigenvalues --    0.07158   0.09416   0.11925   0.13379   0.14359
 Alpha virt. eigenvalues --    0.15722   0.16283   0.17412   0.17727   0.17891
 Alpha virt. eigenvalues --    0.18226   0.18426   0.18649   0.18897   0.19135
 Alpha virt. eigenvalues --    0.19354   0.19798   0.19803   0.20034   0.20589
 Alpha virt. eigenvalues --    0.21178   0.21547   0.22162   0.22225   0.22381
 Alpha virt. eigenvalues --    0.22871   0.23010   0.23219   0.24165   4.15943
 Alpha virt. eigenvalues --    4.16085   4.16543   4.16662   4.16874
          Condensed to atoms (all electrons):
               1          2          3          4          5          6
     1  C    4.554770   0.000000   0.000000   0.000000   0.000000   0.000000
     2  C    0.000000   3.335962   0.000000   0.000000   0.000000   0.000000
     3  O    0.000000   0.000000   6.681746   0.000000   0.000000   0.000000
     4  C    0.000000   0.000000   0.000000   3.779037   0.000000   0.000000
     5  C    0.000000   0.000000   0.000000   0.000000   4.372369   0.000000
     6  H    0.000000   0.000000   0.000000   0.000000   0.000000   0.835501
     7  H    0.000000   0.000000   0.000000   0.000000   0.000000   0.000000
     8  H    0.000000   0.000000   0.000000   0.000000   0.000000   0.000000
     9  N    0.000000   0.000000   0.000000   0.000000   0.000000   0.000000
    10  H    0.000000   0.000000   0.000000   0.000000   0.000000   0.000000
    11  H    0.000000   0.000000   0.000000   0.000000   0.000000   0.000000
    12  H    0.000000   0.000000   0.000000   0.000000   0.000000   0.000000
    13  Br   0.000000   0.000000   0.000000   0.000000   0.000000   0.000000
    14  C    0.000000   0.000000   0.000000   0.000000   0.000000   0.000000
    15  C    0.000000   0.000000   0.000000   0.000000   0.000000   0.000000
    16  C    0.000000   0.000000   0.000000   0.000000   0.000000   0.000000
    17  C    0.000000   0.000000   0.000000   0.000000   0.000000   0.000000
    18  C    0.000000   0.000000   0.000000   0.000000   0.000000   0.000000
    19  C    0.000000   0.000000   0.000000   0.000000   0.000000   0.000000
    20  H    0.000000   0.000000   0.000000   0.000000   0.000000   0.000000
    21  H    0.000000   0.000000   0.000000   0.000000   0.000000   0.000000
    22  H    0.000000   0.000000   0.000000   0.000000   0.000000   0.000000
    23  H    0.000000   0.000000   0.000000   0.000000   0.000000   0.000000
    24  H    0.000000   0.000000   0.000000   0.000000   0.000000   0.000000
    25  N    0.000000   0.000000   0.000000   0.000000   0.000000   0.000000
    26  C    0.000000   0.000000   0.000000   0.000000   0.000000   0.000000
    27  H    0.000000   0.000000   0.000000   0.000000   0.000000   0.000000
    28  H    0.000000   0.000000   0.000000   0.000000   0.000000   0.000000
    29  H    0.000000   0.000000   0.000000   0.000000   0.000000   0.000000
    30  H    0.000000   0.000000   0.000000   0.000000   0.000000   0.000000
               7          8          9         10         11         12
     1  C    0.000000   0.000000   0.000000   0.000000   0.000000   0.000000
     2  C    0.000000   0.000000   0.000000   0.000000   0.000000   0.000000
     3  O    0.000000   0.000000   0.000000   0.000000   0.000000   0.000000
     4  C    0.000000   0.000000   0.000000   0.000000   0.000000   0.000000
     5  C    0.000000   0.000000   0.000000   0.000000   0.000000   0.000000
     6  H    0.000000   0.000000   0.000000   0.000000   0.000000   0.000000
     7  H    0.825972   0.000000   0.000000   0.000000   0.000000   0.000000
     8  H    0.000000   0.824119   0.000000   0.000000   0.000000   0.000000
     9  N    0.000000   0.000000   5.334457   0.000000   0.000000   0.000000
    10  H    0.000000   0.000000   0.000000   0.777735   0.000000   0.000000
    11  H    0.000000   0.000000   0.000000   0.000000   0.767242   0.000000
    12  H    0.000000   0.000000   0.000000   0.000000   0.000000   0.836052
    13  Br   0.000000   0.000000   0.000000   0.000000   0.000000   0.000000
    14  C    0.000000   0.000000   0.000000   0.000000   0.000000   0.000000
    15  C    0.000000   0.000000   0.000000   0.000000   0.000000   0.000000
    16  C    0.000000   0.000000   0.000000   0.000000   0.000000   0.000000
    17  C    0.000000   0.000000   0.000000   0.000000   0.000000   0.000000
    18  C    0.000000   0.000000   0.000000   0.000000   0.000000   0.000000
    19  C    0.000000   0.000000   0.000000   0.000000   0.000000   0.000000
    20  H    0.000000   0.000000   0.000000   0.000000   0.000000   0.000000
    21  H    0.000000   0.000000   0.000000   0.000000   0.000000   0.000000
    22  H    0.000000   0.000000   0.000000   0.000000   0.000000   0.000000
    23  H    0.000000   0.000000   0.000000   0.000000   0.000000   0.000000
    24  H    0.000000   0.000000   0.000000   0.000000   0.000000   0.000000
    25  N    0.000000   0.000000   0.000000   0.000000   0.000000   0.000000
    26  C    0.000000   0.000000   0.000000   0.000000   0.000000   0.000000
    27  H    0.000000   0.000000   0.000000   0.000000   0.000000   0.000000
    28  H    0.000000   0.000000   0.000000   0.000000   0.000000   0.000000
    29  H    0.000000   0.000000   0.000000   0.000000   0.000000   0.000000
    30  H    0.000000   0.000000   0.000000   0.000000   0.000000   0.000000
              13         14         15         16         17         18
     1  C    0.000000   0.000000   0.000000   0.000000   0.000000   0.000000
     2  C    0.000000   0.000000   0.000000   0.000000   0.000000   0.000000
     3  O    0.000000   0.000000   0.000000   0.000000   0.000000   0.000000
     4  C    0.000000   0.000000   0.000000   0.000000   0.000000   0.000000
     5  C    0.000000   0.000000   0.000000   0.000000   0.000000   0.000000
     6  H    0.000000   0.000000   0.000000   0.000000   0.000000   0.000000
     7  H    0.000000   0.000000   0.000000   0.000000   0.000000   0.000000
     8  H    0.000000   0.000000   0.000000   0.000000   0.000000   0.000000
     9  N    0.000000   0.000000   0.000000   0.000000   0.000000   0.000000
    10  H    0.000000   0.000000   0.000000   0.000000   0.000000   0.000000
    11  H    0.000000   0.000000   0.000000   0.000000   0.000000   0.000000
    12  H    0.000000   0.000000   0.000000   0.000000   0.000000   0.000000
    13  Br   7.141802   0.000000   0.000000   0.000000   0.000000   0.000000
    14  C    0.000000   3.818429   0.000000   0.000000   0.000000   0.000000
    15  C    0.000000   0.000000   4.250856   0.000000   0.000000   0.000000
    16  C    0.000000   0.000000   0.000000   4.101417   0.000000   0.000000
    17  C    0.000000   0.000000   0.000000   0.000000   4.209626   0.000000
    18  C    0.000000   0.000000   0.000000   0.000000   0.000000   4.099876
    19  C    0.000000   0.000000   0.000000   0.000000   0.000000   0.000000
    20  H    0.000000   0.000000   0.000000   0.000000   0.000000   0.000000
    21  H    0.000000   0.000000   0.000000   0.000000   0.000000   0.000000
    22  H    0.000000   0.000000   0.000000   0.000000   0.000000   0.000000
    23  H    0.000000   0.000000   0.000000   0.000000   0.000000   0.000000
    24  H    0.000000   0.000000   0.000000   0.000000   0.000000   0.000000
    25  N    0.000000   0.000000   0.000000   0.000000   0.000000   0.000000
    26  C    0.000000   0.000000   0.000000   0.000000   0.000000   0.000000
    27  H    0.000000   0.000000   0.000000   0.000000   0.000000   0.000000
    28  H    0.000000   0.000000   0.000000   0.000000   0.000000   0.000000
    29  H    0.000000   0.000000   0.000000   0.000000   0.000000   0.000000
    30  H    0.000000   0.000000   0.000000   0.000000   0.000000   0.000000
              19         20         21         22         23         24
     1  C    0.000000   0.000000   0.000000   0.000000   0.000000   0.000000
     2  C    0.000000   0.000000   0.000000   0.000000   0.000000   0.000000
     3  O    0.000000   0.000000   0.000000   0.000000   0.000000   0.000000
     4  C    0.000000   0.000000   0.000000   0.000000   0.000000   0.000000
     5  C    0.000000   0.000000   0.000000   0.000000   0.000000   0.000000
     6  H    0.000000   0.000000   0.000000   0.000000   0.000000   0.000000
     7  H    0.000000   0.000000   0.000000   0.000000   0.000000   0.000000
     8  H    0.000000   0.000000   0.000000   0.000000   0.000000   0.000000
     9  N    0.000000   0.000000   0.000000   0.000000   0.000000   0.000000
    10  H    0.000000   0.000000   0.000000   0.000000   0.000000   0.000000
    11  H    0.000000   0.000000   0.000000   0.000000   0.000000   0.000000
    12  H    0.000000   0.000000   0.000000   0.000000   0.000000   0.000000
    13  Br   0.000000   0.000000   0.000000   0.000000   0.000000   0.000000
    14  C    0.000000   0.000000   0.000000   0.000000   0.000000   0.000000
    15  C    0.000000   0.000000   0.000000   0.000000   0.000000   0.000000
    16  C    0.000000   0.000000   0.000000   0.000000   0.000000   0.000000
    17  C    0.000000   0.000000   0.000000   0.000000   0.000000   0.000000
    18  C    0.000000   0.000000   0.000000   0.000000   0.000000   0.000000
    19  C    4.252034   0.000000   0.000000   0.000000   0.000000   0.000000
    20  H    0.000000   0.839153   0.000000   0.000000   0.000000   0.000000
    21  H    0.000000   0.000000   0.852643   0.000000   0.000000   0.000000
    22  H    0.000000   0.000000   0.000000   0.844551   0.000000   0.000000
    23  H    0.000000   0.000000   0.000000   0.000000   0.852344   0.000000
    24  H    0.000000   0.000000   0.000000   0.000000   0.000000   0.839003
    25  N    0.000000   0.000000   0.000000   0.000000   0.000000   0.000000
    26  C    0.000000   0.000000   0.000000   0.000000   0.000000   0.000000
    27  H    0.000000   0.000000   0.000000   0.000000   0.000000   0.000000
    28  H    0.000000   0.000000   0.000000   0.000000   0.000000   0.000000
    29  H    0.000000   0.000000   0.000000   0.000000   0.000000   0.000000
    30  H    0.000000   0.000000   0.000000   0.000000   0.000000   0.000000
              25         26         27         28         29         30
     1  C    0.000000   0.000000   0.000000   0.000000   0.000000   0.000000
     2  C    0.000000   0.000000   0.000000   0.000000   0.000000   0.000000
     3  O    0.000000   0.000000   0.000000   0.000000   0.000000   0.000000
     4  C    0.000000   0.000000   0.000000   0.000000   0.000000   0.000000
     5  C    0.000000   0.000000   0.000000   0.000000   0.000000   0.000000
     6  H    0.000000   0.000000   0.000000   0.000000   0.000000   0.000000
     7  H    0.000000   0.000000   0.000000   0.000000   0.000000   0.000000
     8  H    0.000000   0.000000   0.000000   0.000000   0.000000   0.000000
     9  N    0.000000   0.000000   0.000000   0.000000   0.000000   0.000000
    10  H    0.000000   0.000000   0.000000   0.000000   0.000000   0.000000
    11  H    0.000000   0.000000   0.000000   0.000000   0.000000   0.000000
    12  H    0.000000   0.000000   0.000000   0.000000   0.000000   0.000000
    13  Br   0.000000   0.000000   0.000000   0.000000   0.000000   0.000000
    14  C    0.000000   0.000000   0.000000   0.000000   0.000000   0.000000
    15  C    0.000000   0.000000   0.000000   0.000000   0.000000   0.000000
    16  C    0.000000   0.000000   0.000000   0.000000   0.000000   0.000000
    17  C    0.000000   0.000000   0.000000   0.000000   0.000000   0.000000
    18  C    0.000000   0.000000   0.000000   0.000000   0.000000   0.000000
    19  C    0.000000   0.000000   0.000000   0.000000   0.000000   0.000000
    20  H    0.000000   0.000000   0.000000   0.000000   0.000000   0.000000
    21  H    0.000000   0.000000   0.000000   0.000000   0.000000   0.000000
    22  H    0.000000   0.000000   0.000000   0.000000   0.000000   0.000000
    23  H    0.000000   0.000000   0.000000   0.000000   0.000000   0.000000
    24  H    0.000000   0.000000   0.000000   0.000000   0.000000   0.000000
    25  N    5.448055   0.000000   0.000000   0.000000   0.000000   0.000000
    26  C    0.000000   4.293253   0.000000   0.000000   0.000000   0.000000
    27  H    0.000000   0.000000   0.710774   0.000000   0.000000   0.000000
    28  H    0.000000   0.000000   0.000000   0.834477   0.000000   0.000000
    29  H    0.000000   0.000000   0.000000   0.000000   0.848031   0.000000
    30  H    0.000000   0.000000   0.000000   0.000000   0.000000   0.838713
 Mulliken charges:
               1
     1  C   -0.554770
     2  C    0.664038
     3  O   -0.681746
     4  C    0.220963
     5  C   -0.372369
     6  H    0.164499
     7  H    0.174028
     8  H    0.175881
     9  N   -0.334457
    10  H    0.222265
    11  H    0.232758
    12  H    0.163948
    13  Br  -0.141802
    14  C    0.181571
    15  C   -0.250856
    16  C   -0.101417
    17  C   -0.209626
    18  C   -0.099876
    19  C   -0.252034
    20  H    0.160847
    21  H    0.147357
    22  H    0.155449
    23  H    0.147656
    24  H    0.160997
    25  N   -0.448055
    26  C   -0.293253
    27  H    0.289226
    28  H    0.165523
    29  H    0.151969
    30  H    0.161287
 Sum of Mulliken charges =   0.00000
 Mulliken charges with hydrogens summed into heavy atoms:
               1
     1  C   -0.554770
     2  C    0.664038
     3  O   -0.681746
     4  C    0.384911
     5  C    0.142039
     9  N    0.120566
    13  Br  -0.141802
    14  C    0.181571
    15  C   -0.090008
    16  C    0.045940
    17  C   -0.054177
    18  C    0.047780
    19  C   -0.091037
    25  N   -0.158829
    26  C    0.185526
 Charge=              0.0000 electrons
 Dipole moment (field-independent basis, Debye):
    X=              1.9536    Y=             -4.0096    Z=             -0.2998  Tot=              4.4703
 N-N= 5.692406658798D+02 E-N=-9.423491368307D+02  KE=-1.431677702610D+02
 Unable to Open any file for archive entry.
 1\1\GINC-NODE-004\SP\RPM6\ZDO\C11H15Br1N2O1\TLA25\29-Jul-2023\0\\# pm6
  scrf=(iefpcm, solvent=water)\\MA1_1_b3lyp.out,H,Br,Ph,NHMe\\0,1\C,0,-
 0.9426,-0.4822,0.2455\C,0,-1.5756,0.5815,-0.5942\O,0,-0.9283,1.4979,-1
 .0889\C,0,-0.1081,-0.122,1.26\C,0,2.6218,-1.0643,0.1777\H,0,3.5135,-0.
 5843,-0.2353\H,0,2.9099,-1.6492,1.0554\H,0,2.2078,-1.7426,-0.5731\N,0,
 1.6267,-0.056,0.5523\H,0,2.0981,0.6134,1.1726\H,0,1.4511,0.5131,-0.290
 4\H,0,0.2663,-0.8837,1.9516\Br,0,-0.2725,1.5615,2.1636\C,0,-1.1285,-1.
 9099,-0.0981\C,0,-0.9455,-2.344,-1.4191\C,0,-1.1402,-3.684,-1.7606\C,0
 ,-1.5241,-4.6034,-0.7866\C,0,-1.7142,-4.1849,0.5288\C,0,-1.5195,-2.845
 ,0.872\H,0,-0.6381,-1.6414,-2.1919\H,0,-0.989,-4.0092,-2.7868\H,0,-1.6
 739,-5.6468,-1.0528\H,0,-2.0146,-4.9018,1.2888\H,0,-1.6821,-2.538,1.90
 3\N,0,-2.9252,0.3956,-0.7877\C,0,-3.6828,1.2591,-1.654\H,0,-3.3575,-0.
 4504,-0.4396\H,0,-3.3487,2.2949,-1.5502\H,0,-3.5367,0.9311,-2.6865\H,0
 ,-4.7392,1.1795,-1.3876\\Version=ES64L-G16RevC.01\State=1-A\HF=-0.0133
 437\RMSD=9.533e-09\Dipole=1.0515487,-1.3350824,0.4527635\PG=C01 [X(C11
 H15Br1N2O1)]\\@
 The archive entry for this job was punched.


 A warm smile is the universal language of kindness.
                             -- William Arthur Ward
 Job cpu time:       0 days  0 hours  0 minutes 29.0 seconds.
 Elapsed time:       0 days  0 hours  0 minutes  2.9 seconds.
 File lengths (MBytes):  RWF=    106 Int=      0 D2E=      0 Chk=      3 Scr=      1
 Normal termination of Gaussian 16 at Sat Jul 29 12:03:22 2023.
