 Entering Gaussian System, Link 0=g16
 Initial command:
 /apps/gaussian/g16/C.01/g16/l1.exe "/local/jobs/762010/Gau-1509266.inp" -scrdir="/local/jobs/762010/"
 Default is to use a total of  12 processors:
                               12 via shared-memory
                                1 via Linda
 Entering Link 1 = /apps/gaussian/g16/C.01/g16/l1.exe PID=   1509270.
  
 Copyright (c) 1988-2019, Gaussian, Inc.  All Rights Reserved.
  
 This is part of the Gaussian(R) 16 program.  It is based on
 the Gaussian(R) 09 system (copyright 2009, Gaussian, Inc.),
 the Gaussian(R) 03 system (copyright 2003, Gaussian, Inc.),
 the Gaussian(R) 98 system (copyright 1998, Gaussian, Inc.),
 the Gaussian(R) 94 system (copyright 1995, Gaussian, Inc.),
 the Gaussian 92(TM) system (copyright 1992, Gaussian, Inc.),
 the Gaussian 90(TM) system (copyright 1990, Gaussian, Inc.),
 the Gaussian 88(TM) system (copyright 1988, Gaussian, Inc.),
 the Gaussian 86(TM) system (copyright 1986, Carnegie Mellon
 University), and the Gaussian 82(TM) system (copyright 1983,
 Carnegie Mellon University). Gaussian is a federally registered
 trademark of Gaussian, Inc.
  
 This software contains proprietary and confidential information,
 including trade secrets, belonging to Gaussian, Inc.
  
 This software is provided under written license and may be
 used, copied, transmitted, or stored only in accord with that
 written license.
  
 The following legend is applicable only to US Government
 contracts under FAR:
  
                    RESTRICTED RIGHTS LEGEND
  
 Use, reproduction and disclosure by the US Government is
 subject to restrictions as set forth in subparagraphs (a)
 and (c) of the Commercial Computer Software - Restricted
 Rights clause in FAR 52.227-19.
  
 Gaussian, Inc.
 340 Quinnipiac St., Bldg. 40, Wallingford CT 06492
  
  
 ---------------------------------------------------------------
 Warning -- This program may not be used in any manner that
 competes with the business of Gaussian, Inc. or will provide
 assistance to any competitor of Gaussian, Inc.  The licensee
 of this program is prohibited from giving any competitor of
 Gaussian, Inc. access to this program.  By using this program,
 the user acknowledges that Gaussian, Inc. is engaged in the
 business of creating and licensing software in the field of
 computational chemistry and represents and warrants to the
 licensee that it is not a competitor of Gaussian, Inc. and that
 it will not use this program in any manner prohibited above.
 ---------------------------------------------------------------
  

 Cite this work as:
 Gaussian 16, Revision C.01,
 M. J. Frisch, G. W. Trucks, H. B. Schlegel, G. E. Scuseria, 
 M. A. Robb, J. R. Cheeseman, G. Scalmani, V. Barone, 
 G. A. Petersson, H. Nakatsuji, X. Li, M. Caricato, A. V. Marenich, 
 J. Bloino, B. G. Janesko, R. Gomperts, B. Mennucci, H. P. Hratchian, 
 J. V. Ortiz, A. F. Izmaylov, J. L. Sonnenberg, D. Williams-Young, 
 F. Ding, F. Lipparini, F. Egidi, J. Goings, B. Peng, A. Petrone, 
 T. Henderson, D. Ranasinghe, V. G. Zakrzewski, J. Gao, N. Rega, 
 G. Zheng, W. Liang, M. Hada, M. Ehara, K. Toyota, R. Fukuda, 
 J. Hasegawa, M. Ishida, T. Nakajima, Y. Honda, O. Kitao, H. Nakai, 
 T. Vreven, K. Throssell, J. A. Montgomery, Jr., J. E. Peralta, 
 F. Ogliaro, M. J. Bearpark, J. J. Heyd, E. N. Brothers, K. N. Kudin, 
 V. N. Staroverov, T. A. Keith, R. Kobayashi, J. Normand, 
 K. Raghavachari, A. P. Rendell, J. C. Burant, S. S. Iyengar, 
 J. Tomasi, M. Cossi, J. M. Millam, M. Klene, C. Adamo, R. Cammi, 
 J. W. Ochterski, R. L. Martin, K. Morokuma, O. Farkas, 
 J. B. Foresman, and D. J. Fox, Gaussian, Inc., Wallingford CT, 2019.
 
 ******************************************
 Gaussian 16:  ES64L-G16RevC.01  3-Jul-2019
                29-Jul-2023 
 ******************************************
 %mem=48GB
 ----------------------------------
 # pm6 scrf=(iefpcm, solvent=water)
 ----------------------------------
 1/38=1,172=1/1;
 2/12=2,17=6,18=5,40=1/2;
 3/5=2,25=1,41=3900000,70=2201,72=1/1,2,3;
 4/35=1/1;
 5/5=2,35=1,38=5,53=1/2;
 6/7=2,8=2,9=2,10=2,28=1/1;
 99/5=1,9=1/99;
 ---------------------------
 MA1_1_b3lyp.out,Cl,Me,Me,Me
 ---------------------------
 Symbolic Z-matrix:
 Charge =  0 Multiplicity = 1
 C                    -0.528    -1.2035    0.1484 
 C                    -1.4623   -0.0934   -0.1903 
 O                    -2.2232    0.3664    0.6593 
 C                     0.525    -0.9255    0.9752 
 C                     2.3482    0.7475   -0.9035 
 H                     3.3093    0.5764   -1.3968 
 H                     1.607     1.015    -1.6606 
 H                     2.4547    1.584    -0.2074 
 N                     1.924    -0.4597   -0.183 
 H                     1.9484   -1.2254   -0.8666 
 H                     2.7039   -0.7031    0.4439 
 Cl                    1.2888   -2.3408    1.8106 
 C                     0.5408    0.3147    1.8828 
 H                     0.2959    1.2306    1.3351 
 H                    -0.1788    0.1905    2.6995 
 H                     1.5295    0.4597    2.3337 
 C                    -0.8393   -2.5149   -0.5046 
 H                     0.0077   -3.2066   -0.4885 
 H                    -1.6841   -2.9941    0.0006 
 H                    -1.107    -2.3792   -1.5576 
 C                    -1.4661    0.4116   -1.6084 
 H                    -2.4148    0.1474   -2.0825 
 H                    -1.3383    1.4974   -1.6014 
 H                    -0.6481   -0.0243   -2.1879 
 
                          Input orientation:                          
 ---------------------------------------------------------------------
 Center     Atomic      Atomic             Coordinates (Angstroms)
 Number     Number       Type             X           Y           Z
 ---------------------------------------------------------------------
      1          6           0       -0.528000   -1.203500    0.148400
      2          6           0       -1.462300   -0.093400   -0.190300
      3          8           0       -2.223200    0.366400    0.659300
      4          6           0        0.525000   -0.925500    0.975200
      5          6           0        2.348200    0.747500   -0.903500
      6          1           0        3.309300    0.576400   -1.396800
      7          1           0        1.607000    1.015000   -1.660600
      8          1           0        2.454700    1.584000   -0.207400
      9          7           0        1.924000   -0.459700   -0.183000
     10          1           0        1.948400   -1.225400   -0.866600
     11          1           0        2.703900   -0.703100    0.443900
     12         17           0        1.288800   -2.340800    1.810600
     13          6           0        0.540800    0.314700    1.882800
     14          1           0        0.295900    1.230600    1.335100
     15          1           0       -0.178800    0.190500    2.699500
     16          1           0        1.529500    0.459700    2.333700
     17          6           0       -0.839300   -2.514900   -0.504600
     18          1           0        0.007700   -3.206600   -0.488500
     19          1           0       -1.684100   -2.994100    0.000600
     20          1           0       -1.107000   -2.379200   -1.557600
     21          6           0       -1.466100    0.411600   -1.608400
     22          1           0       -2.414800    0.147400   -2.082500
     23          1           0       -1.338300    1.497400   -1.601400
     24          1           0       -0.648100   -0.024300   -2.187900
 ---------------------------------------------------------------------
                    Distance matrix (angstroms):
                    1          2          3          4          5
     1  C    0.000000
     2  C    1.489952   0.000000
     3  O    2.366286   1.229717   0.000000
     4  C    1.367367   2.449519   3.053097   0.000000
     5  C    3.631174   3.966822   4.846161   3.106847   0.000000
     6  H    4.503394   4.967136   5.905946   3.954038   1.093770
     7  H    3.571057   3.579237   4.524715   3.447275   1.092764
     8  H    4.097957   4.261086   4.910852   3.379331   1.093449
     9  N    2.583673   3.406062   4.311749   1.874993   1.468468
    10  H    2.676427   3.656731   4.718521   2.346963   2.013340
    11  H    3.283732   4.258071   5.046439   2.253741   2.011529
    12  Cl   2.712402   4.077126   4.581328   1.812280   4.245735
    13  C    2.540750   2.911477   3.023131   1.536907   3.349250
    14  H    2.830532   2.677889   2.747619   2.197904   3.075167
    15  H    2.928018   3.174731   2.893601   2.171175   4.435943
    16  H    3.431483   3.953146   4.110362   2.184793   3.351502
    17  C    1.497694   2.520035   3.401725   2.564628   4.578486
    18  H    2.169107   3.455696   4.365855   2.759245   4.613575
    19  H    2.136507   2.915424   3.466623   3.179477   5.574622
    20  H    2.151266   2.687123   3.701198   3.345406   4.705583
    21  C    2.564162   1.505340   2.391173   3.525238   3.893404
    22  H    3.218984   2.132056   2.757198   4.375279   4.943312
    23  H    3.318621   2.130076   2.678241   3.997649   3.826186
    24  H    2.619778   2.158264   3.277214   3.491923   3.350100
                    6          7          8          9         10
     6  H    0.000000
     7  H    1.777579   0.000000
     8  H    1.777715   1.775992   0.000000
     9  N    2.113260   2.111523   2.111622   0.000000
    10  H    2.319406   2.401329   2.929780   1.026743   0.000000
    11  H    2.322026   2.929843   2.391050   1.029802   1.600309
    12  Cl   4.783293   4.838582   4.564614   2.813620   2.974322
    13  C    4.299867   3.766017   3.105330   2.603933   3.451441
    14  H    4.119689   3.277146   2.676680   2.795076   3.689197
    15  H    5.394018   4.783237   4.162599   3.626753   4.387120
    16  H    4.134965   4.033460   2.928692   2.708266   3.641011
    17  C    5.250051   4.447574   5.266853   3.458772   3.092754
    18  H    5.102613   4.664063   5.386713   3.363182   2.799005
    19  H    6.295653   5.446449   6.175106   4.413080   4.132238
    20  H    5.316496   4.347068   5.496881   3.842000   3.338294
    21  C    4.782926   3.132213   4.325505   3.779379   3.858607
    22  H    5.780964   4.135892   5.412195   4.775129   4.732917
    23  H    4.742393   2.985131   4.041978   4.060135   4.330816
    24  H    4.080159   2.538438   4.017011   3.290121   3.151236
                   11         12         13         14         15
    11  H    0.000000
    12  Cl   2.559773   0.000000
    13  C    2.790224   2.759782   0.000000
    14  H    3.214327   3.737225   1.094908   0.000000
    15  H    3.767786   3.058018   1.095559   1.780094   0.000000
    16  H    2.510511   2.859086   1.096295   1.764443   1.767645
    17  C    4.091031   3.149487   3.951075   4.324575   4.245198
    18  H    3.795573   2.770684   4.278646   4.805967   4.662447
    19  H    4.969883   3.541332   4.409197   4.852770   4.437529
    20  H    4.619337   4.133534   4.669978   4.833891   5.058440
    21  C    4.779476   5.182156   4.028091   3.526981   4.501558
    22  H    5.771234   5.921488   4.948451   4.494575   5.279117
    23  H    5.036351   5.768464   4.131519   3.371175   4.642216
    24  H    4.315443   5.010564   4.254292   3.857128   4.914576
                   16         17         18         19         20
    16  H    0.000000
    17  C    4.745040   0.000000
    18  H    4.870569   1.093671   0.000000
    19  H    5.263014   1.094782   1.773855   0.000000
    20  H    5.491148   1.094937   1.752176   1.771760   0.000000
    21  C    4.951372   3.189930   4.064189   3.772956   2.814267
    22  H    5.929406   3.472724   4.433809   3.839564   2.893021
    23  H    4.978565   4.189334   5.017756   4.781167   3.883741
    24  H    5.041931   3.012166   3.666752   3.831780   2.480609
                   21         22         23         24
    21  C    0.000000
    22  H    1.092979   0.000000
    23  H    1.093318   1.792431   0.000000
    24  H    1.093139   1.778150   1.770855   0.000000
 Stoichiometry    C7H14ClNO
 Framework group  C1[X(C7H14ClNO)]
 Deg. of freedom    66
 Full point group                 C1      NOp   1
 Largest Abelian subgroup         C1      NOp   1
 Largest concise Abelian subgroup C1      NOp   1
                         Standard orientation:                         
 ---------------------------------------------------------------------
 Center     Atomic      Atomic             Coordinates (Angstroms)
 Number     Number       Type             X           Y           Z
 ---------------------------------------------------------------------
      1          6           0       -0.469439   -0.701580   -0.315696
      2          6           0       -1.803252   -0.378825    0.264587
      3          8           0       -2.166598   -0.889812    1.322452
      4          6           0        0.640630   -0.223687    0.323878
      5          6           0        0.482161    2.802381   -0.361909
      6          1           0        1.059199    3.479005   -0.998730
      7          1           0       -0.568662    2.851680   -0.657673
      8          1           0        0.569541    3.136543    0.675554
      9          7           0        0.982317    1.428131   -0.494869
     10          1           0        0.974700    1.215858   -1.499400
     11          1           0        1.990506    1.473484   -0.289957
     12         17           0        2.204235   -1.064981   -0.039057
     13          6           0        0.599196    0.237939    1.789234
     14          1           0       -0.221972    0.936823    1.979147
     15          1           0        0.484666   -0.627231    2.451512
     16          1           0        1.529839    0.745817    2.068210
     17          6           0       -0.506174   -1.498006   -1.583546
     18          1           0        0.436523   -1.456031   -2.136427
     19          1           0       -0.727868   -2.546794   -1.361191
     20          1           0       -1.279433   -1.125037   -2.263141
     21          6           0       -2.695289    0.557047   -0.506426
     22          1           0       -3.558566    0.003004   -0.883777
     23          1           0       -3.024914    1.362665    0.155140
     24          1           0       -2.165987    1.004862   -1.351562
 ---------------------------------------------------------------------
 Rotational constants (GHZ):           1.2552322           0.8692651           0.7181874
 Standard basis: VSTO-6G (5D, 7F)
 There are    60 symmetry adapted cartesian basis functions of A   symmetry.
 There are    59 symmetry adapted basis functions of A   symmetry.
    59 basis functions,   360 primitive gaussians,    60 cartesian basis functions
    30 alpha electrons       30 beta electrons
       nuclear repulsion energy       355.3551584302 Hartrees.
 Integral buffers will be    131072 words long.
 Regular integral format.
 Two-electron integral symmetry is turned off.
 ------------------------------------------------------------------------------
 Polarizable Continuum Model (PCM)
 =================================
 Model                : PCM.
 Atomic radii         : UFF (Universal Force Field).
 Polarization charges : Total charges.
 Charge compensation  : None.
 Solution method      : On-the-fly selection.
 Cavity type          : Scaled VdW (van der Waals Surface) (Alpha=1.100).
 Cavity algorithm     : GePol (No added spheres)
                        Default sphere list used, NSphG=   24.
                        Lebedev-Laikov grids with approx.  5.0 points / Ang**2.
                        Smoothing algorithm: York/Karplus (Gamma=1.0000).
                        Polarization charges: spherical gaussians, with
                                              point-specific exponents (IZeta= 3).
                        Self-potential: point-specific (ISelfS= 7).
                        Self-field    : sphere-specific E.n sum rule (ISelfD= 2).
 Solvent              : Water, Eps=  78.355300 Eps(inf)=   1.777849
 ------------------------------------------------------------------------------
 Do NDO integrals.
 One-electron integrals computed using PRISM.
 NBasis=    59 RedAO= F EigKep=  0.00D+00  NBF=    59
 NBsUse=    59 1.00D-04 EigRej=  0.00D+00 NBFU=    59
 Nonelectrostatic core Hamiltonian diagonalized for initial guess.
 Keep J ints in memory in canonical form, NReq=2133018.
 Overlap will be assumed to be unity.
 Requested convergence on RMS density matrix=1.00D-08 within 128 cycles.
 Requested convergence on MAX density matrix=1.00D-06.
 Requested convergence on             energy=1.00D-06.
 No special actions if energy rises.
 Inv3:  Mode=1 IEnd=     9145548.
 Iteration    1 A*A^-1 deviation from unit magnitude is 2.89D-15 for   1267.
 Iteration    1 A*A^-1 deviation from orthogonality  is 3.00D-15 for   1293    188.
 Iteration    1 A^-1*A deviation from unit magnitude is 2.89D-15 for   1267.
 Iteration    1 A^-1*A deviation from orthogonality  is 2.55D-15 for    818     39.
 Error on total polarization charges = -0.00026
 SCF Done:  E(RPM6) = -0.828101560503E-01 A.U. after   18 cycles
            NFock= 17  Conv=0.61D-08     -V/T= 0.9992

 **********************************************************************

            Population analysis using the SCF Density.

 **********************************************************************

 Orbital symmetries:
       Occupied  (A) (A) (A) (A) (A) (A) (A) (A) (A) (A) (A) (A)
                 (A) (A) (A) (A) (A) (A) (A) (A) (A) (A) (A) (A)
                 (A) (A) (A) (A) (A) (A)
       Virtual   (A) (A) (A) (A) (A) (A) (A) (A) (A) (A) (A) (A)
                 (A) (A) (A) (A) (A) (A) (A) (A) (A) (A) (A) (A)
                 (A) (A) (A) (A) (A)
 The electronic state is 1-A.
 Alpha  occ. eigenvalues --   -1.18946  -1.14967  -1.04755  -0.99861  -0.96257
 Alpha  occ. eigenvalues --   -0.94559  -0.88998  -0.84500  -0.77216  -0.66827
 Alpha  occ. eigenvalues --   -0.63953  -0.61092  -0.59172  -0.58955  -0.57791
 Alpha  occ. eigenvalues --   -0.55145  -0.54432  -0.51850  -0.51618  -0.50124
 Alpha  occ. eigenvalues --   -0.48956  -0.48708  -0.48382  -0.47125  -0.46863
 Alpha  occ. eigenvalues --   -0.45137  -0.42076  -0.41519  -0.37756  -0.31019
 Alpha virt. eigenvalues --    0.00274   0.02880   0.04224   0.11473   0.12284
 Alpha virt. eigenvalues --    0.12388   0.15514   0.16721   0.17695   0.17801
 Alpha virt. eigenvalues --    0.18719   0.19158   0.19858   0.20007   0.20109
 Alpha virt. eigenvalues --    0.20180   0.20820   0.21640   0.21818   0.21954
 Alpha virt. eigenvalues --    0.22239   0.23615   0.23985   0.25206   3.29046
 Alpha virt. eigenvalues --    3.29275   3.29648   3.31630   3.31687
          Condensed to atoms (all electrons):
               1          2          3          4          5          6
     1  C    4.582054   0.000000   0.000000   0.000000   0.000000   0.000000
     2  C    0.000000   3.295301   0.000000   0.000000   0.000000   0.000000
     3  O    0.000000   0.000000   6.634924   0.000000   0.000000   0.000000
     4  C    0.000000   0.000000   0.000000   3.521904   0.000000   0.000000
     5  C    0.000000   0.000000   0.000000   0.000000   4.372526   0.000000
     6  H    0.000000   0.000000   0.000000   0.000000   0.000000   0.839069
     7  H    0.000000   0.000000   0.000000   0.000000   0.000000   0.000000
     8  H    0.000000   0.000000   0.000000   0.000000   0.000000   0.000000
     9  N    0.000000   0.000000   0.000000   0.000000   0.000000   0.000000
    10  H    0.000000   0.000000   0.000000   0.000000   0.000000   0.000000
    11  H    0.000000   0.000000   0.000000   0.000000   0.000000   0.000000
    12  Cl   0.000000   0.000000   0.000000   0.000000   0.000000   0.000000
    13  C    0.000000   0.000000   0.000000   0.000000   0.000000   0.000000
    14  H    0.000000   0.000000   0.000000   0.000000   0.000000   0.000000
    15  H    0.000000   0.000000   0.000000   0.000000   0.000000   0.000000
    16  H    0.000000   0.000000   0.000000   0.000000   0.000000   0.000000
    17  C    0.000000   0.000000   0.000000   0.000000   0.000000   0.000000
    18  H    0.000000   0.000000   0.000000   0.000000   0.000000   0.000000
    19  H    0.000000   0.000000   0.000000   0.000000   0.000000   0.000000
    20  H    0.000000   0.000000   0.000000   0.000000   0.000000   0.000000
    21  C    0.000000   0.000000   0.000000   0.000000   0.000000   0.000000
    22  H    0.000000   0.000000   0.000000   0.000000   0.000000   0.000000
    23  H    0.000000   0.000000   0.000000   0.000000   0.000000   0.000000
    24  H    0.000000   0.000000   0.000000   0.000000   0.000000   0.000000
               7          8          9         10         11         12
     1  C    0.000000   0.000000   0.000000   0.000000   0.000000   0.000000
     2  C    0.000000   0.000000   0.000000   0.000000   0.000000   0.000000
     3  O    0.000000   0.000000   0.000000   0.000000   0.000000   0.000000
     4  C    0.000000   0.000000   0.000000   0.000000   0.000000   0.000000
     5  C    0.000000   0.000000   0.000000   0.000000   0.000000   0.000000
     6  H    0.000000   0.000000   0.000000   0.000000   0.000000   0.000000
     7  H    0.825700   0.000000   0.000000   0.000000   0.000000   0.000000
     8  H    0.000000   0.825495   0.000000   0.000000   0.000000   0.000000
     9  N    0.000000   0.000000   5.343316   0.000000   0.000000   0.000000
    10  H    0.000000   0.000000   0.000000   0.771206   0.000000   0.000000
    11  H    0.000000   0.000000   0.000000   0.000000   0.781974   0.000000
    12  Cl   0.000000   0.000000   0.000000   0.000000   0.000000   7.245843
    13  C    0.000000   0.000000   0.000000   0.000000   0.000000   0.000000
    14  H    0.000000   0.000000   0.000000   0.000000   0.000000   0.000000
    15  H    0.000000   0.000000   0.000000   0.000000   0.000000   0.000000
    16  H    0.000000   0.000000   0.000000   0.000000   0.000000   0.000000
    17  C    0.000000   0.000000   0.000000   0.000000   0.000000   0.000000
    18  H    0.000000   0.000000   0.000000   0.000000   0.000000   0.000000
    19  H    0.000000   0.000000   0.000000   0.000000   0.000000   0.000000
    20  H    0.000000   0.000000   0.000000   0.000000   0.000000   0.000000
    21  C    0.000000   0.000000   0.000000   0.000000   0.000000   0.000000
    22  H    0.000000   0.000000   0.000000   0.000000   0.000000   0.000000
    23  H    0.000000   0.000000   0.000000   0.000000   0.000000   0.000000
    24  H    0.000000   0.000000   0.000000   0.000000   0.000000   0.000000
              13         14         15         16         17         18
     1  C    0.000000   0.000000   0.000000   0.000000   0.000000   0.000000
     2  C    0.000000   0.000000   0.000000   0.000000   0.000000   0.000000
     3  O    0.000000   0.000000   0.000000   0.000000   0.000000   0.000000
     4  C    0.000000   0.000000   0.000000   0.000000   0.000000   0.000000
     5  C    0.000000   0.000000   0.000000   0.000000   0.000000   0.000000
     6  H    0.000000   0.000000   0.000000   0.000000   0.000000   0.000000
     7  H    0.000000   0.000000   0.000000   0.000000   0.000000   0.000000
     8  H    0.000000   0.000000   0.000000   0.000000   0.000000   0.000000
     9  N    0.000000   0.000000   0.000000   0.000000   0.000000   0.000000
    10  H    0.000000   0.000000   0.000000   0.000000   0.000000   0.000000
    11  H    0.000000   0.000000   0.000000   0.000000   0.000000   0.000000
    12  Cl   0.000000   0.000000   0.000000   0.000000   0.000000   0.000000
    13  C    4.541296   0.000000   0.000000   0.000000   0.000000   0.000000
    14  H    0.000000   0.809849   0.000000   0.000000   0.000000   0.000000
    15  H    0.000000   0.000000   0.815594   0.000000   0.000000   0.000000
    16  H    0.000000   0.000000   0.000000   0.817467   0.000000   0.000000
    17  C    0.000000   0.000000   0.000000   0.000000   4.351070   0.000000
    18  H    0.000000   0.000000   0.000000   0.000000   0.000000   0.855251
    19  H    0.000000   0.000000   0.000000   0.000000   0.000000   0.000000
    20  H    0.000000   0.000000   0.000000   0.000000   0.000000   0.000000
    21  C    0.000000   0.000000   0.000000   0.000000   0.000000   0.000000
    22  H    0.000000   0.000000   0.000000   0.000000   0.000000   0.000000
    23  H    0.000000   0.000000   0.000000   0.000000   0.000000   0.000000
    24  H    0.000000   0.000000   0.000000   0.000000   0.000000   0.000000
              19         20         21         22         23         24
     1  C    0.000000   0.000000   0.000000   0.000000   0.000000   0.000000
     2  C    0.000000   0.000000   0.000000   0.000000   0.000000   0.000000
     3  O    0.000000   0.000000   0.000000   0.000000   0.000000   0.000000
     4  C    0.000000   0.000000   0.000000   0.000000   0.000000   0.000000
     5  C    0.000000   0.000000   0.000000   0.000000   0.000000   0.000000
     6  H    0.000000   0.000000   0.000000   0.000000   0.000000   0.000000
     7  H    0.000000   0.000000   0.000000   0.000000   0.000000   0.000000
     8  H    0.000000   0.000000   0.000000   0.000000   0.000000   0.000000
     9  N    0.000000   0.000000   0.000000   0.000000   0.000000   0.000000
    10  H    0.000000   0.000000   0.000000   0.000000   0.000000   0.000000
    11  H    0.000000   0.000000   0.000000   0.000000   0.000000   0.000000
    12  Cl   0.000000   0.000000   0.000000   0.000000   0.000000   0.000000
    13  C    0.000000   0.000000   0.000000   0.000000   0.000000   0.000000
    14  H    0.000000   0.000000   0.000000   0.000000   0.000000   0.000000
    15  H    0.000000   0.000000   0.000000   0.000000   0.000000   0.000000
    16  H    0.000000   0.000000   0.000000   0.000000   0.000000   0.000000
    17  C    0.000000   0.000000   0.000000   0.000000   0.000000   0.000000
    18  H    0.000000   0.000000   0.000000   0.000000   0.000000   0.000000
    19  H    0.861761   0.000000   0.000000   0.000000   0.000000   0.000000
    20  H    0.000000   0.858438   0.000000   0.000000   0.000000   0.000000
    21  C    0.000000   0.000000   4.640326   0.000000   0.000000   0.000000
    22  H    0.000000   0.000000   0.000000   0.802087   0.000000   0.000000
    23  H    0.000000   0.000000   0.000000   0.000000   0.804242   0.000000
    24  H    0.000000   0.000000   0.000000   0.000000   0.000000   0.803305
 Mulliken charges:
               1
     1  C   -0.582054
     2  C    0.704699
     3  O   -0.634924
     4  C    0.478096
     5  C   -0.372526
     6  H    0.160931
     7  H    0.174300
     8  H    0.174505
     9  N   -0.343316
    10  H    0.228794
    11  H    0.218026
    12  Cl  -0.245843
    13  C   -0.541296
    14  H    0.190151
    15  H    0.184406
    16  H    0.182533
    17  C   -0.351070
    18  H    0.144749
    19  H    0.138239
    20  H    0.141562
    21  C   -0.640326
    22  H    0.197913
    23  H    0.195758
    24  H    0.196695
 Sum of Mulliken charges =  -0.00000
 Mulliken charges with hydrogens summed into heavy atoms:
               1
     1  C   -0.582054
     2  C    0.704699
     3  O   -0.634924
     4  C    0.478096
     5  C    0.137210
     9  N    0.103504
    12  Cl  -0.245843
    13  C    0.015793
    17  C    0.073480
    21  C   -0.049960
 Charge=             -0.0000 electrons
 Dipole moment (field-independent basis, Debye):
    X=              2.6874    Y=              7.7587    Z=             -3.8132  Tot=              9.0532
 N-N= 3.553551584302D+02 E-N=-5.671194949082D+02  KE=-1.050951380124D+02
 Unable to Open any file for archive entry.
 1\1\GINC-NODE-004\SP\RPM6\ZDO\C7H14Cl1N1O1\TLA25\29-Jul-2023\0\\# pm6 
 scrf=(iefpcm, solvent=water)\\MA1_1_b3lyp.out,Cl,Me,Me,Me\\0,1\C,0,-0.
 528,-1.2035,0.1484\C,0,-1.4623,-0.0934,-0.1903\O,0,-2.2232,0.3664,0.65
 93\C,0,0.525,-0.9255,0.9752\C,0,2.3482,0.7475,-0.9035\H,0,3.3093,0.576
 4,-1.3968\H,0,1.607,1.015,-1.6606\H,0,2.4547,1.584,-0.2074\N,0,1.924,-
 0.4597,-0.183\H,0,1.9484,-1.2254,-0.8666\H,0,2.7039,-0.7031,0.4439\Cl,
 0,1.2888,-2.3408,1.8106\C,0,0.5408,0.3147,1.8828\H,0,0.2959,1.2306,1.3
 351\H,0,-0.1788,0.1905,2.6995\H,0,1.5295,0.4597,2.3337\C,0,-0.8393,-2.
 5149,-0.5046\H,0,0.0077,-3.2066,-0.4885\H,0,-1.6841,-2.9941,0.0006\H,0
 ,-1.107,-2.3792,-1.5576\C,0,-1.4661,0.4116,-1.6084\H,0,-2.4148,0.1474,
 -2.0825\H,0,-1.3383,1.4974,-1.6014\H,0,-0.6481,-0.0243,-2.1879\\Versio
 n=ES64L-G16RevC.01\State=1-A\HF=-0.0828102\RMSD=6.093e-09\Dipole=2.914
 8245,0.6991058,-1.9239258\PG=C01 [X(C7H14Cl1N1O1)]\\@
 The archive entry for this job was punched.


 THE CAUTIOUS SELDOM ERR...CONFUCIUS                   
 Job cpu time:       0 days  0 hours  0 minutes 19.0 seconds.
 Elapsed time:       0 days  0 hours  0 minutes  1.8 seconds.
 File lengths (MBytes):  RWF=     59 Int=      0 D2E=      0 Chk=      2 Scr=      1
 Normal termination of Gaussian 16 at Sat Jul 29 12:31:28 2023.
