Unloading slurm/anatra/current
  ERROR: No such file or directory on
    '/cm/local/modulefiles/slurm/anatra/current'
environment: line 0: unalias: gv: not found
environment: line 0: unalias: sl: not found
 Entering Gaussian System, Link 0=g16
 Initial command:
 /apps/gaussian/g16/C.01/g16/l1.exe "/local/jobs/1157674/Gau-344929.inp" -scrdir="/local/jobs/1157674/"
 Entering Link 1 = /apps/gaussian/g16/C.01/g16/l1.exe PID=    344930.
  
 Copyright (c) 1988-2019, Gaussian, Inc.  All Rights Reserved.
  
 This is part of the Gaussian(R) 16 program.  It is based on
 the Gaussian(R) 09 system (copyright 2009, Gaussian, Inc.),
 the Gaussian(R) 03 system (copyright 2003, Gaussian, Inc.),
 the Gaussian(R) 98 system (copyright 1998, Gaussian, Inc.),
 the Gaussian(R) 94 system (copyright 1995, Gaussian, Inc.),
 the Gaussian 92(TM) system (copyright 1992, Gaussian, Inc.),
 the Gaussian 90(TM) system (copyright 1990, Gaussian, Inc.),
 the Gaussian 88(TM) system (copyright 1988, Gaussian, Inc.),
 the Gaussian 86(TM) system (copyright 1986, Carnegie Mellon
 University), and the Gaussian 82(TM) system (copyright 1983,
 Carnegie Mellon University). Gaussian is a federally registered
 trademark of Gaussian, Inc.
  
 This software contains proprietary and confidential information,
 including trade secrets, belonging to Gaussian, Inc.
  
 This software is provided under written license and may be
 used, copied, transmitted, or stored only in accord with that
 written license.
  
 The following legend is applicable only to US Government
 contracts under FAR:
  
                    RESTRICTED RIGHTS LEGEND
  
 Use, reproduction and disclosure by the US Government is
 subject to restrictions as set forth in subparagraphs (a)
 and (c) of the Commercial Computer Software - Restricted
 Rights clause in FAR 52.227-19.
  
 Gaussian, Inc.
 340 Quinnipiac St., Bldg. 40, Wallingford CT 06492
  
  
 ---------------------------------------------------------------
 Warning -- This program may not be used in any manner that
 competes with the business of Gaussian, Inc. or will provide
 assistance to any competitor of Gaussian, Inc.  The licensee
 of this program is prohibited from giving any competitor of
 Gaussian, Inc. access to this program.  By using this program,
 the user acknowledges that Gaussian, Inc. is engaged in the
 business of creating and licensing software in the field of
 computational chemistry and represents and warrants to the
 licensee that it is not a competitor of Gaussian, Inc. and that
 it will not use this program in any manner prohibited above.
 ---------------------------------------------------------------
  

 Cite this work as:
 Gaussian 16, Revision C.01,
 M. J. Frisch, G. W. Trucks, H. B. Schlegel, G. E. Scuseria, 
 M. A. Robb, J. R. Cheeseman, G. Scalmani, V. Barone, 
 G. A. Petersson, H. Nakatsuji, X. Li, M. Caricato, A. V. Marenich, 
 J. Bloino, B. G. Janesko, R. Gomperts, B. Mennucci, H. P. Hratchian, 
 J. V. Ortiz, A. F. Izmaylov, J. L. Sonnenberg, D. Williams-Young, 
 F. Ding, F. Lipparini, F. Egidi, J. Goings, B. Peng, A. Petrone, 
 T. Henderson, D. Ranasinghe, V. G. Zakrzewski, J. Gao, N. Rega, 
 G. Zheng, W. Liang, M. Hada, M. Ehara, K. Toyota, R. Fukuda, 
 J. Hasegawa, M. Ishida, T. Nakajima, Y. Honda, O. Kitao, H. Nakai, 
 T. Vreven, K. Throssell, J. A. Montgomery, Jr., J. E. Peralta, 
 F. Ogliaro, M. J. Bearpark, J. J. Heyd, E. N. Brothers, K. N. Kudin, 
 V. N. Staroverov, T. A. Keith, R. Kobayashi, J. Normand, 
 K. Raghavachari, A. P. Rendell, J. C. Burant, S. S. Iyengar, 
 J. Tomasi, M. Cossi, J. M. Millam, M. Klene, C. Adamo, R. Cammi, 
 J. W. Ochterski, R. L. Martin, K. Morokuma, O. Farkas, 
 J. B. Foresman, and D. J. Fox, Gaussian, Inc., Wallingford CT, 2019.
 
 ******************************************
 Gaussian 16:  ES64L-G16RevC.01  3-Jul-2019
                16-Jan-2024 
 ******************************************
 %nprocshared=12
 Will use up to   12 processors via shared memory.
 %mem=48GB
 ----------------------------------------------------------------------
 # external="~/scripts/MiMe -H 'hf def2svp' -EF 'wb97xd def2svp' -c 12 
 -m 48GB" opt=(calcall,ts,noeigen,maxcycles=50,maxstep=10,nomicro)
 ----------------------------------------------------------------------
 1/5=1,6=50,8=10,10=4,11=1,18=20,26=1,38=1/1,3;
 2/9=110,12=2,17=6,18=5,40=1/2;
 3/11=9,25=1,30=1,41=9900000,43=2,71=2,140=1/1;
 4/20=17,22=2,24=3,113=1,114=1/2;
 6/7=2,8=2,9=2,10=2,18=1/1;
 7/25=1,44=-1/16;
 1/5=1,6=50,8=10,10=4,11=1,18=20,26=1/3(3);
 2/9=110/2;
 7/8=1,9=1,25=1,44=-1/16;
 99//99;
 2/9=110/2;
 3/11=9,25=1,30=1,41=9900000,43=2,71=2,140=1/1;
 4/16=2,20=17,22=2,24=3,113=1,114=1/2;
 7/25=1,44=-1/16;
 1/5=1,6=50,8=10,10=4,11=1,18=20,26=1/3(-4);
 2/9=110/2;
 6/7=2,8=2,9=2,10=2,18=1/1;
 7/8=1,9=1,25=1,44=-1/16;
 99//99;
 -----
 *****
 -----
 Symbolic Z-matrix:
 Charge =  0 Multiplicity = 1
 C                     1.926     0.1722   -0.005 
 C                     0.7332   -1.561     0.2678 
 C                     0.4112    1.2555    1.075 
 C                    -0.531    -1.0586    0.8293 
 N                     1.7025    0.7364    1.2998 
 H                     0.6664   -1.9557   -0.7531 
 H                     1.3297   -2.1646    0.9585 
 H                    -0.2593    1.6608    1.8195 
 H                    -0.6848   -1.0875    1.9035 
 O                     1.2051    0.8334   -1.0306 
 C                     0.2136    1.5119   -0.3666 
 O                    -0.6834    2.1731   -0.8537 
 C                    -1.7411   -0.9446   -0.0186 
 O                    -1.7938   -1.287    -1.187 
 O                    -2.7058   -0.3299    0.7041 
 C                    -3.864    -0.0087   -0.0696 
 H                    -4.6046    0.4407    0.5972 
 H                    -4.2985   -0.9112   -0.5123 
 H                    -3.6099    0.72     -0.8471 
 C                     3.2267   -0.349    -0.3333 
 N                     4.2764   -0.7867   -0.567 
 H                     2.014     0.283     2.1522 
 
 Add virtual bond connecting atoms C2         and C1         Dist= 4.01D+00.

 GradGradGradGradGradGradGradGradGradGradGradGradGradGradGradGradGradGrad
 Berny optimization.
 Initialization pass.
                           ----------------------------
                           !    Initial Parameters    !
                           ! (Angstroms and Degrees)  !
 --------------------------                            --------------------------
 ! Name  Definition              Value          Derivative Info.                !
 --------------------------------------------------------------------------------
 ! R1    R(1,2)                  2.1216         calculate D2E/DX2 analytically  !
 ! R2    R(1,5)                  1.439          calculate D2E/DX2 analytically  !
 ! R3    R(1,10)                 1.4173         calculate D2E/DX2 analytically  !
 ! R4    R(1,20)                 1.4392         calculate D2E/DX2 analytically  !
 ! R5    R(2,4)                  1.4717         calculate D2E/DX2 analytically  !
 ! R6    R(2,6)                  1.0966         calculate D2E/DX2 analytically  !
 ! R7    R(2,7)                  1.0942         calculate D2E/DX2 analytically  !
 ! R8    R(3,5)                  1.4098         calculate D2E/DX2 analytically  !
 ! R9    R(3,8)                  1.0808         calculate D2E/DX2 analytically  !
 ! R10   R(3,11)                 1.4775         calculate D2E/DX2 analytically  !
 ! R11   R(4,9)                  1.0855         calculate D2E/DX2 analytically  !
 ! R12   R(4,13)                 1.482          calculate D2E/DX2 analytically  !
 ! R13   R(5,22)                 1.0145         calculate D2E/DX2 analytically  !
 ! R14   R(10,11)                1.3727         calculate D2E/DX2 analytically  !
 ! R15   R(11,12)                1.2162         calculate D2E/DX2 analytically  !
 ! R16   R(13,14)                1.2187         calculate D2E/DX2 analytically  !
 ! R17   R(13,15)                1.3531         calculate D2E/DX2 analytically  !
 ! R18   R(15,16)                1.4294         calculate D2E/DX2 analytically  !
 ! R19   R(16,17)                1.0932         calculate D2E/DX2 analytically  !
 ! R20   R(16,18)                1.0951         calculate D2E/DX2 analytically  !
 ! R21   R(16,19)                1.0955         calculate D2E/DX2 analytically  !
 ! R22   R(20,21)                1.1611         calculate D2E/DX2 analytically  !
 ! A1    A(2,1,5)               96.6836         calculate D2E/DX2 analytically  !
 ! A2    A(2,1,10)             100.8474         calculate D2E/DX2 analytically  !
 ! A3    A(2,1,20)             103.9809         calculate D2E/DX2 analytically  !
 ! A4    A(5,1,10)             113.2177         calculate D2E/DX2 analytically  !
 ! A5    A(5,1,20)             119.2878         calculate D2E/DX2 analytically  !
 ! A6    A(10,1,20)            117.6183         calculate D2E/DX2 analytically  !
 ! A7    A(1,2,4)              104.6627         calculate D2E/DX2 analytically  !
 ! A8    A(1,2,6)              102.0394         calculate D2E/DX2 analytically  !
 ! A9    A(1,2,7)              103.0222         calculate D2E/DX2 analytically  !
 ! A10   A(4,2,6)              115.1979         calculate D2E/DX2 analytically  !
 ! A11   A(4,2,7)              114.5681         calculate D2E/DX2 analytically  !
 ! A12   A(6,2,7)              114.9823         calculate D2E/DX2 analytically  !
 ! A13   A(5,3,8)              126.6183         calculate D2E/DX2 analytically  !
 ! A14   A(5,3,11)             109.9978         calculate D2E/DX2 analytically  !
 ! A15   A(8,3,11)             121.6052         calculate D2E/DX2 analytically  !
 ! A16   A(2,4,9)              119.3514         calculate D2E/DX2 analytically  !
 ! A17   A(2,4,13)             120.623          calculate D2E/DX2 analytically  !
 ! A18   A(9,4,13)             116.9056         calculate D2E/DX2 analytically  !
 ! A19   A(1,5,3)               98.1661         calculate D2E/DX2 analytically  !
 ! A20   A(1,5,22)             122.6115         calculate D2E/DX2 analytically  !
 ! A21   A(3,5,22)             125.436          calculate D2E/DX2 analytically  !
 ! A22   A(1,10,11)            104.3563         calculate D2E/DX2 analytically  !
 ! A23   A(3,11,10)            106.8333         calculate D2E/DX2 analytically  !
 ! A24   A(3,11,12)            125.7168         calculate D2E/DX2 analytically  !
 ! A25   A(10,11,12)           127.4253         calculate D2E/DX2 analytically  !
 ! A26   A(4,13,14)            124.2103         calculate D2E/DX2 analytically  !
 ! A27   A(4,13,15)            108.1513         calculate D2E/DX2 analytically  !
 ! A28   A(14,13,15)           127.5095         calculate D2E/DX2 analytically  !
 ! A29   A(13,15,16)           112.9966         calculate D2E/DX2 analytically  !
 ! A30   A(15,16,17)           108.1285         calculate D2E/DX2 analytically  !
 ! A31   A(15,16,18)           110.7999         calculate D2E/DX2 analytically  !
 ! A32   A(15,16,19)           110.2239         calculate D2E/DX2 analytically  !
 ! A33   A(17,16,18)           108.4554         calculate D2E/DX2 analytically  !
 ! A34   A(17,16,19)           108.4572         calculate D2E/DX2 analytically  !
 ! A35   A(18,16,19)           110.6899         calculate D2E/DX2 analytically  !
 ! A36   L(1,20,21,7,-1)       178.6613         calculate D2E/DX2 analytically  !
 ! A37   L(1,20,21,7,-2)       181.2752         calculate D2E/DX2 analytically  !
 ! D1    D(5,1,2,4)             48.0218         calculate D2E/DX2 analytically  !
 ! D2    D(5,1,2,6)            168.405          calculate D2E/DX2 analytically  !
 ! D3    D(5,1,2,7)            -72.0859         calculate D2E/DX2 analytically  !
 ! D4    D(10,1,2,4)           -67.2301         calculate D2E/DX2 analytically  !
 ! D5    D(10,1,2,6)            53.1531         calculate D2E/DX2 analytically  !
 ! D6    D(10,1,2,7)           172.6621         calculate D2E/DX2 analytically  !
 ! D7    D(20,1,2,4)           170.4849         calculate D2E/DX2 analytically  !
 ! D8    D(20,1,2,6)           -69.1319         calculate D2E/DX2 analytically  !
 ! D9    D(20,1,2,7)            50.3772         calculate D2E/DX2 analytically  !
 ! D10   D(2,1,5,3)            -77.6549         calculate D2E/DX2 analytically  !
 ! D11   D(2,1,5,22)            64.2671         calculate D2E/DX2 analytically  !
 ! D12   D(10,1,5,3)            27.2044         calculate D2E/DX2 analytically  !
 ! D13   D(10,1,5,22)          169.1264         calculate D2E/DX2 analytically  !
 ! D14   D(20,1,5,3)           172.1858         calculate D2E/DX2 analytically  !
 ! D15   D(20,1,5,22)          -45.8922         calculate D2E/DX2 analytically  !
 ! D16   D(2,1,10,11)           83.2911         calculate D2E/DX2 analytically  !
 ! D17   D(5,1,10,11)          -18.8984         calculate D2E/DX2 analytically  !
 ! D18   D(20,1,10,11)        -164.5064         calculate D2E/DX2 analytically  !
 ! D19   D(1,2,4,9)            -97.1235         calculate D2E/DX2 analytically  !
 ! D20   D(1,2,4,13)           103.4561         calculate D2E/DX2 analytically  !
 ! D21   D(6,2,4,9)            151.6908         calculate D2E/DX2 analytically  !
 ! D22   D(6,2,4,13)            -7.7296         calculate D2E/DX2 analytically  !
 ! D23   D(7,2,4,9)             14.9451         calculate D2E/DX2 analytically  !
 ! D24   D(7,2,4,13)          -144.4754         calculate D2E/DX2 analytically  !
 ! D25   D(8,3,5,1)            170.3514         calculate D2E/DX2 analytically  !
 ! D26   D(8,3,5,22)            29.9653         calculate D2E/DX2 analytically  !
 ! D27   D(11,3,5,1)           -24.7896         calculate D2E/DX2 analytically  !
 ! D28   D(11,3,5,22)         -165.1757         calculate D2E/DX2 analytically  !
 ! D29   D(5,3,11,10)           15.7905         calculate D2E/DX2 analytically  !
 ! D30   D(5,3,11,12)         -165.9069         calculate D2E/DX2 analytically  !
 ! D31   D(8,3,11,10)         -178.4594         calculate D2E/DX2 analytically  !
 ! D32   D(8,3,11,12)           -0.1568         calculate D2E/DX2 analytically  !
 ! D33   D(2,4,13,14)            2.5317         calculate D2E/DX2 analytically  !
 ! D34   D(2,4,13,15)         -173.6078         calculate D2E/DX2 analytically  !
 ! D35   D(9,4,13,14)         -157.3735         calculate D2E/DX2 analytically  !
 ! D36   D(9,4,13,15)           26.4871         calculate D2E/DX2 analytically  !
 ! D37   D(1,10,11,3)            1.736          calculate D2E/DX2 analytically  !
 ! D38   D(1,10,11,12)        -176.5286         calculate D2E/DX2 analytically  !
 ! D39   D(4,13,15,16)         172.3219         calculate D2E/DX2 analytically  !
 ! D40   D(14,13,15,16)         -3.6532         calculate D2E/DX2 analytically  !
 ! D41   D(13,15,16,17)        177.5006         calculate D2E/DX2 analytically  !
 ! D42   D(13,15,16,18)         58.77           calculate D2E/DX2 analytically  !
 ! D43   D(13,15,16,19)        -64.0987         calculate D2E/DX2 analytically  !
 --------------------------------------------------------------------------------
 Trust Radius=1.00D-01 FncErr=1.00D-07 GrdErr=1.00D-07 EigMax=2.50D+02 EigMin=1.00D-04
 Number of steps in this run=     50 maximum allowed number of steps=    132.
 Search for a saddle point of order  1.
 GradGradGradGradGradGradGradGradGradGradGradGradGradGradGradGradGradGrad

                          Input orientation:                          
 ---------------------------------------------------------------------
 Center     Atomic      Atomic             Coordinates (Angstroms)
 Number     Number       Type             X           Y           Z
 ---------------------------------------------------------------------
      1          6           0        1.926000    0.172200   -0.005000
      2          6           0        0.733200   -1.561000    0.267800
      3          6           0        0.411200    1.255500    1.075000
      4          6           0       -0.531000   -1.058600    0.829300
      5          7           0        1.702500    0.736400    1.299800
      6          1           0        0.666400   -1.955700   -0.753100
      7          1           0        1.329700   -2.164600    0.958500
      8          1           0       -0.259300    1.660800    1.819500
      9          1           0       -0.684800   -1.087500    1.903500
     10          8           0        1.205100    0.833400   -1.030600
     11          6           0        0.213600    1.511900   -0.366600
     12          8           0       -0.683400    2.173100   -0.853700
     13          6           0       -1.741100   -0.944600   -0.018600
     14          8           0       -1.793800   -1.287000   -1.187000
     15          8           0       -2.705800   -0.329900    0.704100
     16          6           0       -3.864000   -0.008700   -0.069600
     17          1           0       -4.604600    0.440700    0.597200
     18          1           0       -4.298500   -0.911200   -0.512300
     19          1           0       -3.609900    0.720000   -0.847100
     20          6           0        3.226700   -0.349000   -0.333300
     21          7           0        4.276400   -0.786700   -0.567000
     22          1           0        2.014000    0.283000    2.152200
 ---------------------------------------------------------------------
                    Distance matrix (angstroms):
                    1          2          3          4          5
     1  C    0.000000
     2  C    2.121597   0.000000
     3  C    2.152802   2.947529   0.000000
     4  C    2.871894   1.471696   2.510611   0.000000
     5  N    1.439019   2.698632   1.409771   2.903776   0.000000
     6  H    2.583448   1.096580   3.703901   2.177738   3.540523
     7  H    2.597025   1.094172   3.543205   2.168440   2.944701
     8  H    3.212517   3.711176   1.080795   2.906794   2.230081
     9  H    3.470662   2.215951   2.716114   1.085539   3.064354
    10  O    1.417299   2.764360   2.289541   3.170636   2.384865
    11  C    2.204056   3.180434   1.477497   2.931224   2.365399
    12  O    3.396007   4.148255   2.400005   3.646862   3.520538
    13  C    3.833412   2.565957   3.266312   1.481983   4.052446
    14  O    4.166929   2.928694   4.054994   2.390041   4.743673
    15  O    4.712589   3.678680   3.516639   2.297049   4.574381
    16  C    5.793185   4.863920   4.602787   3.608213   5.780688
    17  H    6.563800   5.710290   5.103963   4.346952   6.352999
    18  H    6.338415   5.133108   5.421751   4.001959   6.481535
    19  H    5.626314   5.030753   4.488928   3.931076   5.729838
    20  C    1.439184   2.836866   3.533379   3.996934   2.483605
    21  N    2.599945   3.721653   4.669745   5.013450   3.525583
    22  H    2.161835   2.931168   2.162194   3.166541   1.014490
                    6          7          8          9         10
     6  H    0.000000
     7  H    1.847480   0.000000
     8  H    4.533681   4.230831   0.000000
     9  H    3.104358   2.472120   2.782312   0.000000
    10  O    2.854169   3.600007   3.309400   3.983782   0.000000
    11  C    3.518332   4.064261   2.241615   3.566140   1.372709
    12  O    4.345005   5.113930   2.754689   4.270090   2.322180
    13  C    2.712539   3.445713   3.516028   2.197876   3.586854
    14  O    2.586119   3.889679   4.481435   3.289509   3.676134
    15  O    4.017262   4.440282   3.345499   2.469202   4.433688
    16  C    4.978203   5.716591   4.398840   3.894130   5.227660
    17  H    5.945543   6.491074   4.675927   4.405298   6.046202
    18  H    5.079291   5.950706   5.326125   4.350402   5.796713
    19  H    5.045290   5.998396   4.384334   4.403302   4.819830
    20  C    3.051697   2.926390   4.563556   4.566015   2.443596
    21  N    3.799118   3.592882   5.679631   5.550437   3.503217
    22  H    3.907502   2.807834   2.678976   3.037045   3.329786
                   11         12         13         14         15
    11  C    0.000000
    12  O    1.216166   0.000000
    13  C    3.158536   3.396494   0.000000
    14  O    3.540699   3.649160   1.218677   0.000000
    15  O    3.614073   3.575172   1.353070   2.307389   0.000000
    16  C    4.362024   3.935896   2.320606   2.677380   1.429408
    17  H    5.029059   4.525719   3.240046   3.750855   2.051997
    18  H    5.123640   4.764285   2.604832   2.621062   2.086680
    19  H    3.934099   3.267407   2.636232   2.727966   2.079882
    20  C    3.541586   4.681953   5.013264   5.178230   6.022551
    21  N    4.672266   5.782926   6.044500   6.122257   7.111644
    22  H    3.331064   4.459134   4.507788   5.302311   4.974852
                   16         17         18         19         20
    16  C    0.000000
    17  H    1.093193   0.000000
    18  H    1.095116   1.775478   0.000000
    19  H    1.095480   1.775793   1.801964   0.000000
    20  C    7.103757   7.925826   7.548294   6.938721   0.000000
    21  N    8.192607   9.040688   8.575978   8.033824   1.161063
    22  H    6.290657   6.800644   6.955094   6.388663   2.836860
                   21         22
    21  N    0.000000
    22  H    3.695505   0.000000
 Stoichiometry    C8H8N2O4
 Framework group  C1[X(C8H8N2O4)]
 Deg. of freedom    60
 Full point group                 C1      NOp   1
 Largest Abelian subgroup         C1      NOp   1
 Largest concise Abelian subgroup C1      NOp   1
                         Standard orientation:                         
 ---------------------------------------------------------------------
 Center     Atomic      Atomic             Coordinates (Angstroms)
 Number     Number       Type             X           Y           Z
 ---------------------------------------------------------------------
      1          6           0        1.901595    0.103954    0.015435
      2          6           0        0.662124   -1.607415    0.205441
      3          6           0        0.407708    1.179062    1.132128
      4          6           0       -0.592612   -1.096648    0.780457
      5          7           0        1.683388    0.616915    1.342097
      6          1           0        0.592488   -1.955723   -0.832018
      7          1           0        1.237674   -2.255800    0.872937
      8          1           0       -0.257403    1.569313    1.889393
      9          1           0       -0.754911   -1.167894    1.851428
     10          8           0        1.205623    0.827616   -0.984902
     11          6           0        0.227327    1.502648   -0.298170
     12          8           0       -0.648592    2.207669   -0.761604
     13          6           0       -1.793143   -0.914287   -0.069097
     14          8           0       -1.846252   -1.204357   -1.251558
     15          8           0       -2.746736   -0.306217    0.673673
     16          6           0       -3.890530    0.078505   -0.092442
     17          1           0       -4.624003    0.518004    0.588682
     18          1           0       -4.345153   -0.792264   -0.576548
     19          1           0       -3.611903    0.833189   -0.836012
     20          6           0        3.190634   -0.436629   -0.327198
     21          7           0        4.230253   -0.891301   -0.573236
     22          1           0        1.976778    0.119051    2.175910
 ---------------------------------------------------------------------
 Rotational constants (GHZ):           1.3537180           0.4678392           0.4214048
 Standard basis: STO-3G (5D, 7F)
 There are    78 symmetry adapted cartesian basis functions of A   symmetry.
 There are    78 symmetry adapted basis functions of A   symmetry.
    78 basis functions,   234 primitive gaussians,    78 cartesian basis functions
    51 alpha electrons       51 beta electrons
       nuclear repulsion energy       892.5014373949 Hartrees.
 NAtoms=   22 NActive=   22 NUniq=   22 SFac= 1.00D+00 NAtFMM=   60 NAOKFM=F Big=F
 Integral buffers will be    131072 words long.
 Raffenetti 1 integral format.
 Two-electron integral symmetry is turned on.
 External calculation of energy, first and second derivatives.
 Running external command "~/scripts/MiMe -H 'hf def2svp' -EF 'wb97xd def2svp' -c 12 -m 48GB R"
         input file       "/local/jobs/1157674/Gau-344930.EIn"
         output file      "/local/jobs/1157674/Gau-344930.EOu"
         message file     "/local/jobs/1157674/Gau-344930.EMs"
         fchk file        "/local/jobs/1157674/Gau-344930.EFC"
         mat. el file     "/local/jobs/1157674/Gau-344930.EUF"
 Read checkpoint file Gau-344930_H.chk type G16
 Write formatted file Gau-344930_H.fchk

deriv: 2

spelevel: wb97xd def2svp
gradlevel: wb97xd def2svp
hesslevel: hf def2svp

runspe: False
runforce: True
runfreq: True

Running Gaussian ...

Parsing files ...
SPE file: Gau-344930_F.out
FORCE file: Gau-344930_F.out
HESS file: Gau-344930_H.out

 ExternalExternalExternalExternalExternalExternalExternalExternalExternalExternal
 Output from external command:
 "~/scripts/MiMe -H 'hf def2svp' -EF 'wb97xd def2svp' -c 12 -m 48GB R /local/jobs/1157674/Gau-344930.EIn /local/jobs/1157674/Gau-344930.EOu /local/jobs/1157674/Gau-344930.EMs /local/jobs/1157674/Gau-344930.EFC /local/jobs/1157674/Gau-344930.EUF"
  
 --------------------------------------------------
 Force calculation at wb97xd def2svp
 Hessian calculation at hf def2svp
 ExternalExternalExternalExternalExternalExternalExternalExternalExternalExternal

 Recovered energy= -719.169780601     dipole=     -0.727200000000     -0.282600000000      6.089500000000
 Energy=    -719.169781     NIter=   0.
 Dipole moment=      -0.727200      -0.282600       6.089500
 ***** Axes restored to original set *****
 -------------------------------------------------------------------
 Center     Atomic                   Forces (Hartrees/Bohr)
 Number     Number              X              Y              Z
 -------------------------------------------------------------------
      1        6          -0.007809128   -0.033880465    0.012001507
      2        6          -0.037738720    0.019364654    0.012982594
      3        6           0.021030036   -0.025659028    0.009116698
      4        6           0.052942876   -0.002016738   -0.024704305
      5        7          -0.053825496    0.022031473   -0.080129080
      6        1           0.001869437    0.003600916   -0.000072009
      7        1           0.006664384    0.004129268   -0.001545387
      8        1           0.003233376    0.004460791    0.006453284
      9        1          -0.001086389    0.001641267    0.004297616
     10        8           0.022565221   -0.008158445    0.048475282
     11        6          -0.036398399    0.019679857    0.014875119
     12        8           0.030671408   -0.023132674    0.001406252
     13        6           0.015579323    0.006459839   -0.005942299
     14        8          -0.009581802    0.010777451    0.027120315
     15        8          -0.006323560   -0.007241723   -0.024801972
     16        6          -0.002091419    0.001332276    0.006068176
     17        1           0.001420962    0.000504077    0.005021870
     18        1           0.000740954   -0.001497495   -0.003464945
     19        1           0.001600462   -0.000862124   -0.003344665
     20        6           0.006686364    0.007692508   -0.004444712
     21        7          -0.010283729    0.001597627    0.002580480
     22        1           0.000133837   -0.000823308   -0.001949818
 -------------------------------------------------------------------
 Cartesian Forces:  Max     0.080129080 RMS     0.020056788
 FormGI is forming the generalized inverse of G from B-inverse, IUseBI=4.

 GradGradGradGradGradGradGradGradGradGradGradGradGradGradGradGradGradGrad
 Berny optimization.
 Internal  Forces:  Max     0.056108454 RMS     0.014922348
 Search for a saddle point.
 Step number   1 out of a maximum of   50
 All quantities printed in internal units (Hartrees-Bohrs-Radians)
 Swapping is turned off.
 Second derivative matrix not updated -- analytic derivatives used.
 ITU=  0
     Eigenvalues ---   -0.14310   0.00443   0.01189   0.01295   0.01386
     Eigenvalues ---    0.01971   0.02463   0.03071   0.03567   0.04268
     Eigenvalues ---    0.04747   0.04961   0.06213   0.06369   0.07100
     Eigenvalues ---    0.07724   0.08138   0.08960   0.10117   0.10315
     Eigenvalues ---    0.10682   0.12068   0.12207   0.13537   0.14454
     Eigenvalues ---    0.15201   0.16957   0.18274   0.20248   0.21805
     Eigenvalues ---    0.22461   0.22925   0.24280   0.24774   0.27312
     Eigenvalues ---    0.27793   0.28610   0.29090   0.30330   0.32024
     Eigenvalues ---    0.34922   0.36194   0.36556   0.36913   0.36923
     Eigenvalues ---    0.37083   0.38449   0.39073   0.39710   0.41011
     Eigenvalues ---    0.42050   0.43107   0.45260   0.48820   0.50577
     Eigenvalues ---    0.50784   0.53650   0.82460   0.84577   1.30935
 Eigenvectors required to have negative eigenvalues:
                          R1        R5        D27       A7        D29
   1                    0.70367  -0.24875   0.18907   0.18588  -0.18222
                          D10       D12       D16       D26       A8
   1                   -0.17649  -0.16590   0.16115  -0.15398  -0.14265
 RFO step:  Lambda0=3.359473773D-03 Lambda=-5.64578505D-02.
 Linear search not attempted -- option 19 set.
 Maximum step size (   0.100) exceeded in Quadratic search.
    -- Step size scaled by   0.256
 Iteration  1 RMS(Cart)=  0.02412745 RMS(Int)=  0.00022009
 Iteration  2 RMS(Cart)=  0.00029076 RMS(Int)=  0.00005438
 Iteration  3 RMS(Cart)=  0.00000007 RMS(Int)=  0.00005438
 Variable       Old X    -DE/DX   Delta X   Delta X   Delta X     New X
                                 (Linear)    (Quad)   (Total)
    R1        4.00924  -0.04413   0.00000   0.00091   0.00091   4.01015
    R2        2.71935  -0.04058   0.00000  -0.03692  -0.03691   2.68244
    R3        2.67831  -0.04662   0.00000  -0.03693  -0.03695   2.64136
    R4        2.71966  -0.00619   0.00000  -0.00271  -0.00271   2.71696
    R5        2.78110  -0.05013   0.00000  -0.04188  -0.04188   2.73923
    R6        2.07224  -0.00134   0.00000  -0.00099  -0.00099   2.07124
    R7        2.06768   0.00036   0.00000   0.00003   0.00003   2.06772
    R8        2.66408  -0.03886   0.00000  -0.02913  -0.02906   2.63502
    R9        2.04241   0.00411   0.00000   0.00181   0.00181   2.04421
   R10        2.79206  -0.01716   0.00000  -0.01500  -0.01502   2.77705
   R11        2.05137   0.00436   0.00000   0.00269   0.00269   2.05406
   R12        2.80054  -0.00074   0.00000   0.00068   0.00068   2.80123
   R13        1.91711  -0.00123   0.00000  -0.00046  -0.00046   1.91664
   R14        2.59404   0.00473   0.00000   0.01035   0.01029   2.60433
   R15        2.29822  -0.03576   0.00000  -0.01031  -0.01031   2.28791
   R16        2.30297  -0.02862   0.00000  -0.00743  -0.00743   2.29554
   R17        2.55693  -0.01117   0.00000  -0.00660  -0.00660   2.55033
   R18        2.70119  -0.00379   0.00000  -0.00344  -0.00344   2.69775
   R19        2.06584   0.00231   0.00000   0.00110   0.00110   2.06693
   R20        2.06947   0.00234   0.00000   0.00161   0.00161   2.07108
   R21        2.07016   0.00217   0.00000   0.00118   0.00118   2.07134
   R22        2.19409  -0.01042   0.00000  -0.00207  -0.00207   2.19202
    A1        1.68745  -0.00818   0.00000   0.00192   0.00183   1.68928
    A2        1.76012  -0.00731   0.00000  -0.00610  -0.00611   1.75401
    A3        1.81481   0.01648   0.00000   0.00608   0.00606   1.82087
    A4        1.97602  -0.01403   0.00000  -0.01568  -0.01568   1.96035
    A5        2.08196   0.00871   0.00000   0.00801   0.00799   2.08996
    A6        2.05283   0.00354   0.00000   0.00569   0.00570   2.05853
    A7        1.82671  -0.05611   0.00000  -0.01341  -0.01339   1.81332
    A8        1.78092   0.01303   0.00000  -0.01186  -0.01184   1.76908
    A9        1.79808   0.01458   0.00000  -0.00658  -0.00651   1.79156
   A10        2.01058   0.01196   0.00000   0.00724   0.00703   2.01761
   A11        1.99959   0.01495   0.00000   0.01293   0.01280   2.01239
   A12        2.00682  -0.00586   0.00000   0.00325   0.00306   2.00988
   A13        2.20991   0.00335   0.00000  -0.00274  -0.00279   2.20712
   A14        1.91982  -0.01668   0.00000  -0.01050  -0.01045   1.90938
   A15        2.12241   0.01251   0.00000   0.01372   0.01371   2.13612
   A16        2.08307   0.00154   0.00000   0.00557   0.00556   2.08864
   A17        2.10527  -0.00194   0.00000  -0.00007  -0.00008   2.10519
   A18        2.04039   0.00136   0.00000  -0.00251  -0.00252   2.03786
   A19        1.71332   0.02895   0.00000   0.02867   0.02878   1.74210
   A20        2.13997  -0.01329   0.00000  -0.00860  -0.00864   2.13133
   A21        2.18927  -0.01672   0.00000  -0.00982  -0.00994   2.17933
   A22        1.82136   0.00994   0.00000   0.01436   0.01425   1.83561
   A23        1.86459  -0.00893   0.00000  -0.01298  -0.01306   1.85154
   A24        2.19417   0.02058   0.00000   0.02538   0.02541   2.21958
   A25        2.22399  -0.01156   0.00000  -0.01216  -0.01214   2.21185
   A26        2.16788   0.00471   0.00000   0.00226   0.00225   2.17013
   A27        1.88760   0.01642   0.00000   0.01099   0.01097   1.89857
   A28        2.22546  -0.02089   0.00000  -0.01271  -0.01272   2.21274
   A29        1.97216   0.01238   0.00000   0.00952   0.00952   1.98168
   A30        1.88720  -0.00596   0.00000  -0.00605  -0.00605   1.88115
   A31        1.93382   0.00087   0.00000   0.00038   0.00038   1.93420
   A32        1.92377  -0.00029   0.00000   0.00000   0.00000   1.92377
   A33        1.89290   0.00372   0.00000   0.00457   0.00457   1.89747
   A34        1.89293   0.00385   0.00000   0.00502   0.00502   1.89796
   A35        1.93190  -0.00213   0.00000  -0.00379  -0.00379   1.92811
   A36        3.11823  -0.00543   0.00000  -0.00821  -0.00821   3.11002
   A37        3.16385  -0.00107   0.00000  -0.00077  -0.00077   3.16308
    D1        0.83814  -0.00940   0.00000  -0.00715  -0.00717   0.83097
    D2        2.93922  -0.01304   0.00000  -0.00958  -0.00955   2.92967
    D3       -1.25814  -0.00892   0.00000  -0.01308  -0.01309  -1.27122
    D4       -1.17339   0.00901   0.00000   0.01001   0.00998  -1.16340
    D5        0.92770   0.00537   0.00000   0.00759   0.00761   0.93530
    D6        3.01352   0.00948   0.00000   0.00409   0.00407   3.01759
    D7        2.97552   0.00183   0.00000   0.00396   0.00394   2.97947
    D8       -1.20658  -0.00181   0.00000   0.00153   0.00157  -1.20501
    D9        0.87925   0.00230   0.00000  -0.00197  -0.00197   0.87728
   D10       -1.35533   0.01967   0.00000   0.00593   0.00592  -1.34942
   D11        1.12167   0.01457   0.00000   0.01634   0.01637   1.13804
   D12        0.47481   0.00435   0.00000  -0.00363  -0.00363   0.47117
   D13        2.95181  -0.00075   0.00000   0.00678   0.00682   2.95863
   D14        3.00521   0.00236   0.00000  -0.00520  -0.00523   2.99998
   D15       -0.80097  -0.00274   0.00000   0.00520   0.00523  -0.79574
   D16        1.45370  -0.01504   0.00000  -0.00341  -0.00335   1.45035
   D17       -0.32984   0.00173   0.00000   0.00188   0.00189  -0.32795
   D18       -2.87118   0.00160   0.00000   0.00238   0.00240  -2.86878
   D19       -1.69512  -0.00218   0.00000  -0.00380  -0.00378  -1.69890
   D20        1.80565  -0.00551   0.00000  -0.01284  -0.01284   1.79281
   D21        2.64750   0.01067   0.00000   0.01519   0.01528   2.66279
   D22       -0.13491   0.00734   0.00000   0.00615   0.00623  -0.12868
   D23        0.26084  -0.01140   0.00000  -0.01366  -0.01374   0.24710
   D24       -2.52157  -0.01473   0.00000  -0.02270  -0.02280  -2.54437
   D25        2.97319  -0.00104   0.00000   0.00187   0.00195   2.97514
   D26        0.52299   0.00155   0.00000  -0.01035  -0.01032   0.51267
   D27       -0.43266  -0.00296   0.00000   0.00585   0.00590  -0.42676
   D28       -2.88286  -0.00038   0.00000  -0.00638  -0.00636  -2.88923
   D29        0.27560  -0.00359   0.00000  -0.01407  -0.01402   0.26158
   D30       -2.89562  -0.00078   0.00000  -0.00612  -0.00601  -2.90164
   D31       -3.11470  -0.00672   0.00000  -0.01300  -0.01297  -3.12768
   D32       -0.00274  -0.00391   0.00000  -0.00506  -0.00497  -0.00771
   D33        0.04419   0.00199   0.00000   0.00421   0.00422   0.04840
   D34       -3.03003  -0.00084   0.00000  -0.00332  -0.00334  -3.03337
   D35       -2.74669  -0.00132   0.00000  -0.00621  -0.00618  -2.75286
   D36        0.46229  -0.00415   0.00000  -0.01373  -0.01374   0.44855
   D37        0.03030   0.00136   0.00000   0.00729   0.00732   0.03762
   D38       -3.08100  -0.00223   0.00000  -0.00167  -0.00147  -3.08247
   D39        3.00758   0.00274   0.00000   0.00869   0.00866   3.01624
   D40       -0.06376  -0.00156   0.00000   0.00005   0.00008  -0.06368
   D41        3.09797   0.00021   0.00000   0.00011   0.00011   3.09808
   D42        1.02573  -0.00117   0.00000  -0.00197  -0.00197   1.02376
   D43       -1.11873   0.00115   0.00000   0.00258   0.00258  -1.11615
         Item               Value     Threshold  Converged?
 Maximum Force            0.056108     0.000450     NO 
 RMS     Force            0.014922     0.000300     NO 
 Maximum Displacement     0.079484     0.001800     NO 
 RMS     Displacement     0.024129     0.001200     NO 
 Predicted change in Energy=-1.218041D-02
 GradGradGradGradGradGradGradGradGradGradGradGradGradGradGradGradGradGrad

                          Input orientation:                          
 ---------------------------------------------------------------------
 Center     Atomic      Atomic             Coordinates (Angstroms)
 Number     Number       Type             X           Y           Z
 ---------------------------------------------------------------------
      1          6           0        1.909460    0.167896   -0.005252
      2          6           0        0.727465   -1.571626    0.277898
      3          6           0        0.398079    1.245795    1.084691
      4          6           0       -0.512596   -1.063725    0.830568
      5          7           0        1.681746    0.735810    1.275595
      6          1           0        0.666063   -1.959840   -0.745261
      7          1           0        1.336897   -2.166155    0.965194
      8          1           0       -0.253028    1.650250    1.848013
      9          1           0       -0.669890   -1.082327    1.905927
     10          8           0        1.179397    0.811307   -1.008609
     11          6           0        0.177244    1.488294   -0.347790
     12          8           0       -0.716519    2.131039   -0.851657
     13          6           0       -1.720769   -0.934835   -0.018579
     14          8           0       -1.779785   -1.276766   -1.182712
     15          8           0       -2.687391   -0.316815    0.692087
     16          6           0       -3.844143    0.006448   -0.079560
     17          1           0       -4.578531    0.458972    0.592928
     18          1           0       -4.281640   -0.895596   -0.522344
     19          1           0       -3.588071    0.731486   -0.860708
     20          6           0        3.212976   -0.338211   -0.339663
     21          7           0        4.262529   -0.772304   -0.575298
     22          1           0        2.009107    0.293401    2.127534
 ---------------------------------------------------------------------
                    Distance matrix (angstroms):
                    1          2          3          4          5
     1  C    0.000000
     2  C    2.122080   0.000000
     3  C    2.152700   2.949113   0.000000
     4  C    2.842858   1.449536   2.495554   0.000000
     5  N    1.419489   2.688924   1.394393   2.872545   0.000000
     6  H    2.573113   1.096054   3.700896   2.162289   3.518806
     7  H    2.591792   1.094188   3.540772   2.157336   2.938822
     8  H    3.210657   3.715792   1.081751   2.910023   2.215224
     9  H    3.445099   2.200565   2.689821   1.086961   3.038607
    10  O    1.397747   2.745489   2.276213   3.124285   2.340009
    11  C    2.204849   3.171331   1.469550   2.894341   2.337764
    12  O    3.386163   4.131671   2.403212   3.616350   3.496218
    13  C    3.794043   2.547008   3.234481   1.482345   4.005378
    14  O    4.133279   2.916613   4.030822   2.388400   4.698504
    15  O    4.674641   3.661604   3.480806   2.303646   4.531872
    16  C    5.756348   4.849504   4.570329   3.615634   5.736189
    17  H    6.522007   5.690005   5.062367   4.348207   6.303471
    18  H    6.303025   5.117474   5.391464   4.008034   6.438637
    19  H    5.592163   5.022409   4.465252   3.942302   5.686368
    20  C    1.437751   2.842615   3.530086   3.971863   2.471284
    21  N    2.597280   3.723377   4.665004   4.986301   3.515772
    22  H    2.138798   2.922684   2.142426   3.143707   1.014245
                    6          7          8          9         10
     6  H    0.000000
     7  H    1.848848   0.000000
     8  H    4.539003   4.227551   0.000000
     9  H    3.095738   2.467155   2.764798   0.000000
    10  O    2.830568   3.575750   3.303931   3.937033   0.000000
    11  C    3.505218   4.052619   2.243416   3.522069   1.378153
    12  O    4.319507   5.097386   2.781043   4.234639   2.315345
    13  C    2.697345   3.439954   3.510142   2.197686   3.527058
    14  O    2.576845   3.888216   4.481485   3.287760   3.625896
    15  O    4.001394   4.437290   3.336411   2.475829   4.372308
    16  C    4.965018   5.714446   4.394739   3.899163   5.171739
    17  H    5.928504   6.482450   4.658793   4.401936   5.986885
    18  H    5.065775   5.949374   5.322560   4.356158   5.742203
    19  H    5.035297   5.998796   4.393610   4.411346   4.770429
    20  C    3.046465   2.926380   4.555556   4.546760   2.429881
    21  N    3.791266   3.588211   5.668462   5.530040   3.493034
    22  H    3.890220   2.802199   2.652627   3.019728   3.285124
                   11         12         13         14         15
    11  C    0.000000
    12  O    1.210708   0.000000
    13  C    3.095543   3.331984   0.000000
    14  O    3.488928   3.585145   1.214745   0.000000
    15  O    3.542019   3.501353   1.349575   2.293496   0.000000
    16  C    4.294109   3.859022   2.323456   2.669299   1.427590
    17  H    4.955991   4.449468   3.237814   3.741478   2.046482
    18  H    5.059155   4.688182   2.610245   2.615464   2.086015
    19  H    3.874717   3.194470   2.640572   2.721518   2.078782
    20  C    3.542860   4.669075   4.980049   5.149687   5.989933
    21  N    4.674572   5.770328   6.011340   6.093685   7.079204
    22  H    3.303139   4.436387   4.475080   5.270565   4.948734
                   16         17         18         19         20
    16  C    0.000000
    17  H    1.093774   0.000000
    18  H    1.095967   1.779559   0.000000
    19  H    1.096105   1.779981   1.800812   0.000000
    20  C    7.070316   7.887509   7.517534   6.904344   0.000000
    21  N    8.159065   9.002507   8.545223   7.998422   1.159967
    22  H    6.262120   6.766047   6.928857   6.360024   2.816966
                   21         22
    21  N    0.000000
    22  H    3.676811   0.000000
 Stoichiometry    C8H8N2O4
 Framework group  C1[X(C8H8N2O4)]
 Deg. of freedom    60
 Full point group                 C1      NOp   1
 Largest Abelian subgroup         C1      NOp   1
 Largest concise Abelian subgroup C1      NOp   1
                         Standard orientation:                         
 ---------------------------------------------------------------------
 Center     Atomic      Atomic             Coordinates (Angstroms)
 Number     Number       Type             X           Y           Z
 ---------------------------------------------------------------------
      1          6           0        1.889620    0.113164    0.012092
      2          6           0        0.670218   -1.610279    0.226628
      3          6           0        0.394207    1.182922    1.131677
      4          6           0       -0.562435   -1.096587    0.790404
      5          7           0        1.665870    0.639788    1.311149
      6          1           0        0.607060   -1.960488   -0.810050
      7          1           0        1.263022   -2.241470    0.895530
      8          1           0       -0.253054    1.573472    1.905440
      9          1           0       -0.726648   -1.150140    1.863554
     10          8           0        1.179155    0.806954   -0.971570
     11          6           0        0.187188    1.480777   -0.292402
     12          8           0       -0.690004    2.159552   -0.777802
     13          6           0       -1.762475   -0.912385   -0.060078
     14          8           0       -1.821431   -1.211386   -1.235973
     15          8           0       -2.720442   -0.299994    0.666991
     16          6           0       -3.865529    0.074585   -0.098828
     17          1           0       -4.594503    0.518132    0.585428
     18          1           0       -4.318862   -0.801810   -0.575867
     19          1           0       -3.589758    0.821447   -0.852217
     20          6           0        3.184416   -0.407825   -0.333164
     21          7           0        4.226195   -0.855073   -0.578501
     22          1           0        1.978805    0.160619    2.148502
 ---------------------------------------------------------------------
 Rotational constants (GHZ):           1.3783227           0.4733620           0.4271668
 Standard basis: STO-3G (5D, 7F)
 There are    78 symmetry adapted cartesian basis functions of A   symmetry.
 There are    78 symmetry adapted basis functions of A   symmetry.
    78 basis functions,   234 primitive gaussians,    78 cartesian basis functions
    51 alpha electrons       51 beta electrons
       nuclear repulsion energy       897.8054304361 Hartrees.
 NAtoms=   22 NActive=   22 NUniq=   22 SFac= 1.00D+00 NAtFMM=   60 NAOKFM=F Big=F
 Integral buffers will be    131072 words long.
 Raffenetti 1 integral format.
 Two-electron integral symmetry is turned on.
 External calculation of energy, first and second derivatives.
 Running external command "~/scripts/MiMe -H 'hf def2svp' -EF 'wb97xd def2svp' -c 12 -m 48GB R"
         input file       "/local/jobs/1157674/Gau-344930.EIn"
         output file      "/local/jobs/1157674/Gau-344930.EOu"
         message file     "/local/jobs/1157674/Gau-344930.EMs"
         fchk file        "/local/jobs/1157674/Gau-344930.EFC"
         mat. el file     "/local/jobs/1157674/Gau-344930.EUF"
 Read checkpoint file Gau-344930_H.chk type G16
 Write formatted file Gau-344930_H.fchk

deriv: 2

spelevel: wb97xd def2svp
gradlevel: wb97xd def2svp
hesslevel: hf def2svp

runspe: False
runforce: True
runfreq: True

Running Gaussian ...

Parsing files ...
SPE file: Gau-344930_F.out
FORCE file: Gau-344930_F.out
HESS file: Gau-344930_H.out

 ExternalExternalExternalExternalExternalExternalExternalExternalExternalExternal
 Output from external command:
 "~/scripts/MiMe -H 'hf def2svp' -EF 'wb97xd def2svp' -c 12 -m 48GB R /local/jobs/1157674/Gau-344930.EIn /local/jobs/1157674/Gau-344930.EOu /local/jobs/1157674/Gau-344930.EMs /local/jobs/1157674/Gau-344930.EFC /local/jobs/1157674/Gau-344930.EUF"
  
 --------------------------------------------------
 Force calculation at wb97xd def2svp
 Hessian calculation at hf def2svp
 ExternalExternalExternalExternalExternalExternalExternalExternalExternalExternal

 Recovered energy= -719.182025706     dipole=     -0.615400000000     -0.167100000000      6.138800000000
 Energy=    -719.182026     NIter=   0.
 Dipole moment=      -0.615400      -0.167100       6.138800
 ***** Axes restored to original set *****
 -------------------------------------------------------------------
 Center     Atomic                   Forces (Hartrees/Bohr)
 Number     Number              X              Y              Z
 -------------------------------------------------------------------
      1        6          -0.005067325   -0.030329560    0.008763912
      2        6          -0.030169731    0.014402251    0.010340089
      3        6           0.015015450   -0.021016093    0.007878867
      4        6           0.041552328   -0.001040971   -0.019047774
      5        7          -0.044135738    0.017066247   -0.062656390
      6        1           0.001912618    0.003354224   -0.000289555
      7        1           0.006098018    0.003928516   -0.001586469
      8        1           0.003342178    0.003821119    0.005277878
      9        1          -0.001170434    0.001456996    0.003257352
     10        8           0.018357414   -0.005050566    0.038264493
     11        6          -0.028908731    0.015959942    0.011788843
     12        8           0.023821371   -0.018367304    0.000475606
     13        6           0.012726784    0.006073633   -0.003589066
     14        8          -0.007659216    0.008429555    0.020410379
     15        8          -0.005340547   -0.005822384   -0.019934780
     16        6          -0.001924744    0.001131527    0.005119513
     17        1           0.001298373    0.000394926    0.004101005
     18        1           0.000683732   -0.001126141   -0.002918115
     19        1           0.001352951   -0.000835073   -0.002788228
     20        6           0.005332748    0.006418019   -0.003454314
     21        7          -0.007911000    0.001056377    0.001935913
     22        1           0.000793500    0.000094761   -0.001349158
 -------------------------------------------------------------------
 Cartesian Forces:  Max     0.062656390 RMS     0.015940421
 FormGI is forming the generalized inverse of G from B-inverse, IUseBI=4.

 GradGradGradGradGradGradGradGradGradGradGradGradGradGradGradGradGradGrad
 Berny optimization.
 Internal  Forces:  Max     0.046445532 RMS     0.011930175
 Search for a saddle point.
 Step number   2 out of a maximum of   50
 All quantities printed in internal units (Hartrees-Bohrs-Radians)
 Swapping is turned off.
 Second derivative matrix not updated -- analytic derivatives used.
 ITU=  0  0
     Eigenvalues ---   -0.12994   0.00688   0.01193   0.01341   0.01446
     Eigenvalues ---    0.02041   0.02522   0.03154   0.03648   0.04315
     Eigenvalues ---    0.04774   0.05063   0.06298   0.06467   0.07168
     Eigenvalues ---    0.07730   0.08227   0.09214   0.10111   0.10306
     Eigenvalues ---    0.10717   0.12101   0.12791   0.13662   0.14680
     Eigenvalues ---    0.15344   0.17057   0.19801   0.20499   0.22118
     Eigenvalues ---    0.22922   0.22991   0.24904   0.25522   0.28207
     Eigenvalues ---    0.28983   0.29555   0.29814   0.31688   0.33283
     Eigenvalues ---    0.35959   0.36291   0.36463   0.36900   0.36982
     Eigenvalues ---    0.37021   0.38786   0.39659   0.40372   0.41147
     Eigenvalues ---    0.42751   0.43616   0.47373   0.48878   0.50885
     Eigenvalues ---    0.53091   0.55275   0.85385   0.87112   1.31853
 Eigenvectors required to have negative eigenvalues:
                          R1        R5        D27       D29       D12
   1                    0.71635  -0.23712   0.19891  -0.18092  -0.17891
                          D10       D16       D26       A7        A8
   1                   -0.16968   0.15111  -0.15003   0.14608  -0.13748
 RFO step:  Lambda0=2.457324567D-03 Lambda=-3.64615262D-02.
 Linear search not attempted -- option 19 set.
 Maximum step size (   0.100) exceeded in Quadratic search.
    -- Step size scaled by   0.318
 Iteration  1 RMS(Cart)=  0.02400149 RMS(Int)=  0.00025667
 Iteration  2 RMS(Cart)=  0.00032906 RMS(Int)=  0.00007499
 Iteration  3 RMS(Cart)=  0.00000009 RMS(Int)=  0.00007499
 Variable       Old X    -DE/DX   Delta X   Delta X   Delta X     New X
                                 (Linear)    (Quad)   (Total)
    R1        4.01015  -0.03658   0.00000   0.00228   0.00228   4.01243
    R2        2.68244  -0.03057   0.00000  -0.03374  -0.03371   2.64873
    R3        2.64136  -0.03638   0.00000  -0.03349  -0.03350   2.60786
    R4        2.71696  -0.00461   0.00000  -0.00282  -0.00282   2.71414
    R5        2.73923  -0.03835   0.00000  -0.03941  -0.03941   2.69982
    R6        2.07124  -0.00103   0.00000  -0.00111  -0.00111   2.07013
    R7        2.06772   0.00025   0.00000  -0.00021  -0.00021   2.06751
    R8        2.63502  -0.02942   0.00000  -0.02727  -0.02719   2.60783
    R9        2.04421   0.00314   0.00000   0.00177   0.00177   2.04598
   R10        2.77705  -0.01259   0.00000  -0.01378  -0.01380   2.76325
   R11        2.05406   0.00337   0.00000   0.00266   0.00266   2.05672
   R12        2.80123  -0.00044   0.00000   0.00060   0.00060   2.80183
   R13        1.91664  -0.00092   0.00000  -0.00034  -0.00034   1.91631
   R14        2.60433   0.00424   0.00000   0.01177   0.01170   2.61603
   R15        2.28791  -0.02753   0.00000  -0.00993  -0.00993   2.27798
   R16        2.29554  -0.02156   0.00000  -0.00667  -0.00667   2.28886
   R17        2.55033  -0.00870   0.00000  -0.00664  -0.00664   2.54369
   R18        2.69775  -0.00314   0.00000  -0.00364  -0.00364   2.69411
   R19        2.06693   0.00181   0.00000   0.00108   0.00108   2.06801
   R20        2.07108   0.00183   0.00000   0.00170   0.00170   2.07278
   R21        2.07134   0.00175   0.00000   0.00124   0.00124   2.07258
   R22        2.19202  -0.00795   0.00000  -0.00196  -0.00196   2.19006
    A1        1.68928  -0.00687   0.00000   0.00249   0.00239   1.69167
    A2        1.75401  -0.00663   0.00000  -0.00635  -0.00636   1.74764
    A3        1.82087   0.01400   0.00000   0.00750   0.00747   1.82834
    A4        1.96035  -0.01165   0.00000  -0.01771  -0.01770   1.94265
    A5        2.08996   0.00712   0.00000   0.00832   0.00830   2.09825
    A6        2.05853   0.00305   0.00000   0.00608   0.00609   2.06461
    A7        1.81332  -0.04645   0.00000  -0.01250  -0.01245   1.80088
    A8        1.76908   0.01031   0.00000  -0.01664  -0.01662   1.75246
    A9        1.79156   0.01219   0.00000  -0.01129  -0.01120   1.78036
   A10        2.01761   0.00952   0.00000   0.00813   0.00782   2.02543
   A11        2.01239   0.01235   0.00000   0.01563   0.01541   2.02780
   A12        2.00988  -0.00480   0.00000   0.00479   0.00443   2.01431
   A13        2.20712   0.00227   0.00000  -0.00512  -0.00517   2.20195
   A14        1.90938  -0.01334   0.00000  -0.01038  -0.01032   1.89906
   A15        2.13612   0.01039   0.00000   0.01556   0.01555   2.15167
   A16        2.08864   0.00153   0.00000   0.00694   0.00692   2.09556
   A17        2.10519  -0.00151   0.00000  -0.00046  -0.00049   2.10470
   A18        2.03786   0.00084   0.00000  -0.00282  -0.00285   2.03501
   A19        1.74210   0.02337   0.00000   0.02992   0.03002   1.77213
   A20        2.13133  -0.01047   0.00000  -0.00729  -0.00737   2.12396
   A21        2.17933  -0.01349   0.00000  -0.00886  -0.00904   2.17030
   A22        1.83561   0.00831   0.00000   0.01486   0.01475   1.85036
   A23        1.85154  -0.00726   0.00000  -0.01283  -0.01292   1.83862
   A24        2.21958   0.01737   0.00000   0.02718   0.02721   2.24679
   A25        2.21185  -0.01005   0.00000  -0.01417  -0.01415   2.19770
   A26        2.17013   0.00380   0.00000   0.00229   0.00227   2.17241
   A27        1.89857   0.01320   0.00000   0.01143   0.01142   1.90999
   A28        2.21274  -0.01683   0.00000  -0.01315  -0.01317   2.19957
   A29        1.98168   0.01008   0.00000   0.01015   0.01015   1.99183
   A30        1.88115  -0.00492   0.00000  -0.00664  -0.00664   1.87451
   A31        1.93420   0.00076   0.00000   0.00037   0.00037   1.93457
   A32        1.92377  -0.00033   0.00000  -0.00011  -0.00011   1.92366
   A33        1.89747   0.00315   0.00000   0.00538   0.00538   1.90286
   A34        1.89796   0.00324   0.00000   0.00591   0.00591   1.90386
   A35        1.92811  -0.00185   0.00000  -0.00473  -0.00473   1.92338
   A36        3.11002  -0.00440   0.00000  -0.00926  -0.00926   3.10076
   A37        3.16308  -0.00104   0.00000  -0.00111  -0.00111   3.16197
    D1        0.83097  -0.00778   0.00000  -0.00783  -0.00785   0.82311
    D2        2.92967  -0.01068   0.00000  -0.01034  -0.01032   2.91935
    D3       -1.27122  -0.00772   0.00000  -0.01533  -0.01532  -1.28654
    D4       -1.16340   0.00751   0.00000   0.01130   0.01126  -1.15214
    D5        0.93530   0.00461   0.00000   0.00879   0.00879   0.94410
    D6        3.01759   0.00757   0.00000   0.00380   0.00380   3.02139
    D7        2.97947   0.00158   0.00000   0.00441   0.00440   2.98387
    D8       -1.20501  -0.00131   0.00000   0.00190   0.00193  -1.20308
    D9        0.87728   0.00164   0.00000  -0.00309  -0.00307   0.87421
   D10       -1.34942   0.01664   0.00000   0.00643   0.00641  -1.34300
   D11        1.13804   0.01267   0.00000   0.02170   0.02175   1.15979
   D12        0.47117   0.00354   0.00000  -0.00349  -0.00349   0.46768
   D13        2.95863  -0.00043   0.00000   0.01178   0.01184   2.97047
   D14        2.99998   0.00187   0.00000  -0.00709  -0.00712   2.99286
   D15       -0.79574  -0.00209   0.00000   0.00818   0.00821  -0.78753
   D16        1.45035  -0.01268   0.00000  -0.00425  -0.00418   1.44617
   D17       -0.32795   0.00124   0.00000   0.00076   0.00076  -0.32719
   D18       -2.86878   0.00118   0.00000   0.00322   0.00324  -2.86554
   D19       -1.69890  -0.00210   0.00000  -0.00397  -0.00394  -1.70284
   D20        1.79281  -0.00507   0.00000  -0.01540  -0.01540   1.77742
   D21        2.66279   0.00933   0.00000   0.01982   0.01995   2.68274
   D22       -0.12868   0.00635   0.00000   0.00839   0.00849  -0.12019
   D23        0.24710  -0.01007   0.00000  -0.01796  -0.01808   0.22902
   D24       -2.54437  -0.01305   0.00000  -0.02939  -0.02954  -2.57391
   D25        2.97514  -0.00075   0.00000   0.00386   0.00394   2.97908
   D26        0.51267   0.00115   0.00000  -0.01350  -0.01347   0.49920
   D27       -0.42676  -0.00238   0.00000   0.00642   0.00650  -0.42026
   D28       -2.88923  -0.00048   0.00000  -0.01094  -0.01092  -2.90014
   D29        0.26158  -0.00301   0.00000  -0.01558  -0.01550   0.24608
   D30       -2.90164  -0.00072   0.00000  -0.00728  -0.00715  -2.90878
   D31       -3.12768  -0.00580   0.00000  -0.01660  -0.01656   3.13895
   D32       -0.00771  -0.00351   0.00000  -0.00830  -0.00821  -0.01592
   D33        0.04840   0.00172   0.00000   0.00470   0.00470   0.05310
   D34       -3.03337  -0.00058   0.00000  -0.00460  -0.00464  -3.03801
   D35       -2.75286  -0.00133   0.00000  -0.00829  -0.00825  -2.76111
   D36        0.44855  -0.00363   0.00000  -0.01759  -0.01759   0.43096
   D37        0.03762   0.00137   0.00000   0.00918   0.00921   0.04683
   D38       -3.08247  -0.00135   0.00000   0.00027   0.00050  -3.08197
   D39        3.01624   0.00208   0.00000   0.01117   0.01114   3.02738
   D40       -0.06368  -0.00123   0.00000   0.00088   0.00092  -0.06276
   D41        3.09808   0.00022   0.00000   0.00062   0.00062   3.09870
   D42        1.02376  -0.00103   0.00000  -0.00208  -0.00208   1.02168
   D43       -1.11615   0.00102   0.00000   0.00374   0.00374  -1.11241
         Item               Value     Threshold  Converged?
 Maximum Force            0.046446     0.000450     NO 
 RMS     Force            0.011930     0.000300     NO 
 Maximum Displacement     0.083197     0.001800     NO 
 RMS     Displacement     0.024008     0.001200     NO 
 Predicted change in Energy=-9.321397D-03
 GradGradGradGradGradGradGradGradGradGradGradGradGradGradGradGradGradGrad

                          Input orientation:                          
 ---------------------------------------------------------------------
 Center     Atomic      Atomic             Coordinates (Angstroms)
 Number     Number       Type             X           Y           Z
 ---------------------------------------------------------------------
      1          6           0        1.893677    0.161481   -0.005488
      2          6           0        0.720700   -1.583771    0.288720
      3          6           0        0.386211    1.237575    1.095510
      4          6           0       -0.496476   -1.070382    0.832820
      5          7           0        1.661833    0.734958    1.252283
      6          1           0        0.666982   -1.961553   -0.738139
      7          1           0        1.346695   -2.166363    0.971158
      8          1           0       -0.241104    1.643899    1.878829
      9          1           0       -0.658700   -1.078127    1.909005
     10          8           0        1.153492    0.788906   -0.986773
     11          6           0        0.140539    1.464431   -0.327989
     12          8           0       -0.750088    2.087013   -0.849811
     13          6           0       -1.701113   -0.923863   -0.019045
     14          8           0       -1.765180   -1.263308   -1.179955
     15          8           0       -2.670904   -0.304505    0.679369
     16          6           0       -3.826202    0.020587   -0.090122
     17          1           0       -4.554393    0.474956    0.588756
     18          1           0       -4.265552   -0.880902   -0.534421
     19          1           0       -3.568317    0.742362   -0.874610
     20          6           0        3.199796   -0.328830   -0.346796
     21          7           0        4.248886   -0.759973   -0.584788
     22          1           0        2.007816    0.307905    2.104487
 ---------------------------------------------------------------------
                    Distance matrix (angstroms):
                    1          2          3          4          5
     1  C    0.000000
     2  C    2.123285   0.000000
     3  C    2.154676   2.953437   0.000000
     4  C    2.816572   1.428682   2.484916   0.000000
     5  N    1.401648   2.681546   1.380004   2.844907   0.000000
     6  H    2.559069   1.095465   3.698043   2.148425   3.496095
     7  H    2.582999   1.094077   3.539037   2.148858   2.931894
     8  H    3.210219   3.724429   1.082687   2.920046   2.199978
     9  H    3.422944   2.187178   2.667600   1.088371   3.017190
    10  O    1.380020   2.728331   2.264051   3.080628   2.296670
    11  C    2.207981   3.163614   1.462248   2.859815   2.311650
    12  O    3.377876   4.115109   2.407695   3.586740   3.473357
    13  C    3.755086   2.528908   3.204835   1.482664   3.959465
    14  O    4.098369   2.905048   4.007573   2.387068   4.653307
    15  O    4.639135   3.645834   3.449222   2.310465   4.492362
    16  C    5.722239   4.836507   4.542158   3.623411   5.694813
    17  H    6.482978   5.670537   5.024734   4.349060   6.256942
    18  H    6.269165   5.102381   5.365028   4.013874   6.398219
    19  H    5.561130   5.015964   4.445773   3.954436   5.646077
    20  C    1.436260   2.850381   3.528474   3.950167   2.460494
    21  N    2.594548   3.726896   4.661959   4.962301   3.507492
    22  H    2.118127   2.920978   2.124129   3.128624   1.014066
                    6          7          8          9         10
     6  H    0.000000
     7  H    1.850852   0.000000
     8  H    4.546694   4.226472   0.000000
     9  H    3.089538   2.466865   2.754037   0.000000
    10  O    2.804200   3.550273   3.299634   3.892992   0.000000
    11  C    3.490377   4.040453   2.246754   3.479587   1.384343
    12  O    4.290855   5.079727   2.810852   4.199706   2.308128
    13  C    2.683611   3.437069   3.510976   2.197226   3.466820
    14  O    2.568688   3.889288   4.486738   3.286376   3.573171
    15  O    3.987056   4.437652   3.337500   2.481826   4.312491
    16  C    4.953534   5.715586   4.400548   3.903428   5.117777
    17  H    5.912696   6.476545   4.651362   4.396766   5.929655
    18  H    5.053632   5.951176   5.328656   4.361033   5.688490
    19  H    5.026682   6.002073   4.411863   4.419113   4.723370
    20  C    3.038763   2.923613   4.548061   4.531895   2.417905
    21  N    3.781184   3.580729   5.657564   5.514040   3.484549
    22  H    3.876699   2.800627   2.625538   3.011578   3.243011
                   11         12         13         14         15
    11  C    0.000000
    12  O    1.205455   0.000000
    13  C    3.031678   3.264964   0.000000
    14  O    3.434846   3.516256   1.211213   0.000000
    15  O    3.471039   3.427431   1.346062   2.279633   0.000000
    16  C    4.228036   3.782819   2.326594   2.661566   1.425663
    17  H    4.884861   4.375036   3.235325   3.732239   2.040417
    18  H    4.995681   4.611559   2.616067   2.610518   2.085288
    19  H    3.817825   3.122678   2.644758   2.714267   2.077530
    20  C    3.546152   4.657349   4.947766   5.120390   5.959758
    21  N    4.678936   5.758933   5.979081   6.064368   7.049045
    22  H    3.277380   4.415783   4.447785   5.243259   4.929140
                   16         17         18         19         20
    16  C    0.000000
    17  H    1.094344   0.000000
    18  H    1.096866   1.784183   0.000000
    19  H    1.096761   1.784739   1.799125   0.000000
    20  C    7.039362   7.851673   7.488084   6.872655   0.000000
    21  N    8.127793   8.966604   8.515446   7.965530   1.158929
    22  H    6.239761   6.737057   6.908853   6.336957   2.799113
                   21         22
    21  N    0.000000
    22  H    3.659912   0.000000
 Stoichiometry    C8H8N2O4
 Framework group  C1[X(C8H8N2O4)]
 Deg. of freedom    60
 Full point group                 C1      NOp   1
 Largest Abelian subgroup         C1      NOp   1
 Largest concise Abelian subgroup C1      NOp   1
                         Standard orientation:                         
 ---------------------------------------------------------------------
 Center     Atomic      Atomic             Coordinates (Angstroms)
 Number     Number       Type             X           Y           Z
 ---------------------------------------------------------------------
      1          6           0        1.878567    0.120730    0.008487
      2          6           0        0.677850   -1.613709    0.250021
      3          6           0        0.382210    1.189578    1.131478
      4          6           0       -0.534055   -1.096676    0.802374
      5          7           0        1.649285    0.663472    1.280288
      6          1           0        0.623440   -1.962729   -0.786930
      7          1           0        1.291596   -2.224034    0.919218
      8          1           0       -0.242703    1.584117    1.922701
      9          1           0       -0.701645   -1.131031    1.877215
     10          8           0        1.152788    0.785690   -0.958740
     11          6           0        0.146975    1.458560   -0.286437
     12          8           0       -0.731548    2.108558   -0.795181
     13          6           0       -1.732148   -0.908790   -0.050600
     14          8           0       -1.795668   -1.215710   -1.220559
     15          8           0       -2.695849   -0.293791    0.659990
     16          6           0       -3.842307    0.069600   -0.105579
     17          1           0       -4.566844    0.516526    0.582093
     18          1           0       -4.293088   -0.812730   -0.576115
     19          1           0       -3.569676    0.808293   -0.869052
     20          6           0        3.178761   -0.380078   -0.340125
     21          7           0        4.222349   -0.820611   -0.585010
     22          1           0        1.984581    0.208299    2.122146
 ---------------------------------------------------------------------
 Rotational constants (GHZ):           1.4030482           0.4785668           0.4328121
 Standard basis: STO-3G (5D, 7F)
 There are    78 symmetry adapted cartesian basis functions of A   symmetry.
 There are    78 symmetry adapted basis functions of A   symmetry.
    78 basis functions,   234 primitive gaussians,    78 cartesian basis functions
    51 alpha electrons       51 beta electrons
       nuclear repulsion energy       902.9183565438 Hartrees.
 NAtoms=   22 NActive=   22 NUniq=   22 SFac= 1.00D+00 NAtFMM=   60 NAOKFM=F Big=F
 Integral buffers will be    131072 words long.
 Raffenetti 1 integral format.
 Two-electron integral symmetry is turned on.
 External calculation of energy, first and second derivatives.
 Running external command "~/scripts/MiMe -H 'hf def2svp' -EF 'wb97xd def2svp' -c 12 -m 48GB R"
         input file       "/local/jobs/1157674/Gau-344930.EIn"
         output file      "/local/jobs/1157674/Gau-344930.EOu"
         message file     "/local/jobs/1157674/Gau-344930.EMs"
         fchk file        "/local/jobs/1157674/Gau-344930.EFC"
         mat. el file     "/local/jobs/1157674/Gau-344930.EUF"
 Read checkpoint file Gau-344930_H.chk type G16
 Write formatted file Gau-344930_H.fchk

deriv: 2

spelevel: wb97xd def2svp
gradlevel: wb97xd def2svp
hesslevel: hf def2svp

runspe: False
runforce: True
runfreq: True

Running Gaussian ...

Parsing files ...
SPE file: Gau-344930_F.out
FORCE file: Gau-344930_F.out
HESS file: Gau-344930_H.out

 ExternalExternalExternalExternalExternalExternalExternalExternalExternalExternal
 Output from external command:
 "~/scripts/MiMe -H 'hf def2svp' -EF 'wb97xd def2svp' -c 12 -m 48GB R /local/jobs/1157674/Gau-344930.EIn /local/jobs/1157674/Gau-344930.EOu /local/jobs/1157674/Gau-344930.EMs /local/jobs/1157674/Gau-344930.EFC /local/jobs/1157674/Gau-344930.EUF"
  
 --------------------------------------------------
 Force calculation at wb97xd def2svp
 Hessian calculation at hf def2svp
 ExternalExternalExternalExternalExternalExternalExternalExternalExternalExternal

 Recovered energy= -719.191427456     dipole=     -0.491500000000     -0.038400000000      6.192900000000
 Energy=    -719.191427     NIter=   0.
 Dipole moment=      -0.491500      -0.038400       6.192900
 ***** Axes restored to original set *****
 -------------------------------------------------------------------
 Center     Atomic                   Forces (Hartrees/Bohr)
 Number     Number              X              Y              Z
 -------------------------------------------------------------------
      1        6          -0.002693238   -0.026010093    0.005623810
      2        6          -0.021831687    0.009447474    0.007379503
      3        6           0.009078599   -0.016136930    0.006601573
      4        6           0.029598254    0.000119192   -0.013251062
      5        7          -0.033415834    0.012196197   -0.044545367
      6        1           0.001824102    0.002926411   -0.000431364
      7        1           0.005249223    0.003519254   -0.001529597
      8        1           0.003221049    0.003124358    0.003992077
      9        1          -0.001108248    0.001235155    0.002238256
     10        8           0.013550413   -0.002163447    0.027410217
     11        6          -0.021073306    0.012177030    0.008498775
     12        8           0.016947560   -0.013681818   -0.000272180
     13        6           0.009723265    0.005238089   -0.001678685
     14        8          -0.005661013    0.006107604    0.014015277
     15        8          -0.004261634   -0.004338687   -0.014814175
     16        6          -0.001652028    0.000893608    0.004048404
     17        1           0.001100136    0.000295201    0.003099480
     18        1           0.000595914   -0.000756418   -0.002292659
     19        1           0.001100020   -0.000723096   -0.002176053
     20        6           0.003972986    0.005026429   -0.002392940
     21        7          -0.005594729    0.000601748    0.001280403
     22        1           0.001330198    0.000902739   -0.000803695
 -------------------------------------------------------------------
 Cartesian Forces:  Max     0.044545367 RMS     0.011660701
 FormGI is forming the generalized inverse of G from B-inverse, IUseBI=4.

 GradGradGradGradGradGradGradGradGradGradGradGradGradGradGradGradGradGrad
 Berny optimization.
 Internal  Forces:  Max     0.036158154 RMS     0.008835219
 Search for a saddle point.
 Step number   3 out of a maximum of   50
 All quantities printed in internal units (Hartrees-Bohrs-Radians)
 Swapping is turned off.
 Second derivative matrix not updated -- analytic derivatives used.
 ITU=  0  0  0
     Eigenvalues ---   -0.11655   0.00905   0.01196   0.01377   0.01501
     Eigenvalues ---    0.02097   0.02588   0.03230   0.03729   0.04344
     Eigenvalues ---    0.04804   0.05166   0.06345   0.06548   0.07175
     Eigenvalues ---    0.07760   0.08285   0.09483   0.10117   0.10296
     Eigenvalues ---    0.10748   0.12123   0.13234   0.13756   0.14934
     Eigenvalues ---    0.15482   0.17122   0.19990   0.21475   0.22304
     Eigenvalues ---    0.23032   0.23340   0.25392   0.26156   0.28596
     Eigenvalues ---    0.29239   0.30270   0.31512   0.33347   0.34545
     Eigenvalues ---    0.36127   0.36278   0.36855   0.36915   0.37091
     Eigenvalues ---    0.38197   0.38608   0.40223   0.40414   0.42657
     Eigenvalues ---    0.43483   0.44165   0.48738   0.49369   0.51328
     Eigenvalues ---    0.53788   0.59974   0.88196   0.89557   1.32728
 Eigenvectors required to have negative eigenvalues:
                          R1        R5        D27       D12       D29
   1                    0.72542  -0.22248   0.20731  -0.19055  -0.17777
                          D10       D26       D21       D24       D16
   1                   -0.16280  -0.14451   0.14247  -0.14185   0.14158
 RFO step:  Lambda0=1.746438110D-03 Lambda=-2.05432976D-02.
 Linear search not attempted -- option 19 set.
 Maximum step size (   0.100) exceeded in Quadratic search.
    -- Step size scaled by   0.417
 Iteration  1 RMS(Cart)=  0.02378227 RMS(Int)=  0.00031185
 Iteration  2 RMS(Cart)=  0.00038682 RMS(Int)=  0.00011391
 Iteration  3 RMS(Cart)=  0.00000013 RMS(Int)=  0.00011391
 Variable       Old X    -DE/DX   Delta X   Delta X   Delta X     New X
                                 (Linear)    (Quad)   (Total)
    R1        4.01243  -0.02855   0.00000   0.00559   0.00559   4.01802
    R2        2.64873  -0.02043   0.00000  -0.02942  -0.02938   2.61935
    R3        2.60786  -0.02565   0.00000  -0.02843  -0.02843   2.57943
    R4        2.71414  -0.00313   0.00000  -0.00300  -0.00300   2.71113
    R5        2.69982  -0.02629   0.00000  -0.03605  -0.03605   2.66377
    R6        2.07013  -0.00070   0.00000  -0.00122  -0.00122   2.06891
    R7        2.06751   0.00016   0.00000  -0.00054  -0.00054   2.06696
    R8        2.60783  -0.02006   0.00000  -0.02487  -0.02478   2.58305
    R9        2.04598   0.00219   0.00000   0.00168   0.00168   2.04766
   R10        2.76325  -0.00804   0.00000  -0.01169  -0.01173   2.75152
   R11        2.05672   0.00237   0.00000   0.00249   0.00249   2.05921
   R12        2.80183  -0.00022   0.00000   0.00042   0.00042   2.80225
   R13        1.91631  -0.00060   0.00000  -0.00019  -0.00019   1.91611
   R14        2.61603   0.00349   0.00000   0.01290   0.01280   2.62883
   R15        2.27798  -0.01947   0.00000  -0.00926  -0.00926   2.26872
   R16        2.28886  -0.01485   0.00000  -0.00573  -0.00573   2.28313
   R17        2.54369  -0.00618   0.00000  -0.00637  -0.00637   2.53732
   R18        2.69411  -0.00244   0.00000  -0.00379  -0.00379   2.69032
   R19        2.06801   0.00131   0.00000   0.00101   0.00101   2.06902
   R20        2.07278   0.00131   0.00000   0.00174   0.00174   2.07452
   R21        2.07258   0.00134   0.00000   0.00130   0.00130   2.07388
   R22        2.19006  -0.00555   0.00000  -0.00176  -0.00176   2.18830
    A1        1.69167  -0.00535   0.00000   0.00316   0.00305   1.69472
    A2        1.74764  -0.00576   0.00000  -0.00627  -0.00627   1.74137
    A3        1.82834   0.01122   0.00000   0.00940   0.00937   1.83771
    A4        1.94265  -0.00898   0.00000  -0.01965  -0.01961   1.92303
    A5        2.09825   0.00537   0.00000   0.00815   0.00809   2.10635
    A6        2.06461   0.00244   0.00000   0.00622   0.00620   2.07082
    A7        1.80088  -0.03616   0.00000  -0.01120  -0.01110   1.78977
    A8        1.75246   0.00760   0.00000  -0.02265  -0.02263   1.72983
    A9        1.78036   0.00967   0.00000  -0.01840  -0.01829   1.76207
   A10        2.02543   0.00701   0.00000   0.00935   0.00890   2.03433
   A11        2.02780   0.00951   0.00000   0.01896   0.01861   2.04641
   A12        2.01431  -0.00369   0.00000   0.00656   0.00591   2.02021
   A13        2.20195   0.00126   0.00000  -0.00795  -0.00801   2.19394
   A14        1.89906  -0.00984   0.00000  -0.01020  -0.01012   1.88894
   A15        2.15167   0.00802   0.00000   0.01746   0.01743   2.16910
   A16        2.09556   0.00139   0.00000   0.00848   0.00845   2.10401
   A17        2.10470  -0.00112   0.00000  -0.00100  -0.00104   2.10366
   A18        2.03501   0.00045   0.00000  -0.00283  -0.00288   2.03213
   A19        1.77213   0.01727   0.00000   0.03088   0.03094   1.80306
   A20        2.12396  -0.00748   0.00000  -0.00457  -0.00478   2.11918
   A21        2.17030  -0.01003   0.00000  -0.00633  -0.00665   2.16364
   A22        1.85036   0.00641   0.00000   0.01492   0.01481   1.86518
   A23        1.83862  -0.00528   0.00000  -0.01214  -0.01224   1.82637
   A24        2.24679   0.01357   0.00000   0.02819   0.02823   2.27502
   A25        2.19770  -0.00826   0.00000  -0.01596  -0.01592   2.18178
   A26        2.17241   0.00282   0.00000   0.00226   0.00224   2.17465
   A27        1.90999   0.00983   0.00000   0.01153   0.01151   1.92150
   A28        2.19957  -0.01255   0.00000  -0.01323  -0.01326   2.18631
   A29        1.99183   0.00758   0.00000   0.01048   0.01048   2.00231
   A30        1.87451  -0.00376   0.00000  -0.00702  -0.00702   1.86749
   A31        1.93457   0.00063   0.00000   0.00034   0.00034   1.93492
   A32        1.92366  -0.00038   0.00000  -0.00029  -0.00029   1.92337
   A33        1.90286   0.00249   0.00000   0.00621   0.00621   1.90906
   A34        1.90386   0.00254   0.00000   0.00675   0.00675   1.91062
   A35        1.92338  -0.00149   0.00000  -0.00575  -0.00576   1.91763
   A36        3.10076  -0.00327   0.00000  -0.01027  -0.01027   3.09048
   A37        3.16197  -0.00101   0.00000  -0.00182  -0.00182   3.16015
    D1        0.82311  -0.00600   0.00000  -0.00861  -0.00863   0.81448
    D2        2.91935  -0.00812   0.00000  -0.01091  -0.01093   2.90841
    D3       -1.28654  -0.00628   0.00000  -0.01772  -0.01767  -1.30421
    D4       -1.15214   0.00583   0.00000   0.01229   0.01225  -1.13989
    D5        0.94410   0.00371   0.00000   0.00999   0.00994   0.95404
    D6        3.02139   0.00555   0.00000   0.00318   0.00321   3.02461
    D7        2.98387   0.00130   0.00000   0.00452   0.00451   2.98838
    D8       -1.20308  -0.00082   0.00000   0.00222   0.00221  -1.20088
    D9        0.87421   0.00102   0.00000  -0.00459  -0.00452   0.86969
   D10       -1.34300   0.01330   0.00000   0.00654   0.00651  -1.33649
   D11        1.15979   0.01048   0.00000   0.03113   0.03120   1.19100
   D12        0.46768   0.00271   0.00000  -0.00330  -0.00331   0.46437
   D13        2.97047  -0.00011   0.00000   0.02130   0.02138   2.99185
   D14        2.99286   0.00137   0.00000  -0.00994  -0.00998   2.98288
   D15       -0.78753  -0.00145   0.00000   0.01465   0.01471  -0.77282
   D16        1.44617  -0.01005   0.00000  -0.00508  -0.00500   1.44116
   D17       -0.32719   0.00073   0.00000  -0.00069  -0.00068  -0.32787
   D18       -2.86554   0.00078   0.00000   0.00480   0.00483  -2.86071
   D19       -1.70284  -0.00191   0.00000  -0.00284  -0.00280  -1.70564
   D20        1.77742  -0.00447   0.00000  -0.01819  -0.01819   1.75923
   D21        2.68274   0.00770   0.00000   0.02686   0.02705   2.70979
   D22       -0.12019   0.00514   0.00000   0.01151   0.01166  -0.10853
   D23        0.22902  -0.00840   0.00000  -0.02347  -0.02364   0.20538
   D24       -2.57391  -0.01096   0.00000  -0.03882  -0.03904  -2.61294
[...]
 13904,0.00132812,-0.00026037,-0.00121698,-0.00012718,0.05302407,-0.019
 88805,0.00113764,0.22387151,-0.22581599,0.14894336,-0.29779316,0.23854
 116,-0.00831627,0.02071348,-0.00520905,-0.00661658,-0.00287260,0.00232
 391,-0.05504804,0.03425228,-0.03040259,0.00678329,-0.00606367,-0.00274
 008,0.01354269,-0.01009282,-0.01415306,-0.00038689,0.00079040,-0.00044
 601,0.00035280,0.00092214,0.00062066,0.00076159,-0.00111805,0.00095744
 ,0.00063440,0.00137339,0.00018672,0.01622447,-0.01270600,0.04593041,-0
 .26115756,0.15270399,-0.29578940,0.29662776,-0.17430837,0.30121909,-0.
 00709944,0.01235701,0.00809886,-0.03167123,0.00752911,-0.01087548,-0.0
 2212816,-0.00387109,-0.01261004,-0.20018695,0.02301857,-0.07973219,0.0
 2575441,-0.00423361,-0.00427125,-0.00225109,-0.00190768,-0.00060625,0.
 00078729,0.00315582,0.00182668,0.00204260,0.00166465,-0.00057670,0.013
 22596,-0.00361418,0.01141433,0.00435464,-0.00101480,-0.00084923,0.0135
 6781,-0.01337700,0.02391343,-0.01615430,0.00540612,-0.00995113,0.65567
 988,0.00084595,-0.01345163,-0.00657934,0.02320936,0.00054852,0.0048703
 4,0.00767426,-0.00393621,0.00390359,0.01795782,-0.08214132,0.02242292,
 -0.01592208,0.00367042,0.00678344,-0.00159855,-0.00521601,0.00146067,0
 .00642691,0.00535285,-0.00261112,-0.00123149,-0.00144777,0.00016051,-0
 .00077932,-0.00025397,-0.00339511,-0.00062079,0.00186335,-0.00181982,-
 0.01901874,-0.00290015,-0.01335751,0.01009823,-0.00263005,0.00455254,-
 0.12506413,0.37418683,0.00678489,0.01271202,0.00855490,-0.00628715,-0.
 00035203,0.02429497,-0.01199798,-0.00032748,-0.00743623,-0.05319987,0.
 00779320,-0.16599938,0.01586774,-0.00438549,-0.00816063,0.00363188,-0.
 00147226,-0.00129811,0.00399607,-0.00209441,-0.00291524,-0.00018369,0.
 00006153,-0.00090056,-0.02489747,0.00345203,-0.01418871,0.00140425,-0.
 00309196,-0.00321738,0.01024769,-0.00043815,0.02566255,-0.00938819,0.0
 0014753,-0.01189924,0.08044482,0.16026801,1.04800271,0.00315804,-0.000
 99905,-0.00155596,-0.00060784,0.00031280,-0.00067429,0.00513154,0.0001
 9501,0.00360689,0.00725451,-0.00335377,-0.04111855,-0.00639714,0.00025
 429,-0.00020526,0.00049094,-0.00057213,-0.00181491,0.00007563,-0.00101
 214,-0.00121719,-0.00049506,-0.00027390,0.00012106,-0.00648524,0.00154
 154,-0.00442330,-0.00043190,-0.00079364,-0.00036708,-0.00570273,0.0028
 8829,-0.00579710,0.00447601,-0.00159732,0.00241384,-0.14610949,0.00246
 118,-0.04584422,0.13537475,-0.00025958,0.00082713,0.00159879,-0.000411
 62,-0.00059281,0.00074610,-0.00080855,0.00116907,-0.00040069,0.0043015
 9,0.01865885,-0.00373256,0.00216981,0.00016433,-0.00128744,-0.00066367
 ,0.00025727,0.00092475,-0.00061514,-0.00020631,0.00078694,0.00017183,0
 .00023396,-0.00009345,-0.00005574,0.00262248,0.00055142,-0.00096385,0.
 00065275,-0.00005422,0.00530409,-0.00298921,0.00465779,-0.00505161,-0.
 00033921,-0.00330819,0.00103635,-0.14347448,-0.14039598,-0.02316119,0.
 11695125,-0.00161165,-0.00655324,-0.00656232,0.01056650,-0.00228746,-0
 .00589814,0.00959974,0.00159010,0.00490532,-0.02817551,-0.00771103,-0.
 04681676,-0.01194256,0.00200730,0.00472757,-0.00198848,0.00109345,0.00
 055490,-0.00040762,0.00051549,0.00110718,-0.00014381,-0.00024125,0.000
 58552,-0.00608488,0.00100869,-0.00267059,-0.00082390,0.00212734,0.0028
 6451,-0.00621780,0.00067343,-0.01625607,0.00620172,0.00092683,0.007571
 60,-0.04737099,-0.14269267,-0.73389223,0.03116593,0.19143096,0.8603671
 4,0.00159792,-0.00451366,-0.00273751,0.00057271,0.00258614,-0.00922543
 ,0.00662227,0.00024415,0.00561302,-0.05384498,0.03041578,0.02050145,-0
 .01029356,0.00097233,0.00160074,0.00159853,-0.00018133,0.00021613,-0.0
 0285797,-0.00038183,0.00066643,-0.00057372,0.00004337,0.00028022,-0.00
 092318,-0.00007132,0.00032655,-0.00171432,-0.00046825,0.00020009,-0.00
 696449,0.00571713,-0.01041976,0.00712261,-0.00335805,0.00433478,-0.236
 12303,0.07228449,0.04671628,0.00723686,0.02518558,0.05609719,0.5241691
 6,-0.00174941,0.00411181,0.00215083,-0.00123783,0.00038192,0.00299673,
 -0.00518554,0.00069427,-0.00365980,0.02389468,0.00181103,-0.00886538,0
 .00664087,-0.00181909,-0.00135458,-0.00081550,0.00055116,-0.00017846,0
 .00044047,-0.00017035,0.00016701,0.00082202,0.00068011,0.00008271,-0.0
 0040482,-0.00071110,-0.00016317,0.00034949,0.00035388,0.00077215,0.007
 45227,-0.00408005,0.00629734,-0.00697569,0.00204863,-0.00187295,0.0738
 2686,-0.12565541,-0.04354338,0.02589720,0.00833401,-0.04699387,-0.1874
 6814,0.20155113,-0.00141725,0.00134058,-0.00028046,-0.00311825,0.00045
 622,-0.00210026,-0.00109495,-0.00051839,-0.00003571,-0.01842178,0.0071
 6310,0.01505696,0.00109492,-0.00067176,0.00030145,-0.00109696,0.000355
 84,0.00001344,-0.00075493,0.00056559,0.00069155,0.00066699,0.00070746,
 0.00007450,0.00108163,-0.00068528,0.00258361,0.00084252,-0.00045524,0.
 00083690,-0.00138510,0.00089060,-0.00243149,0.00119140,-0.00013278,0.0
 0185770,0.03348664,-0.03473403,-0.17948564,0.05865426,-0.04827898,-0.0
 6642867,0.02022823,0.05394447,0.40936572,-0.00013966,0.00081716,0.0005
 5432,-0.00120473,-0.00002702,0.00020455,-0.00204613,-0.00014437,-0.001
 33530,0.00462511,0.00109769,0.00173480,0.00289791,0.00019854,-0.000297
 37,-0.00023356,0.00011624,-0.00005441,0.00021361,-0.00002536,0.0001663
 2,-0.00006779,-0.00035151,-0.00022507,0.00000998,0.00001715,-0.0005563
 2,0.00076907,0.00007561,-0.00025042,-0.00036053,-0.00179150,0.00249525
 ,-0.00123029,0.00166343,-0.00164553,-0.06290269,0.03108167,0.00499523,
 0.00218714,-0.00858636,-0.01733003,-0.17249994,0.03279123,-0.05477879,
 0.58842257,0.00065271,-0.00061838,-0.00051678,0.00052078,0.00054266,-0
 .00002402,0.00163095,-0.00010198,0.00161153,0.00029429,0.00422550,-0.0
 0187559,-0.00178580,0.00011499,0.00027175,0.00023026,0.00010207,-0.000
 00559,-0.00029357,-0.00027695,-0.00002870,0.00001219,0.00019245,0.0000
 5041,-0.00018915,-0.00033226,0.00001608,0.00010625,-0.00046130,-0.0001
 3988,-0.00317154,0.00232881,-0.00324651,0.00308091,-0.00111457,0.00173
 605,0.03045369,-0.00974902,0.00618742,-0.00410806,-0.00273969,0.006323
 39,0.03160189,-0.09498937,0.00931236,0.01734574,0.64707250,-0.00037687
 ,0.00037117,0.00048581,0.00051150,-0.00048732,0.00139830,-0.00150822,0
 .00032795,-0.00146629,0.00549066,-0.00337772,-0.00271592,0.00160065,-0
 .00001590,-0.00029854,-0.00026179,0.00001524,-0.00002364,0.00055787,0.
 00000444,-0.00009865,-0.00016428,-0.00017910,-0.00007003,0.00001342,0.
 00023241,0.00014623,-0.00023105,0.00061971,-0.00000505,0.00305537,-0.0
 0276673,0.00359339,-0.00372016,0.00137218,-0.00236618,0.00506269,0.004
 31085,0.03406746,0.00422566,-0.00333123,-0.01037210,-0.08215765,0.0206
 7189,-0.16736481,-0.07374319,0.03081640,0.63532524,0.00016785,-0.00019
 997,-0.00016646,-0.00014641,0.00010540,-0.00047371,0.00046418,0.000063
 20,0.00032148,-0.00131110,0.00078367,0.00096485,-0.00064974,0.00003194
 ,0.00002935,0.00007451,-0.00000956,0.00000416,-0.00014433,0.00000409,0
 .00003447,-0.00007942,0.00000196,0.00002163,-0.00003392,-0.00000523,-0
 .00002180,-0.00012371,-0.00001429,0.00001895,-0.00012669,0.00024529,-0
 .00042468,0.00017589,-0.00031431,0.00008096,0.00009984,-0.00156142,-0.
 00752476,0.00087328,0.00033240,0.00160898,-0.03282151,0.01906522,0.016
 81113,-0.16661646,0.06738239,0.11189959,0.19090669,-0.00003507,0.00005
 875,0.00007222,0.00003082,-0.00003439,0.00017438,-0.00019746,0.0000277
 8,-0.00014868,0.00051768,-0.00016837,-0.00038357,0.00025535,-0.0000023
 6,-0.00003578,-0.00003277,0.00001045,0.00000082,0.00005041,-0.00000939
 ,-0.00000948,-0.00001033,0.00000120,-0.00002387,0.00003238,0.00001707,
 0.00002478,0.00000811,0.00004168,-0.00000401,0.00026873,-0.00021791,0.
 00038312,-0.00032679,0.00000775,-0.00029309,-0.00037595,0.00068179,0.0
 0224214,0.00051964,0.00053230,-0.00036460,0.01108411,-0.00514616,-0.00
 517209,0.06992245,-0.11230948,-0.07407625,-0.08510813,0.11034506,-0.00
 005626,-0.00000055,-0.00003212,-0.00013049,0.00004288,-0.00020798,-0.0
 0002226,-0.00009663,0.00006782,-0.00054881,0.00036595,0.00073796,0.000
 08179,0.00003084,0.00005073,-0.00001304,0.00000540,0.00001028,-0.00005
 904,0.00001743,0.00003896,0.00002022,-0.00000784,0.00000368,0.00004605
 ,-0.00002802,0.00000337,0.00011549,-0.00007096,-0.00001398,-0.00042929
 ,0.00023496,-0.00034350,0.00047506,0.00009388,0.00031891,-0.00331216,0
 .00020676,-0.00567153,0.00212546,-0.00064000,0.00225761,-0.02540717,0.
 01492914,0.01693267,0.12607057,-0.08100393,-0.18790287,-0.11996558,0.0
 8099642,0.19111957,-0.00006376,-0.00006837,-0.00007890,0.00011962,0.00
 011401,-0.00015402,0.00015364,0.00012080,0.00010353,-0.00055178,0.0009
 8044,0.00027871,-0.00026896,-0.00004819,0.00005123,-0.00001065,0.00001
 649,0.00000404,-0.00010058,-0.00003212,0.00003225,0.00002151,0.0000735
 8,0.00002799,0.00011133,-0.00013105,0.00010239,-0.00009757,0.00000807,
 0.00007221,0.00014831,0.00006852,-0.00021469,-0.00011184,-0.00009087,0
 .00007618,0.00482409,-0.00539810,-0.00774071,0.00032715,0.00122950,0.0
 0391384,-0.02803252,-0.01830511,-0.02034819,-0.10068568,-0.07963449,-0
 .03892322,0.01297568,0.01867877,0.00866825,0.11270975,-0.00013985,0.00
 026131,0.00013614,-0.00006789,-0.00004516,0.00000574,-0.00032704,0.000
 12749,-0.00038744,-0.00012903,-0.00066779,0.00025692,0.00036586,-0.000
 13260,-0.00009939,-0.00002675,-0.00000503,-0.00000492,0.00002008,0.000
 03680,0.00000499,0.00002801,-0.00000763,0.00000491,0.00003002,0.000030
 75,0.00003848,-0.00012268,0.00009170,0.00009160,0.00094403,-0.00056084
 ,0.00080822,-0.00104232,0.00020491,-0.00035463,0.00030793,0.00063950,-
 0.00115863,0.00204339,-0.00007218,0.00084134,0.00869505,0.01811957,0.0
 0811471,-0.09004132,-0.24872934,-0.09555873,-0.00513475,-0.00800539,-0
 .00307488,0.09150351,0.25406227,0.00007345,-0.00015111,-0.00006866,0.0
 0011869,0.00011166,-0.00013181,0.00031450,-0.00004968,0.00029357,-0.00
 060000,0.00036141,0.00009058,-0.00035202,0.00001355,0.00007133,0.00003
 585,-0.00000649,0.00001467,-0.00007699,-0.00002504,0.00000131,0.000032
 29,0.00005239,0.00002016,0.00001421,-0.00010799,0.00003313,0.00004422,
 -0.00011760,-0.00004268,-0.00064646,0.00062274,-0.00072113,0.00089387,
 -0.00027400,0.00038210,0.00392971,-0.00225338,-0.00167389,0.00015775,0
 .00077512,0.00111993,-0.01967024,-0.01173279,-0.01262915,-0.04340967,-
 0.09120597,-0.11141518,-0.00918433,-0.01740240,-0.00639917,0.05849975,
 0.10192993,0.11723386,-0.00011366,-0.00067437,-0.00035771,0.00051848,0
 .00005382,-0.00018847,0.00062290,-0.00037381,0.00054487,-0.00136305,-0
 .00029122,0.00025352,-0.00071825,0.00026576,0.00042527,0.00000029,-0.0
 0001308,0.00001755,-0.00003834,-0.00002927,-0.00001519,0.00000658,0.00
 000407,0.00003391,0.00009756,-0.00000292,0.00014916,0.00035556,-0.0001
 7961,-0.00015336,-0.00200632,0.00126156,-0.00177434,0.00126726,-0.0005
 0100,0.00105076,0.00567216,-0.00139971,-0.00554070,-0.00078168,0.00096
 744,0.00187053,-0.00322891,0.03117316,-0.03190799,-0.09065572,-0.06427
 363,0.06889847,-0.00373324,-0.01525369,0.01234878,-0.00152810,-0.00691
 467,0.00977873,0.09556807,-0.00001401,-0.00006682,-0.00004452,0.000035
 26,0.00002356,0.00000411,0.00003314,0.00005346,-0.00011550,0.00016690,
 -0.00011615,-0.00028372,-0.00003272,0.00004988,0.00002511,0.00002194,-
 0.00001820,0.00000265,0.00000562,-0.00001894,-0.00001205,-0.00002988,-
 0.00003028,-0.00000864,-0.00008181,0.00001929,-0.00008332,0.00010971,-
 0.00005068,-0.00001857,0.00009034,-0.00002871,0.00020617,-0.00068551,-
 0.00032170,-0.00013249,-0.00248813,0.00171725,0.00549077,-0.00101548,0
 .00045893,-0.00272222,0.00662737,-0.00516317,0.00803615,-0.05400114,-0
 .18341570,0.12122726,0.00426237,0.01418743,-0.01200077,-0.00909280,-0.
 01528139,0.01942207,0.05609607,0.18799508,0.00018371,-0.00039445,-0.00
 016231,0.00016729,0.00001242,-0.00005765,0.00051266,-0.00019369,0.0006
 2194,-0.00066741,0.00027178,0.00004363,-0.00054488,0.00016379,0.000134
 89,0.00004301,-0.00001341,0.00002742,-0.00004133,-0.00001310,-0.000014
 69,-0.00001581,0.00003591,-0.00001106,0.00003463,-0.00002325,0.0000783
 6,0.00017206,-0.00020716,-0.00012424,-0.00153683,0.00105322,-0.0013673
 5,0.00194725,-0.00038594,0.00057788,0.00449456,-0.00266623,-0.00238814
 ,-0.00021470,0.00025824,0.00166240,-0.00825457,0.01698061,-0.01690278,
 0.05769592,0.12152436,-0.19071403,0.00589819,0.01405408,-0.01097131,-0
 .00439498,-0.01155764,0.01377726,-0.05550331,-0.13899031,0.20573347,-0
 .29452264,0.11122438,0.06197515,-0.02226052,-0.01339382,0.00667672,0.0
 1716193,0.00166035,0.00919001,0.00464099,-0.00646422,-0.00266517,-0.02
 697353,0.00306174,0.01314481,0.00092715,0.00198420,-0.00017804,0.00144
 203,0.00261129,-0.00035690,-0.00015885,0.00086745,0.00028443,0.0006224
 8,0.00056731,0.00041894,-0.04618385,0.01461597,0.00307896,0.00309884,-
 0.00778801,-0.02118644,0.00096774,0.00165884,0.00520928,-0.00052412,-0
 .00034465,-0.00214186,0.00005522,0.00016549,0.00098532,0.00102456,0.00
 016572,0.00043741,-0.00069102,0.00000563,-0.00018085,0.00004852,-0.000
 03231,-0.00002043,0.00009508,0.00006501,0.00003639,0.00001781,-0.00001
 449,-0.00003815,1.45854606,0.07125315,-0.07284945,-0.01267496,-0.00735
 294,0.00292541,0.00300932,-0.02205744,0.01135492,-0.01342328,0.0032117
 1,-0.00263323,0.00027660,0.04193955,-0.02747541,-0.02193998,-0.0009918
 3,-0.00052104,-0.00038773,-0.00115600,-0.00122976,0.00135978,0.0022271
 9,0.00211998,-0.00093651,-0.00025489,0.00021893,-0.00054358,0.03388504
 ,-0.02052138,-0.00187526,-0.00103540,0.00447906,0.02590272,-0.00261760
 ,0.00091860,-0.00700122,-0.00195328,0.00241739,-0.00032416,0.00041551,
 -0.00057389,0.00039976,0.00035797,-0.00086331,-0.00043924,0.00023492,0
 .00022148,-0.00006311,0.00002676,-0.00000032,0.00001541,-0.00004177,-0
 .00009563,0.00001667,0.00009711,0.00001585,0.00010301,-0.51620165,0.33
 544500,0.05896512,-0.03260956,-0.10553238,0.00627911,0.00401049,-0.001
 82932,-0.00834824,-0.00278644,-0.01028346,-0.00063267,0.00251066,0.000
 97987,0.05063368,-0.00948070,-0.00612463,-0.00080407,-0.00068721,0.000
 45267,0.00023387,-0.00091047,0.00043529,0.00095293,-0.00179270,0.00075
 597,-0.00021366,-0.00031261,-0.00017983,-0.02829081,0.01101063,0.01581
 293,0.00205619,-0.00071885,-0.00179303,-0.00383755,0.00262281,-0.00106
 462,-0.00042136,0.00061389,0.00012612,0.00017524,-0.00021640,0.0000881
 4,-0.00009449,-0.00023249,-0.00009602,0.00021469,0.00008169,-0.0000283
 1,-0.00000978,0.00000232,0.00001800,-0.00003217,-0.00004598,0.00000782
 ,0.00004569,0.00000930,0.00004705,-0.33577173,0.12992982,0.23992744,-0
 .02103493,0.00978989,0.01455121,0.00503237,0.00587191,-0.00124322,-0.0
 0922551,0.00182404,-0.00391366,-0.00097755,0.00070787,0.00072503,0.008
 65407,-0.00418339,-0.00644488,-0.00018744,-0.00044199,-0.00006303,-0.0
 0017611,-0.00081227,0.00033598,0.00024244,0.00013216,-0.00040412,-0.00
 028611,-0.00006019,-0.00025869,0.00756695,-0.00220155,0.00107034,0.000
 62917,0.00132149,0.00981631,-0.00254842,0.00087153,-0.00338728,0.00049
 780,0.00049871,0.00100326,-0.00019049,-0.00024552,-0.00051929,-0.00077
 301,-0.00009759,-0.00025729,0.00053184,0.00001704,0.00012335,-0.000042
 11,0.00002562,0.00002326,-0.00006446,-0.00005698,-0.00002440,0.0000226
 6,0.00001173,0.00003718,-1.09871734,0.40203484,0.25893857,1.11214457,0
 .01420956,0.01193787,-0.00747132,-0.00208451,-0.00271432,0.00045787,0.
 00679271,-0.00216375,0.00320789,-0.00003158,-0.00045169,-0.00055864,-0
 .00738291,0.00710411,0.00483759,0.00062198,0.00053654,0.00011815,0.000
 67014,0.00096625,-0.00065475,-0.00056484,-0.00065337,0.00035025,0.0001
 1347,0.00007112,0.00022618,-0.00489675,0.00398475,0.00014994,-0.000114
 55,-0.00053307,-0.00707861,0.00142288,-0.00063105,0.00227035,0.0002243
 4,-0.00072136,-0.00035962,-0.00006464,0.00029198,0.00017874,0.00005886
 ,0.00029050,0.00017343,-0.00018467,-0.00007836,0.00000610,-0.00000084,
 -0.00000495,-0.00000993,0.00002956,0.00004193,0.00000032,-0.00003216,-
 0.00000632,-0.00004240,0.40557953,-0.23187231,-0.10093747,-0.41489033,
 0.21460926,0.01084815,-0.00267643,0.01554104,-0.00142503,-0.00160292,0
 .00029573,0.00232492,0.00006026,0.00211854,0.00027081,-0.00032871,0.00
 007133,-0.00559745,0.00100848,0.00124524,0.00037677,0.00027945,-0.0000
 5250,-0.00020181,0.00009651,-0.00010714,-0.00013867,0.00017554,-0.0000
 0538,0.00002325,0.00004263,0.00009240,0.00217094,-0.00069829,-0.001887
 30,-0.00041024,0.00030267,-0.00137356,0.00104349,-0.00068531,0.0008702
 1,-0.00005938,-0.00023952,-0.00045508,0.00001059,0.00010152,0.00027460
 ,0.00015888,0.00005927,0.00013711,-0.00014030,-0.00001092,-0.00004064,
 0.00000868,-0.00000492,-0.00000278,0.00002025,0.00001885,0.00000157,-0
 .00000944,-0.00000903,-0.00001599,0.26092792,-0.10098715,-0.13221778,-
 0.26995601,0.10497003,0.11546491,0.00641386,-0.01356156,0.00227793,0.0
 0386183,0.00132797,-0.00103623,-0.00648909,0.00073377,-0.02917040,-0.0
 0081592,0.00324273,0.00120123,-0.15671444,0.07580304,-0.15123635,-0.00
 005644,-0.00013839,0.00010117,0.00002981,-0.00047374,0.00008764,0.0002
 2893,-0.00130504,0.00107674,-0.00047278,-0.00070958,0.00017478,0.00603
 636,0.00314730,0.00693133,-0.00659784,0.00582183,0.00158455,0.00036702
 ,-0.00043331,-0.00158350,-0.00135598,0.00040041,-0.00034551,0.00056052
 ,-0.00004126,0.00060679,0.00070652,-0.00027954,0.00008634,-0.00032305,
 0.00012151,-0.00017195,0.00004220,-0.00002158,-0.00001039,0.00002972,0
 .00000038,0.00003469,0.00001795,-0.00000449,0.00002552,0.00138346,-0.0
 0202097,-0.00003854,-0.00109839,0.00052474,-0.00024633,0.15424574,-0.0
 1685428,0.00621470,-0.01656603,0.00116641,0.00076350,-0.00048478,-0.00
 359709,-0.00210881,0.01194315,-0.00019630,0.00088975,0.00059492,0.0838
 0435,-0.07164887,0.09095760,0.00018861,-0.00015851,0.00011437,-0.00016
 028,-0.00107204,-0.00001085,-0.00130491,-0.00153262,-0.00012960,-0.000
 33073,-0.00015446,0.00008510,0.00499206,0.00160330,-0.00243614,0.00488
 899,0.00260305,-0.00039180,-0.00013704,-0.00036357,0.00080946,-0.00108
 060,0.00049949,-0.00041110,0.00042244,-0.00016654,0.00044952,0.0005683
 7,-0.00033000,0.00002730,-0.00020858,0.00011593,-0.00011953,0.00004381
 ,-0.00001256,-0.00000555,0.00001961,-0.00001324,0.00002060,0.00002014,
 -0.00000269,0.00003015,0.00000623,-0.00148087,-0.00006075,-0.00011701,
 -0.00000376,0.00012798,-0.07213423,0.06635881,-0.01652574,0.01371468,-
 0.01196662,0.00251044,0.00071042,-0.00070750,-0.00135310,-0.00115044,0
 .01141238,0.00066785,0.00199697,0.00150443,-0.15819873,0.07386916,-0.3
 6538251,-0.00006844,-0.00008467,0.00000642,-0.00024531,-0.00040268,0.0
 0035185,0.00009406,-0.00009591,0.00020238,0.00004292,-0.00023546,0.000
 01540,0.00079633,-0.00333096,-0.00353629,0.00321418,0.00003623,-0.0000
 7469,0.00005330,-0.00056264,0.00125360,-0.00203557,0.00079521,-0.00112
 674,0.00057588,-0.00009248,0.00081047,0.00102683,-0.00045529,-0.000096
 62,-0.00036527,0.00012644,-0.00013416,0.00006870,-0.00003154,-0.000014
 32,0.00003628,-0.00000957,0.00003438,0.00003327,-0.00000243,0.00002527
 ,0.00017427,-0.00041692,0.00049808,-0.00015263,0.00016589,0.00004547,0
 .16965048,-0.08454403,0.36687934\\0.00000421,0.00000315,0.00000004,-0.
 00000112,-0.00000212,-0.00000244,0.00000269,-0.00000215,0.00000082,0.0
 0000065,0.00000200,-0.00000094,-0.00000337,-0.00000007,0.00000198,-0.0
 0000033,0.00000251,-0.00000247,0.00000070,-0.00000156,-0.00000388,-0.0
 0000148,-0.00000360,0.00000211,0.00000131,-0.00000335,-0.00000106,0.00
 000612,0.00000655,0.00000318,-0.00000526,-0.00000242,0.00000130,0.0000
 0145,0.00000040,-0.00000037,0.00000740,0.00000869,-0.00000487,-0.00001
 585,-0.00001631,0.00000364,0.00000822,0.00000899,-0.00000040,0.0000007
 4,0.00000153,0.00000075,0.00000284,0.00000354,0.00000240,-0.00000364,-
 0.00000096,0.00000665,-0.00000262,-0.00000329,-0.00000274,-0.00000564,
 0.00000630,-0.00002950,0.00000456,-0.00000423,0.00002489,-0.00000158,-
 0.00000359,0.00000090\\\@
 The archive entry for this job was punched.


 REALITY IS FOR PEOPLE WHO CAN'T FACE SCIENCE FICTION.
 Job cpu time:       0 days  4 hours  3 minutes 52.4 seconds.
 Elapsed time:       0 days  0 hours 38 minutes  8.7 seconds.
 File lengths (MBytes):  RWF=      6 Int=      0 D2E=      0 Chk=      2 Scr=      1
 Normal termination of Gaussian 16 at Wed Jan 17 00:13:13 2024.
