Unloading slurm/anatra/current
  ERROR: No such file or directory on
    '/cm/local/modulefiles/slurm/anatra/current'
environment: line 0: unalias: gv: not found
environment: line 0: unalias: sl: not found
 Entering Gaussian System, Link 0=g16
 Initial command:
 /apps/gaussian/g16/C.01/g16/l1.exe "/local/jobs/1157676/Gau-3114466.inp" -scrdir="/local/jobs/1157676/"
 Entering Link 1 = /apps/gaussian/g16/C.01/g16/l1.exe PID=   3114469.
  
 Copyright (c) 1988-2019, Gaussian, Inc.  All Rights Reserved.
  
 This is part of the Gaussian(R) 16 program.  It is based on
 the Gaussian(R) 09 system (copyright 2009, Gaussian, Inc.),
 the Gaussian(R) 03 system (copyright 2003, Gaussian, Inc.),
 the Gaussian(R) 98 system (copyright 1998, Gaussian, Inc.),
 the Gaussian(R) 94 system (copyright 1995, Gaussian, Inc.),
 the Gaussian 92(TM) system (copyright 1992, Gaussian, Inc.),
 the Gaussian 90(TM) system (copyright 1990, Gaussian, Inc.),
 the Gaussian 88(TM) system (copyright 1988, Gaussian, Inc.),
 the Gaussian 86(TM) system (copyright 1986, Carnegie Mellon
 University), and the Gaussian 82(TM) system (copyright 1983,
 Carnegie Mellon University). Gaussian is a federally registered
 trademark of Gaussian, Inc.
  
 This software contains proprietary and confidential information,
 including trade secrets, belonging to Gaussian, Inc.
  
 This software is provided under written license and may be
 used, copied, transmitted, or stored only in accord with that
 written license.
  
 The following legend is applicable only to US Government
 contracts under FAR:
  
                    RESTRICTED RIGHTS LEGEND
  
 Use, reproduction and disclosure by the US Government is
 subject to restrictions as set forth in subparagraphs (a)
 and (c) of the Commercial Computer Software - Restricted
 Rights clause in FAR 52.227-19.
  
 Gaussian, Inc.
 340 Quinnipiac St., Bldg. 40, Wallingford CT 06492
  
  
 ---------------------------------------------------------------
 Warning -- This program may not be used in any manner that
 competes with the business of Gaussian, Inc. or will provide
 assistance to any competitor of Gaussian, Inc.  The licensee
 of this program is prohibited from giving any competitor of
 Gaussian, Inc. access to this program.  By using this program,
 the user acknowledges that Gaussian, Inc. is engaged in the
 business of creating and licensing software in the field of
 computational chemistry and represents and warrants to the
 licensee that it is not a competitor of Gaussian, Inc. and that
 it will not use this program in any manner prohibited above.
 ---------------------------------------------------------------
  

 Cite this work as:
 Gaussian 16, Revision C.01,
 M. J. Frisch, G. W. Trucks, H. B. Schlegel, G. E. Scuseria, 
 M. A. Robb, J. R. Cheeseman, G. Scalmani, V. Barone, 
 G. A. Petersson, H. Nakatsuji, X. Li, M. Caricato, A. V. Marenich, 
 J. Bloino, B. G. Janesko, R. Gomperts, B. Mennucci, H. P. Hratchian, 
 J. V. Ortiz, A. F. Izmaylov, J. L. Sonnenberg, D. Williams-Young, 
 F. Ding, F. Lipparini, F. Egidi, J. Goings, B. Peng, A. Petrone, 
 T. Henderson, D. Ranasinghe, V. G. Zakrzewski, J. Gao, N. Rega, 
 G. Zheng, W. Liang, M. Hada, M. Ehara, K. Toyota, R. Fukuda, 
 J. Hasegawa, M. Ishida, T. Nakajima, Y. Honda, O. Kitao, H. Nakai, 
 T. Vreven, K. Throssell, J. A. Montgomery, Jr., J. E. Peralta, 
 F. Ogliaro, M. J. Bearpark, J. J. Heyd, E. N. Brothers, K. N. Kudin, 
 V. N. Staroverov, T. A. Keith, R. Kobayashi, J. Normand, 
 K. Raghavachari, A. P. Rendell, J. C. Burant, S. S. Iyengar, 
 J. Tomasi, M. Cossi, J. M. Millam, M. Klene, C. Adamo, R. Cammi, 
 J. W. Ochterski, R. L. Martin, K. Morokuma, O. Farkas, 
 J. B. Foresman, and D. J. Fox, Gaussian, Inc., Wallingford CT, 2019.
 
 ******************************************
 Gaussian 16:  ES64L-G16RevC.01  3-Jul-2019
                17-Jan-2024 
 ******************************************
 %nprocshared=12
 Will use up to   12 processors via shared memory.
 %mem=48GB
 ----------------------------------------------------------------------
 # external="~/scripts/MiMe -H 'hf def2svp' -EF 'wb97xd def2svp' -c 12 
 -m 48GB" opt=(calcall,ts,noeigen,maxcycles=50,maxstep=10,nomicro)
 ----------------------------------------------------------------------
 1/5=1,6=50,8=10,10=4,11=1,18=20,26=1,38=1/1,3;
 2/9=110,12=2,17=6,18=5,40=1/2;
 3/11=9,25=1,30=1,41=9900000,43=2,71=2,140=1/1;
 4/20=17,22=2,24=3,113=1,114=1/2;
 6/7=2,8=2,9=2,10=2,18=1/1;
 7/25=1,44=-1/16;
 1/5=1,6=50,8=10,10=4,11=1,18=20,26=1/3(3);
 2/9=110/2;
 7/8=1,9=1,25=1,44=-1/16;
 99//99;
 2/9=110/2;
 3/11=9,25=1,30=1,41=9900000,43=2,71=2,140=1/1;
 4/16=2,20=17,22=2,24=3,113=1,114=1/2;
 7/25=1,44=-1/16;
 1/5=1,6=50,8=10,10=4,11=1,18=20,26=1/3(-4);
 2/9=110/2;
 6/7=2,8=2,9=2,10=2,18=1/1;
 7/8=1,9=1,25=1,44=-1/16;
 99//99;
 -----
 *****
 -----
 Symbolic Z-matrix:
 Charge =  0 Multiplicity = 1
 C                    -1.7636    0.7699    0.2683 
 C                    -0.1675   -0.738     1.1357 
 C                     0.7533    2.4397    0.2956 
 C                     1.1138   -0.1249    1.2214 
 C                    -1.0805    1.2934   -0.9068 
 C                     0.0402    2.0307   -0.887 
 H                     1.791     2.7443    0.2033 
 H                     0.2454    2.5838    1.2414 
 H                     0.5118    2.2904   -1.8343 
 H                    -1.4816    0.9954   -1.8757 
 H                    -1.6872    1.3437    1.1913 
 H                    -0.8179   -0.9253    1.9752 
 H                     1.5485    0.3896    2.0581 
 O                     1.1261   -1.5056   -0.5878 
 C                    -0.0814   -1.6867    0.0162 
 C                     1.8935   -0.602     0.0816 
 O                    -0.9323   -2.5015   -0.2865 
 O                     3.0294   -0.2639   -0.1903 
 C                    -3.0576    0.0356    0.0627 
 H                    -3.2259   -0.6598    0.891 
 H                    -3.8936    0.741     0.0377 
 H                    -3.0574   -0.5413   -0.8673 
 
 Add virtual bond connecting atoms C2         and C1         Dist= 4.46D+00.

 GradGradGradGradGradGradGradGradGradGradGradGradGradGradGradGradGradGrad
 Berny optimization.
 Initialization pass.
                           ----------------------------
                           !    Initial Parameters    !
                           ! (Angstroms and Degrees)  !
 --------------------------                            --------------------------
 ! Name  Definition              Value          Derivative Info.                !
 --------------------------------------------------------------------------------
 ! R1    R(1,2)                  2.3609         calculate D2E/DX2 analytically  !
 ! R2    R(1,5)                  1.4565         calculate D2E/DX2 analytically  !
 ! R3    R(1,11)                 1.0895         calculate D2E/DX2 analytically  !
 ! R4    R(1,19)                 1.502          calculate D2E/DX2 analytically  !
 ! R5    R(2,4)                  1.423          calculate D2E/DX2 analytically  !
 ! R6    R(2,12)                 1.0784         calculate D2E/DX2 analytically  !
 ! R7    R(2,15)                 1.4699         calculate D2E/DX2 analytically  !
 ! R8    R(3,6)                  1.4403         calculate D2E/DX2 analytically  !
 ! R9    R(3,7)                  1.0854         calculate D2E/DX2 analytically  !
 ! R10   R(3,8)                  1.0832         calculate D2E/DX2 analytically  !
 ! R11   R(4,13)                 1.0741         calculate D2E/DX2 analytically  !
 ! R12   R(4,16)                 1.4611         calculate D2E/DX2 analytically  !
 ! R13   R(5,6)                  1.3416         calculate D2E/DX2 analytically  !
 ! R14   R(5,10)                 1.0902         calculate D2E/DX2 analytically  !
 ! R15   R(6,9)                  1.0896         calculate D2E/DX2 analytically  !
 ! R16   R(14,15)                1.3622         calculate D2E/DX2 analytically  !
 ! R17   R(14,16)                1.3614         calculate D2E/DX2 analytically  !
 ! R18   R(15,17)                1.2164         calculate D2E/DX2 analytically  !
 ! R19   R(16,18)                1.2159         calculate D2E/DX2 analytically  !
 ! R20   R(19,20)                1.0945         calculate D2E/DX2 analytically  !
 ! R21   R(19,21)                1.0941         calculate D2E/DX2 analytically  !
 ! R22   R(19,22)                1.0944         calculate D2E/DX2 analytically  !
 ! A1    A(2,1,5)              102.0583         calculate D2E/DX2 analytically  !
 ! A2    A(2,1,11)              88.7231         calculate D2E/DX2 analytically  !
 ! A3    A(2,1,19)             108.6926         calculate D2E/DX2 analytically  !
 ! A4    A(5,1,11)             117.4711         calculate D2E/DX2 analytically  !
 ! A5    A(5,1,19)             117.9905         calculate D2E/DX2 analytically  !
 ! A6    A(11,1,19)            115.713          calculate D2E/DX2 analytically  !
 ! A7    A(1,2,4)              110.8352         calculate D2E/DX2 analytically  !
 ! A8    A(1,2,12)              89.3813         calculate D2E/DX2 analytically  !
 ! A9    A(1,2,15)              99.9044         calculate D2E/DX2 analytically  !
 ! A10   A(4,2,12)             124.8216         calculate D2E/DX2 analytically  !
 ! A11   A(4,2,15)             105.7353         calculate D2E/DX2 analytically  !
 ! A12   A(12,2,15)            121.0729         calculate D2E/DX2 analytically  !
 ! A13   A(6,3,7)              118.8962         calculate D2E/DX2 analytically  !
 ! A14   A(6,3,8)              121.5058         calculate D2E/DX2 analytically  !
 ! A15   A(7,3,8)              119.026          calculate D2E/DX2 analytically  !
 ! A16   A(2,4,13)             128.1473         calculate D2E/DX2 analytically  !
 ! A17   A(2,4,16)             107.0278         calculate D2E/DX2 analytically  !
 ! A18   A(13,4,16)            123.2384         calculate D2E/DX2 analytically  !
 ! A19   A(1,5,6)              125.2655         calculate D2E/DX2 analytically  !
 ! A20   A(1,5,10)             116.5022         calculate D2E/DX2 analytically  !
 ! A21   A(6,5,10)             118.0784         calculate D2E/DX2 analytically  !
 ! A22   A(3,6,5)              125.5749         calculate D2E/DX2 analytically  !
 ! A23   A(3,6,9)              115.5874         calculate D2E/DX2 analytically  !
 ! A24   A(5,6,9)              118.6657         calculate D2E/DX2 analytically  !
 ! A25   A(15,14,16)           111.7078         calculate D2E/DX2 analytically  !
 ! A26   A(2,15,14)            107.6862         calculate D2E/DX2 analytically  !
 ! A27   A(2,15,17)            125.5125         calculate D2E/DX2 analytically  !
 ! A28   A(14,15,17)           126.7837         calculate D2E/DX2 analytically  !
 ! A29   A(4,16,14)            107.4277         calculate D2E/DX2 analytically  !
 ! A30   A(4,16,18)            125.6035         calculate D2E/DX2 analytically  !
 ! A31   A(14,16,18)           126.9537         calculate D2E/DX2 analytically  !
 ! A32   A(1,19,20)            109.8463         calculate D2E/DX2 analytically  !
 ! A33   A(1,19,21)            110.256          calculate D2E/DX2 analytically  !
 ! A34   A(1,19,22)            111.9551         calculate D2E/DX2 analytically  !
 ! A35   A(20,19,21)           108.0242         calculate D2E/DX2 analytically  !
 ! A36   A(20,19,22)           107.9507         calculate D2E/DX2 analytically  !
 ! A37   A(21,19,22)           108.6978         calculate D2E/DX2 analytically  !
 ! D1    D(5,1,2,4)             48.732          calculate D2E/DX2 analytically  !
 ! D2    D(5,1,2,12)           176.0978         calculate D2E/DX2 analytically  !
 ! D3    D(5,1,2,15)           -62.4302         calculate D2E/DX2 analytically  !
 ! D4    D(11,1,2,4)           -69.1119         calculate D2E/DX2 analytically  !
 ! D5    D(11,1,2,12)           58.2539         calculate D2E/DX2 analytically  !
 ! D6    D(11,1,2,15)          179.7259         calculate D2E/DX2 analytically  !
 ! D7    D(19,1,2,4)           174.1062         calculate D2E/DX2 analytically  !
 ! D8    D(19,1,2,12)          -58.528          calculate D2E/DX2 analytically  !
 ! D9    D(19,1,2,15)           62.944          calculate D2E/DX2 analytically  !
 ! D10   D(2,1,5,6)            -64.8161         calculate D2E/DX2 analytically  !
 ! D11   D(2,1,5,10)           110.5683         calculate D2E/DX2 analytically  !
 ! D12   D(11,1,5,6)            30.082          calculate D2E/DX2 analytically  !
 ! D13   D(11,1,5,10)         -154.5336         calculate D2E/DX2 analytically  !
 ! D14   D(19,1,5,6)           176.1929         calculate D2E/DX2 analytically  !
 ! D15   D(19,1,5,10)           -8.4227         calculate D2E/DX2 analytically  !
 ! D16   D(2,1,19,20)           39.3806         calculate D2E/DX2 analytically  !
 ! D17   D(2,1,19,21)          158.3171         calculate D2E/DX2 analytically  !
 ! D18   D(2,1,19,22)          -80.5386         calculate D2E/DX2 analytically  !
 ! D19   D(5,1,19,20)          154.8215         calculate D2E/DX2 analytically  !
 ! D20   D(5,1,19,21)          -86.242          calculate D2E/DX2 analytically  !
 ! D21   D(5,1,19,22)           34.9023         calculate D2E/DX2 analytically  !
 ! D22   D(11,1,19,20)         -58.4829         calculate D2E/DX2 analytically  !
 ! D23   D(11,1,19,21)          60.4536         calculate D2E/DX2 analytically  !
 ! D24   D(11,1,19,22)        -178.4022         calculate D2E/DX2 analytically  !
 ! D25   D(1,2,4,13)            92.6643         calculate D2E/DX2 analytically  !
 ! D26   D(1,2,4,16)          -101.5268         calculate D2E/DX2 analytically  !
 ! D27   D(12,2,4,13)          -11.8511         calculate D2E/DX2 analytically  !
 ! D28   D(12,2,4,16)          153.9578         calculate D2E/DX2 analytically  !
 ! D29   D(15,2,4,13)         -159.9723         calculate D2E/DX2 analytically  !
 ! D30   D(15,2,4,16)            5.8366         calculate D2E/DX2 analytically  !
 ! D31   D(1,2,15,14)          108.5901         calculate D2E/DX2 analytically  !
 ! D32   D(1,2,15,17)          -72.8508         calculate D2E/DX2 analytically  !
 ! D33   D(4,2,15,14)           -6.5173         calculate D2E/DX2 analytically  !
 ! D34   D(4,2,15,17)          172.0418         calculate D2E/DX2 analytically  !
 ! D35   D(12,2,15,14)        -156.1071         calculate D2E/DX2 analytically  !
 ! D36   D(12,2,15,17)          22.452          calculate D2E/DX2 analytically  !
 ! D37   D(7,3,6,5)            160.3092         calculate D2E/DX2 analytically  !
 ! D38   D(7,3,6,9)            -14.8361         calculate D2E/DX2 analytically  !
 ! D39   D(8,3,6,5)            -28.4499         calculate D2E/DX2 analytically  !
 ! D40   D(8,3,6,9)            156.4048         calculate D2E/DX2 analytically  !
 ! D41   D(2,4,16,14)           -3.2395         calculate D2E/DX2 analytically  !
 ! D42   D(2,4,16,18)          178.0984         calculate D2E/DX2 analytically  !
 ! D43   D(13,4,16,14)         163.4334         calculate D2E/DX2 analytically  !
 ! D44   D(13,4,16,18)         -15.2287         calculate D2E/DX2 analytically  !
 ! D45   D(1,5,6,3)             -0.5253         calculate D2E/DX2 analytically  !
 ! D46   D(1,5,6,9)            174.4842         calculate D2E/DX2 analytically  !
 ! D47   D(10,5,6,3)          -175.8436         calculate D2E/DX2 analytically  !
 ! D48   D(10,5,6,9)            -0.8341         calculate D2E/DX2 analytically  !
 ! D49   D(16,14,15,2)           4.7089         calculate D2E/DX2 analytically  !
 ! D50   D(16,14,15,17)       -173.8266         calculate D2E/DX2 analytically  !
 ! D51   D(15,14,16,4)          -0.9927         calculate D2E/DX2 analytically  !
 ! D52   D(15,14,16,18)        177.646          calculate D2E/DX2 analytically  !
 --------------------------------------------------------------------------------
 Trust Radius=1.00D-01 FncErr=1.00D-07 GrdErr=1.00D-07 EigMax=2.50D+02 EigMin=1.00D-04
 Number of steps in this run=     50 maximum allowed number of steps=    132.
 Search for a saddle point of order  1.
 GradGradGradGradGradGradGradGradGradGradGradGradGradGradGradGradGradGrad

                          Input orientation:                          
 ---------------------------------------------------------------------
 Center     Atomic      Atomic             Coordinates (Angstroms)
 Number     Number       Type             X           Y           Z
 ---------------------------------------------------------------------
      1          6           0       -1.763600    0.769900    0.268300
      2          6           0       -0.167500   -0.738000    1.135700
      3          6           0        0.753300    2.439700    0.295600
      4          6           0        1.113800   -0.124900    1.221400
      5          6           0       -1.080500    1.293400   -0.906800
      6          6           0        0.040200    2.030700   -0.887000
      7          1           0        1.791000    2.744300    0.203300
      8          1           0        0.245400    2.583800    1.241400
      9          1           0        0.511800    2.290400   -1.834300
     10          1           0       -1.481600    0.995400   -1.875700
     11          1           0       -1.687200    1.343700    1.191300
     12          1           0       -0.817900   -0.925300    1.975200
     13          1           0        1.548500    0.389600    2.058100
     14          8           0        1.126100   -1.505600   -0.587800
     15          6           0       -0.081400   -1.686700    0.016200
     16          6           0        1.893500   -0.602000    0.081600
     17          8           0       -0.932300   -2.501500   -0.286500
     18          8           0        3.029400   -0.263900   -0.190300
     19          6           0       -3.057600    0.035600    0.062700
     20          1           0       -3.225900   -0.659800    0.891000
     21          1           0       -3.893600    0.741000    0.037700
     22          1           0       -3.057400   -0.541300   -0.867300
 ---------------------------------------------------------------------
                    Distance matrix (angstroms):
                    1          2          3          4          5
     1  C    0.000000
     2  C    2.360864   0.000000
     3  C    3.020557   3.413417   0.000000
     4  C    3.160458   1.423013   2.750316   0.000000
     5  C    1.456550   3.021914   2.474387   3.369831   0.000000
     6  C    2.485564   3.435135   1.440255   3.200715   1.341630
     7  H    4.066652   4.102622   1.085413   3.118884   3.403373
     8  H    2.876324   3.349032   1.083174   2.844569   2.835120
     9  H    3.451129   4.295760   2.148741   3.941241   2.095157
    10  H    2.174192   3.714844   3.434432   4.193233   1.090162
    11  H    1.089501   2.577994   2.821265   3.162798   2.184637
    12  H    2.584871   1.078361   4.075899   2.222683   3.646575
    13  H    3.783916   2.250991   2.818095   1.074123   4.064373
    14  O    3.776397   2.287589   4.060144   2.275893   3.578442
    15  C    2.988015   1.469941   4.219238   2.306562   3.275840
    16  C    3.910415   2.318910   3.255425   1.461061   3.662534
    17  O    3.420661   2.391130   5.253146   3.479729   3.848117
    18  O    4.924622   3.493310   3.567378   2.383640   4.453070
    19  C    1.501967   3.178437   4.511862   4.332312   2.535925
    20  H    2.137784   3.069170   5.078921   4.385006   3.413183
    21  H    2.142641   4.156545   4.954369   5.217757   3.018403
    22  H    2.163967   3.521679   4.975955   4.683478   2.697372
                    6          7          8          9         10
     6  C    0.000000
     7  H    2.182494   0.000000
     8  H    2.208645   1.868767   0.000000
     9  H    1.089600   2.448304   3.101126   0.000000
    10  H    2.089318   4.253328   3.901520   2.377474   0.000000
    11  H    2.788406   3.877589   2.296802   3.858251   3.093553
    12  H    4.203149   4.838590   3.739365   5.159566   4.354195
    13  H    3.693480   3.007275   2.679474   4.454050   5.002328
    14  O    3.711350   4.373738   4.565610   4.042368   3.835855
    15  C    3.827482   4.814006   4.454782   4.426461   3.568404
    16  C    3.362145   3.350081   3.769707   3.734400   4.215923
    17  O    4.674098   5.930825   5.438909   5.238646   3.880154
    18  O    3.832218   3.276862   4.231999   3.945313   4.977502
    19  C    3.805091   5.555695   4.335028   4.628536   2.676264
    20  H    4.589933   6.101648   4.763785   5.486469   3.665638
    21  H    4.241837   6.029537   4.687870   5.031160   3.089266
    22  H    4.026251   5.953850   5.012121   4.657553   2.421046
                   11         12         13         14         15
    11  H    0.000000
    12  H    2.553144   0.000000
    13  H    3.483016   2.708447   0.000000
    14  O    4.381594   3.268769   3.281919   0.000000
    15  C    3.625297   2.227071   3.337207   1.362230   0.000000
    16  C    4.223576   3.322941   2.238046   1.361430   2.254125
    17  O    4.187998   2.759127   4.473251   2.306428   1.216370
    18  O    5.171026   4.464141   2.770457   2.307028   3.426963
    19  C    2.205189   3.097941   5.032206   4.505751   3.438931
    20  H    2.543971   2.654137   5.025759   4.673557   3.421649
    21  H    2.561687   3.998799   5.815664   5.534966   4.519630
    22  H    3.109422   3.639041   5.535238   4.302286   3.308941
                   16         17         18         19         20
    16  C    0.000000
    17  O    3.424725   0.000000
    18  O    1.215940   4.550953   0.000000
    19  C    4.992022   3.328020   6.099613   0.000000
    20  H    5.183312   3.168433   6.360403   1.094526   0.000000
    21  H    5.941052   4.403204   6.999267   1.094125   1.770928
    22  H    5.041379   2.948858   6.130613   1.094401   1.770326
                   21         22
    21  H    0.000000
    22  H    1.778356   0.000000
 Stoichiometry    C9H10O3
 Framework group  C1[X(C9H10O3)]
 Deg. of freedom    60
 Full point group                 C1      NOp   1
 Largest Abelian subgroup         C1      NOp   1
 Largest concise Abelian subgroup C1      NOp   1
                         Standard orientation:                         
 ---------------------------------------------------------------------
 Center     Atomic      Atomic             Coordinates (Angstroms)
 Number     Number       Type             X           Y           Z
 ---------------------------------------------------------------------
      1          6           0       -1.863769    0.578273    0.323083
      2          6           0       -0.066985   -0.753794    1.078623
      3          6           0        0.423099    2.550827    0.378113
      4          6           0        1.129016    0.012251    1.166500
      5          6           0       -1.285318    1.238571   -0.839216
      6          6           0       -0.266047    2.110378   -0.807390
      7          1           0        1.411272    2.988616    0.278232
      8          1           0       -0.071980    2.584946    1.340920
      9          1           0        0.142248    2.471813   -1.750729
     10          1           0       -1.672979    0.937702   -1.812689
     11          1           0       -1.834058    1.113353    1.271671
     12          1           0       -0.664732   -1.061144    1.921889
     13          1           0        1.519059    0.538074    2.018039
     14          8           0        1.263650   -1.269638   -0.709219
     15          6           0        0.106016   -1.630526   -0.088483
     16          6           0        1.930002   -0.308253   -0.012652
     17          8           0       -0.643948   -2.531663   -0.412618
     18          8           0        3.006277    0.183584   -0.292361
     19          6           0       -3.060518   -0.303866    0.109713
     20          1           0       -3.116646   -1.052952    0.905771
     21          1           0       -3.978906    0.290144    0.138447
     22          1           0       -3.014076   -0.831971   -0.847712
 ---------------------------------------------------------------------
 Rotational constants (GHZ):           1.1711735           0.9350118           0.6241298
 Standard basis: STO-3G (5D, 7F)
 There are    70 symmetry adapted cartesian basis functions of A   symmetry.
 There are    70 symmetry adapted basis functions of A   symmetry.
    70 basis functions,   210 primitive gaussians,    70 cartesian basis functions
    44 alpha electrons       44 beta electrons
       nuclear repulsion energy       695.2888441617 Hartrees.
 NAtoms=   22 NActive=   22 NUniq=   22 SFac= 1.00D+00 NAtFMM=   60 NAOKFM=F Big=F
 Integral buffers will be    131072 words long.
 Raffenetti 1 integral format.
 Two-electron integral symmetry is turned on.
 External calculation of energy, first and second derivatives.
 Running external command "~/scripts/MiMe -H 'hf def2svp' -EF 'wb97xd def2svp' -c 12 -m 48GB R"
         input file       "/local/jobs/1157676/Gau-3114469.EIn"
         output file      "/local/jobs/1157676/Gau-3114469.EOu"
         message file     "/local/jobs/1157676/Gau-3114469.EMs"
         fchk file        "/local/jobs/1157676/Gau-3114469.EFC"
         mat. el file     "/local/jobs/1157676/Gau-3114469.EUF"
 Read checkpoint file Gau-3114469_H.chk type G16
 Write formatted file Gau-3114469_H.fchk

deriv: 2

spelevel: wb97xd def2svp
gradlevel: wb97xd def2svp
hesslevel: hf def2svp

runspe: False
runforce: True
runfreq: True

Running Gaussian ...

Parsing files ...
SPE file: Gau-3114469_F.out
FORCE file: Gau-3114469_F.out
HESS file: Gau-3114469_H.out

 ExternalExternalExternalExternalExternalExternalExternalExternalExternalExternal
 Output from external command:
 "~/scripts/MiMe -H 'hf def2svp' -EF 'wb97xd def2svp' -c 12 -m 48GB R /local/jobs/1157676/Gau-3114469.EIn /local/jobs/1157676/Gau-3114469.EOu /local/jobs/1157676/Gau-3114469.EMs /local/jobs/1157676/Gau-3114469.EFC /local/jobs/1157676/Gau-3114469.EUF"
  
 --------------------------------------------------
 Force calculation at wb97xd def2svp
 Hessian calculation at hf def2svp
 ExternalExternalExternalExternalExternalExternalExternalExternalExternalExternal

 Recovered energy= -573.941726387     dipole=     -3.222100000000      3.139800000000      2.688900000000
 Energy=    -573.941726     NIter=   0.
 Dipole moment=      -3.222100       3.139800       2.688900
 ***** Axes restored to original set *****
 -------------------------------------------------------------------
 Center     Atomic                   Forces (Hartrees/Bohr)
 Number     Number              X              Y              Z
 -------------------------------------------------------------------
      1        6           0.012273947    0.025258595   -0.059938500
      2        6           0.052378418    0.028526631    0.009739413
      3        6          -0.026814780   -0.025624729   -0.049211987
      4        6          -0.057689340   -0.015490685   -0.002001586
      5        6          -0.079741623   -0.048744934    0.048668419
      6        6           0.082553465    0.052195939    0.048884367
      7        1           0.002325957    0.007386340    0.000027821
      8        1          -0.000612829   -0.005516827    0.006994137
      9        1           0.004874828   -0.005375675   -0.003303508
     10        1          -0.000122781   -0.005027901   -0.002029151
     11        1           0.007925370   -0.004009035    0.005647462
     12        1          -0.008986867    0.001338317    0.003109308
     13        1           0.004392131    0.005755217    0.006211963
     14        8           0.004451073   -0.014813358   -0.029321671
     15        6          -0.041183683   -0.018769492    0.006150786
     16        6           0.038119703    0.030265849    0.012923938
     17        8           0.037581314    0.021740138   -0.003330862
     18        8          -0.034972153   -0.023044354   -0.006259621
     19        6           0.010235194   -0.005241796    0.006779912
     20        1          -0.003633732   -0.003166072    0.001769250
     21        1          -0.003990841    0.003748943    0.000598038
     22        1           0.000637229   -0.001391111   -0.002107930
 -------------------------------------------------------------------
 Cartesian Forces:  Max     0.082553465 RMS     0.027140098
 FormGI is forming the generalized inverse of G from B-inverse, IUseBI=4.

 GradGradGradGradGradGradGradGradGradGradGradGradGradGradGradGradGradGrad
 Berny optimization.
 Internal  Forces:  Max     0.064786580 RMS     0.013715773
 Search for a saddle point.
 Step number   1 out of a maximum of   50
 All quantities printed in internal units (Hartrees-Bohrs-Radians)
 Swapping is turned off.
 Second derivative matrix not updated -- analytic derivatives used.
 ITU=  0
     Eigenvalues ---   -0.09358   0.00473   0.01183   0.01739   0.01880
     Eigenvalues ---    0.01999   0.02254   0.02550   0.02654   0.02961
     Eigenvalues ---    0.03205   0.03528   0.04068   0.04766   0.05138
     Eigenvalues ---    0.05274   0.05364   0.05544   0.06100   0.06512
     Eigenvalues ---    0.07945   0.08676   0.09661   0.11160   0.12030
     Eigenvalues ---    0.13522   0.14254   0.14994   0.15399   0.16753
     Eigenvalues ---    0.17205   0.18217   0.18656   0.19500   0.21758
     Eigenvalues ---    0.22860   0.28406   0.30293   0.31494   0.33196
     Eigenvalues ---    0.35687   0.36202   0.36695   0.37112   0.37515
     Eigenvalues ---    0.37944   0.38066   0.38182   0.39057   0.39535
     Eigenvalues ---    0.39947   0.40628   0.41048   0.42088   0.42592
     Eigenvalues ---    0.44466   0.52698   0.71129   0.83971   0.84984
 Eigenvectors required to have negative eigenvalues:
                          R1        D10       D39       R5        D12
   1                   -0.64759   0.23822  -0.23169   0.19675   0.17743
                          R8        R2        D47       D11       A3
   1                    0.17400   0.17122   0.16972   0.16335   0.15555
 RFO step:  Lambda0=2.210906085D-03 Lambda=-5.05336804D-02.
 Linear search not attempted -- option 19 set.
 Maximum step size (   0.100) exceeded in Quadratic search.
    -- Step size scaled by   0.293
 Iteration  1 RMS(Cart)=  0.04477830 RMS(Int)=  0.00026519
 Iteration  2 RMS(Cart)=  0.00054274 RMS(Int)=  0.00003630
 Iteration  3 RMS(Cart)=  0.00000019 RMS(Int)=  0.00003630
 Variable       Old X    -DE/DX   Delta X   Delta X   Delta X     New X
                                 (Linear)    (Quad)   (Total)
    R1        4.46139  -0.01492   0.00000  -0.05160  -0.05160   4.40979
    R2        2.75248  -0.05964   0.00000  -0.03931  -0.03931   2.71317
    R3        2.05886   0.00323   0.00000   0.00183   0.00183   2.06069
    R4        2.83831  -0.00080   0.00000  -0.00120  -0.00120   2.83711
    R5        2.68910  -0.04141   0.00000  -0.02104  -0.02104   2.66806
    R6        2.03781   0.00761   0.00000   0.00499   0.00499   2.04279
    R7        2.77779   0.01161   0.00000   0.00587   0.00587   2.78366
    R8        2.72169  -0.05381   0.00000  -0.03438  -0.03438   2.68731
    R9        2.05113   0.00429   0.00000   0.00315   0.00315   2.05428
   R10        2.04690   0.00566   0.00000   0.00301   0.00301   2.04991
   R11        2.02980   0.00937   0.00000   0.00572   0.00572   2.03551
   R12        2.76101   0.01274   0.00000   0.00918   0.00918   2.77018
   R13        2.53531   0.06479   0.00000   0.02586   0.02586   2.56118
   R14        2.06011   0.00322   0.00000   0.00219   0.00219   2.06230
   R15        2.05905   0.00370   0.00000   0.00215   0.00215   2.06119
   R16        2.57424   0.00137   0.00000   0.00663   0.00664   2.58088
   R17        2.57273   0.00684   0.00000   0.00853   0.00853   2.58126
   R18        2.29861  -0.04002   0.00000  -0.01381  -0.01381   2.28480
   R19        2.29779  -0.03768   0.00000  -0.01385  -0.01385   2.28394
   R20        2.06835   0.00391   0.00000   0.00239   0.00239   2.07075
   R21        2.06760   0.00545   0.00000   0.00370   0.00370   2.07130
   R22        2.06812   0.00253   0.00000   0.00174   0.00174   2.06986
    A1        1.78125  -0.02049   0.00000  -0.01711  -0.01711   1.76414
    A2        1.54851  -0.00462   0.00000  -0.01266  -0.01267   1.53584
    A3        1.89704   0.01311   0.00000   0.00720   0.00725   1.90430
    A4        2.05026  -0.00102   0.00000   0.00185   0.00163   2.05189
    A5        2.05932   0.00925   0.00000   0.01169   0.01168   2.07100
    A6        2.01957  -0.00197   0.00000  -0.00139  -0.00141   2.01816
    A7        1.93444  -0.00778   0.00000   0.00102   0.00102   1.93546
    A8        1.56000   0.00408   0.00000   0.00451   0.00449   1.56449
    A9        1.74366  -0.00443   0.00000  -0.01495  -0.01495   1.72872
   A10        2.17855  -0.00030   0.00000   0.00079   0.00079   2.17933
   A11        1.84543   0.00527   0.00000   0.00515   0.00513   1.85056
   A12        2.11312  -0.00100   0.00000  -0.00172  -0.00173   2.11139
   A13        2.07513   0.00118   0.00000   0.00331   0.00325   2.07838
   A14        2.12068   0.00056   0.00000   0.00132   0.00127   2.12194
   A15        2.07740  -0.00165   0.00000  -0.00723  -0.00729   2.07011
   A16        2.23659  -0.00036   0.00000  -0.00110  -0.00113   2.23546
   A17        1.86799   0.00195   0.00000   0.00283   0.00278   1.87077
   A18        2.15092  -0.00151   0.00000  -0.00513  -0.00515   2.14577
   A19        2.18629  -0.01248   0.00000  -0.00816  -0.00821   2.17808
   A20        2.03335   0.00476   0.00000   0.00653   0.00648   2.03982
   A21        2.06086   0.00728   0.00000   0.00035   0.00030   2.06116
   A22        2.19170  -0.00848   0.00000  -0.00772  -0.00775   2.18395
   A23        2.01738   0.00412   0.00000   0.00833   0.00829   2.02567
   A24        2.07111   0.00395   0.00000  -0.00171  -0.00175   2.06936
   A25        1.94967  -0.01565   0.00000  -0.00670  -0.00671   1.94296
   A26        1.87948   0.00425   0.00000  -0.00018  -0.00019   1.87929
   A27        2.19061   0.01754   0.00000   0.01737   0.01737   2.20798
   A28        2.21279  -0.02172   0.00000  -0.01706  -0.01707   2.19573
   A29        1.87497   0.00453   0.00000  -0.00047  -0.00049   1.87448
   A30        2.19219   0.01990   0.00000   0.01936   0.01937   2.21156
   A31        2.21576  -0.02439   0.00000  -0.01882  -0.01881   2.19695
   A32        1.91718   0.00511   0.00000   0.00679   0.00679   1.92397
   A33        1.92433  -0.00124   0.00000  -0.00264  -0.00264   1.92169
   A34        1.95399  -0.00148   0.00000  -0.00205  -0.00206   1.95193
   A35        1.88538  -0.00184   0.00000  -0.00196  -0.00196   1.88342
   A36        1.88410  -0.00150   0.00000  -0.00114  -0.00114   1.88296
   A37        1.89713   0.00088   0.00000   0.00098   0.00097   1.89811
    D1        0.85053  -0.00142   0.00000   0.00106   0.00113   0.85167
    D2        3.07349  -0.00198   0.00000   0.00434   0.00441   3.07790
    D3       -1.08961  -0.00261   0.00000   0.00207   0.00213  -1.08748
    D4       -1.20623   0.00249   0.00000   0.00357   0.00350  -1.20273
    D5        1.01672   0.00192   0.00000   0.00685   0.00678   1.02350
    D6        3.13681   0.00130   0.00000   0.00457   0.00449   3.14130
    D7        3.03873   0.00438   0.00000   0.00866   0.00866   3.04739
    D8       -1.02151   0.00381   0.00000   0.01193   0.01194  -1.00956
    D9        1.09858   0.00318   0.00000   0.00966   0.00966   1.10824
   D10       -1.13125   0.01665   0.00000   0.03270   0.03270  -1.09856
   D11        1.92978   0.01046   0.00000   0.01361   0.01358   1.94336
   D12        0.52503  -0.00003   0.00000   0.00930   0.00928   0.53431
   D13       -2.69712  -0.00621   0.00000  -0.00979  -0.00983  -2.70695
   D14        3.07515   0.01010   0.00000   0.02980   0.02986   3.10500
   D15       -0.14700   0.00391   0.00000   0.01071   0.01075  -0.13626
   D16        0.68732   0.00402   0.00000  -0.00055  -0.00057   0.68675
   D17        2.76316   0.00416   0.00000  -0.00038  -0.00040   2.76276
   D18       -1.40566   0.00343   0.00000  -0.00235  -0.00237  -1.40803
   D19        2.70215  -0.00687   0.00000  -0.00997  -0.00995   2.69220
   D20       -1.50521  -0.00673   0.00000  -0.00979  -0.00978  -1.51498
   D21        0.60916  -0.00746   0.00000  -0.01177  -0.01174   0.59742
   D22       -1.02072   0.00330   0.00000   0.01115   0.01115  -1.00957
   D23        1.05511   0.00345   0.00000   0.01132   0.01132   1.06643
   D24       -3.11371   0.00272   0.00000   0.00935   0.00935  -3.10436
   D25        1.61730   0.00220   0.00000   0.02036   0.02037   1.63766
   D26       -1.77198   0.00240   0.00000   0.00482   0.00482  -1.76715
   D27       -0.20684   0.00324   0.00000   0.01300   0.01302  -0.19382
   D28        2.68707   0.00344   0.00000  -0.00253  -0.00252   2.68455
   D29       -2.79204  -0.00355   0.00000   0.00612   0.00613  -2.78591
   D30        0.10187  -0.00334   0.00000  -0.00941  -0.00941   0.09245
   D31        1.89526  -0.00680   0.00000  -0.00049  -0.00051   1.89474
   D32       -1.27149  -0.00449   0.00000   0.00467   0.00468  -1.26680
   D33       -0.11375   0.00170   0.00000   0.00261   0.00261  -0.11114
   D34        3.00270   0.00401   0.00000   0.00777   0.00781   3.01051
   D35       -2.72458  -0.00494   0.00000  -0.00482  -0.00481  -2.72940
   D36        0.39186  -0.00262   0.00000   0.00035   0.00038   0.39225
   D37        2.79792   0.00279   0.00000   0.01754   0.01751   2.81543
   D38       -0.25894   0.00831   0.00000   0.03305   0.03306  -0.22588
   D39       -0.49654   0.00330   0.00000  -0.00292  -0.00293  -0.49948
   D40        2.72978   0.00882   0.00000   0.01259   0.01262   2.74239
   D41       -0.05654   0.00270   0.00000   0.01297   0.01298  -0.04357
   D42        3.10840   0.00118   0.00000   0.01003   0.01002   3.11842
   D43        2.85245   0.00306   0.00000  -0.00099  -0.00096   2.85149
   D44       -0.26579   0.00154   0.00000  -0.00393  -0.00392  -0.26971
   D45       -0.00917   0.00431   0.00000   0.00711   0.00710  -0.00206
   D46        3.04532  -0.00137   0.00000  -0.00841  -0.00837   3.03695
   D47       -3.06905   0.01071   0.00000   0.02622   0.02618  -3.04287
   D48       -0.01456   0.00502   0.00000   0.01070   0.01070  -0.00386
   D49        0.08219  -0.00138   0.00000   0.00508   0.00507   0.08725
   D50       -3.03385  -0.00447   0.00000  -0.00081  -0.00072  -3.03457
   D51       -0.01733  -0.00150   0.00000  -0.01165  -0.01158  -0.02891
   D52        3.10051   0.00082   0.00000  -0.00800  -0.00800   3.09251
         Item               Value     Threshold  Converged?
 Maximum Force            0.064787     0.000450     NO 
 RMS     Force            0.013716     0.000300     NO 
 Maximum Displacement     0.172437     0.001800     NO 
 RMS     Displacement     0.044795     0.001200     NO 
 Predicted change in Energy=-1.248216D-02
 GradGradGradGradGradGradGradGradGradGradGradGradGradGradGradGradGradGrad

                          Input orientation:                          
 ---------------------------------------------------------------------
 Center     Atomic      Atomic             Coordinates (Angstroms)
 Number     Number       Type             X           Y           Z
 ---------------------------------------------------------------------
      1          6           0       -1.768911    0.768910    0.260130
      2          6           0       -0.172145   -0.693795    1.129808
      3          6           0        0.768252    2.355775    0.310814
      4          6           0        1.091979   -0.070008    1.209032
      5          6           0       -1.083861    1.267780   -0.898839
      6          6           0        0.065703    1.985053   -0.868700
      7          1           0        1.811022    2.653051    0.233335
      8          1           0        0.255107    2.502524    1.255198
      9          1           0        0.553100    2.229102   -1.813471
     10          1           0       -1.476499    0.966799   -1.871582
     11          1           0       -1.686954    1.345669    1.181955
     12          1           0       -0.819447   -0.887892    1.973542
     13          1           0        1.528018    0.443341    2.049621
     14          8           0        1.115590   -1.448915   -0.610401
     15          6           0       -0.088529   -1.641000    0.004781
     16          6           0        1.880346   -0.542156    0.066898
     17          8           0       -0.921129   -2.459236   -0.310019
     18          8           0        3.007907   -0.213320   -0.218076
     19          6           0       -3.061276    0.028954    0.069724
     20          1           0       -3.230435   -0.659580    0.905230
     21          1           0       -3.898960    0.735214    0.040018
     22          1           0       -3.062378   -0.557771   -0.855200
 ---------------------------------------------------------------------
                    Distance matrix (angstroms):
                    1          2          3          4          5
     1  C    0.000000
     2  C    2.333561   0.000000
     3  C    2.992976   3.294689   0.000000
     4  C    3.128720   1.411877   2.606917   0.000000
     5  C    1.435749   2.965537   2.465221   3.311657   0.000000
     6  C    2.473675   3.350647   1.422064   3.097336   1.355317
     7  H    4.045568   3.992241   1.087081   2.980613   3.403107
     8  H    2.844683   3.227184   1.084764   2.705624   2.820868
     9  H    3.438563   4.210961   2.138907   3.835599   2.107209
    10  H    2.160755   3.669776   3.425057   4.142732   1.091322
    11  H    1.090472   2.541020   2.794143   3.118868   2.167831
    12  H    2.565590   1.081000   3.975780   2.215166   3.601029
    13  H    3.765370   2.242697   2.694085   1.077148   4.024305
    14  O    3.741246   2.292770   3.930006   2.283042   3.507309
    15  C    2.948992   1.473049   4.099017   2.304742   3.204406
    16  C    3.882436   2.316353   3.113559   1.465919   3.604863
    17  O    3.385961   2.398094   5.140406   3.473979   3.776750
    18  O    4.900148   3.487173   3.449062   2.393315   4.404504
    19  C    1.501332   3.161206   4.487483   4.307823   2.526455
    20  H    2.143079   3.066715   5.043331   4.373002   3.402523
    21  H    2.141656   4.137494   4.947971   5.188876   3.014940
    22  H    2.162660   3.508875   4.951975   4.664509   2.692410
                    6          7          8          9         10
     6  C    0.000000
     7  H    2.169525   0.000000
     8  H    2.194218   1.867548   0.000000
     9  H    1.090737   2.439572   3.095203   0.000000
    10  H    2.102617   4.252283   3.890200   2.390828   0.000000
    11  H    2.772328   3.852916   2.261697   3.843289   3.084141
    12  H    4.137106   4.741936   3.628443   5.093231   4.319326
    13  H    3.609964   2.874335   2.547870   4.366106   4.967592
    14  O    3.600156   4.245190   4.453623   3.910445   3.761007
    15  C    3.732964   4.701000   4.341707   4.323820   3.499688
    16  C    3.248855   3.200289   3.650141   3.602393   4.159695
    17  O    4.586683   5.821971   5.334087   5.139477   3.805868
    18  O    3.729976   3.138851   4.138146   3.812714   4.923074
    19  C    3.805911   5.536419   4.303753   4.631499   2.675769
    20  H    4.583168   6.069699   4.719150   5.481874   3.664980
    21  H    4.255163   6.026554   4.675073   5.048560   3.094538
    22  H    4.031256   5.936691   4.982457   4.664399   2.423295
                   11         12         13         14         15
    11  H    0.000000
    12  H    2.523484   0.000000
    13  H    3.450085   2.699734   0.000000
    14  O    4.344709   3.276565   3.290357   0.000000
    15  C    3.586209   2.231016   3.337525   1.365741   0.000000
    16  C    4.187226   3.323208   2.241993   1.365943   2.255613
    17  O    4.158097   2.773826   4.471149   2.293294   1.209062
    18  O    5.141231   4.461712   2.786346   2.293792   3.416995
    19  C    2.204441   3.080734   5.015309   4.482507   3.410306
    20  H    2.545571   2.646938   5.016866   4.669916   3.412560
    21  H    2.563132   3.982007   5.794461   5.508100   4.490770
    22  H    3.108838   3.625120   5.523762   4.278957   3.279745
                   16         17         18         19         20
    16  C    0.000000
    17  O    3.415484   0.000000
    18  O    1.208609   4.526579   0.000000
    19  C    4.974515   3.303864   6.080831   0.000000
    20  H    5.180413   3.169934   6.354359   1.095793   0.000000
    21  H    5.918849   4.381154   6.976470   1.096084   1.772277
    22  H    5.028025   2.915088   6.113340   1.095322   1.771361
                   21         22
    21  H    0.000000
    22  H    1.781318   0.000000
 Stoichiometry    C9H10O3
 Framework group  C1[X(C9H10O3)]
 Deg. of freedom    60
 Full point group                 C1      NOp   1
 Largest Abelian subgroup         C1      NOp   1
 Largest concise Abelian subgroup C1      NOp   1
                         Standard orientation:                         
 ---------------------------------------------------------------------
 Center     Atomic      Atomic             Coordinates (Angstroms)
 Number     Number       Type             X           Y           Z
 ---------------------------------------------------------------------
      1          6           0       -1.831276    0.672256    0.300466
      2          6           0       -0.120638   -0.705461    1.088578
      3          6           0        0.590474    2.429684    0.367359
      4          6           0        1.098571    0.001894    1.169660
      5          6           0       -1.204859    1.258882   -0.850554
      6          6           0       -0.107331    2.053184   -0.813140
      7          1           0        1.608481    2.801670    0.283490
      8          1           0        0.086697    2.506368    1.324982
      9          1           0        0.343709    2.364307   -1.756259
     10          1           0       -1.594397    0.966168   -1.827060
     11          1           0       -1.771686    1.220010    1.241500
     12          1           0       -0.736574   -0.974347    1.935269
     13          1           0        1.514152    0.514077    2.021253
     14          8           0        1.182497   -1.306071   -0.699689
     15          6           0        0.006640   -1.603685   -0.071967
     16          6           0        1.895570   -0.372886   -0.002197
     17          8           0       -0.773241   -2.466317   -0.402848
     18          8           0        2.991965    0.043904   -0.293641
     19          6           0       -3.072756   -0.148908    0.104468
     20          1           0       -3.177721   -0.877004    0.916639
     21          1           0       -3.957730    0.497707    0.114941
     22          1           0       -3.051070   -0.700836   -0.841383
 ---------------------------------------------------------------------
 Rotational constants (GHZ):           1.2182288           0.9434855           0.6412942
 Standard basis: STO-3G (5D, 7F)
 There are    70 symmetry adapted cartesian basis functions of A   symmetry.
 There are    70 symmetry adapted basis functions of A   symmetry.
    70 basis functions,   210 primitive gaussians,    70 cartesian basis functions
    44 alpha electrons       44 beta electrons
       nuclear repulsion energy       701.1871171688 Hartrees.
 NAtoms=   22 NActive=   22 NUniq=   22 SFac= 1.00D+00 NAtFMM=   60 NAOKFM=F Big=F
 Integral buffers will be    131072 words long.
 Raffenetti 1 integral format.
 Two-electron integral symmetry is turned on.
 External calculation of energy, first and second derivatives.
 Running external command "~/scripts/MiMe -H 'hf def2svp' -EF 'wb97xd def2svp' -c 12 -m 48GB R"
         input file       "/local/jobs/1157676/Gau-3114469.EIn"
         output file      "/local/jobs/1157676/Gau-3114469.EOu"
         message file     "/local/jobs/1157676/Gau-3114469.EMs"
         fchk file        "/local/jobs/1157676/Gau-3114469.EFC"
         mat. el file     "/local/jobs/1157676/Gau-3114469.EUF"
 Read checkpoint file Gau-3114469_H.chk type G16
 Write formatted file Gau-3114469_H.fchk

deriv: 2

spelevel: wb97xd def2svp
gradlevel: wb97xd def2svp
hesslevel: hf def2svp

runspe: False
runforce: True
runfreq: True

Running Gaussian ...

Parsing files ...
SPE file: Gau-3114469_F.out
FORCE file: Gau-3114469_F.out
HESS file: Gau-3114469_H.out

 ExternalExternalExternalExternalExternalExternalExternalExternalExternalExternal
 Output from external command:
 "~/scripts/MiMe -H 'hf def2svp' -EF 'wb97xd def2svp' -c 12 -m 48GB R /local/jobs/1157676/Gau-3114469.EIn /local/jobs/1157676/Gau-3114469.EOu /local/jobs/1157676/Gau-3114469.EMs /local/jobs/1157676/Gau-3114469.EFC /local/jobs/1157676/Gau-3114469.EUF"
  
 --------------------------------------------------
 Force calculation at wb97xd def2svp
 Hessian calculation at hf def2svp
 ExternalExternalExternalExternalExternalExternalExternalExternalExternalExternal

 Recovered energy= -573.954403262     dipole=     -3.037600000000      3.331600000000      2.722800000000
 Energy=    -573.954403     NIter=   0.
 Dipole moment=      -3.037600       3.331600       2.722800
 ***** Axes restored to original set *****
 -------------------------------------------------------------------
 Center     Atomic                   Forces (Hartrees/Bohr)
 Number     Number              X              Y              Z
 -------------------------------------------------------------------
      1        6           0.008731403    0.019698116   -0.046660329
      2        6           0.039865352    0.021776929    0.008577578
      3        6          -0.019870347   -0.020714327   -0.037258352
      4        6          -0.044744672   -0.009870798   -0.002045829
      5        6          -0.061674144   -0.034350337    0.036402177
      6        6           0.063066416    0.039059051    0.036827520
      7        1           0.001451745    0.006751067    0.000339018
      8        1          -0.000447499   -0.004254336    0.005334676
      9        1           0.003882364   -0.005434054   -0.002567932
     10        1           0.000377303   -0.004160834   -0.001538762
     11        1           0.006806018   -0.003790750    0.004773777
     12        1          -0.007267078    0.000999300    0.001878405
     13        1           0.003827410    0.003324826    0.004942025
     14        8           0.003263079   -0.010412961   -0.023072404
     15        6          -0.031056315   -0.014049529    0.005621359
     16        6           0.028665711    0.022681054    0.010683763
     17        8           0.027763954    0.015784212   -0.003236775
     18        8          -0.025430238   -0.017591344   -0.005219193
     19        6           0.008166367   -0.004804762    0.006052174
     20        1          -0.002889329   -0.002354027    0.001314896
     21        1          -0.003006998    0.002796025    0.000452337
     22        1           0.000519499   -0.001082526   -0.001600133
 -------------------------------------------------------------------
 Cartesian Forces:  Max     0.063066416 RMS     0.020630575
 FormGI is forming the generalized inverse of G from B-inverse, IUseBI=4.

 GradGradGradGradGradGradGradGradGradGradGradGradGradGradGradGradGradGrad
 Berny optimization.
 Internal  Forces:  Max     0.048999214 RMS     0.010419668
 Search for a saddle point.
 Step number   2 out of a maximum of   50
 All quantities printed in internal units (Hartrees-Bohrs-Radians)
 Swapping is turned off.
 Second derivative matrix not updated -- analytic derivatives used.
 ITU=  0  0
     Eigenvalues ---   -0.09515   0.00473   0.01189   0.01809   0.01927
     Eigenvalues ---    0.02038   0.02349   0.02676   0.02854   0.02983
     Eigenvalues ---    0.03266   0.03700   0.04279   0.05031   0.05300
     Eigenvalues ---    0.05409   0.05569   0.05746   0.06249   0.06762
     Eigenvalues ---    0.08446   0.09430   0.11004   0.11267   0.12264
     Eigenvalues ---    0.13776   0.14655   0.15123   0.15778   0.17192
     Eigenvalues ---    0.17454   0.18337   0.18918   0.19686   0.22380
     Eigenvalues ---    0.23875   0.28332   0.30598   0.31385   0.35343
     Eigenvalues ---    0.35879   0.36110   0.36576   0.36907   0.37699
     Eigenvalues ---    0.37839   0.37920   0.38045   0.39137   0.39551
     Eigenvalues ---    0.40330   0.41178   0.41729   0.42043   0.44831
     Eigenvalues ---    0.47314   0.57959   0.69361   0.87994   0.89132
 Eigenvectors required to have negative eigenvalues:
                          R1        D39       D10       R5        R8
   1                   -0.64543  -0.25890   0.20691   0.20528   0.17937
                          D12       R2        R13       D40       D47
   1                    0.17609   0.17136  -0.16980  -0.16479   0.14851
 RFO step:  Lambda0=1.799525799D-03 Lambda=-3.01174920D-02.
 Linear search not attempted -- option 19 set.
 Maximum step size (   0.100) exceeded in Quadratic search.
    -- Step size scaled by   0.368
 Iteration  1 RMS(Cart)=  0.03852345 RMS(Int)=  0.00023314
 Iteration  2 RMS(Cart)=  0.00044315 RMS(Int)=  0.00004691
 Iteration  3 RMS(Cart)=  0.00000013 RMS(Int)=  0.00004691
 Variable       Old X    -DE/DX   Delta X   Delta X   Delta X     New X
                                 (Linear)    (Quad)   (Total)
    R1        4.40979  -0.01212   0.00000  -0.05947  -0.05947   4.35032
    R2        2.71317  -0.04463   0.00000  -0.03290  -0.03290   2.68027
    R3        2.06069   0.00254   0.00000   0.00182   0.00182   2.06252
    R4        2.83711  -0.00051   0.00000  -0.00122  -0.00122   2.83588
    R5        2.66806  -0.03085   0.00000  -0.01740  -0.01739   2.65067
    R6        2.04279   0.00564   0.00000   0.00485   0.00485   2.04764
    R7        2.78366   0.00902   0.00000   0.00599   0.00599   2.78965
    R8        2.68731  -0.04027   0.00000  -0.02897  -0.02897   2.65834
    R9        2.05428   0.00322   0.00000   0.00311   0.00311   2.05739
   R10        2.04991   0.00428   0.00000   0.00296   0.00296   2.05287
   R11        2.03551   0.00699   0.00000   0.00581   0.00581   2.04132
   R12        2.77018   0.01001   0.00000   0.00931   0.00931   2.77950
   R13        2.56118   0.04900   0.00000   0.02540   0.02540   2.58657
   R14        2.06230   0.00238   0.00000   0.00211   0.00211   2.06441
   R15        2.06119   0.00274   0.00000   0.00195   0.00195   2.06314
   R16        2.58088   0.00145   0.00000   0.00732   0.00731   2.58819
   R17        2.58126   0.00532   0.00000   0.00877   0.00876   2.59002
   R18        2.28480  -0.02896   0.00000  -0.01210  -0.01210   2.27270
   R19        2.28394  -0.02728   0.00000  -0.01229  -0.01229   2.27165
   R20        2.07075   0.00293   0.00000   0.00214   0.00214   2.07289
   R21        2.07130   0.00409   0.00000   0.00383   0.00383   2.07513
   R22        2.06986   0.00193   0.00000   0.00170   0.00170   2.07155
    A1        1.76414  -0.01615   0.00000  -0.00945  -0.00941   1.75473
    A2        1.53584  -0.00392   0.00000  -0.01451  -0.01453   1.52132
    A3        1.90430   0.01002   0.00000  -0.00203  -0.00199   1.90231
    A4        2.05189  -0.00096   0.00000   0.00138   0.00120   2.05308
    A5        2.07100   0.00759   0.00000   0.01289   0.01282   2.08382
    A6        2.01816  -0.00158   0.00000  -0.00085  -0.00096   2.01720
    A7        1.93546  -0.00584   0.00000   0.00147   0.00146   1.93692
    A8        1.56449   0.00326   0.00000   0.00451   0.00449   1.56898
    A9        1.72872  -0.00403   0.00000  -0.01541  -0.01541   1.71331
   A10        2.17933  -0.00011   0.00000   0.00226   0.00226   2.18159
   A11        1.85056   0.00407   0.00000   0.00468   0.00467   1.85523
   A12        2.11139  -0.00078   0.00000  -0.00291  -0.00293   2.10846
   A13        2.07838   0.00117   0.00000   0.00357   0.00342   2.08180
   A14        2.12194   0.00043   0.00000   0.00066   0.00051   2.12245
   A15        2.07011  -0.00166   0.00000  -0.00925  -0.00941   2.06070
   A16        2.23546  -0.00020   0.00000  -0.00199  -0.00210   2.23336
   A17        1.87077   0.00144   0.00000   0.00258   0.00249   1.87326
   A18        2.14577  -0.00129   0.00000  -0.00669  -0.00678   2.13899
   A19        2.17808  -0.01009   0.00000  -0.00929  -0.00937   2.16871
   A20        2.03982   0.00419   0.00000   0.00712   0.00704   2.04686
   A21        2.06116   0.00542   0.00000   0.00017   0.00009   2.06125
   A22        2.18395  -0.00747   0.00000  -0.01004  -0.01010   2.17385
   A23        2.02567   0.00388   0.00000   0.01009   0.01003   2.03570
   A24        2.06936   0.00316   0.00000  -0.00175  -0.00181   2.06755
   A25        1.94296  -0.01146   0.00000  -0.00600  -0.00603   1.93693
   A26        1.87929   0.00297   0.00000  -0.00032  -0.00033   1.87896
   A27        2.20798   0.01430   0.00000   0.01860   0.01860   2.22658
   A28        2.19573  -0.01723   0.00000  -0.01817  -0.01817   2.17756
   A29        1.87448   0.00323   0.00000  -0.00060  -0.00063   1.87385
   A30        2.21156   0.01602   0.00000   0.01989   0.01990   2.23146
   A31        2.19695  -0.01921   0.00000  -0.01918  -0.01917   2.17777
   A32        1.92397   0.00406   0.00000   0.00776   0.00777   1.93173
   A33        1.92169  -0.00094   0.00000  -0.00304  -0.00304   1.91865
   A34        1.95193  -0.00120   0.00000  -0.00221  -0.00221   1.94972
   A35        1.88342  -0.00149   0.00000  -0.00223  -0.00223   1.88119
   A36        1.88296  -0.00117   0.00000  -0.00091  -0.00091   1.88204
   A37        1.89811   0.00069   0.00000   0.00058   0.00058   1.89869
    D1        0.85167  -0.00095   0.00000   0.00152   0.00155   0.85322
    D2        3.07790  -0.00118   0.00000   0.00660   0.00664   3.08454
    D3       -1.08748  -0.00173   0.00000   0.00309   0.00311  -1.08437
    D4       -1.20273   0.00186   0.00000   0.00366   0.00363  -1.19910
    D5        1.02350   0.00163   0.00000   0.00874   0.00872   1.03222
    D6        3.14130   0.00107   0.00000   0.00522   0.00519  -3.13669
    D7        3.04739   0.00365   0.00000   0.01019   0.01019   3.05758
    D8       -1.00956   0.00342   0.00000   0.01527   0.01528  -0.99429
    D9        1.10824   0.00287   0.00000   0.01176   0.01175   1.11999
   D10       -1.09856   0.01348   0.00000   0.02934   0.02935  -1.06921
   D11        1.94336   0.00802   0.00000   0.00536   0.00533   1.94869
   D12        0.53431   0.00010   0.00000   0.00790   0.00789   0.54220
   D13       -2.70695  -0.00536   0.00000  -0.01609  -0.01613  -2.72308
   D14        3.10500   0.00874   0.00000   0.03202   0.03207   3.13707
   D15       -0.13626   0.00328   0.00000   0.00803   0.00805  -0.12821
   D16        0.68675   0.00301   0.00000  -0.00353  -0.00352   0.68323
   D17        2.76276   0.00310   0.00000  -0.00335  -0.00335   2.75941
   D18       -1.40803   0.00253   0.00000  -0.00618  -0.00617  -1.41420
   D19        2.69220  -0.00559   0.00000  -0.00922  -0.00922   2.68298
   D20       -1.51498  -0.00550   0.00000  -0.00904  -0.00905  -1.52403
   D21        0.59742  -0.00607   0.00000  -0.01186  -0.01187   0.58555
   D22       -1.00957   0.00301   0.00000   0.01504   0.01504  -0.99453
   D23        1.06643   0.00310   0.00000   0.01522   0.01522   1.08165
   D24       -3.10436   0.00253   0.00000   0.01240   0.01240  -3.09196
   D25        1.63766   0.00259   0.00000   0.02927   0.02929   1.66695
   D26       -1.76715   0.00224   0.00000   0.00318   0.00318  -1.76397
   D27       -0.19382   0.00305   0.00000   0.02066   0.02068  -0.17314
   D28        2.68455   0.00270   0.00000  -0.00544  -0.00542   2.67913
   D29       -2.78591  -0.00249   0.00000   0.01446   0.01447  -2.77145
   D30        0.09245  -0.00283   0.00000  -0.01164  -0.01164   0.08081
   D31        1.89474  -0.00530   0.00000  -0.00147  -0.00149   1.89325
   D32       -1.26680  -0.00329   0.00000   0.00453   0.00455  -1.26226
   D33       -0.11114   0.00136   0.00000   0.00152   0.00152  -0.10962
   D34        3.01051   0.00337   0.00000   0.00752   0.00756   3.01806
   D35       -2.72940  -0.00408   0.00000  -0.00624  -0.00623  -2.73562
   D36        0.39225  -0.00207   0.00000  -0.00024  -0.00019   0.39206
   D37        2.81543   0.00280   0.00000   0.02637   0.02633   2.84176
   D38       -0.22588   0.00767   0.00000   0.04656   0.04657  -0.17930
   D39       -0.49948   0.00226   0.00000  -0.00829  -0.00831  -0.50779
   D40        2.74239   0.00713   0.00000   0.01190   0.01194   2.75434
   D41       -0.04357   0.00258   0.00000   0.01783   0.01784  -0.02572
   D42        3.11842   0.00113   0.00000   0.01217   0.01212   3.13054
   D43        2.85149   0.00243   0.00000  -0.00584  -0.00577   2.84572
   D44       -0.26971   0.00098   0.00000  -0.01151  -0.01149  -0.28120
   D45       -0.00206   0.00331   0.00000   0.00279   0.00279   0.00072
   D46        3.03695  -0.00165   0.00000  -0.01725  -0.01719   3.01976
   D47       -3.04287   0.00890   0.00000   0.02669   0.02663  -3.01624
   D48       -0.00386   0.00394   0.00000   0.00664   0.00665   0.00279
   D49        0.08725  -0.00077   0.00000   0.00949   0.00947   0.09672
   D50       -3.03457  -0.00322   0.00000   0.00301   0.00312  -3.03145
   D51       -0.02891  -0.00154   0.00000  -0.01726  -0.01717  -0.04608
   D52        3.09251   0.00042   0.00000  -0.01107  -0.01110   3.08140
         Item               Value     Threshold  Converged?
 Maximum Force            0.048999     0.000450     NO 
 RMS     Force            0.010420     0.000300     NO 
 Maximum Displacement     0.133176     0.001800     NO 
 RMS     Displacement     0.038563     0.001200     NO 
 Predicted change in Energy=-8.773593D-03
 GradGradGradGradGradGradGradGradGradGradGradGradGradGradGradGradGradGrad

                          Input orientation:                          
 ---------------------------------------------------------------------
 Center     Atomic      Atomic             Coordinates (Angstroms)
 Number     Number       Type             X           Y           Z
 ---------------------------------------------------------------------
      1          6           0       -1.768888    0.769573    0.251124
      2          6           0       -0.181661   -0.651612    1.123227
      3          6           0        0.778398    2.285302    0.324013
      4          6           0        1.069399   -0.021760    1.198236
      5          6           0       -1.085738    1.249022   -0.895660
      6          6           0        0.090002    1.948688   -0.855689
      7          1           0        1.823071    2.585851    0.263567
      8          1           0        0.255947    2.438657    1.264036
      9          1           0        0.594498    2.172618   -1.797654
     10          1           0       -1.468583    0.941477   -1.871501
     11          1           0       -1.679087    1.347788    1.172447
     12          1           0       -0.828450   -0.851613    1.969264
     13          1           0        1.510067    0.481773    2.046260
     14          8           0        1.099638   -1.396706   -0.633089
     15          6           0       -0.102412   -1.596850   -0.007911
     16          6           0        1.866791   -0.493879    0.056017
     17          8           0       -0.918980   -2.415861   -0.337802
     18          8           0        2.989276   -0.181215   -0.239495
     19          6           0       -3.056617    0.018044    0.080788
     20          1           0       -3.221759   -0.663670    0.924137
     21          1           0       -3.899127    0.721580    0.048255
     22          1           0       -3.059286   -0.578706   -0.838767
 ---------------------------------------------------------------------
                    Distance matrix (angstroms):
                    1          2          3          4          5
     1  C    0.000000
     2  C    2.302089   0.000000
     3  C    2.965032   3.191538   0.000000
     4  C    3.095012   1.402673   2.484247   0.000000
     5  C    1.418338   2.916448   2.456925   3.262500   0.000000
     6  C    2.463904   3.278943   1.406732   3.010065   1.368756
     7  H    4.025071   3.903733   1.088726   2.870760   3.404716
     8  H    2.812790   3.124274   1.086332   2.592235   2.807069
     9  H    3.428064   4.136452   2.132601   3.743819   2.118918
    10  H    2.150645   3.628015   3.416880   4.097861   1.092438
    11  H    1.091436   2.498460   2.763694   3.070912   2.153807
    12  H    2.542571   1.083566   3.889607   2.210197   3.561833
    13  H    3.749252   2.235732   2.598883   1.080222   3.997721
    14  O    3.701762   2.298160   3.817908   2.290227   3.441612
    15  C    2.905890   1.476221   3.994634   2.304092   3.139111
    16  C    3.853899   2.315162   2.996709   1.470848   3.558205
    17  O    3.349055   2.406412   5.041827   3.470559   3.710847
    18  O    4.876970   3.483264   3.359945   2.403835   4.368281
    19  C    1.500685   3.130573   4.461721   4.274843   2.520540
    20  H    2.148945   3.046634   5.005781   4.347553   3.395974
    21  H    2.140415   4.106187   4.939687   5.153762   3.014022
    22  H    2.161213   3.483598   4.927719   4.637414   2.690486
                    6          7          8          9         10
     6  C    0.000000
     7  H    2.159222   0.000000
     8  H    2.181936   1.865069   0.000000
     9  H    1.091769   2.434910   3.091819   0.000000
    10  H    2.115546   4.254112   3.879065   2.403635   0.000000
    11  H    2.757551   3.824130   2.223227   3.830278   3.078152
    12  H    4.082352   4.664346   3.535412   5.035913   4.286772
    13  H    3.548202   2.775448   2.452363   4.298011   4.942928
    14  O    3.501511   4.145854   4.361296   3.788331   3.687346
    15  C    3.650560   4.612610   4.246361   4.230573   3.432564
    16  C    3.155047   3.087025   3.557231   3.487840   4.110996
    17  O    4.509495   5.735644   5.245253   5.047368   3.731758
    18  O    3.649928   3.044628   4.073748   3.701804   4.878155
    19  C    3.808620   5.517100   4.269956   4.636957   2.680674
    20  H    4.578204   6.037057   4.672729   5.478731   3.669567
    21  H    4.270370   6.022078   4.657372   5.070065   3.105054
    22  H    4.038071   5.921737   4.951467   4.673262   2.430603
                   11         12         13         14         15
    11  H    0.000000
    12  H    2.489149   0.000000
    13  H    3.418221   2.693048   0.000000
    14  O    4.302734   3.284341   3.297885   0.000000
    15  C    3.542604   2.234218   3.337721   1.369610   0.000000
    16  C    4.148662   3.324577   2.245043   1.370579   2.257962
    17  O    4.125975   2.788839   4.469933   2.280503   1.202660
    18  O    5.111266   4.461288   2.802194   2.281023   3.408253
    19  C    2.203980   3.047519   4.993268   4.448100   3.367948
    20  H    2.547049   2.618308   4.996136   4.651535   3.386719
    21  H    2.566033   3.948958   5.771387   5.471656   4.448968
    22  H    3.108265   3.596685   5.506994   4.243593   3.235744
                   16         17         18         19         20
    16  C    0.000000
    17  O    3.407291   0.000000
    18  O    1.202106   4.503085   0.000000
    19  C    4.950012   3.266283   6.057649   0.000000
    20  H    5.164862   3.156812   6.337489   1.096925   0.000000
    21  H    5.892640   4.344405   6.953268   1.098110   1.773390
    22  H    5.007401   2.864789   6.091160   1.096219   1.772413
                   21         22
    21  H    0.000000
    22  H    1.784063   0.000000
 Stoichiometry    C9H10O3
 Framework group  C1[X(C9H10O3)]
 Deg. of freedom    60
 Full point group                 C1      NOp   1
 Largest Abelian subgroup         C1      NOp   1
 Largest concise Abelian subgroup C1      NOp   1
                         Standard orientation:                         
 ---------------------------------------------------------------------
 Center     Atomic      Atomic             Coordinates (Angstroms)
 Number     Number       Type             X           Y           Z
 ---------------------------------------------------------------------
      1          6           0       -1.800043    0.737458    0.277778
      2          6           0       -0.161370   -0.656296    1.097424
      3          6           0        0.702749    2.325312    0.356324
      4          6           0        1.071661    0.008150    1.172501
      5          6           0       -1.145484    1.263245   -0.865368
      6          6           0        0.009796    1.996054   -0.822786
      7          1           0        1.737395    2.657761    0.290671
      8          1           0        0.187809    2.441404    1.305786
      9          1           0        0.495781    2.256500   -1.765095
     10          1           0       -1.531344    0.967289   -1.843602
     11          1           0       -1.715638    1.296544    1.211337
     12          1           0       -0.791469   -0.894788    1.946078
     13          1           0        1.508017    0.504619    2.026896
     14          8           0        1.119091   -1.322477   -0.690916
     15          6           0       -0.068739   -1.572312   -0.056509
     16          6           0        1.868163   -0.413711    0.010171
     17          8           0       -0.865165   -2.407103   -0.395950
     18          8           0        2.977301   -0.061419   -0.291098
     19          6           0       -3.067369   -0.047448    0.104974
     20          1           0       -3.202073   -0.753093    0.933927
     21          1           0       -3.930344    0.631584    0.098939
     22          1           0       -3.064124   -0.622534   -0.828280
 ---------------------------------------------------------------------
 Rotational constants (GHZ):           1.2628754           0.9512166           0.6576198
 Standard basis: STO-3G (5D, 7F)
 There are    70 symmetry adapted cartesian basis functions of A   symmetry.
 There are    70 symmetry adapted basis functions of A   symmetry.
    70 basis functions,   210 primitive gaussians,    70 cartesian basis functions
    44 alpha electrons       44 beta electrons
       nuclear repulsion energy       706.7019490246 Hartrees.
 NAtoms=   22 NActive=   22 NUniq=   22 SFac= 1.00D+00 NAtFMM=   60 NAOKFM=F Big=F
 Integral buffers will be    131072 words long.
 Raffenetti 1 integral format.
 Two-electron integral symmetry is turned on.
 External calculation of energy, first and second derivatives.
 Running external command "~/scripts/MiMe -H 'hf def2svp' -EF 'wb97xd def2svp' -c 12 -m 48GB R"
         input file       "/local/jobs/1157676/Gau-3114469.EIn"
         output file      "/local/jobs/1157676/Gau-3114469.EOu"
         message file     "/local/jobs/1157676/Gau-3114469.EMs"
         fchk file        "/local/jobs/1157676/Gau-3114469.EFC"
         mat. el file     "/local/jobs/1157676/Gau-3114469.EUF"
 Read checkpoint file Gau-3114469_H.chk type G16
 Write formatted file Gau-3114469_H.fchk

deriv: 2

spelevel: wb97xd def2svp
gradlevel: wb97xd def2svp
hesslevel: hf def2svp

runspe: False
runforce: True
runfreq: True

Running Gaussian ...

Parsing files ...
SPE file: Gau-3114469_F.out
FORCE file: Gau-3114469_F.out
HESS file: Gau-3114469_H.out

 ExternalExternalExternalExternalExternalExternalExternalExternalExternalExternal
 Output from external command:
 "~/scripts/MiMe -H 'hf def2svp' -EF 'wb97xd def2svp' -c 12 -m 48GB R /local/jobs/1157676/Gau-3114469.EIn /local/jobs/1157676/Gau-3114469.EOu /local/jobs/1157676/Gau-3114469.EMs /local/jobs/1157676/Gau-3114469.EFC /local/jobs/1157676/Gau-3114469.EUF"
  
 --------------------------------------------------
 Force calculation at wb97xd def2svp
 Hessian calculation at hf def2svp
 ExternalExternalExternalExternalExternalExternalExternalExternalExternalExternal

 Recovered energy= -573.963362799     dipole=     -2.893600000000      3.476500000000      2.760100000000
 Energy=    -573.963363     NIter=   0.
 Dipole moment=      -2.893600       3.476500       2.760100
 ***** Axes restored to original set *****
 -------------------------------------------------------------------
 Center     Atomic                   Forces (Hartrees/Bohr)
 Number     Number              X              Y              Z
 -------------------------------------------------------------------
      1        6           0.005250949    0.013934421   -0.032850681
      2        6           0.027440227    0.014708185    0.006959211
      3        6          -0.012937847   -0.015772238   -0.025243854
      4        6          -0.031677881   -0.004400332   -0.002104328
      5        6          -0.043166873   -0.021740186    0.024422763
      6        6           0.043434773    0.027274880    0.024634090
      7        1           0.000630045    0.005785151    0.000513750
      8        1          -0.000426343   -0.002755226    0.003636063
      9        1           0.002857273   -0.005021250   -0.001766621
     10        1           0.000690519   -0.003261743   -0.001000658
     11        1           0.005438402   -0.003244182    0.003695931
     12        1          -0.005370304    0.000695121    0.000836057
     13        1           0.003197694    0.001012333    0.003718450
     14        8           0.002005680   -0.006250051   -0.016609639
     15        6          -0.021137763   -0.009512472    0.004783665
     16        6           0.019637769    0.014975443    0.008248873
     17        8           0.018617058    0.010105145   -0.002845295
     18        8          -0.016567504   -0.012197655   -0.004066086
     19        6           0.005914622   -0.003853184    0.004914183
     20        1          -0.002073364   -0.001562944    0.000914801
     21        1          -0.002062796    0.001808190    0.000290567
     22        1           0.000305662   -0.000727408   -0.001081242
 -------------------------------------------------------------------
 Cartesian Forces:  Max     0.043434773 RMS     0.014209680
 FormGI is forming the generalized inverse of G from B-inverse, IUseBI=4.

 GradGradGradGradGradGradGradGradGradGradGradGradGradGradGradGradGradGrad
 Berny optimization.
 Internal  Forces:  Max     0.033743050 RMS     0.007143624
 Search for a saddle point.
 Step number   3 out of a maximum of   50
 All quantities printed in internal units (Hartrees-Bohrs-Radians)
 Swapping is turned off.
 Second derivative matrix not updated -- analytic derivatives used.
 ITU=  0  0  0
     Eigenvalues ---   -0.10546   0.00473   0.01169   0.01836   0.01965
     Eigenvalues ---    0.02097   0.02423   0.02828   0.02964   0.03035
     Eigenvalues ---    0.03333   0.03861   0.04433   0.05258   0.05309
     Eigenvalues ---    0.05448   0.05841   0.06133   0.06396   0.07039
     Eigenvalues ---    0.08641   0.10090   0.11223   0.12125   0.13152
     Eigenvalues ---    0.14010   0.14769   0.15230   0.16112   0.17271
     Eigenvalues ---    0.17699   0.18285   0.19590   0.20418   0.22758
     Eigenvalues ---    0.24936   0.28167   0.30707   0.31213   0.35354
     Eigenvalues ---    0.35741   0.36358   0.36678   0.36739   0.37470
     Eigenvalues ---    0.37640   0.37738   0.38180   0.38731   0.39168
     Eigenvalues ---    0.39766   0.40598   0.41189   0.45074   0.48523
     Eigenvalues ---    0.51012   0.63829   0.70104   0.91692   0.92960
 Eigenvectors required to have negative eigenvalues:
                          R1        D39       R5        R13       R8
   1                   -0.62785  -0.27515   0.21721  -0.19059   0.18872
                          D10       D40       R2        D12       D28
   1                    0.18775  -0.18581   0.17215   0.17132  -0.13979
 RFO step:  Lambda0=9.509699810D-04 Lambda=-1.56735405D-02.
 Linear search not attempted -- option 19 set.
 Maximum step size (   0.100) exceeded in Quadratic search.
    -- Step size scaled by   0.522
 Iteration  1 RMS(Cart)=  0.03516538 RMS(Int)=  0.00030066
 Iteration  2 RMS(Cart)=  0.00050306 RMS(Int)=  0.00010006
 Iteration  3 RMS(Cart)=  0.00000017 RMS(Int)=  0.00010006
 Variable       Old X    -DE/DX   Delta X   Delta X   Delta X     New X
                                 (Linear)    (Quad)   (Total)
    R1        4.35032  -0.00871   0.00000  -0.05435  -0.05435   4.29597
    R2        2.68027  -0.02990   0.00000  -0.02955  -0.02955   2.65072
    R3        2.06252   0.00185   0.00000   0.00175   0.00175   2.06427
    R4        2.83588  -0.00019   0.00000  -0.00135  -0.00135   2.83454
    R5        2.65067  -0.02052   0.00000  -0.01543  -0.01538   2.63528
    R6        2.04764   0.00373   0.00000   0.00460   0.00460   2.05224
    R7        2.78965   0.00641   0.00000   0.00602   0.00603   2.79569
    R8        2.65834  -0.02697   0.00000  -0.02531  -0.02531   2.63302
    R9        2.05739   0.00217   0.00000   0.00315   0.00315   2.06054
   R10        2.05287   0.00296   0.00000   0.00329   0.00329   2.05616
   R11        2.04132   0.00469   0.00000   0.00621   0.00621   2.04754
   R12        2.77950   0.00725   0.00000   0.01043   0.01044   2.78994
   R13        2.58657   0.03374   0.00000   0.02703   0.02703   2.61361
   R14        2.06441   0.00157   0.00000   0.00202   0.00202   2.06643
   R15        2.06314   0.00182   0.00000   0.00173   0.00173   2.06488
   R16        2.58819   0.00125   0.00000   0.00827   0.00823   2.59642
   R17        2.59002   0.00365   0.00000   0.00878   0.00874   2.59876
   R18        2.27270  -0.01874   0.00000  -0.01074  -0.01074   2.26195
   R19        2.27165  -0.01764   0.00000  -0.01120  -0.01120   2.26045
   R20        2.07289   0.00199   0.00000   0.00191   0.00191   2.07480
   R21        2.07513   0.00273   0.00000   0.00396   0.00396   2.07909
   R22        2.07155   0.00130   0.00000   0.00170   0.00170   2.07325
    A1        1.75473  -0.01120   0.00000  -0.00449  -0.00439   1.75034
    A2        1.52132  -0.00289   0.00000  -0.02061  -0.02066   1.50066
    A3        1.90231   0.00653   0.00000  -0.01058  -0.01054   1.89177
    A4        2.05308  -0.00080   0.00000   0.00148   0.00126   2.05434
    A5        2.08382   0.00560   0.00000   0.01647   0.01634   2.10017
    A6        2.01720  -0.00118   0.00000  -0.00041  -0.00073   2.01647
    A7        1.93692  -0.00359   0.00000  -0.00052  -0.00053   1.93639
    A8        1.56898   0.00222   0.00000   0.00281   0.00279   1.57177
    A9        1.71331  -0.00338   0.00000  -0.01641  -0.01642   1.69689
   A10        2.18159   0.00002   0.00000   0.00537   0.00536   2.18695
   A11        1.85523   0.00277   0.00000   0.00491   0.00490   1.86013
   A12        2.10846  -0.00053   0.00000  -0.00386  -0.00392   2.10453
   A13        2.08180   0.00109   0.00000   0.00381   0.00344   2.08524
   A14        2.12245   0.00011   0.00000  -0.00069  -0.00105   2.12140
   A15        2.06070  -0.00144   0.00000  -0.01232  -0.01270   2.04800
   A16        2.23336  -0.00013   0.00000  -0.00375  -0.00410   2.22927
   A17        1.87326   0.00094   0.00000   0.00203   0.00181   1.87507
   A18        2.13899  -0.00100   0.00000  -0.00955  -0.00983   2.12916
   A19        2.16871  -0.00747   0.00000  -0.01103  -0.01118   2.15753
   A20        2.04686   0.00328   0.00000   0.00772   0.00757   2.05443
   A21        2.06125   0.00371   0.00000   0.00002  -0.00012   2.06113
   A22        2.17385  -0.00616   0.00000  -0.01260  -0.01272   2.16113
   A23        2.03570   0.00337   0.00000   0.01221   0.01208   2.04778
   A24        2.06755   0.00239   0.00000  -0.00256  -0.00268   2.06488
   A25        1.93693  -0.00749   0.00000  -0.00572  -0.00583   1.93110
   A26        1.87896   0.00188   0.00000  -0.00068  -0.00072   1.87824
   A27        2.22658   0.01072   0.00000   0.02037   0.02038   2.24696
   A28        2.17756  -0.01257   0.00000  -0.01960  -0.01959   2.15796
   A29        1.87385   0.00203   0.00000  -0.00075  -0.00079   1.87307
   A30        2.23146   0.01183   0.00000   0.02057   0.02057   2.25203
   A31        2.17777  -0.01384   0.00000  -0.01970  -0.01970   2.15807
   A32        1.93173   0.00288   0.00000   0.00875   0.00875   1.94049
[...]
 45117,-0.00011839,-0.00065369,0.00030124,0.00069502,0.04029271,0.05305
 213,-0.00053633,0.00304321,-0.00582828,0.15873446,0.02535709,-0.248216
 40,-0.00137583,0.00171940,-0.00247919,-0.00733079,-0.00370888,0.011796
 70,-0.00291049,-0.00161522,0.00238660,0.00299277,0.00160094,0.00144522
 ,0.00004692,-0.00016660,0.00003876,0.00011092,-0.00026429,0.00013488,0
 .00002047,-0.00010708,0.00005820,-0.00004945,-0.00004009,0.00004864,0.
 00070139,-0.00035389,0.00099492,-0.16301975,-0.03195135,0.24952915,-0.
 00044435,0.00095544,-0.00277875,0.00313145,-0.00667639,-0.02190991,-0.
 00263392,0.00433915,-0.00669227,-0.13468757,-0.06620640,-0.11090192,-0
 .00319738,-0.00161093,0.00175751,0.00297046,0.00226168,0.00267863,0.00
 055800,-0.00060529,0.00037224,-0.00015479,-0.00048646,-0.00027506,0.00
 020420,-0.00026221,0.00008977,0.00000632,-0.00010704,0.00001886,0.0000
 9552,-0.00021658,0.00008791,0.00027506,0.00157923,0.00028900,0.1244725
 6,0.00181327,-0.00600802,0.00866454,-0.01552548,-0.00278294,-0.0162690
 4,0.01014672,-0.01332337,0.01931661,-0.04855145,-0.06757614,-0.0989764
 1,0.01022300,0.00492946,-0.00459754,-0.00939870,-0.00498785,-0.0073056
 4,-0.00043479,0.00071196,0.00013174,-0.00001764,0.00182614,0.00076992,
 -0.00049030,0.00068886,-0.00012019,-0.00017412,0.00041439,-0.00008260,
 -0.00065877,0.00100602,-0.00040282,0.00303275,-0.00290451,0.00197293,0
 .06073162,0.08964040,-0.00031957,0.00213271,-0.00252791,0.00714203,0.0
 0390981,0.01187267,-0.00266380,0.00390207,-0.00693442,-0.11219195,-0.1
 0716638,-0.26363541,-0.00341009,-0.00160338,0.00119595,0.00320790,0.00
 145278,0.00327806,0.00032538,0.00010257,-0.00021035,-0.00004901,-0.001
 11022,0.00114930,0.00007244,0.00002380,0.00005662,0.00011216,-0.000107
 27,0.00006186,0.00014400,-0.00028517,0.00012248,-0.00148130,0.00063567
 ,-0.00041817,0.11964410,0.10466809,0.26628872,0.00347477,-0.00371185,0
 .00383907,-0.02277457,0.00105332,0.03119569,-0.00145954,0.00243341,-0.
 00467456,0.00532894,-0.01136479,0.00291387,0.00074364,-0.00058832,0.00
 200590,0.00039716,0.00164882,-0.00138044,0.00018504,0.00083050,0.00027
 331,0.00074572,-0.00101064,0.00017705,-0.00008885,0.00028003,-0.000328
 14,0.00030054,-0.00010646,0.00031167,-0.00034485,0.00102248,0.00006947
 ,0.00301609,0.00404545,0.00375398,0.00090422,-0.00012881,0.00031054,0.
 40613141,-0.00100328,0.00004153,0.00078481,0.01112390,0.01614827,-0.01
 614810,-0.00158910,0.00542244,-0.00381268,-0.02248617,-0.01718117,-0.0
 3422868,0.00075560,-0.00072907,0.00075698,0.00047971,0.00194975,0.0001
 8679,0.00028411,0.00007392,0.00006604,0.00037588,-0.00043730,0.0000227
 8,0.00024345,0.00013051,-0.00025357,-0.00009163,-0.00013408,0.00009673
 ,-0.00007216,0.00051380,0.00000291,-0.00138257,-0.00072413,-0.00244875
 ,0.00534875,0.00032295,-0.00412126,0.12667906,0.24447685,-0.00028101,0
 .00079043,-0.00186793,0.03520010,-0.01260975,-0.03429803,0.00050516,-0
 .00032852,-0.00094507,-0.00733838,-0.03315875,-0.03417524,-0.00161305,
 0.00059606,0.00079338,-0.00013469,0.00077628,0.00081674,-0.00000068,0.
 00026112,-0.00006626,-0.00032069,-0.00020355,0.00045948,-0.00036679,-0
 .00061052,0.00039633,0.00078059,-0.00020498,0.00056955,0.00037323,-0.0
 0003718,0.00056020,-0.00056050,-0.00568187,-0.00294766,0.00511932,-0.0
 0258927,-0.00297062,-0.07496253,0.15451128,0.38728238,-0.00010273,0.00
 804722,-0.00171014,-0.09333410,0.00520356,0.03461069,-0.00248034,-0.00
 067419,-0.00004378,-0.00813345,-0.02119820,-0.02347082,-0.00323051,0.0
 0100945,0.00021883,0.00243406,0.00033424,0.00161619,0.00011502,-0.0008
 6040,-0.00017701,-0.00020697,0.00030583,-0.00003302,-0.00018599,-0.001
 04501,0.00056032,0.00018231,0.00039692,-0.00075227,-0.00074584,-0.0009
 0687,-0.00090345,0.00192039,0.01426314,0.01397123,-0.00654178,-0.00494
 114,0.00540741,-0.12026611,0.00869245,0.05388779,0.69831224,0.01702810
 ,-0.01331637,0.00410897,-0.01866197,-0.14050051,-0.07618301,-0.0037633
 2,0.00109859,-0.00466459,-0.01132706,-0.02223373,-0.01475743,0.0007870
 1,-0.00204179,0.00366825,0.00074580,0.00272351,-0.00047439,0.00015980,
 -0.00048979,0.00025538,0.00021264,-0.00041258,0.00008808,0.00022935,-0
 .00039430,0.00018141,0.00015245,0.00021941,-0.00075324,-0.00171171,0.0
 0134805,-0.00010770,0.00264795,0.00843186,0.01273565,-0.00275883,0.004
 64661,-0.00058799,0.01487623,-0.10119845,-0.04061615,0.36260501,0.7348
 1045,0.00560447,0.00065925,-0.00040015,0.02790949,-0.07208205,-0.19840
 201,-0.00989137,0.01610654,-0.02080885,-0.02660191,-0.03942618,0.00123
 105,-0.00517051,-0.00224034,0.00847551,0.01194336,0.01227040,0.0047751
 3,0.00054431,-0.00058823,0.00024402,0.00164586,-0.00310497,0.00054804,
 0.00086747,-0.00045057,0.00002098,-0.00122236,0.00032633,-0.00150519,-
 0.00098103,0.00142564,-0.00044948,-0.00465675,-0.01171721,-0.00834693,
 0.00255844,-0.00125400,-0.00113012,0.06235276,-0.03647955,-0.18772624,
 0.09661903,0.28449358,0.55839880,-0.00325769,-0.00089799,0.00074916,-0
 .02753569,0.00236608,0.02472485,-0.00281947,0.01424693,-0.00172539,-0.
 13692949,0.00899645,0.04181462,0.00063454,-0.00131990,0.00036598,0.000
 51869,0.00185346,-0.00035189,0.00052186,-0.00507420,-0.00048220,-0.001
 15606,-0.00104267,0.00015580,0.00080031,-0.00037606,0.00122234,-0.0005
 4899,0.00048254,-0.00035263,0.00030374,-0.00012113,0.00016356,-0.00217
 051,-0.00509871,-0.00264740,0.01553782,-0.00565541,-0.01798477,-0.1044
 0301,-0.00550400,0.00299679,-0.08475679,-0.03902971,0.00724688,1.09717
 895,-0.00058599,-0.00035774,-0.00042151,-0.01230246,0.00005527,0.00920
 395,0.01012208,-0.01910656,0.00358626,0.03699157,-0.09575909,-0.064251
 86,0.00105177,0.00196757,-0.00199233,-0.00019004,-0.00478014,0.0001179
 6,-0.00045346,-0.00085238,-0.00037977,-0.00121678,0.00032022,0.0007636
 9,0.00024517,-0.00017112,0.00051497,-0.00058751,0.00009957,-0.00040032
 ,-0.00000417,-0.00037916,-0.00023372,-0.00747573,0.00017684,-0.0054539
 0,0.00469108,-0.00358152,-0.00373937,-0.01430634,-0.13268801,-0.072833
 01,-0.06767380,-0.01579170,0.04454900,0.14735181,0.39293531,-0.0030132
 7,0.00899658,-0.01153779,0.03064211,0.00365780,-0.00283972,-0.00303688
 ,0.00106031,0.00109959,0.05278695,-0.05603751,-0.19232507,-0.01011933,
 -0.00212776,0.00078514,0.00163597,0.00281812,0.00726233,0.00003617,0.0
 0062537,0.00036051,-0.00034598,0.00154180,-0.00048412,0.00037814,0.001
 11357,-0.00125718,-0.00046331,-0.00046252,-0.00027165,0.00073730,-0.00
 212884,-0.00005422,-0.00018897,-0.00419226,-0.00101813,0.01371769,-0.0
 0352288,-0.00898509,-0.00933089,-0.07838846,-0.19553165,-0.04465548,0.
 01508792,0.05778643,-0.26670500,0.07852334,0.54638341,-0.00551509,-0.0
 0162555,0.00205798,0.00382094,-0.02286325,-0.01213648,0.00307874,-0.00
 384432,0.00565091,0.00527567,0.00580149,-0.00294428,0.00475583,0.00192
 202,-0.00332906,-0.00498179,-0.00350247,-0.00315837,-0.00007172,0.0003
 6217,0.00004916,-0.00017158,0.00081168,-0.00028263,-0.00013309,0.00062
 242,-0.00025774,-0.00006052,-0.00009465,0.00058581,0.00079179,-0.00009
 429,0.00038364,-0.00043757,-0.00014491,-0.00220330,0.00083519,-0.00053
 820,-0.00078943,-0.08247855,-0.06940677,-0.00820633,-0.40406502,-0.319
 98576,-0.14468886,0.01527686,0.01754124,0.02422118,0.47389055,-0.00552
 807,-0.00135945,-0.00001747,-0.03262597,-0.02414547,-0.02370171,0.0025
 2961,-0.00358113,0.00569210,0.00367035,0.00505707,-0.01040769,0.004776
 63,0.00126820,-0.00407610,-0.00429877,-0.00353085,-0.00258644,-0.00006
 666,0.00021546,-0.00001631,-0.00017310,0.00088290,-0.00022667,-0.00025
 691,0.00039284,-0.00011611,-0.00021592,0.00019305,0.00022012,0.0006785
 3,-0.00059038,0.00026663,0.00018153,-0.00045454,-0.00131662,-0.0010200
 9,-0.00272223,0.00105730,-0.05380079,-0.01015037,0.00542489,-0.3177549
 5,-0.46009001,-0.17504796,0.00879712,0.01029608,0.00628656,0.39945056,
 0.49305080,-0.00231619,-0.00086736,0.00164441,-0.03288179,-0.03904941,
 0.00040751,0.00291766,-0.00477890,0.00667759,0.00612161,0.00411567,-0.
 00719310,0.00277697,0.00196695,-0.00339543,-0.00475353,-0.00411514,-0.
 00226355,-0.00005742,0.00007319,-0.00000249,-0.00045229,0.00106759,-0.
 00025434,-0.00028289,0.00025965,-0.00007544,0.00042193,-0.00025900,0.0
 0072766,0.00028887,-0.00014613,0.00011756,0.00049985,0.00235311,0.0016
 0186,-0.00155703,-0.00075145,0.00077791,0.01634311,0.02289948,0.034816
 12,-0.14122926,-0.17694342,-0.20355266,0.00227058,-0.00763177,-0.00874
 663,0.14854051,0.19903707,0.17662569,0.00082508,0.00255014,-0.00412018
 ,0.00266091,0.00331864,0.01002220,-0.00314202,-0.00284787,-0.00133778,
 -0.03643628,-0.00612652,0.02075536,-0.00489216,-0.00130244,0.00189365,
 0.00314989,0.00292075,0.00394924,-0.00005967,0.00168792,0.00029514,0.0
 0036898,0.00068712,-0.00021923,-0.00032168,-0.00013230,-0.00051039,0.0
 0023374,-0.00045166,0.00013170,0.00032902,-0.00047548,0.00014773,-0.00
 202896,0.00036962,-0.00030865,-0.00085692,0.00017795,0.00239013,-0.088
 65697,-0.05254813,-0.00562753,0.02589200,0.00302668,-0.01892951,-0.767
 09504,-0.11317187,0.21344455,-0.01178182,-0.00672172,0.00188671,0.8822
 4537,0.00009949,0.00090299,-0.00084322,0.00275025,0.00134056,-0.002493
 46,-0.00006714,0.00048193,-0.00221092,0.00693232,0.01913115,-0.0031865
 4,-0.00104946,-0.00060611,0.00060588,0.00088856,0.00043136,0.00025673,
 0.00023300,0.00197306,0.00009568,0.00087060,-0.00030073,0.00008712,-0.
 00015242,0.00029935,-0.00055512,0.00020441,-0.00006813,0.00014318,0.00
 004683,-0.00010847,0.00011584,0.00144142,0.00042882,0.00133851,-0.0000
 8849,-0.00037270,0.00093564,-0.06789599,-0.00564555,0.00665655,0.01335
 480,0.00205249,-0.01748908,-0.11996435,-0.13274741,0.02709772,-0.00661
 497,-0.00318968,0.00278652,0.16895746,0.11603753,0.00039445,-0.0027363
 6,0.00407963,-0.00235717,-0.00370837,-0.00603580,0.00181972,-0.0008285
 7,0.00200561,0.04457475,0.00739723,0.00469780,0.00433956,0.00138285,-0
 .00102547,-0.00238123,-0.00105035,-0.00329467,-0.00002212,-0.00018520,
 -0.00049949,-0.00007240,-0.00008243,0.00006063,0.00001835,-0.00051870,
 0.00074251,0.00007380,0.00025489,0.00002375,-0.00034111,0.00067860,-0.
 00009986,0.00134969,0.00134732,0.00082314,-0.00227948,0.00065415,0.001
 91032,-0.03276473,-0.00351570,0.03472839,0.00632959,-0.00525285,-0.009
 33541,0.20870178,0.02001426,-0.19083153,-0.00373799,-0.00038339,0.0020
 7201,-0.22394108,-0.01333890,0.15998305,-0.20946162,-0.08839756,-0.007
 55095,-0.00505111,0.00072532,-0.00009899,-0.00255763,0.00127500,-0.001
 73151,-0.00086423,-0.00056566,-0.00018849,-0.01591039,-0.01190262,0.00
 415754,0.00620784,-0.00204463,0.00107208,0.00021939,-0.00049080,0.0000
 1018,0.00007248,-0.00032508,-0.00027683,0.00015430,0.00023622,-0.00008
 621,-0.00078427,0.00255211,-0.00168633,0.00167450,-0.00097893,0.001525
 95,0.00029358,-0.00094509,0.00031783,-0.00030399,0.00016874,0.00002682
 ,-0.00150202,-0.00058899,0.00032869,-0.00074052,-0.00134347,-0.0020826
 7,0.00025418,0.00053806,0.00063420,-0.00070923,0.00050867,0.00009462,-
 0.00044019,-0.00017783,0.00015718,0.56666359,-0.09320526,-0.14578281,-
 0.01164723,0.00236582,0.00107941,-0.00115308,0.00299687,-0.00171566,0.
 00017017,0.00061927,0.00102018,0.00048803,-0.01282704,-0.00145497,-0.0
 0212090,-0.00366359,0.00584248,0.00175629,-0.00035180,0.00095898,-0.00
 023462,-0.00018637,-0.00002704,0.00050077,-0.00036360,-0.00040640,-0.0
 0007609,0.00328085,-0.00319549,-0.00066263,-0.01477050,-0.00403682,0.0
 0099488,0.00075351,0.00006880,0.00020438,0.00038384,-0.00026520,-0.000
 14460,0.00030868,-0.00040519,-0.00003813,0.00184498,0.00295607,0.00215
 946,-0.00013835,0.00032154,0.00002347,-0.00044375,-0.00131270,-0.00087
 664,0.00032013,-0.00007699,-0.00023571,-0.00308614,0.60390672,-0.01266
 148,-0.01324766,-0.10672697,-0.00067667,-0.00056198,0.00040122,-0.0007
 2876,-0.00066550,-0.00069881,0.00025122,-0.00028277,-0.00027243,0.0298
 6882,0.01586808,0.00890014,0.00246576,-0.00127029,-0.00575679,-0.00013
 150,0.00014759,0.00049803,-0.00008876,0.00039984,0.00059854,0.00124307
 ,0.00081316,0.00013290,-0.00037626,0.00214105,0.00114126,-0.02594677,-
 0.01428018,0.00217363,-0.00062931,-0.00010189,-0.00045472,0.00002551,-
 0.00009221,0.00002940,-0.00053957,-0.00041143,-0.00008864,0.00089419,0
 .00114973,0.00102755,0.00023561,0.00050251,0.00039714,-0.00125205,-0.0
 0024581,-0.00159740,-0.00005277,-0.00011304,-0.00008150,-0.00921939,0.
 00868556,0.63907645,-0.00340884,-0.01767142,0.02908315,0.00018683,0.00
 016634,0.00103858,-0.00007141,0.00030224,-0.00039899,-0.00024299,-0.00
 058519,-0.00009619,-0.00458538,-0.00362699,-0.00213281,-0.00063365,0.0
 0092795,0.00139101,-0.00000022,-0.00003677,-0.00005375,0.00003563,-0.0
 0009727,0.00002882,-0.00038526,-0.00016793,-0.00002350,0.00027937,-0.0
 0033528,-0.00009359,0.00099823,0.00102307,-0.00057660,-0.00071107,-0.0
 0000855,-0.00056125,-0.00003076,0.00005246,0.00001824,0.00041503,0.000
 11407,-0.00013378,-0.00108968,-0.00070856,-0.00020104,-0.00021578,-0.0
 0005016,-0.00003364,0.00072487,0.00039680,-0.00006120,0.00013357,0.000
 05044,-0.00004383,-0.05872998,-0.01713773,0.01985243,0.06343435,0.0007
 9387,-0.00914470,0.01482201,0.00154571,0.00061362,0.00122079,-0.000681
 38,0.00089146,-0.00108252,-0.00053667,-0.00172971,0.00011161,-0.004053
 31,-0.00212993,-0.00102689,0.00099690,0.00138697,0.00144907,0.00006631
 ,-0.00015312,-0.00002923,0.00004393,-0.00022202,0.00003723,-0.00015768
 ,-0.00020846,0.00000165,0.00014502,-0.00011496,0.00011036,0.00032767,0
 .00041521,-0.00014024,-0.00020238,0.00062332,-0.00032581,-0.00010561,0
 .00020201,-0.00000870,-0.00022037,-0.00008512,-0.00006676,0.00007875,-
 0.00008804,-0.00073095,0.00019560,0.00010382,-0.00004687,0.00022033,-0
 .00000949,0.00021579,-0.00017782,-0.00001934,0.00004224,-0.01969042,-0
 .14994729,0.12669912,0.02193964,0.15671262,0.00034496,-0.00417639,0.00
 475289,-0.00089677,-0.00036021,-0.00032126,0.00031623,-0.00023826,0.00
 026342,0.00011229,0.00078629,-0.00006305,-0.00075180,0.00053460,0.0001
 1269,-0.00031055,-0.00001719,0.00021531,0.00000583,0.00005399,0.000001
 70,-0.00002575,0.00001780,-0.00002729,-0.00000321,-0.00004449,0.000004
 18,-0.00026968,0.00011670,0.00038745,0.00067267,0.00024150,0.00065527,
 -0.00010811,-0.00037893,0.00040745,0.00000835,-0.00009693,0.00001154,-
 0.00056878,-0.00041598,0.00016331,0.00120654,0.00092479,-0.00001232,0.
 00010119,0.00023049,0.00016240,-0.00117740,-0.00040619,0.00034263,-0.0
 0012264,-0.00009001,0.00002630,0.02311239,0.12715382,-0.23808412,-0.02
 345957,-0.14130497,0.25041355,-0.02392642,0.01674638,0.00089913,0.0001
 8288,-0.00048685,0.00108196,-0.00106607,0.00069472,-0.00010575,-0.0003
 3146,-0.00061332,-0.00003754,0.00006882,-0.00115797,-0.00098737,0.0005
 1661,-0.00141183,-0.00037202,0.00010034,-0.00034110,0.00006803,0.00004
 831,-0.00002734,-0.00006923,-0.00005797,0.00005376,0.00002219,-0.00064
 253,0.00100879,0.00004178,0.00054813,-0.00068364,-0.00036646,0.0000765
 8,-0.00005864,-0.00003052,-0.00014826,0.00010368,0.00008260,-0.0003075
 8,0.00007436,0.00010625,-0.00025939,-0.00146234,-0.00114274,0.00026537
 ,-0.00006586,-0.00002156,0.00073610,0.00053993,0.00037939,-0.00030334,
 0.00002461,0.00013379,-0.22016702,0.13017177,-0.01037286,0.00455989,-0
 .00285431,-0.00049086,0.23866688,-0.01637735,0.01516613,-0.00047051,0.
 00019279,0.00062331,0.00112720,-0.00142460,0.00091002,-0.00120332,-0.0
 0045285,-0.00146081,0.00013082,-0.00200196,-0.00098758,0.00113310,0.00
 203203,0.00018549,0.00022623,0.00011801,-0.00035058,0.00004450,0.00005
 809,-0.00020466,-0.00004274,0.00005211,0.00005270,0.00003549,-0.000050
 17,0.00026798,0.00010343,0.00125924,0.00008710,-0.00011196,-0.00014122
 ,0.00003043,-0.00022611,-0.00013919,0.00018585,0.00002026,0.00031145,0
 .00047672,-0.00004065,-0.00182917,-0.00225797,-0.00143320,-0.00020916,
 -0.00020035,-0.00007386,0.00209859,0.00063627,0.00062683,0.00003499,0.
 00008172,0.00006792,0.12546325,-0.15494713,0.00542031,0.01565417,-0.01
 172081,-0.00039924,-0.13906835,0.16406599,0.00013570,0.00131038,-0.000
 04120,-0.00156438,-0.00017049,-0.00059529,0.00023496,-0.00057693,0.000
 83609,0.00042944,0.00127777,-0.00014849,0.00118935,0.00115117,-0.00015
 758,-0.00112866,-0.00016280,-0.00066506,0.00001539,-0.00010212,0.00000
 911,-0.00002263,0.00018700,-0.00008575,0.00000200,-0.00001801,-0.00000
 086,0.00023098,-0.00016804,-0.00008553,0.00027642,-0.00015474,-0.00005
 308,0.00019620,-0.00029158,0.00037593,0.00001350,-0.00013856,0.0000514
 7,0.00017180,0.00020505,0.00005023,-0.00040122,-0.00062075,-0.00027685
 ,-0.00014741,-0.00020689,-0.00001078,0.00045636,0.00016767,0.00052063,
 0.00006584,0.00006081,0.00000391,-0.01079005,0.00580409,-0.05695271,-0
 .02378461,0.01690270,0.00024197,0.01070516,-0.00815875,0.05251158,0.00
 053755,-0.01929013,-0.02971167,0.00076865,0.00055052,0.00045623,-0.000
 26041,0.00011907,-0.00075922,-0.00023526,-0.00061186,0.00037915,0.0008
 2148,0.00088436,-0.00078414,0.00037538,0.00075009,0.00014079,-0.000044
 66,0.00002086,0.00012373,-0.00001840,-0.00000154,0.00025096,0.00003902
 ,-0.00004606,0.00004510,0.00012588,-0.00019884,0.00072878,-0.00496967,
 -0.00350235,0.00031956,-0.00001661,-0.00003057,0.00003481,0.00000892,0
 .00006461,0.00000619,0.00063951,0.00050146,0.00024805,-0.00271682,-0.0
 0171829,-0.00172332,-0.00040377,-0.00044862,-0.00031993,0.00121945,0.0
 0093322,0.00104981,0.00017650,0.00015646,0.00004848,-0.05831767,0.0031
 2843,0.00783954,-0.00066275,0.00232621,0.00230467,0.00144013,0.0144193
 0,0.02371584,0.06149354,0.00211509,-0.01059382,-0.01604900,-0.00031341
 ,0.00017376,0.00024729,-0.00002207,-0.00012897,-0.00002547,0.00030487,
 0.00005143,-0.00010538,0.00080501,0.00123301,-0.00078661,-0.00001941,0
 .00022570,0.00001797,0.00000337,0.00001725,0.00007885,0.00003903,-0.00
 002191,0.00011508,0.00002079,-0.00002405,0.00002270,-0.00035379,-0.000
 14407,0.00082435,-0.00290168,-0.00081959,0.00053881,-0.00011311,-0.000
 05351,0.00000648,-0.00000725,-0.00005016,0.00003363,-0.00035507,-0.000
 17828,0.00000247,0.00074738,0.00052820,0.00005411,0.00014166,0.0001389
 5,0.00014839,0.00032842,-0.00085634,0.00001737,-0.00009558,-0.00002586
 ,-0.00000292,-0.00093015,-0.15258048,-0.13055420,-0.00020132,0.0146239
 7,0.01786880,-0.00118646,-0.01063982,-0.01629697,0.00199368,0.15912458
 ,-0.00091944,0.00027230,-0.00021862,0.00009677,-0.00004854,-0.00009741
 ,0.00003092,0.00005745,-0.00002190,-0.00006257,0.00003751,0.00022603,0
 .00105454,0.00154508,0.00070537,-0.00041202,0.00032013,0.00014821,0.00
 003067,-0.00011106,0.00004263,0.00004098,0.00009353,-0.00003430,-0.000
 05018,-0.00005876,-0.00000156,0.00018781,-0.00021600,0.00048006,0.0003
 1325,-0.00035739,0.00104610,0.00013681,-0.00005673,0.00006804,0.000013
 58,0.00002157,0.00000579,0.00083142,0.00069129,-0.00001874,-0.00194536
 ,-0.00173224,-0.00056133,-0.00035243,-0.00046196,-0.00034339,0.0022183
 8,0.00039615,0.00074944,0.00018754,0.00014012,0.00004667,0.00227396,-0
 .13075130,-0.24366215,0.00024211,-0.01684961,-0.01965402,0.00047665,0.
 00322423,0.00447227,-0.00439339,0.14384424,0.25662282\\0.00000555,-0.0
 0000443,0.00000384,-0.00000504,0.00000792,-0.00000505,-0.00000074,0.00
 000859,-0.00000407,0.00000555,-0.00000618,0.00000319,-0.00000314,-0.00
 000149,-0.00000389,-0.00000078,-0.00000346,-0.00000062,0.00000073,-0.0
 0000068,-0.00000505,0.00000101,0.00000218,-0.00000286,-0.00000204,-0.0
 0000365,-0.00000348,-0.00000224,-0.00000373,0.00000071,0.00000202,0.00
 000323,-0.00000152,0.00000066,-0.00000083,0.00000160,-0.00000215,0.000
 00437,-0.00000059,0.00000664,0.00000220,0.00000119,-0.00000431,-0.0000
 0470,0.00001339,-0.00000730,0.00000054,-0.00001022,0.00000166,0.000003
 37,-0.00001423,0.00000505,-0.00000376,0.00001789,-0.00000055,-0.000001
 61,0.00000141,-0.00000036,0.00000385,0.00000350,0.00000083,0.00000118,
 0.00000055,-0.00000105,-0.00000291,0.00000433\\\@
 The archive entry for this job was punched.


 IF YOU'RE NOT PART OF THE SOLUTION,
 THEN YOU'RE PART OF THE PRECIPITATE.
 Job cpu time:       0 days  3 hours 42 minutes 15.6 seconds.
 Elapsed time:       0 days  0 hours 34 minutes 54.6 seconds.
 File lengths (MBytes):  RWF=      6 Int=      0 D2E=      0 Chk=      2 Scr=      1
 Normal termination of Gaussian 16 at Wed Jan 17 00:47:18 2024.
