Unloading slurm/anatra/current
  ERROR: No such file or directory on
    '/cm/local/modulefiles/slurm/anatra/current'
environment: line 0: unalias: gv: not found
environment: line 0: unalias: sl: not found
 Entering Gaussian System, Link 0=g16
 Initial command:
 /apps/gaussian/g16/C.01/g16/l1.exe "/local/jobs/1158200/Gau-3232421.inp" -scrdir="/local/jobs/1158200/"
 Entering Link 1 = /apps/gaussian/g16/C.01/g16/l1.exe PID=   3232424.
  
 Copyright (c) 1988-2019, Gaussian, Inc.  All Rights Reserved.
  
 This is part of the Gaussian(R) 16 program.  It is based on
 the Gaussian(R) 09 system (copyright 2009, Gaussian, Inc.),
 the Gaussian(R) 03 system (copyright 2003, Gaussian, Inc.),
 the Gaussian(R) 98 system (copyright 1998, Gaussian, Inc.),
 the Gaussian(R) 94 system (copyright 1995, Gaussian, Inc.),
 the Gaussian 92(TM) system (copyright 1992, Gaussian, Inc.),
 the Gaussian 90(TM) system (copyright 1990, Gaussian, Inc.),
 the Gaussian 88(TM) system (copyright 1988, Gaussian, Inc.),
 the Gaussian 86(TM) system (copyright 1986, Carnegie Mellon
 University), and the Gaussian 82(TM) system (copyright 1983,
 Carnegie Mellon University). Gaussian is a federally registered
 trademark of Gaussian, Inc.
  
 This software contains proprietary and confidential information,
 including trade secrets, belonging to Gaussian, Inc.
  
 This software is provided under written license and may be
 used, copied, transmitted, or stored only in accord with that
 written license.
  
 The following legend is applicable only to US Government
 contracts under FAR:
  
                    RESTRICTED RIGHTS LEGEND
  
 Use, reproduction and disclosure by the US Government is
 subject to restrictions as set forth in subparagraphs (a)
 and (c) of the Commercial Computer Software - Restricted
 Rights clause in FAR 52.227-19.
  
 Gaussian, Inc.
 340 Quinnipiac St., Bldg. 40, Wallingford CT 06492
  
  
 ---------------------------------------------------------------
 Warning -- This program may not be used in any manner that
 competes with the business of Gaussian, Inc. or will provide
 assistance to any competitor of Gaussian, Inc.  The licensee
 of this program is prohibited from giving any competitor of
 Gaussian, Inc. access to this program.  By using this program,
 the user acknowledges that Gaussian, Inc. is engaged in the
 business of creating and licensing software in the field of
 computational chemistry and represents and warrants to the
 licensee that it is not a competitor of Gaussian, Inc. and that
 it will not use this program in any manner prohibited above.
 ---------------------------------------------------------------
  

 Cite this work as:
 Gaussian 16, Revision C.01,
 M. J. Frisch, G. W. Trucks, H. B. Schlegel, G. E. Scuseria, 
 M. A. Robb, J. R. Cheeseman, G. Scalmani, V. Barone, 
 G. A. Petersson, H. Nakatsuji, X. Li, M. Caricato, A. V. Marenich, 
 J. Bloino, B. G. Janesko, R. Gomperts, B. Mennucci, H. P. Hratchian, 
 J. V. Ortiz, A. F. Izmaylov, J. L. Sonnenberg, D. Williams-Young, 
 F. Ding, F. Lipparini, F. Egidi, J. Goings, B. Peng, A. Petrone, 
 T. Henderson, D. Ranasinghe, V. G. Zakrzewski, J. Gao, N. Rega, 
 G. Zheng, W. Liang, M. Hada, M. Ehara, K. Toyota, R. Fukuda, 
 J. Hasegawa, M. Ishida, T. Nakajima, Y. Honda, O. Kitao, H. Nakai, 
 T. Vreven, K. Throssell, J. A. Montgomery, Jr., J. E. Peralta, 
 F. Ogliaro, M. J. Bearpark, J. J. Heyd, E. N. Brothers, K. N. Kudin, 
 V. N. Staroverov, T. A. Keith, R. Kobayashi, J. Normand, 
 K. Raghavachari, A. P. Rendell, J. C. Burant, S. S. Iyengar, 
 J. Tomasi, M. Cossi, J. M. Millam, M. Klene, C. Adamo, R. Cammi, 
 J. W. Ochterski, R. L. Martin, K. Morokuma, O. Farkas, 
 J. B. Foresman, and D. J. Fox, Gaussian, Inc., Wallingford CT, 2019.
 
 ******************************************
 Gaussian 16:  ES64L-G16RevC.01  3-Jul-2019
                18-Jan-2024 
 ******************************************
 %nprocshared=12
 Will use up to   12 processors via shared memory.
 %mem=48GB
 ----------------------------------------------------------------------
 # external="~/scripts/MiMe -H 'hf def2svp' -EF 'wb97xd def2svp' -c 12 
 -m 48GB" opt=(calcall,ts,noeigen,maxcycles=50,maxstep=10,nomicro)
 ----------------------------------------------------------------------
 1/5=1,6=50,8=10,10=4,11=1,18=20,26=1,38=1/1,3;
 2/9=110,12=2,17=6,18=5,40=1/2;
 3/11=9,25=1,30=1,41=9900000,43=2,71=2,140=1/1;
 4/20=17,22=2,24=3,113=1,114=1/2;
 6/7=2,8=2,9=2,10=2,18=1/1;
 7/25=1,44=-1/16;
 1/5=1,6=50,8=10,10=4,11=1,18=20,26=1/3(3);
 2/9=110/2;
 7/8=1,9=1,25=1,44=-1/16;
 99//99;
 2/9=110/2;
 3/11=9,25=1,30=1,41=9900000,43=2,71=2,140=1/1;
 4/16=2,20=17,22=2,24=3,113=1,114=1/2;
 7/25=1,44=-1/16;
 1/5=1,6=50,8=10,10=4,11=1,18=20,26=1/3(-4);
 2/9=110/2;
 6/7=2,8=2,9=2,10=2,18=1/1;
 7/8=1,9=1,25=1,44=-1/16;
 99//99;
 --------------
 TS-898_hfm.out
 --------------
 Symbolic Z-matrix:
 Charge =  0 Multiplicity = 1
 C                    -0.60341  -0.43012  -0.19147 
 C                    -1.84913   0.04758   0.36389 
 O                    -1.97073   0.85039   1.29173 
 C                     0.6342    0.00532   0.33326 
 C                     0.79197   2.12134  -1.27892 
 H                     1.1545    2.49     -2.2473 
 H                    -0.27838   1.87314  -1.34182 
 H                     0.93417   2.89179  -0.5126 
 N                     1.49353   0.90081  -0.88035 
 H                     1.55618   0.23458  -1.653 
 H                     2.44853   1.06538  -0.55419 
 Cl                    1.97718  -1.32818   0.478 
 C                     0.73251   0.86437   1.56752 
 H                     0.09695   1.75227   1.47372 
 H                     0.33521   0.30091   2.42052 
 H                     1.77979   1.1301    1.77386 
 C                    -0.6078   -1.35592  -1.38996 
 H                     0.38418  -1.80688  -1.54624 
 H                    -1.29865  -2.20404  -1.26334 
 H                    -0.90201  -0.85888  -2.33538 
 C                    -3.12578  -0.49977  -0.27527 
 H                    -3.20818  -1.58791  -0.12518 
 H                    -3.98238  -0.00707   0.20056 
 H                    -3.1563   -0.31997  -1.36123 
 

 GradGradGradGradGradGradGradGradGradGradGradGradGradGradGradGradGradGrad
 Berny optimization.
 Initialization pass.
                           ----------------------------
                           !    Initial Parameters    !
                           ! (Angstroms and Degrees)  !
 --------------------------                            --------------------------
 ! Name  Definition              Value          Derivative Info.                !
 --------------------------------------------------------------------------------
 ! R1    R(1,2)                  1.4451         calculate D2E/DX2 analytically  !
 ! R2    R(1,4)                  1.413          calculate D2E/DX2 analytically  !
 ! R3    R(1,17)                 1.5144         calculate D2E/DX2 analytically  !
 ! R4    R(2,3)                  1.233          calculate D2E/DX2 analytically  !
 ! R5    R(2,21)                 1.529          calculate D2E/DX2 analytically  !
 ! R6    R(4,9)                  1.7359         calculate D2E/DX2 analytically  !
 ! R7    R(4,12)                 1.8981         calculate D2E/DX2 analytically  !
 ! R8    R(4,13)                 1.507          calculate D2E/DX2 analytically  !
 ! R9    R(5,6)                  1.0978         calculate D2E/DX2 analytically  !
 ! R10   R(5,7)                  1.1005         calculate D2E/DX2 analytically  !
 ! R11   R(5,8)                  1.0959         calculate D2E/DX2 analytically  !
 ! R12   R(5,9)                  1.4631         calculate D2E/DX2 analytically  !
 ! R13   R(9,10)                 1.0221         calculate D2E/DX2 analytically  !
 ! R14   R(9,11)                 1.0225         calculate D2E/DX2 analytically  !
 ! R15   R(13,14)                1.0959         calculate D2E/DX2 analytically  !
 ! R16   R(13,15)                1.0968         calculate D2E/DX2 analytically  !
 ! R17   R(13,16)                1.1            calculate D2E/DX2 analytically  !
 ! R18   R(17,18)                1.1008         calculate D2E/DX2 analytically  !
 ! R19   R(17,19)                1.1012         calculate D2E/DX2 analytically  !
 ! R20   R(17,20)                1.1079         calculate D2E/DX2 analytically  !
 ! R21   R(21,22)                1.1015         calculate D2E/DX2 analytically  !
 ! R22   R(21,23)                1.0968         calculate D2E/DX2 analytically  !
 ! R23   R(21,24)                1.1012         calculate D2E/DX2 analytically  !
 ! A1    A(2,1,4)              120.692          calculate D2E/DX2 analytically  !
 ! A2    A(2,1,17)             120.245          calculate D2E/DX2 analytically  !
 ! A3    A(4,1,17)             118.9997         calculate D2E/DX2 analytically  !
 ! A4    A(1,2,3)              126.1175         calculate D2E/DX2 analytically  !
 ! A5    A(1,2,21)             116.1517         calculate D2E/DX2 analytically  !
 ! A6    A(3,2,21)             117.7302         calculate D2E/DX2 analytically  !
 ! A7    A(1,4,9)              109.4472         calculate D2E/DX2 analytically  !
 ! A8    A(1,4,12)             115.5645         calculate D2E/DX2 analytically  !
 ! A9    A(1,4,13)             122.4762         calculate D2E/DX2 analytically  !
 ! A10   A(9,4,12)              93.7542         calculate D2E/DX2 analytically  !
 ! A11   A(9,4,13)             104.2554         calculate D2E/DX2 analytically  !
 ! A12   A(12,4,13)            106.9699         calculate D2E/DX2 analytically  !
 ! A13   A(6,5,7)              110.2734         calculate D2E/DX2 analytically  !
 ! A14   A(6,5,8)              109.7481         calculate D2E/DX2 analytically  !
 ! A15   A(6,5,9)              111.229          calculate D2E/DX2 analytically  !
 ! A16   A(7,5,8)              108.9475         calculate D2E/DX2 analytically  !
 ! A17   A(7,5,9)              107.0841         calculate D2E/DX2 analytically  !
 ! A18   A(8,5,9)              109.4966         calculate D2E/DX2 analytically  !
 ! A19   A(4,9,5)              112.5459         calculate D2E/DX2 analytically  !
 ! A20   A(4,9,10)             102.8609         calculate D2E/DX2 analytically  !
 ! A21   A(4,9,11)             108.8072         calculate D2E/DX2 analytically  !
 ! A22   A(5,9,10)             111.5428         calculate D2E/DX2 analytically  !
 ! A23   A(5,9,11)             113.6079         calculate D2E/DX2 analytically  !
 ! A24   A(10,9,11)            106.7852         calculate D2E/DX2 analytically  !
 ! A25   A(4,13,14)            110.726          calculate D2E/DX2 analytically  !
 ! A26   A(4,13,15)            108.6926         calculate D2E/DX2 analytically  !
 ! A27   A(4,13,16)            110.6986         calculate D2E/DX2 analytically  !
 ! A28   A(14,13,15)           105.8254         calculate D2E/DX2 analytically  !
 ! A29   A(14,13,16)           111.8679         calculate D2E/DX2 analytically  !
 ! A30   A(15,13,16)           108.8504         calculate D2E/DX2 analytically  !
 ! A31   A(1,17,18)            111.1105         calculate D2E/DX2 analytically  !
 ! A32   A(1,17,19)            112.436          calculate D2E/DX2 analytically  !
 ! A33   A(1,17,20)            113.6929         calculate D2E/DX2 analytically  !
 ! A34   A(18,17,19)           105.4352         calculate D2E/DX2 analytically  !
 ! A35   A(18,17,20)           107.5742         calculate D2E/DX2 analytically  !
 ! A36   A(19,17,20)           106.0844         calculate D2E/DX2 analytically  !
 ! A37   A(2,21,22)            111.0462         calculate D2E/DX2 analytically  !
 ! A38   A(2,21,23)            108.0553         calculate D2E/DX2 analytically  !
 ! A39   A(2,21,24)            112.1439         calculate D2E/DX2 analytically  !
 ! A40   A(22,21,23)           109.0399         calculate D2E/DX2 analytically  !
 ! A41   A(22,21,24)           107.0735         calculate D2E/DX2 analytically  !
 ! A42   A(23,21,24)           109.4421         calculate D2E/DX2 analytically  !
 ! D1    D(4,1,2,3)              0.7746         calculate D2E/DX2 analytically  !
 ! D2    D(4,1,2,21)          -179.5081         calculate D2E/DX2 analytically  !
 ! D3    D(17,1,2,3)          -176.3028         calculate D2E/DX2 analytically  !
 ! D4    D(17,1,2,21)            3.4146         calculate D2E/DX2 analytically  !
 ! D5    D(2,1,4,9)           -115.9594         calculate D2E/DX2 analytically  !
 ! D6    D(2,1,4,12)           139.8072         calculate D2E/DX2 analytically  !
 ! D7    D(2,1,4,13)             6.336          calculate D2E/DX2 analytically  !
 ! D8    D(17,1,4,9)            61.1538         calculate D2E/DX2 analytically  !
 ! D9    D(17,1,4,12)          -43.0795         calculate D2E/DX2 analytically  !
 ! D10   D(17,1,4,13)         -176.5507         calculate D2E/DX2 analytically  !
 ! D11   D(2,1,17,18)         -167.0258         calculate D2E/DX2 analytically  !
 ! D12   D(2,1,17,19)          -49.1165         calculate D2E/DX2 analytically  !
 ! D13   D(2,1,17,20)           71.449          calculate D2E/DX2 analytically  !
 ! D14   D(4,1,17,18)           15.8477         calculate D2E/DX2 analytically  !
 ! D15   D(4,1,17,19)          133.757          calculate D2E/DX2 analytically  !
 ! D16   D(4,1,17,20)         -105.6775         calculate D2E/DX2 analytically  !
 ! D17   D(1,2,21,22)           63.9445         calculate D2E/DX2 analytically  !
 ! D18   D(1,2,21,23)         -176.5121         calculate D2E/DX2 analytically  !
 ! D19   D(1,2,21,24)          -55.806          calculate D2E/DX2 analytically  !
 ! D20   D(3,2,21,22)         -116.3135         calculate D2E/DX2 analytically  !
 ! D21   D(3,2,21,23)            3.23           calculate D2E/DX2 analytically  !
 ! D22   D(3,2,21,24)          123.936          calculate D2E/DX2 analytically  !
 ! D23   D(1,4,9,5)             63.2694         calculate D2E/DX2 analytically  !
 ! D24   D(1,4,9,10)           -56.9026         calculate D2E/DX2 analytically  !
 ! D25   D(1,4,9,11)          -169.8994         calculate D2E/DX2 analytically  !
 ! D26   D(12,4,9,5)          -177.9284         calculate D2E/DX2 analytically  !
 ! D27   D(12,4,9,10)           61.8996         calculate D2E/DX2 analytically  !
 ! D28   D(12,4,9,11)          -51.0972         calculate D2E/DX2 analytically  !
 ! D29   D(13,4,9,5)           -69.3585         calculate D2E/DX2 analytically  !
 ! D30   D(13,4,9,10)          170.4695         calculate D2E/DX2 analytically  !
 ! D31   D(13,4,9,11)           57.4727         calculate D2E/DX2 analytically  !
 ! D32   D(1,4,13,14)          -52.5229         calculate D2E/DX2 analytically  !
 ! D33   D(1,4,13,15)           63.3156         calculate D2E/DX2 analytically  !
 ! D34   D(1,4,13,16)         -177.1817         calculate D2E/DX2 analytically  !
 ! D35   D(9,4,13,14)           72.1511         calculate D2E/DX2 analytically  !
 ! D36   D(9,4,13,15)         -172.0104         calculate D2E/DX2 analytically  !
 ! D37   D(9,4,13,16)          -52.5078         calculate D2E/DX2 analytically  !
 ! D38   D(12,4,13,14)         170.6715         calculate D2E/DX2 analytically  !
 ! D39   D(12,4,13,15)         -73.49           calculate D2E/DX2 analytically  !
 ! D40   D(12,4,13,16)          46.0127         calculate D2E/DX2 analytically  !
 ! D41   D(6,5,9,4)           -161.1301         calculate D2E/DX2 analytically  !
 ! D42   D(6,5,9,10)           -46.1063         calculate D2E/DX2 analytically  !
 ! D43   D(6,5,9,11)            74.6487         calculate D2E/DX2 analytically  !
 ! D44   D(7,5,9,4)            -40.5813         calculate D2E/DX2 analytically  !
 ! D45   D(7,5,9,10)            74.4425         calculate D2E/DX2 analytically  !
 ! D46   D(7,5,9,11)          -164.8024         calculate D2E/DX2 analytically  !
 ! D47   D(8,5,9,4)             77.3989         calculate D2E/DX2 analytically  !
 ! D48   D(8,5,9,10)          -167.5773         calculate D2E/DX2 analytically  !
 ! D49   D(8,5,9,11)           -46.8222         calculate D2E/DX2 analytically  !
 --------------------------------------------------------------------------------
 Trust Radius=1.00D-01 FncErr=1.00D-07 GrdErr=1.00D-07 EigMax=2.50D+02 EigMin=1.00D-04
 Number of steps in this run=     50 maximum allowed number of steps=    144.
 Search for a saddle point of order  1.
 GradGradGradGradGradGradGradGradGradGradGradGradGradGradGradGradGradGrad

                          Input orientation:                          
 ---------------------------------------------------------------------
 Center     Atomic      Atomic             Coordinates (Angstroms)
 Number     Number       Type             X           Y           Z
 ---------------------------------------------------------------------
      1          6           0       -0.603410   -0.430120   -0.191470
      2          6           0       -1.849130    0.047580    0.363890
      3          8           0       -1.970730    0.850390    1.291730
      4          6           0        0.634200    0.005320    0.333260
      5          6           0        0.791970    2.121340   -1.278920
      6          1           0        1.154500    2.490000   -2.247300
      7          1           0       -0.278380    1.873140   -1.341820
      8          1           0        0.934170    2.891790   -0.512600
      9          7           0        1.493530    0.900810   -0.880350
     10          1           0        1.556180    0.234580   -1.653000
     11          1           0        2.448530    1.065380   -0.554190
     12         17           0        1.977180   -1.328180    0.478000
     13          6           0        0.732510    0.864370    1.567520
     14          1           0        0.096950    1.752270    1.473720
     15          1           0        0.335210    0.300910    2.420520
     16          1           0        1.779790    1.130100    1.773860
     17          6           0       -0.607800   -1.355920   -1.389960
     18          1           0        0.384180   -1.806880   -1.546240
     19          1           0       -1.298650   -2.204040   -1.263340
     20          1           0       -0.902010   -0.858880   -2.335380
     21          6           0       -3.125780   -0.499770   -0.275270
     22          1           0       -3.208180   -1.587910   -0.125180
     23          1           0       -3.982380   -0.007070    0.200560
     24          1           0       -3.156300   -0.319970   -1.361230
 ---------------------------------------------------------------------
                    Distance matrix (angstroms):
                    1          2          3          4          5
     1  C    0.000000
     2  C    1.445144   0.000000
     3  O    2.389383   1.232955   0.000000
     4  C    1.413021   2.483878   2.901460   0.000000
     5  C    3.104767   3.738277   3.981968   2.664875   0.000000
     6  H    3.980425   4.669638   4.998011   3.619895   1.097770
     7  H    2.594987   2.951164   3.293274   2.669728   1.100549
     8  H    3.674556   4.074865   3.982633   3.022775   1.095929
     9  N    2.577419   3.667357   4.089202   1.735857   1.463126
    10  H    2.691045   3.962190   4.635704   2.201780   2.069738
    11  H    3.417956   4.510950   4.794111   2.281028   2.093914
    12  Cl   2.813209   4.067725   4.581956   1.898096   4.048540
    13  C    2.560163   2.963231   2.717308   1.506994   3.112191
    14  H    2.833053   2.815123   2.263141   2.154326   2.862917
    15  H    2.870175   3.010854   2.625539   2.129184   4.148307
    16  H    3.460701   4.040906   3.791713   2.157043   3.358245
    17  C    1.514432   2.566457   3.730529   2.522900   3.750070
    18  H    2.169379   3.474952   4.545411   2.622804   3.958366
    19  H    2.186105   2.832084   4.038517   3.341603   4.804149
    20  H    2.206660   3.000794   4.149662   3.198190   3.587114
    21  C    2.524723   1.529037   2.369085   3.842249   4.819367
    22  H    2.851263   2.181979   3.079647   4.184786   5.575917
    23  H    3.427841   2.140191   2.443896   4.618503   5.432624
    24  H    2.810288   2.195410   3.132653   4.164733   4.642801
                    6          7          8          9         10
     6  H    0.000000
     7  H    1.803761   0.000000
     8  H    1.794203   1.787605   0.000000
     9  N    2.123445   2.073173   2.100506   0.000000
    10  H    2.366740   2.479379   2.957731   1.022143   0.000000
    11  H    2.563333   2.951080   2.372928   1.022491   1.641311
    12  Cl   4.762621   4.318304   4.458397   2.654699   2.675934
    13  C    4.168165   3.240953   2.911700   2.563698   3.383314
    14  H    3.938102   2.843017   2.438219   2.866542   3.769498
    15  H    5.220335   4.123542   3.959117   3.549271   4.253085
    16  H    4.290693   3.807313   3.007744   2.679431   3.548990
    17  C    4.316461   3.246177   4.603311   3.125399   2.698461
    18  H    4.421318   3.744772   4.842355   3.000942   2.356383
    19  H    5.387034   4.203630   5.613963   4.193214   3.774753
    20  H    3.930902   2.973215   4.556491   3.309416   2.775607
    21  C    5.581077   3.856931   5.295489   4.864748   4.935399
    22  H    6.337643   4.694977   6.113663   5.373089   5.324925
    23  H    6.214090   4.430998   5.751908   5.654927   5.845488
    24  H    5.221499   3.618360   5.269490   4.831404   4.753959
                   11         12         13         14         15
    11  H    0.000000
    12  Cl   2.648909   0.000000
    13  C    2.736199   2.746549   0.000000
    14  H    3.180278   3.743781   1.095948   0.000000
    15  H    3.728195   3.020494   1.096788   1.749184   0.000000
    16  H    2.423060   2.785921   1.099993   1.819101   1.786767
    17  C    3.987776   3.189383   3.933549   4.284645   4.260764
    18  H    3.673633   2.619991   4.117331   4.676559   4.492256
    19  H    5.023282   3.811884   4.642684   5.009150   4.745008
    20  H    4.254590   4.052787   4.568794   4.724962   5.049199
    21  C    5.796587   5.224354   4.488113   4.303096   4.459465
    22  H    6.262776   5.226781   4.940440   4.963584   4.754350
    23  H    6.563261   6.110537   4.985797   4.621379   4.864633
    24  H    5.829634   5.545437   5.010297   4.786936   5.184377
                   16         17         18         19         20
    16  H    0.000000
    17  C    4.678743   0.000000
    18  H    4.647219   1.100824   0.000000
    19  H    5.460574   1.101187   1.752052   0.000000
    20  H    5.294709   1.107893   1.782058   1.765233   0.000000
    21  C    5.560578   2.883704   3.955214   2.686861   3.052567
    22  H    5.989472   2.900942   3.869420   2.306801   3.276414
    23  H    6.080381   3.966981   5.035620   3.764583   4.079859
    24  H    6.024656   2.751158   3.844493   2.647672   2.514203
                   21         22         23         24
    21  C    0.000000
    22  H    1.101529   0.000000
    23  H    1.096782   1.790125   0.000000
    24  H    1.101167   1.771492   1.794297   0.000000
 Stoichiometry    C7H14ClNO
 Framework group  C1[X(C7H14ClNO)]
 Deg. of freedom    66
 Full point group                 C1      NOp   1
 Largest Abelian subgroup         C1      NOp   1
 Largest concise Abelian subgroup C1      NOp   1
                         Standard orientation:                         
 ---------------------------------------------------------------------
 Center     Atomic      Atomic             Coordinates (Angstroms)
 Number     Number       Type             X           Y           Z
 ---------------------------------------------------------------------
      1          6           0        0.603409   -0.430120    0.191471
      2          6           0        1.849129    0.047580   -0.363889
      3          8           0        1.970729    0.850390   -1.291729
      4          6           0       -0.634201    0.005321   -0.333259
      5          6           0       -0.791970    2.121341    1.278921
      6          1           0       -1.154500    2.490001    2.247301
      7          1           0        0.278380    1.873140    1.341821
      8          1           0       -0.934170    2.891791    0.512601
      9          7           0       -1.493531    0.900811    0.880351
     10          1           0       -1.556181    0.234581    1.653001
     11          1           0       -2.448531    1.065382    0.554191
     12         17           0       -1.977182   -1.328179   -0.477999
     13          6           0       -0.732511    0.864371   -1.567519
     14          1           0       -0.096950    1.752271   -1.473719
     15          1           0       -0.335211    0.300911   -2.420519
     16          1           0       -1.779791    1.130101   -1.773859
     17          6           0        0.607798   -1.355920    1.389961
     18          1           0       -0.384182   -1.806879    1.546241
     19          1           0        1.298648   -2.204040    1.263341
     20          1           0        0.902008   -0.858880    2.335381
     21          6           0        3.125779   -0.499771    0.275271
     22          1           0        3.208178   -1.587911    0.125181
     23          1           0        3.982379   -0.007071   -0.200559
     24          1           0        3.156299   -0.319971    1.361231
 ---------------------------------------------------------------------
 Rotational constants (GHZ):           1.3922833           0.8084707           0.7440113
 Standard basis: STO-3G (5D, 7F)
 There are    68 symmetry adapted cartesian basis functions of A   symmetry.
 There are    68 symmetry adapted basis functions of A   symmetry.
    68 basis functions,   204 primitive gaussians,    68 cartesian basis functions
    44 alpha electrons       44 beta electrons
       nuclear repulsion energy       671.1891486142 Hartrees.
 NAtoms=   24 NActive=   24 NUniq=   24 SFac= 1.00D+00 NAtFMM=   60 NAOKFM=F Big=F
 Integral buffers will be    131072 words long.
 Raffenetti 1 integral format.
 Two-electron integral symmetry is turned on.
 External calculation of energy, first and second derivatives.
 Running external command "~/scripts/MiMe -H 'hf def2svp' -EF 'wb97xd def2svp' -c 12 -m 48GB R"
         input file       "/local/jobs/1158200/Gau-3232424.EIn"
         output file      "/local/jobs/1158200/Gau-3232424.EOu"
         message file     "/local/jobs/1158200/Gau-3232424.EMs"
         fchk file        "/local/jobs/1158200/Gau-3232424.EFC"
         mat. el file     "/local/jobs/1158200/Gau-3232424.EUF"
 Read checkpoint file Gau-3232424_H.chk type G16
 Write formatted file Gau-3232424_H.fchk

deriv: 2

spelevel: wb97xd def2svp
gradlevel: wb97xd def2svp
hesslevel: hf def2svp

runspe: False
runforce: True
runfreq: True

Running Gaussian ...

Parsing files ...
SPE file: Gau-3232424_F.out
FORCE file: Gau-3232424_F.out
HESS file: Gau-3232424_H.out

 ExternalExternalExternalExternalExternalExternalExternalExternalExternalExternal
 Output from external command:
 "~/scripts/MiMe -H 'hf def2svp' -EF 'wb97xd def2svp' -c 12 -m 48GB R /local/jobs/1158200/Gau-3232424.EIn /local/jobs/1158200/Gau-3232424.EOu /local/jobs/1158200/Gau-3232424.EMs /local/jobs/1158200/Gau-3232424.EFC /local/jobs/1158200/Gau-3232424.EUF"
  
 --------------------------------------------------
 Force calculation at wb97xd def2svp
 Hessian calculation at hf def2svp
 ExternalExternalExternalExternalExternalExternalExternalExternalExternalExternal

 Recovered energy= -864.728934778     dipole=     -4.491700000000      2.800900000000      4.534900000000
 Energy=    -864.728935     NIter=   0.
 Dipole moment=      -4.491700       2.800900       4.534900
 ***** Axes restored to original set *****
 -------------------------------------------------------------------
 Center     Atomic                   Forces (Hartrees/Bohr)
 Number     Number              X              Y              Z
 -------------------------------------------------------------------
      1        6          -0.000006207    0.000003738    0.000001330
      2        6           0.000004122    0.000003036    0.000002222
      3        8           0.000001582   -0.000008410   -0.000000506
      4        6           0.000004271   -0.000001792   -0.000004613
      5        6           0.000004682   -0.000001843    0.000000689
      6        1          -0.000001574    0.000002526    0.000000864
      7        1          -0.000004822   -0.000000959    0.000002004
      8        1          -0.000001744    0.000002444    0.000002503
      9        7          -0.000000069    0.000004745    0.000003531
     10        1           0.000000740   -0.000000900   -0.000001391
     11        1          -0.000003872    0.000003164   -0.000000605
     12       17           0.000000805    0.000000177   -0.000001610
     13        6          -0.000001652    0.000002122    0.000001282
     14        1           0.000000527   -0.000003689    0.000002094
     15        1           0.000000232   -0.000002188    0.000001070
     16        1           0.000000421    0.000000246   -0.000000349
     17        6          -0.000000537    0.000002495   -0.000007561
     18        1           0.000000991   -0.000003680    0.000004294
     19        1          -0.000006696    0.000001590   -0.000005533
     20        1           0.000009158    0.000001396    0.000002836
     21        6           0.000000614    0.000004044   -0.000009054
     22        1          -0.000000489   -0.000005571    0.000000034
     23        1          -0.000000485   -0.000001542    0.000000752
     24        1          -0.000000000   -0.000001150    0.000005718
 -------------------------------------------------------------------
 Cartesian Forces:  Max     0.000009158 RMS     0.000003368
 FormGI is forming the generalized inverse of G from B-inverse, IUseBI=4.

 GradGradGradGradGradGradGradGradGradGradGradGradGradGradGradGradGradGrad
 Berny optimization.
 Internal  Forces:  Max     0.000008924 RMS     0.000002836
 Search for a saddle point.
 Step number   1 out of a maximum of   50
 All quantities printed in internal units (Hartrees-Bohrs-Radians)
 Swapping is turned off.
 Second derivative matrix not updated -- analytic derivatives used.
 ITU=  0
     Eigenvalues ---   -0.03352   0.00523   0.00550   0.00660   0.00859
     Eigenvalues ---    0.01186   0.01356   0.01877   0.03423   0.04033
     Eigenvalues ---    0.04317   0.04899   0.05333   0.05427   0.05649
     Eigenvalues ---    0.05805   0.06060   0.06811   0.06897   0.07244
     Eigenvalues ---    0.07360   0.07702   0.08778   0.11463   0.12128
     Eigenvalues ---    0.14151   0.14469   0.15373   0.15780   0.16022
     Eigenvalues ---    0.16307   0.16791   0.17701   0.18107   0.18453
     Eigenvalues ---    0.19445   0.20096   0.21578   0.21709   0.23681
     Eigenvalues ---    0.24951   0.25599   0.27296   0.29698   0.32055
     Eigenvalues ---    0.32936   0.34552   0.34901   0.35067   0.35311
     Eigenvalues ---    0.35616   0.35774   0.35857   0.35900   0.36414
     Eigenvalues ---    0.36431   0.36624   0.36852   0.37944   0.39170
     Eigenvalues ---    0.45819   0.45960   0.49574   0.50451   0.79566
     Eigenvalues ---    0.83157
 Eigenvectors required to have negative eigenvalues:
                          R6        R7        D6        D9        D5
   1                   -0.82980   0.24623  -0.18905  -0.18175  -0.13057
                          A11       D8        R2        D40       D33
   1                    0.12760  -0.12327   0.11185   0.10535  -0.10114
 RFO step:  Lambda0=2.261874368D-11 Lambda=-5.19517401D-08.
 Linear search not attempted -- option 19 set.
 Iteration  1 RMS(Cart)=  0.00036936 RMS(Int)=  0.00000017
 Iteration  2 RMS(Cart)=  0.00000018 RMS(Int)=  0.00000000
 Variable       Old X    -DE/DX   Delta X   Delta X   Delta X     New X
                                 (Linear)    (Quad)   (Total)
    R1        2.73093  -0.00000   0.00000  -0.00000  -0.00000   2.73092
    R2        2.67022   0.00000   0.00000  -0.00000  -0.00000   2.67022
    R3        2.86186   0.00000   0.00000  -0.00000  -0.00000   2.86186
    R4        2.32995  -0.00001   0.00000  -0.00001  -0.00001   2.32994
    R5        2.88946   0.00000   0.00000   0.00001   0.00001   2.88947
    R6        3.28029  -0.00000   0.00000   0.00011   0.00011   3.28040
    R7        3.58688   0.00000   0.00000  -0.00003  -0.00003   3.58685
    R8        2.84781   0.00000   0.00000   0.00000   0.00000   2.84781
    R9        2.07448   0.00000   0.00000   0.00000   0.00000   2.07449
   R10        2.07974   0.00000   0.00000   0.00001   0.00001   2.07975
   R11        2.07101   0.00000   0.00000   0.00001   0.00001   2.07101
   R12        2.76491  -0.00000   0.00000  -0.00002  -0.00002   2.76489
   R13        1.93157   0.00000   0.00000   0.00001   0.00001   1.93158
   R14        1.93223  -0.00000   0.00000  -0.00001  -0.00001   1.93222
   R15        2.07104  -0.00000   0.00000  -0.00001  -0.00001   2.07104
   R16        2.07263   0.00000   0.00000   0.00000   0.00000   2.07263
   R17        2.07869   0.00000   0.00000   0.00000   0.00000   2.07869
   R18        2.08026   0.00000   0.00000   0.00000   0.00000   2.08026
   R19        2.08094   0.00000   0.00000  -0.00002  -0.00002   2.08093
   R20        2.09361  -0.00001   0.00000   0.00001   0.00001   2.09363
   R21        2.08159   0.00000   0.00000   0.00001   0.00001   2.08160
   R22        2.07262   0.00000   0.00000   0.00000   0.00000   2.07262
   R23        2.08090  -0.00001   0.00000  -0.00002  -0.00002   2.08089
    A1        2.10647  -0.00000   0.00000  -0.00001  -0.00001   2.10646
    A2        2.09867   0.00001   0.00000   0.00005   0.00005   2.09872
    A3        2.07694  -0.00000   0.00000  -0.00005  -0.00005   2.07689
    A4        2.20117  -0.00000   0.00000  -0.00001  -0.00001   2.20115
    A5        2.02723   0.00000   0.00000   0.00002   0.00002   2.02725
    A6        2.05478   0.00000   0.00000  -0.00001  -0.00001   2.05477
    A7        1.91021  -0.00001   0.00000  -0.00003  -0.00003   1.91018
    A8        2.01698   0.00000   0.00000   0.00003   0.00003   2.01701
    A9        2.13761   0.00000   0.00000   0.00001   0.00001   2.13763
   A10        1.63632   0.00000   0.00000  -0.00001  -0.00001   1.63631
   A11        1.81960   0.00000   0.00000  -0.00001  -0.00001   1.81959
   A12        1.86698  -0.00000   0.00000  -0.00000  -0.00000   1.86698
   A13        1.92463   0.00000   0.00000  -0.00000  -0.00000   1.92463
   A14        1.91547  -0.00000   0.00000  -0.00000  -0.00000   1.91546
   A15        1.94131   0.00000   0.00000   0.00001   0.00001   1.94133
   A16        1.90149  -0.00000   0.00000  -0.00001  -0.00001   1.90148
   A17        1.86897  -0.00000   0.00000   0.00001   0.00001   1.86898
   A18        1.91108   0.00000   0.00000   0.00000   0.00000   1.91108
   A19        1.96430  -0.00000   0.00000  -0.00000  -0.00000   1.96429
   A20        1.79526   0.00000   0.00000  -0.00001  -0.00001   1.79525
   A21        1.89904   0.00000   0.00000  -0.00001  -0.00001   1.89904
   A22        1.94679   0.00000   0.00000   0.00001   0.00001   1.94680
   A23        1.98283   0.00000   0.00000   0.00001   0.00001   1.98284
   A24        1.86375  -0.00000   0.00000   0.00000   0.00000   1.86376
   A25        1.93253   0.00000   0.00000   0.00000   0.00000   1.93254
   A26        1.89704   0.00000   0.00000   0.00000   0.00000   1.89704
   A27        1.93205  -0.00000   0.00000  -0.00000  -0.00000   1.93205
   A28        1.84700  -0.00000   0.00000  -0.00000  -0.00000   1.84700
   A29        1.95246  -0.00000   0.00000  -0.00000  -0.00000   1.95246
   A30        1.89980   0.00000   0.00000   0.00001   0.00001   1.89980
   A31        1.93924  -0.00000   0.00000  -0.00004  -0.00004   1.93920
   A32        1.96238   0.00000   0.00000  -0.00001  -0.00001   1.96237
   A33        1.98432  -0.00000   0.00000   0.00003   0.00003   1.98434
   A34        1.84019   0.00000   0.00000   0.00004   0.00004   1.84023
   A35        1.87752   0.00000   0.00000   0.00000   0.00000   1.87753
   A36        1.85152  -0.00000   0.00000  -0.00001  -0.00001   1.85151
   A37        1.93812   0.00000   0.00000  -0.00001  -0.00001   1.93811
   A38        1.88592  -0.00000   0.00000  -0.00001  -0.00001   1.88591
   A39        1.95728   0.00000   0.00000   0.00002   0.00002   1.95730
   A40        1.90310  -0.00000   0.00000  -0.00002  -0.00002   1.90308
   A41        1.86878   0.00000   0.00000   0.00001   0.00001   1.86880
   A42        1.91013   0.00000   0.00000   0.00001   0.00001   1.91013
    D1        0.01352  -0.00000   0.00000  -0.00020  -0.00020   0.01331
    D2       -3.13301  -0.00000   0.00000  -0.00020  -0.00020  -3.13321
    D3       -3.07706  -0.00000   0.00000  -0.00001  -0.00001  -3.07707
    D4        0.05960   0.00000   0.00000  -0.00000  -0.00000   0.05959
    D5       -2.02387   0.00000   0.00000   0.00005   0.00005  -2.02383
    D6        2.44010   0.00000   0.00000   0.00006   0.00006   2.44016
    D7        0.11058   0.00000   0.00000   0.00001   0.00001   0.11059
    D8        1.06734   0.00000   0.00000  -0.00014  -0.00014   1.06719
    D9       -0.75188   0.00000   0.00000  -0.00013  -0.00013  -0.75201
   D10       -3.08139  -0.00000   0.00000  -0.00019  -0.00019  -3.08158
   D11       -2.91515   0.00001   0.00000   0.00097   0.00097  -2.91418
   D12       -0.85724   0.00001   0.00000   0.00099   0.00099  -0.85626
   D13        1.24702   0.00001   0.00000   0.00098   0.00098   1.24800
   D14        0.27659   0.00001   0.00000   0.00117   0.00117   0.27776
   D15        2.33450   0.00001   0.00000   0.00118   0.00118   2.33568
   D16       -1.84442   0.00001   0.00000   0.00117   0.00117  -1.84325
   D17        1.11604  -0.00000   0.00000   0.00018   0.00018   1.11623
   D18       -3.08072  -0.00000   0.00000   0.00014   0.00014  -3.08057
   D19       -0.97400  -0.00000   0.00000   0.00016   0.00016  -0.97384
   D20       -2.03005   0.00000   0.00000   0.00019   0.00019  -2.02987
   D21        0.05637   0.00000   0.00000   0.00015   0.00015   0.05652
   D22        2.16309   0.00000   0.00000   0.00016   0.00016   2.16325
   D23        1.10426  -0.00000   0.00000  -0.00012  -0.00012   1.10414
   D24       -0.99314  -0.00000   0.00000  -0.00012  -0.00012  -0.99326
   D25       -2.96530  -0.00000   0.00000  -0.00012  -0.00012  -2.96542
   D26       -3.10544  -0.00000   0.00000  -0.00010  -0.00010  -3.10553
   D27        1.08035   0.00000   0.00000  -0.00010  -0.00010   1.08025
   D28       -0.89181  -0.00000   0.00000  -0.00010  -0.00010  -0.89191
   D29       -1.21053  -0.00000   0.00000  -0.00010  -0.00010  -1.21064
   D30        2.97525  -0.00000   0.00000  -0.00010  -0.00010   2.97515
   D31        1.00309  -0.00000   0.00000  -0.00010  -0.00010   1.00299
   D32       -0.91670   0.00000   0.00000   0.00005   0.00005  -0.91665
   D33        1.10507   0.00000   0.00000   0.00005   0.00005   1.10511
   D34       -3.09240   0.00000   0.00000   0.00005   0.00005  -3.09235
   D35        1.25927  -0.00000   0.00000  -0.00000  -0.00000   1.25927
   D36       -3.00215  -0.00000   0.00000  -0.00000  -0.00000  -3.00215
   D37       -0.91643  -0.00000   0.00000   0.00000   0.00000  -0.91643
   D38        2.97878   0.00000   0.00000  -0.00002  -0.00002   2.97876
   D39       -1.28264   0.00000   0.00000  -0.00002  -0.00002  -1.28266
   D40        0.80307   0.00000   0.00000  -0.00001  -0.00001   0.80306
   D41       -2.81225   0.00000   0.00000   0.00002   0.00002  -2.81223
   D42       -0.80471  -0.00000   0.00000   0.00001   0.00001  -0.80470
   D43        1.30287   0.00000   0.00000   0.00002   0.00002   1.30289
   D44       -0.70828   0.00000   0.00000   0.00003   0.00003  -0.70825
   D45        1.29927  -0.00000   0.00000   0.00002   0.00002   1.29928
   D46       -2.87635   0.00000   0.00000   0.00003   0.00003  -2.87631
   D47        1.35087   0.00000   0.00000   0.00001   0.00001   1.35088
   D48       -2.92478  -0.00000   0.00000   0.00000   0.00000  -2.92477
   D49       -0.81720  -0.00000   0.00000   0.00002   0.00002  -0.81718
         Item               Value     Threshold  Converged?
 Maximum Force            0.000009     0.000450     YES
 RMS     Force            0.000003     0.000300     YES
 Maximum Displacement     0.002182     0.001800     NO 
 RMS     Displacement     0.000369     0.001200     YES
 Predicted change in Energy=-2.596456D-08
 GradGradGradGradGradGradGradGradGradGradGradGradGradGradGradGradGradGrad

                          Input orientation:                          
 ---------------------------------------------------------------------
 Center     Atomic      Atomic             Coordinates (Angstroms)
 Number     Number       Type             X           Y           Z
 ---------------------------------------------------------------------
      1          6           0       -0.603368   -0.430219   -0.191366
      2          6           0       -1.849083    0.047473    0.364007
      3          8           0       -1.970663    0.850154    1.291954
      4          6           0        0.634239    0.005269    0.333327
      5          6           0        0.791753    2.121232   -1.279020
      6          1           0        1.154210    2.489883   -2.247432
      7          1           0       -0.278574    1.872893   -1.341878
      8          1           0        0.933859    2.891757   -0.512753
      9          7           0        1.493476    0.900830   -0.880379
     10          1           0        1.556213    0.234549   -1.652983
     11          1           0        2.448449    1.065545   -0.554227
     12         17           0        1.977315   -1.328117    0.478005
     13          6           0        0.732570    0.864355    1.567563
     14          1           0        0.096954    1.752213    1.473781
     15          1           0        0.335350    0.300892    2.420601
     16          1           0        1.779847    1.130154    1.773832
     17          6           0       -0.607687   -1.355854   -1.389982
     18          1           0        0.384056   -1.807563   -1.545618
     19          1           0       -1.299305   -2.203423   -1.263936
     20          1           0       -0.900856   -0.858475   -2.335554
     21          6           0       -3.125762   -0.499696   -0.275266
     22          1           0       -3.208328   -1.587829   -0.125164
     23          1           0       -3.982327   -0.006886    0.200517
     24          1           0       -3.156188   -0.319895   -1.361220
 ---------------------------------------------------------------------
                    Distance matrix (angstroms):
                    1          2          3          4          5
     1  C    0.000000
     2  C    1.445142   0.000000
     3  O    2.389370   1.232949   0.000000
     4  C    1.413019   2.483870   2.901432   0.000000
     5  C    3.104715   3.738185   3.982021   2.664915   0.000000
     6  H    3.980387   4.669556   4.998080   3.619945   1.097771
     7  H    2.594898   2.951051   3.293362   2.669750   1.100556
     8  H    3.674491   4.074731   3.982633   3.022820   1.095932
     9  N    2.577438   3.667345   4.089237   1.735915   1.463117
    10  H    2.691102   3.962232   4.635782   2.201825   2.069739
    11  H    3.417976   4.510920   4.794093   2.281073   2.093906
    12  Cl   2.813219   4.067747   4.581911   1.898079   4.048543
    13  C    2.560173   2.963237   2.717283   1.506996   3.112278
    14  H    2.833052   2.815102   2.263142   2.154327   2.863011
    15  H    2.870207   3.010905   2.625495   2.129187   4.148389
    16  H    3.460705   4.040908   3.791692   2.157044   3.358344
    17  C    1.514430   2.566490   3.730544   2.522861   3.749783
    18  H    2.169350   3.474872   4.545325   2.622858   3.958878
    19  H    2.186089   2.831781   4.038270   3.341879   4.803684
    20  H    2.206681   3.001251   4.150026   3.197733   3.586062
    21  C    2.524745   1.529043   2.369077   3.842262   4.819098
    22  H    2.851361   2.181982   3.079578   4.184913   5.575765
    23  H    3.427849   2.140190   2.443879   4.618492   5.432288
    24  H    2.810270   2.195425   3.132701   4.164680   4.642423
                    6          7          8          9         10
     6  H    0.000000
     7  H    1.803767   0.000000
     8  H    1.794204   1.787604   0.000000
     9  N    2.123447   2.073175   2.100502   0.000000
    10  H    2.366750   2.479395   2.957735   1.022146   0.000000
    11  H    2.563345   2.951078   2.372920   1.022486   1.641311
    12  Cl   4.762629   4.318273   4.458446   2.654715   2.675885
    13  C    4.168251   3.241051   2.911802   2.563733   3.383335
    14  H    3.938195   2.843154   2.438296   2.866566   3.769535
    15  H    5.220416   4.123632   3.959212   3.549316   4.253115
    16  H    4.290787   3.807415   3.007892   2.679447   3.548969
    17  C    4.316155   3.245834   4.603053   3.125253   2.698335
    18  H    4.421959   3.745176   4.842799   3.001457   2.357053
    19  H    5.386475   4.202894   5.613569   4.193224   3.774791
    20  H    3.929702   2.972372   4.555548   3.308400   2.774489
    21  C    5.580786   3.856594   5.295175   4.864668   4.935393
    22  H    6.337467   4.694726   6.113479   5.373149   5.325048
    23  H    6.213720   4.430614   5.751502   5.654795   5.845440
    24  H    5.221088   3.617922   5.269070   4.831227   4.753867
                   11         12         13         14         15
    11  H    0.000000
    12  Cl   2.648978   0.000000
    13  C    2.736185   2.746536   0.000000
    14  H    3.180229   3.743763   1.095945   0.000000
    15  H    3.728200   3.020496   1.096789   1.749181   0.000000
    16  H    2.423027   2.785903   1.099993   1.819098   1.786772
    17  C    3.987684   3.189416   3.933534   4.284594   4.260829
    18  H    3.674142   2.619808   4.117342   4.676666   4.492087
    19  H    5.023494   3.812710   4.642969   5.009161   4.745471
    20  H    4.253565   4.052227   4.568429   4.724654   5.049093
    21  C    5.796518   5.224471   4.488137   4.303041   4.459589
    22  H    6.262875   5.227060   4.940567   4.963607   4.754560
    23  H    6.563126   6.110645   4.985792   4.621273   4.864754
    24  H    5.829462   5.545459   5.010255   4.786836   5.184436
                   16         17         18         19         20
    16  H    0.000000
    17  C    4.678704   0.000000
    18  H    4.647275   1.100826   0.000000
    19  H    5.460947   1.101179   1.752071   0.000000
    20  H    5.294135   1.107899   1.782068   1.765223   0.000000
    21  C    5.560594   2.883800   3.955140   2.686280   3.053476
    22  H    5.989616   2.901191   3.869263   2.306540   3.277531
    23  H    6.080364   3.967064   5.035546   3.764041   4.080726
    24  H    6.024585   2.751163   3.844540   2.646725   2.515138
                   21         22         23         24
    21  C    0.000000
    22  H    1.101536   0.000000
    23  H    1.096783   1.790118   0.000000
    24  H    1.101158   1.771499   1.794297   0.000000
 Stoichiometry    C7H14ClNO
 Framework group  C1[X(C7H14ClNO)]
 Deg. of freedom    66
 Full point group                 C1      NOp   1
 Largest Abelian subgroup         C1      NOp   1
 Largest concise Abelian subgroup C1      NOp   1
                         Standard orientation:                         
 ---------------------------------------------------------------------
 Center     Atomic      Atomic             Coordinates (Angstroms)
 Number     Number       Type             X           Y           Z
 ---------------------------------------------------------------------
      1          6           0        0.603384   -0.430220    0.191396
      2          6           0        1.849116    0.047429   -0.363977
      3          8           0        1.970723    0.850106   -1.291925
      4          6           0       -0.634208    0.005311   -0.333298
      5          6           0       -0.791649    2.121279    1.279050
      6          1           0       -1.154093    2.489943    2.247462
      7          1           0        0.278670    1.872904    1.341908
      8          1           0       -0.933729    2.891809    0.512783
      9          7           0       -1.493414    0.900901    0.880409
     10          1           0       -1.556174    0.234623    1.653012
     11          1           0       -2.448381    1.065649    0.554256
     12         17           0       -1.977330   -1.328029   -0.477975
     13          6           0       -0.732509    0.864400   -1.567533
     14          1           0       -0.096863    1.752237   -1.473752
     15          1           0       -0.335309    0.300924   -2.420571
     16          1           0       -1.779777    1.130235   -1.773803
     17          6           0        0.607671   -1.355855    1.390011
     18          1           0       -0.384087   -1.807529    1.545648
     19          1           0        1.299260   -2.203447    1.263966
     20          1           0        0.900857   -0.858485    2.335584
     21          6           0        3.125776   -0.499783    0.275296
     22          1           0        3.208304   -1.587919    0.125194
     23          1           0        3.982358   -0.007003   -0.200487
     24          1           0        3.156208   -0.319984    1.361249
 ---------------------------------------------------------------------
 Rotational constants (GHZ):           1.3923053           0.8084455           0.7440333
 Standard basis: STO-3G (5D, 7F)
 There are    68 symmetry adapted cartesian basis functions of A   symmetry.
 There are    68 symmetry adapted basis functions of A   symmetry.
    68 basis functions,   204 primitive gaussians,    68 cartesian basis functions
    44 alpha electrons       44 beta electrons
       nuclear repulsion energy       671.1897717196 Hartrees.
 NAtoms=   24 NActive=   24 NUniq=   24 SFac= 1.00D+00 NAtFMM=   60 NAOKFM=F Big=F
 Integral buffers will be    131072 words long.
 Raffenetti 1 integral format.
 Two-electron integral symmetry is turned on.
 External calculation of energy, first and second derivatives.
 Running external command "~/scripts/MiMe -H 'hf def2svp' -EF 'wb97xd def2svp' -c 12 -m 48GB R"
         input file       "/local/jobs/1158200/Gau-3232424.EIn"
         output file      "/local/jobs/1158200/Gau-3232424.EOu"
         message file     "/local/jobs/1158200/Gau-3232424.EMs"
         fchk file        "/local/jobs/1158200/Gau-3232424.EFC"
         mat. el file     "/local/jobs/1158200/Gau-3232424.EUF"
 Read checkpoint file Gau-3232424_H.chk type G16
 Write formatted file Gau-3232424_H.fchk

deriv: 2

spelevel: wb97xd def2svp
gradlevel: wb97xd def2svp
hesslevel: hf def2svp

runspe: False
runforce: True
runfreq: True

Running Gaussian ...

Parsing files ...
SPE file: Gau-3232424_F.out
FORCE file: Gau-3232424_F.out
HESS file: Gau-3232424_H.out

 ExternalExternalExternalExternalExternalExternalExternalExternalExternalExternal
 Output from external command:
 "~/scripts/MiMe -H 'hf def2svp' -EF 'wb97xd def2svp' -c 12 -m 48GB R /local/jobs/1158200/Gau-3232424.EIn /local/jobs/1158200/Gau-3232424.EOu /local/jobs/1158200/Gau-3232424.EMs /local/jobs/1158200/Gau-3232424.EFC /local/jobs/1158200/Gau-3232424.EUF"
  
 --------------------------------------------------
 Force calculation at wb97xd def2svp
 Hessian calculation at hf def2svp
 ExternalExternalExternalExternalExternalExternalExternalExternalExternalExternal

 Recovered energy= -864.728934830     dipole=     -4.490900000000      2.801300000000      4.535100000000
 Energy=    -864.728935     NIter=   0.
 Dipole moment=      -4.490900       2.801300       4.535100
 ***** Axes restored to original set *****
 -------------------------------------------------------------------
 Center     Atomic                   Forces (Hartrees/Bohr)
 Number     Number              X              Y              Z
 -------------------------------------------------------------------
      1        6          -0.000000565    0.000001619   -0.000001110
      2        6           0.000000872    0.000000894   -0.000001955
      3        8           0.000000563   -0.000004850    0.000003680
      4        6           0.000002066    0.000001010   -0.000001657
      5        6          -0.000000090    0.000001531    0.000001414
      6        1          -0.000001685    0.000001960    0.000001296
      7        1          -0.000000854   -0.000000276    0.000001969
      8        1          -0.000001819    0.000001045    0.000001409
      9        7          -0.000001678    0.000000078   -0.000000175
     10        1           0.000000794    0.000001009    0.000000949
     11        1          -0.000001068    0.000003308    0.000000331
     12       17           0.000000768   -0.000000167   -0.000001837
     13        6          -0.000000587   -0.000001635    0.000000622
     14        1          -0.000000722   -0.000001750    0.000001431
     15        1           0.000000908   -0.000001740    0.000000335
     16        1           0.000000053   -0.000000156   -0.000000097
     17        6           0.000000724   -0.000000434   -0.000001918
     18        1          -0.000000269   -0.000002731    0.000003376
     19        1          -0.000005271    0.000002379   -0.000005928
     20        1           0.000007477    0.000002885   -0.000000535
     21        6           0.000000264   -0.000000811   -0.000001830
     22        1          -0.000000175   -0.000001504   -0.000000642
     23        1           0.000000329   -0.000001638    0.000000347
     24        1          -0.000000037   -0.000000026    0.000000526
 -------------------------------------------------------------------
 Cartesian Forces:  Max     0.000007477 RMS     0.000001971
 FormGI is forming the generalized inverse of G from B-inverse, IUseBI=4.

 GradGradGradGradGradGradGradGradGradGradGradGradGradGradGradGradGradGrad
 Berny optimization.
 Internal  Forces:  Max     0.000008144 RMS     0.000002314
 Search for a saddle point.
 Step number   2 out of a maximum of   50
 All quantities printed in internal units (Hartrees-Bohrs-Radians)
 Swapping is turned off.
 Second derivative matrix not updated -- analytic derivatives used.
 ITU=  0  0
     Eigenvalues ---   -0.03354   0.00524   0.00550   0.00660   0.00859
     Eigenvalues ---    0.01186   0.01356   0.01877   0.03423   0.04033
     Eigenvalues ---    0.04317   0.04899   0.05333   0.05427   0.05649
     Eigenvalues ---    0.05805   0.06060   0.06811   0.06898   0.07244
     Eigenvalues ---    0.07360   0.07701   0.08777   0.11463   0.12129
     Eigenvalues ---    0.14151   0.14468   0.15373   0.15780   0.16022
     Eigenvalues ---    0.16307   0.16791   0.17701   0.18107   0.18453
     Eigenvalues ---    0.19445   0.20096   0.21578   0.21709   0.23681
     Eigenvalues ---    0.24951   0.25597   0.27296   0.29699   0.32053
     Eigenvalues ---    0.32935   0.34554   0.34901   0.35066   0.35311
     Eigenvalues ---    0.35616   0.35773   0.35857   0.35899   0.36414
     Eigenvalues ---    0.36431   0.36624   0.36852   0.37944   0.39171
     Eigenvalues ---    0.45821   0.45959   0.49576   0.50454   0.79569
     Eigenvalues ---    0.83160
 Eigenvectors required to have negative eigenvalues:
                          R6        R7        D6        D9        D5
   1                    0.82983  -0.24618   0.18904   0.18176   0.13055
                          A11       D8        R2        D40       D33
   1                   -0.12759   0.12327  -0.11186  -0.10534   0.10113
 RFO step:  Lambda0=2.511464300D-11 Lambda=-4.25384333D-08.
 Linear search not attempted -- option 19 set.
 Iteration  1 RMS(Cart)=  0.00033612 RMS(Int)=  0.00000014
 Iteration  2 RMS(Cart)=  0.00000015 RMS(Int)=  0.00000000
 Variable       Old X    -DE/DX   Delta X   Delta X   Delta X     New X
                                 (Linear)    (Quad)   (Total)
    R1        2.73092  -0.00000   0.00000   0.00001   0.00001   2.73093
    R2        2.67022  -0.00000   0.00000  -0.00001  -0.00001   2.67021
    R3        2.86186   0.00000   0.00000  -0.00001  -0.00001   2.86185
    R4        2.32994   0.00000   0.00000  -0.00000  -0.00000   2.32993
    R5        2.88947   0.00000   0.00000   0.00001   0.00001   2.88948
    R6        3.28040  -0.00000   0.00000   0.00010   0.00010   3.28050
    R7        3.58685   0.00000   0.00000  -0.00002  -0.00002   3.58683
    R8        2.84781   0.00000   0.00000  -0.00000  -0.00000   2.84780
    R9        2.07449   0.00000   0.00000   0.00000   0.00000   2.07449
   R10        2.07975   0.00000   0.00000   0.00000   0.00000   2.07975
   R11        2.07101  -0.00000   0.00000   0.00000   0.00000   2.07101
   R12        2.76489   0.00000   0.00000  -0.00001  -0.00001   2.76488
   R13        1.93158  -0.00000   0.00000  -0.00000  -0.00000   1.93157
   R14        1.93222  -0.00000   0.00000  -0.00000  -0.00000   1.93222
   R15        2.07104  -0.00000   0.00000   0.00000   0.00000   2.07104
   R16        2.07263  -0.00000   0.00000  -0.00000  -0.00000   2.07263
   R17        2.07869   0.00000   0.00000  -0.00000  -0.00000   2.07869
   R18        2.08026   0.00000   0.00000  -0.00000  -0.00000   2.08026
   R19        2.08093   0.00000   0.00000  -0.00002  -0.00002   2.08091
   R20        2.09363  -0.00000   0.00000   0.00002   0.00002   2.09365
   R21        2.08160   0.00000   0.00000   0.00000   0.00000   2.08160
   R22        2.07262  -0.00000   0.00000  -0.00000  -0.00000   2.07262
   R23        2.08089  -0.00000   0.00000  -0.00000  -0.00000   2.08089
    A1        2.10646  -0.00000   0.00000  -0.00001  -0.00001   2.10645
    A2        2.09872   0.00001   0.00000   0.00004   0.00004   2.09876
    A3        2.07689  -0.00000   0.00000  -0.00004  -0.00004   2.07685
    A4        2.20115  -0.00000   0.00000  -0.00001  -0.00001   2.20114
    A5        2.02725   0.00000   0.00000   0.00002   0.00002   2.02728
    A6        2.05477  -0.00000   0.00000  -0.00001  -0.00001   2.05476
    A7        1.91018  -0.00001   0.00000  -0.00003  -0.00003   1.91015
    A8        2.01701   0.00000   0.00000   0.00002   0.00002   2.01703
    A9        2.13763   0.00000   0.00000   0.00002   0.00002   2.13765
   A10        1.63631   0.00000   0.00000  -0.00001  -0.00001   1.63630
   A11        1.81959   0.00000   0.00000  -0.00001  -0.00001   1.81958
   A12        1.86698  -0.00000   0.00000  -0.00000  -0.00000   1.86698
   A13        1.92463   0.00000   0.00000  -0.00000  -0.00000   1.92463
   A14        1.91546  -0.00000   0.00000  -0.00000  -0.00000   1.91546
   A15        1.94133   0.00000   0.00000   0.00001   0.00001   1.94133
   A16        1.90148  -0.00000   0.00000  -0.00001  -0.00001   1.90147
   A17        1.86898  -0.00000   0.00000   0.00000   0.00000   1.86898
   A18        1.91108   0.00000   0.00000   0.00000   0.00000   1.91108
   A19        1.96429  -0.00000   0.00000  -0.00001  -0.00001   1.96429
   A20        1.79525   0.00000   0.00000  -0.00001  -0.00001   1.79524
   A21        1.89904   0.00000   0.00000  -0.00000  -0.00000   1.89903
   A22        1.94680   0.00000   0.00000   0.00001   0.00001   1.94681
   A23        1.98284   0.00000   0.00000   0.00000   0.00000   1.98284
   A24        1.86376  -0.00000   0.00000   0.00000   0.00000   1.86376
   A25        1.93254  -0.00000   0.00000  -0.00000  -0.00000   1.93254
   A26        1.89704   0.00000   0.00000   0.00000   0.00000   1.89705
   A27        1.93205  -0.00000   0.00000  -0.00000  -0.00000   1.93205
   A28        1.84700  -0.00000   0.00000  -0.00000  -0.00000   1.84700
   A29        1.95246   0.00000   0.00000  -0.00000  -0.00000   1.95246
   A30        1.89980  -0.00000   0.00000   0.00000   0.00000   1.89980
   A31        1.93920  -0.00000   0.00000  -0.00003  -0.00003   1.93917
   A32        1.96237   0.00000   0.00000  -0.00001  -0.00001   1.96236
   A33        1.98434  -0.00000   0.00000   0.00002   0.00002   1.98436
   A34        1.84023   0.00000   0.00000   0.00003   0.00003   1.84026
   A35        1.87753   0.00000   0.00000  -0.00000  -0.00000   1.87753
   A36        1.85151  -0.00000   0.00000  -0.00002  -0.00002   1.85149
   A37        1.93811   0.00000   0.00000  -0.00001  -0.00001   1.93810
   A38        1.88591  -0.00000   0.00000  -0.00001  -0.00001   1.88590
   A39        1.95730   0.00000   0.00000   0.00002   0.00002   1.95732
   A40        1.90308  -0.00000   0.00000  -0.00002  -0.00002   1.90307
   A41        1.86880   0.00000   0.00000   0.00001   0.00001   1.86881
   A42        1.91013   0.00000   0.00000   0.00001   0.00001   1.91014
    D1        0.01331  -0.00000   0.00000  -0.00019  -0.00019   0.01312
    D2       -3.13321  -0.00000   0.00000  -0.00018  -0.00018  -3.13339
    D3       -3.07707  -0.00000   0.00000  -0.00001  -0.00001  -3.07708
    D4        0.05959   0.00000   0.00000  -0.00000  -0.00000   0.05959
    D5       -2.02383   0.00000   0.00000   0.00004   0.00004  -2.02379
    D6        2.44016   0.00000   0.00000   0.00006   0.00006   2.44022
    D7        0.11059   0.00000   0.00000   0.00001   0.00001   0.11060
    D8        1.06719   0.00000   0.00000  -0.00014  -0.00014   1.06706
    D9       -0.75201   0.00000   0.00000  -0.00011  -0.00011  -0.75212
   D10       -3.08158  -0.00000   0.00000  -0.00016  -0.00016  -3.08174
   D11       -2.91418   0.00001   0.00000   0.00088   0.00088  -2.91329
   D12       -0.85626   0.00001   0.00000   0.00090   0.00090  -0.85536
   D13        1.24800   0.00001   0.00000   0.00089   0.00089   1.24889
   D14        0.27776   0.00001   0.00000   0.00106   0.00106   0.27882
   D15        2.33568   0.00001   0.00000   0.00108   0.00108   2.33676
   D16       -1.84325   0.00001   0.00000   0.00107   0.00107  -1.84218
   D17        1.11623  -0.00000   0.00000   0.00016   0.00016   1.11638
   D18       -3.08057  -0.00000   0.00000   0.00013   0.00013  -3.08045
   D19       -0.97384  -0.00000   0.00000   0.00014   0.00014  -0.97370
   D20       -2.02987   0.00000   0.00000   0.00017   0.00017  -2.02970
   D21        0.05652   0.00000   0.00000   0.00013   0.00013   0.05665
   D22        2.16325   0.00000   0.00000   0.00014   0.00014   2.16340
   D23        1.10414  -0.00000   0.00000  -0.00010  -0.00010   1.10405
   D24       -0.99326  -0.00000   0.00000  -0.00010  -0.00010  -0.99336
   D25       -2.96542  -0.00000   0.00000  -0.00010  -0.00010  -2.96552
   D26       -3.10553  -0.00000   0.00000  -0.00009  -0.00009  -3.10562
   D27        1.08025  -0.00000   0.00000  -0.00009  -0.00009   1.08016
   D28       -0.89191  -0.00000   0.00000  -0.00009  -0.00009  -0.89200
   D29       -1.21064  -0.00000   0.00000  -0.00009  -0.00009  -1.21073
   D30        2.97515  -0.00000   0.00000  -0.00010  -0.00010   2.97505
   D31        1.00299  -0.00000   0.00000  -0.00009  -0.00009   1.00289
   D32       -0.91665   0.00000   0.00000   0.00004   0.00004  -0.91661
   D33        1.10511   0.00000   0.00000   0.00004   0.00004   1.10515
   D34       -3.09235   0.00000   0.00000   0.00004   0.00004  -3.09231
   D35        1.25927  -0.00000   0.00000  -0.00000  -0.00000   1.25927
   D36       -3.00215  -0.00000   0.00000  -0.00000  -0.00000  -3.00215
   D37       -0.91643  -0.00000   0.00000   0.00000   0.00000  -0.91643
   D38        2.97876   0.00000   0.00000  -0.00002  -0.00002   2.97874
   D39       -1.28266   0.00000   0.00000  -0.00002  -0.00002  -1.28268
   D40        0.80306   0.00000   0.00000  -0.00002  -0.00002   0.80304
   D41       -2.81223   0.00000   0.00000   0.00002   0.00002  -2.81222
   D42       -0.80470   0.00000   0.00000   0.00001   0.00001  -0.80469
   D43        1.30289   0.00000   0.00000   0.00002   0.00002   1.30291
   D44       -0.70825   0.00000   0.00000   0.00002   0.00002  -0.70823
   D45        1.29928  -0.00000   0.00000   0.00001   0.00001   1.29930
   D46       -2.87631   0.00000   0.00000   0.00003   0.00003  -2.87629
   D47        1.35088   0.00000   0.00000   0.00001   0.00001   1.35089
   D48       -2.92477  -0.00000   0.00000   0.00000   0.00000  -2.92477
   D49       -0.81718  -0.00000   0.00000   0.00002   0.00002  -0.81716
         Item               Value     Threshold  Converged?
 Maximum Force            0.000008     0.000450     YES
 RMS     Force            0.000002     0.000300     YES
 Maximum Displacement     0.001990     0.001800     NO 
 RMS     Displacement     0.000336     0.001200     YES
 Predicted change in Energy=-2.125666D-08
 GradGradGradGradGradGradGradGradGradGradGradGradGradGradGradGradGradGrad

                          Input orientation:                          
 ---------------------------------------------------------------------
 Center     Atomic      Atomic             Coordinates (Angstroms)
 Number     Number       Type             X           Y           Z
 ---------------------------------------------------------------------
      1          6           0       -0.603326   -0.430311   -0.191273
      2          6           0       -1.849043    0.047374    0.364112
      3          8           0       -1.970605    0.849939    1.292160
      4          6           0        0.634272    0.005226    0.333391
      5          6           0        0.791553    2.121135   -1.279111
      6          1           0        1.153944    2.489776   -2.247553
      7          1           0       -0.278747    1.872670   -1.341932
      8          1           0        0.933576    2.891726   -0.512894
      9          7           0        1.493427    0.900846   -0.880406
     10          1           0        1.556242    0.234521   -1.652964
     11          1           0        2.448377    1.065693   -0.554260
     12         17           0        1.977439   -1.328061    0.478009
     13          6           0        0.732623    0.864341    1.567601
     14          1           0        0.096958    1.752166    1.473834
     15          1           0        0.335477    0.300877    2.420672
     16          1           0        1.779897    1.130199    1.773808
     17          6           0       -0.607580   -1.355797   -1.389999
     18          1           0        0.383943   -1.808185   -1.545055
     19          1           0       -1.299897   -2.202860   -1.264481
     20          1           0       -0.899803   -0.858106   -2.335714
     21          6           0       -3.125747   -0.499630   -0.275258
     22          1           0       -3.208462   -1.587753   -0.125151
     23          1           0       -3.982277   -0.006722    0.200485
     24          1           0       -3.156091   -0.319822   -1.361212
 ---------------------------------------------------------------------
                    Distance matrix (angstroms):
                    1          2          3          4          5
     1  C    0.000000
     2  C    1.445146   0.000000
     3  O    2.389365   1.232948   0.000000
     4  C    1.413015   2.483862   2.901407   0.000000
     5  C    3.104667   3.738103   3.982071   2.664952   0.000000
     6  H    3.980351   4.669481   4.998143   3.619988   1.097772
     7  H    2.594820   2.950952   3.293448   2.669767   1.100556
     8  H    3.674430   4.074610   3.982635   3.022856   1.095933
     9  N    2.577452   3.667335   4.089273   1.735968   1.463113
    10  H    2.691148   3.962270   4.635854   2.201865   2.069742
    11  H    3.417994   4.510898   4.794082   2.281117   2.093904
    12  Cl   2.813227   4.067771   4.581875   1.898070   4.048550
    13  C    2.560180   2.963245   2.717262   1.506993   3.112359
    14  H    2.833052   2.815087   2.263147   2.154325   2.863094
    15  H    2.870234   3.010952   2.625456   2.129186   4.148463
    16  H    3.460706   4.040910   3.791674   2.157041   3.358436
    17  C    1.514426   2.566520   3.730560   2.522826   3.749524
    18  H    2.169323   3.474802   4.545251   2.622915   3.959347
    19  H    2.186073   2.831507   4.038050   3.342132   4.803261
    20  H    2.206702   3.001668   4.150362   3.197319   3.585104
    21  C    2.524770   1.529046   2.369069   3.842274   4.818856
    22  H    2.851451   2.181980   3.079514   4.185026   5.575625
    23  H    3.427858   2.140184   2.443859   4.618477   5.431982
    24  H    2.810262   2.195439   3.132747   4.164635   4.642080
                    6          7          8          9         10
     6  H    0.000000
     7  H    1.803766   0.000000
     8  H    1.794204   1.787598   0.000000
     9  N    2.123449   2.073174   2.100500   0.000000
    10  H    2.366760   2.479407   2.957738   1.022145   0.000000
    11  H    2.563359   2.951075   2.372916   1.022485   1.641311
    12  Cl   4.762637   4.318245   4.458491   2.654729   2.675840
    13  C    4.168327   3.241139   2.911895   2.563766   3.383351
    14  H    3.938275   2.843275   2.438363   2.866587   3.769565
    15  H    5.220488   4.123711   3.959297   3.549356   4.253138
    16  H    4.290875   3.807508   3.008029   2.679463   3.548948
    17  C    4.315877   3.245526   4.602817   3.125117   2.698219
    18  H    4.422541   3.745545   4.843203   3.001926   2.357663
    19  H    5.385963   4.202224   5.613207   4.193228   3.774821
    20  H    3.928608   2.971607   4.554689   3.307474   2.773470
    21  C    5.580524   3.856294   5.294891   4.864597   4.935390
    22  H    6.337303   4.694497   6.113309   5.373201   5.325157
    23  H    6.213385   4.430270   5.751132   5.654674   5.845397
    24  H    5.220713   3.617527   5.268687   4.831068   4.753787
                   11         12         13         14         15
    11  H    0.000000
    12  Cl   2.649042   0.000000
    13  C    2.736175   2.746526   0.000000
    14  H    3.180186   3.743752   1.095945   0.000000
    15  H    3.728206   3.020500   1.096789   1.749181   0.000000
    16  H    2.423000   2.785886   1.099993   1.819096   1.786773
    17  C    3.987599   3.189444   3.933517   4.284547   4.260884
    18  H    3.674607   2.619645   4.117354   4.676767   4.491935
    19  H    5.023685   3.813460   4.643226   5.009172   4.745893
    20  H    4.252633   4.051718   4.568097   4.724373   5.048997
    21  C    5.796459   5.224578   4.488158   4.302991   4.459700
    22  H    6.262965   5.227314   4.940680   4.963628   4.754749
    23  H    6.563004   6.110743   4.985784   4.621175   4.864858
    24  H    5.829312   5.545486   5.010218   4.786747   5.184492
                   16         17         18         19         20
    16  H    0.000000
    17  C    4.678664   0.000000
    18  H    4.647326   1.100825   0.000000
    19  H    5.461283   1.101169   1.752086   0.000000
    20  H    5.293611   1.107911   1.782076   1.765214   0.000000
    21  C    5.560607   2.883891   3.955076   2.685755   3.054310
    22  H    5.989744   2.901418   3.869120   2.306306   3.278548
    23  H    6.080344   3.967142   5.035480   3.763550   4.081520
    24  H    6.024524   2.751177   3.844588   2.645873   2.515996
                   21         22         23         24
    21  C    0.000000
    22  H    1.101537   0.000000
    23  H    1.096783   1.790109   0.000000
    24  H    1.101158   1.771507   1.794300   0.000000
 Stoichiometry    C7H14ClNO
 Framework group  C1[X(C7H14ClNO)]
 Deg. of freedom    66
 Full point group                 C1      NOp   1
 Largest Abelian subgroup         C1      NOp   1
 Largest concise Abelian subgroup C1      NOp   1
                         Standard orientation:                         
 ---------------------------------------------------------------------
 Center     Atomic      Atomic             Coordinates (Angstroms)
 Number     Number       Type             X           Y           Z
 ---------------------------------------------------------------------
      1          6           0        0.603354   -0.430275    0.191423
      2          6           0        1.849112    0.047219   -0.364036
      3          8           0        1.970741    0.849595   -1.292238
      4          6           0       -0.634206    0.005242   -0.333345
      5          6           0       -0.791373    2.121476    1.278741
      6          1           0       -1.153754    2.490330    2.247105
      7          1           0        0.278910    1.872952    1.341627
      8          1           0       -0.933333    2.891926    0.512371
      9          7           0       -1.493322    0.901155    0.880263
     10          1           0       -1.556193    0.234985    1.652950
     11          1           0       -2.448255    1.066002    0.554070
     12         17           0       -1.977460   -1.327985   -0.477725
     13          6           0       -0.732481    0.864122   -1.567725
     14          1           0       -0.096758    1.751923   -1.474121
     15          1           0       -0.335359    0.300465   -2.420680
     16          1           0       -1.779734    1.130010   -1.774001
     17          6           0        0.607528   -1.355527    1.390329
     18          1           0       -0.384028   -1.807819    1.545458
     19          1           0        1.299791   -2.202661    1.264988
     20          1           0        0.899769   -0.857671    2.335952
     21          6           0        3.125769   -0.499745    0.275462
     22          1           0        3.208414   -1.587903    0.125569
     23          1           0        3.982340   -0.006986   -0.200364
     24          1           0        3.156108   -0.319727    1.361381
 ---------------------------------------------------------------------
 Rotational constants (GHZ):           1.3923246           0.8084220           0.7440525
 Standard basis: STO-3G (5D, 7F)
 There are    68 symmetry adapted cartesian basis functions of A   symmetry.
 There are    68 symmetry adapted basis functions of A   symmetry.
    68 basis functions,   204 primitive gaussians,    68 cartesian basis functions
    44 alpha electrons       44 beta electrons
       nuclear repulsion energy       671.1901075731 Hartrees.
 NAtoms=   24 NActive=   24 NUniq=   24 SFac= 1.00D+00 NAtFMM=   60 NAOKFM=F Big=F
 Integral buffers will be    131072 words long.
 Raffenetti 1 integral format.
 Two-electron integral symmetry is turned on.
 External calculation of energy, first and second derivatives.
 Running external command "~/scripts/MiMe -H 'hf def2svp' -EF 'wb97xd def2svp' -c 12 -m 48GB R"
         input file       "/local/jobs/1158200/Gau-3232424.EIn"
         output file      "/local/jobs/1158200/Gau-3232424.EOu"
         message file     "/local/jobs/1158200/Gau-3232424.EMs"
         fchk file        "/local/jobs/1158200/Gau-3232424.EFC"
         mat. el file     "/local/jobs/1158200/Gau-3232424.EUF"
 Read checkpoint file Gau-3232424_H.chk type G16
 Write formatted file Gau-3232424_H.fchk

deriv: 2

spelevel: wb97xd def2svp
gradlevel: wb97xd def2svp
hesslevel: hf def2svp

runspe: False
runforce: True
runfreq: True

Running Gaussian ...

Parsing files ...
SPE file: Gau-3232424_F.out
FORCE file: Gau-3232424_F.out
HESS file: Gau-3232424_H.out

 ExternalExternalExternalExternalExternalExternalExternalExternalExternalExternal
 Output from external command:
 "~/scripts/MiMe -H 'hf def2svp' -EF 'wb97xd def2svp' -c 12 -m 48GB R /local/jobs/1158200/Gau-3232424.EIn /local/jobs/1158200/Gau-3232424.EOu /local/jobs/1158200/Gau-3232424.EMs /local/jobs/1158200/Gau-3232424.EFC /local/jobs/1158200/Gau-3232424.EUF"
  
 --------------------------------------------------
 Force calculation at wb97xd def2svp
 Hessian calculation at hf def2svp
 ExternalExternalExternalExternalExternalExternalExternalExternalExternalExternal

 Recovered energy= -864.728934897     dipole=     -4.490300000000      2.802500000000      4.534700000000
 Energy=    -864.728935     NIter=   0.
 Dipole moment=      -4.490300       2.802500       4.534700
 ***** Axes restored to original set *****
 -------------------------------------------------------------------
 Center     Atomic                   Forces (Hartrees/Bohr)
 Number     Number              X              Y              Z
 -------------------------------------------------------------------
      1        6          -0.000000314    0.000001209   -0.000001303
      2        6           0.000000556    0.000000662   -0.000002143
      3        8           0.000000465   -0.000004455    0.000003612
      4        6           0.000002031    0.000001272   -0.000001273
      5        6          -0.000000353    0.000001784    0.000001484
      6        1          -0.000001580    0.000001877    0.000001346
      7        1          -0.000000694   -0.000000198    0.000001835
      8        1          -0.000001687    0.000001021    0.000001359
      9        7          -0.000001605   -0.000000171   -0.000000208
     10        1           0.000000749    0.000001105    0.000000949
     11        1          -0.000000939    0.000003106    0.000000369
     12       17           0.000000600   -0.000000013   -0.000001760
     13        6          -0.000000662   -0.000001842    0.000000421
     14        1          -0.000000630   -0.000001699    0.000001493
     15        1           0.000000893   -0.000001732    0.000000304
     16        1           0.000000035   -0.000000256   -0.000000011
     17        6           0.000000645   -0.000000374   -0.000001531
     18        1          -0.000000189   -0.000002383    0.000002857
     19        1          -0.000004709    0.000002249   -0.000005679
     20        1           0.000006816    0.000002759   -0.000000607
     21        6           0.000000389   -0.000000987   -0.000001450
     22        1          -0.000000162   -0.000001394   -0.000000742
     23        1           0.000000340   -0.000001568    0.000000305
     24        1           0.000000005    0.000000029    0.000000371
 -------------------------------------------------------------------
 Cartesian Forces:  Max     0.000006816 RMS     0.000001842
 FormGI is forming the generalized inverse of G from B-inverse, IUseBI=4.

 GradGradGradGradGradGradGradGradGradGradGradGradGradGradGradGradGradGrad
 Berny optimization.
 Internal  Forces:  Max     0.000007421 RMS     0.000002110
 Search for a saddle point.
 Step number   3 out of a maximum of   50
 All quantities printed in internal units (Hartrees-Bohrs-Radians)
 Swapping is turned off.
 Second derivative matrix not updated -- analytic derivatives used.
 ITU=  0  0  0
     Eigenvalues ---   -0.03356   0.00524   0.00550   0.00660   0.00859
     Eigenvalues ---    0.01186   0.01356   0.01877   0.03423   0.04033
     Eigenvalues ---    0.04317   0.04899   0.05333   0.05427   0.05649
     Eigenvalues ---    0.05805   0.06060   0.06811   0.06898   0.07244
     Eigenvalues ---    0.07360   0.07701   0.08777   0.11463   0.12129
     Eigenvalues ---    0.14151   0.14468   0.15373   0.15780   0.16022
     Eigenvalues ---    0.16307   0.16790   0.17701   0.18108   0.18453
     Eigenvalues ---    0.19445   0.20095   0.21577   0.21709   0.23681
     Eigenvalues ---    0.24951   0.25595   0.27296   0.29699   0.32052
     Eigenvalues ---    0.32934   0.34556   0.34901   0.35066   0.35311
     Eigenvalues ---    0.35617   0.35773   0.35857   0.35899   0.36414
     Eigenvalues ---    0.36431   0.36624   0.36852   0.37944   0.39171
     Eigenvalues ---    0.45821   0.45959   0.49576   0.50457   0.79570
     Eigenvalues ---    0.83162
 Eigenvectors required to have negative eigenvalues:
                          R6        R7        D6        D9        D5
   1                    0.82985  -0.24613   0.18903   0.18177   0.13054
                          A11       D8        R2        D40       D33
   1                   -0.12758   0.12328  -0.11187  -0.10533   0.10112
 RFO step:  Lambda0=1.831822888D-11 Lambda=-3.52771316D-08.
 Linear search not attempted -- option 19 set.
 Iteration  1 RMS(Cart)=  0.00030612 RMS(Int)=  0.00000012
 Iteration  2 RMS(Cart)=  0.00000012 RMS(Int)=  0.00000000
 Variable       Old X    -DE/DX   Delta X   Delta X   Delta X     New X
                                 (Linear)    (Quad)   (Total)
    R1        2.73093  -0.00000   0.00000   0.00001   0.00001   2.73094
[...]
 .00005100,0.00000682,0.00005503,0.00003768,0.00021575,-0.00020681,0.00
 012459,-0.00011223,0.00145202,0.00121180,0.00026382,0.00030287,-0.0000
 6075,0.00020824,0.00062883,-0.00007267,-0.00074582,0.00255588,0.001150
 61,0.00148576,-0.30331469,-0.06177082,-0.04730560,-0.01232945,-0.00686
 240,-0.00215013,-0.00937031,-0.00141304,-0.00318281,0.32654668,0.00062
 888,-0.00108977,-0.00377310,0.00158752,-0.00210036,-0.00122086,0.00202
 249,0.00269775,0.00084685,-0.02180252,-0.00673590,-0.00196885,0.000007
 22,0.00032461,0.00004570,-0.00001085,-0.00009035,-0.00001651,0.0000018
 9,-0.00007926,-0.00003441,0.00005017,-0.00009433,-0.00003329,0.0002275
 9,-0.00006590,0.00150521,-0.00001410,-0.00011089,0.00011914,0.00017549
 ,0.00054894,-0.00043357,-0.00031904,-0.00056292,-0.00001452,-0.0547025
 1,-0.07625568,-0.01035804,0.02376991,0.01297649,0.00502053,-0.01604961
 ,-0.00370273,-0.00535214,0.06547585,0.07402418,0.00233071,-0.00335928,
 -0.00377226,0.00119130,-0.00086709,-0.00136872,0.00072546,0.00030479,0
 .00218956,-0.03249510,-0.00771074,-0.00733652,-0.00011557,0.00018543,-
 0.00026817,0.00004317,0.00001870,0.00003480,0.00005813,-0.00011406,0.0
 0013540,-0.00006807,0.00009812,-0.00002985,-0.00080255,0.00021297,0.00
 145125,-0.00013567,-0.00027487,0.00032091,0.00045641,-0.00000021,-0.00
 154130,-0.00030099,0.00123177,0.00053068,-0.04107127,-0.00961118,-0.06
 852819,-0.00222028,-0.00078365,-0.00166541,0.02556331,0.00456667,0.008
 65485,0.04833002,0.01641823,0.07166109,-0.10264970,-0.00167555,-0.0020
 5901,0.00756667,0.02196890,0.02577935,-0.00685473,0.00143873,0.0019908
 1,0.00306139,-0.02395482,-0.02754005,0.00046137,0.00018372,0.00008296,
 0.00001277,0.00011412,0.00000836,-0.00012596,0.00000779,0.00005910,-0.
 00008254,0.00012576,-0.00007513,0.00031780,0.00114227,0.00010409,-0.00
 058160,-0.00195446,0.00047413,0.00042417,0.00022809,-0.00028088,-0.001
 28821,0.00069537,-0.00134050,-0.00531408,0.00021595,0.00015949,-0.0001
 6229,-0.00006091,0.00023371,-0.00001418,0.00010019,-0.00008309,-0.0001
 9491,-0.00096093,-0.00141579,0.62779980,-0.00170893,-0.13157511,-0.083
 19459,0.00568678,-0.00952256,-0.00977741,0.00001446,0.00477226,-0.0012
 3806,-0.00930169,-0.01614782,-0.00339234,0.00061606,-0.00020115,-0.000
 08561,-0.00016048,0.00012175,-0.00001517,-0.00020704,-0.00097611,-0.00
 006351,0.00037873,0.00002743,0.00008824,0.00495954,0.00321685,-0.00441
 828,-0.00005431,0.00156762,0.00010033,0.00051114,0.00065563,-0.0009122
 4,-0.00254320,0.00212423,-0.00094847,-0.00001655,0.00342284,-0.0014281
 4,0.00008035,0.00020800,0.00034658,-0.00012867,-0.00021950,-0.00057428
 ,0.00029329,0.00059952,-0.00028662,0.00119150,0.56896786,-0.00337576,-
 0.07793853,-0.17644800,0.00655422,-0.00770501,-0.01303924,-0.00064839,
 -0.00168455,0.00477138,-0.01177280,-0.00362955,-0.01500037,0.00055005,
 0.00043381,-0.00007304,0.00026942,0.00019643,0.00001426,0.00022764,-0.
 00005858,0.00041326,-0.00001973,0.00003762,-0.00005962,-0.00066371,-0.
 00039085,0.00147022,0.00029159,-0.00014445,0.00094901,0.00022988,0.000
 18277,-0.00003241,0.00398293,-0.00498935,-0.00285738,-0.00063393,-0.00
 207909,0.00243857,-0.00012935,-0.00028727,-0.00035016,0.00011414,0.000
 29026,0.00035048,0.00029277,-0.00053655,0.00003729,0.00184254,-0.01104
 094,0.54504994,0.00322264,-0.00117641,0.00043101,0.00022619,0.00010156
 ,-0.00131808,0.00016725,0.00027552,0.00052417,-0.00291439,-0.00066095,
 0.00100077,-0.00009910,0.00000096,-0.00010973,0.00000869,0.00002284,-0
 .00000352,-0.00003563,-0.00008061,0.00005603,0.00005073,-0.00005896,0.
 00002372,0.00043258,0.00011014,-0.00086187,0.00054460,0.00019494,0.000
 07987,0.00005312,-0.00009300,-0.00023817,-0.00294873,-0.00214735,-0.00
 550495,0.00018267,0.00012114,-0.00011978,-0.00004474,-0.00000829,0.000
 01342,-0.00001146,0.00002038,-0.00004271,0.00016873,0.00004839,0.00005
 819,-0.27520713,0.09751388,0.03494232,0.30077128,0.01756149,-0.0077583
 0,-0.00250884,-0.00237044,-0.00319059,-0.00238653,0.00146006,-0.000205
 54,-0.00096443,0.00514612,0.00093673,-0.00079670,0.00019582,-0.0001779
 8,0.00017451,-0.00002574,-0.00001957,-0.00001975,0.00006357,0.00009571
 ,-0.00008263,-0.00005621,0.00008802,-0.00002238,-0.00129471,-0.0007335
 0,0.00079737,-0.00087653,-0.00181419,-0.00007316,-0.00016263,0.0000164
 0,0.00019704,-0.00063042,0.00151296,0.00158179,0.00025059,0.00000039,0
 .00015973,0.00004209,0.00001730,-0.00000697,0.00001274,-0.00000049,0.0
 0003313,-0.00008333,0.00001067,0.00005247,0.09678983,-0.10197306,-0.01
 531486,-0.10597885,0.10587448,0.02550546,-0.00837898,-0.00268322,-0.00
 265706,-0.00402339,-0.00420704,0.00194067,-0.00057145,-0.00098919,0.00
 523641,-0.00149970,0.00132933,0.00001552,0.00008279,-0.00001422,-0.000
 03118,0.00005096,-0.00000918,-0.00000520,0.00002889,-0.00009548,0.0000
 1057,0.00001647,-0.00001007,-0.00106584,0.00008191,0.00029560,0.000076
 01,-0.00001262,0.00056711,-0.00008754,-0.00015740,0.00017638,-0.003637
 68,0.00113395,-0.00165192,0.00012307,0.00042641,-0.00015661,0.00007437
 ,0.00010794,0.00012359,0.00001640,-0.00004970,-0.00003027,-0.00005154,
 -0.00001895,0.00003634,0.02913581,-0.01331537,-0.06273096,-0.03169696,
 0.01866558,0.06514355,0.00316563,0.00143281,-0.00237635,-0.00147065,0.
 00066680,-0.00007053,0.00052975,-0.00039013,-0.00031265,-0.00026735,-0
 .00045847,0.00042636,-0.00020252,0.00013477,-0.00013368,0.00000346,-0.
 00002836,0.00003313,0.00002539,0.00001643,-0.00002412,0.00003069,-0.00
 006772,0.00002272,0.00001295,-0.00002295,0.00005494,0.00038398,0.00062
 247,-0.00016821,0.00011595,-0.00002430,-0.00003183,-0.00007776,-0.0002
 7149,-0.00078358,-0.00011482,-0.00000501,-0.00001225,0.00003036,0.0000
 3031,0.00002623,0.00000092,-0.00004174,-0.00000358,0.00001022,-0.00004
 075,-0.00004464,-0.16391588,-0.12958328,0.02344983,-0.01878197,-0.0250
 3270,0.00524397,0.17565323,-0.01161376,-0.01253674,-0.00339365,-0.0045
 0872,0.00157057,0.00051863,0.00126108,-0.00049018,-0.00076219,0.004344
 86,-0.00392010,-0.00109061,0.00012025,0.00019116,0.00003108,-0.0000182
 7,-0.00000462,0.00001879,-0.00001878,0.00006405,-0.00004975,-0.0000061
 5,0.00002649,-0.00002641,-0.00021006,0.00019264,0.00039421,-0.00004195
 ,-0.00036078,0.00006711,0.00002899,0.00007688,0.00005279,-0.00107045,0
 .00078285,0.00036911,-0.00064073,0.00043940,-0.00011789,0.00001041,0.0
 0000609,0.00009463,-0.00004722,-0.00004469,-0.00009478,-0.00005680,-0.
 00007127,-0.00023270,-0.12799787,-0.20955179,0.02812234,0.00953630,0.0
 1368301,-0.00268981,0.14184674,0.22300507,-0.02111605,-0.02403307,0.00
 242035,-0.00165617,0.00110447,0.00161204,0.00021205,-0.00015262,-0.000
 99547,0.00412097,-0.00514331,-0.00223579,-0.00016459,-0.00004913,0.000
 07961,-0.00007197,-0.00007894,0.00000530,0.00004580,-0.00002616,-0.000
 17898,0.00005312,0.00002941,0.00002030,0.00010148,0.00011731,0.0000213
 9,-0.00043851,-0.00011782,-0.00026582,-0.00007520,0.00006458,0.0000576
 0,-0.00124862,0.00110737,0.00013995,-0.00105648,0.00052259,-0.00030362
 ,0.00003767,0.00004890,0.00011802,-0.00002538,-0.00005877,-0.00012016,
 -0.00008573,-0.00009530,-0.00035427,0.02318452,0.02862010,-0.05960151,
 0.00234991,0.00296225,-0.00107615,-0.02573096,-0.02659994,0.06618640,0
 .00183730,-0.00094907,0.00064109,-0.00060029,-0.00052025,0.00080195,0.
 00016658,0.00027223,-0.00018265,-0.00053755,0.00135564,-0.00117908,-0.
 00018211,-0.00008472,0.00010685,-0.00006002,-0.00009762,0.00001760,0.0
 0017233,-0.00001346,-0.00011014,0.00005945,0.00002554,0.00003273,0.000
 35595,-0.00027803,0.00025542,-0.00069786,-0.00007336,-0.00047780,-0.00
 000097,0.00018220,-0.00002263,-0.00002509,-0.00094078,-0.00070704,-0.0
 0019586,-0.00030414,0.00017851,0.00001361,-0.00001336,-0.00005507,0.00
 000905,0.00006368,0.00007550,0.00000175,-0.00003432,-0.00005116,-0.077
 26479,0.03149080,-0.05377927,-0.00543008,0.01558960,-0.02808136,0.0074
 8344,-0.01172347,0.01982919,0.07462433,-0.00766286,0.01357777,-0.02314
 945,-0.00110435,0.00146464,0.00018831,0.00011067,-0.00126889,-0.000002
 71,0.00326444,0.00100677,-0.00329429,-0.00008626,0.00054308,0.00001706
 ,0.00003331,-0.00001052,0.00005426,0.00013981,-0.00023463,-0.00028123,
 0.00016916,0.00002319,0.00001331,-0.00139700,-0.00068038,0.00153490,-0
 .00025246,-0.00029937,0.00016903,0.00011132,0.00002862,0.00011829,0.00
 047385,0.00008183,0.00045344,-0.00050379,-0.00059831,0.00044639,0.0000
 0203,-0.00005157,-0.00005628,0.00002228,0.00003715,0.00010953,-0.00009
 307,-0.00023083,-0.00007792,0.03018594,-0.11291778,0.09585377,0.001891
 53,-0.00684887,0.01021434,0.00853020,-0.01367262,0.02221306,-0.0343026
 9,0.11994302,-0.00735143,0.00112530,-0.02370240,-0.00587098,0.00152966
 ,0.00078328,0.00168283,-0.00206728,-0.00149255,0.00857769,0.00288991,-
 0.00511757,-0.00106518,0.00019791,0.00007017,0.00000397,-0.00021638,0.
 00004052,0.00019291,-0.00001952,-0.00040889,0.00012654,-0.00000691,0.0
 0004207,-0.00229154,-0.00191194,0.00250284,-0.00061957,-0.00005948,-0.
 00043947,-0.00014389,-0.00012318,0.00023042,-0.00031755,0.00019421,0.0
 0037072,-0.00087423,-0.00068900,0.00054990,0.00001701,-0.00008054,-0.0
 0008501,0.00003379,0.00004385,0.00014516,-0.00012767,-0.00034215,-0.00
 021446,-0.05339360,0.10153766,-0.22425872,-0.00000210,-0.00271209,0.00
 576640,-0.00165946,0.00462614,-0.00526789,0.06224646,-0.10421659,0.249
 86778,-0.02521679,-0.01031696,-0.01125655,-0.20122856,-0.02849302,-0.0
 3363943,0.00938688,-0.00789253,-0.00987372,-0.00213015,0.00177505,0.00
 192572,-0.00013394,0.00017029,-0.00004777,0.00000152,-0.00006696,0.000
 02670,-0.00008302,0.00001973,0.00000945,0.00003707,-0.00001598,0.00000
 235,-0.00065741,-0.00041432,0.00006299,0.00008757,0.00004519,-0.000154
 73,-0.00003593,-0.00011342,0.00013966,-0.00097079,0.00029252,-0.000288
 96,0.00006923,0.00002707,0.00017599,-0.00004597,-0.00004817,-0.0000527
 7,0.00001310,-0.00001379,-0.00002015,-0.00006255,-0.00001948,-0.000022
 33,-0.00406925,0.00137689,-0.00021247,-0.00057567,-0.00059855,-0.00021
 970,-0.00144385,-0.00015538,0.00067265,0.00047720,0.00016307,-0.000011
 73,0.57416427,0.00471712,0.01302443,-0.00068284,-0.02295224,-0.1082097
 0,-0.00482087,-0.02707595,-0.00653246,-0.03930993,0.00404610,0.0011890
 3,-0.00214623,0.00027204,-0.00020868,-0.00001080,-0.00008060,0.0000469
 5,-0.00000437,-0.00005171,0.00002379,0.00001308,0.00000862,0.00004275,
 -0.00000465,0.00196703,0.00142958,-0.00037578,-0.00007511,-0.00000890,
 0.00009359,0.00012496,0.00029981,-0.00036735,-0.00208026,0.00090978,0.
 00014583,-0.00011073,0.00065223,-0.00049380,0.00050813,0.00011135,-0.0
 0004236,-0.00007632,-0.00041453,0.00015947,-0.00020415,-0.00002897,0.0
 0021971,0.00095508,-0.00183340,0.00035799,0.00006669,-0.00012363,0.000
 22169,0.00154283,-0.00015144,-0.00094603,0.00013123,-0.00013941,0.0005
 9620,-0.04172162,0.59571635,0.00476352,-0.00033641,0.01317640,-0.02668
 734,-0.00583691,-0.11202090,-0.03284824,-0.03905888,-0.01677044,0.0048
 1740,-0.00103360,0.00045661,-0.00013605,0.00025225,-0.00014660,0.00009
 168,0.00000088,0.00003185,0.00009184,-0.00002908,0.00003613,0.00001663
 ,0.00001766,-0.00002585,-0.00226744,-0.00120547,0.00086289,0.00003958,
 -0.00010696,-0.00001650,-0.00009297,-0.00023224,0.00028486,0.00223760,
 -0.00091469,0.00051238,-0.00028336,-0.00119106,0.00009846,-0.00013942,
 0.00046902,-0.00017255,0.00016606,0.00008252,0.00000777,-0.00016669,0.
 00023351,0.00000578,0.00106265,0.00010493,-0.00068121,0.00025058,0.000
 38517,-0.00044010,0.00098380,0.00073744,0.00017521,0.00049480,-0.00018
 308,-0.00042036,-0.04332435,0.02211551,0.60336927,-0.00255453,0.002158
 96,-0.00148145,0.00608078,-0.03017000,0.01042534,-0.00279014,0.0003827
 6,-0.00526509,0.00137183,0.00060137,-0.00000003,0.00003368,-0.00000525
 ,0.00000687,-0.00002523,-0.00000472,0.00000463,0.00000230,0.00003201,-
 0.00004596,0.00000348,0.00000789,-0.00000137,0.00019634,0.00014210,-0.
 00006101,-0.00002963,-0.00002800,-0.00001780,0.00001236,0.00003099,-0.
 00002389,-0.00086627,0.00043125,0.00002720,0.00001804,0.00014285,-0.00
 009095,0.00012163,0.00004385,0.00000546,-0.00004507,-0.00009303,0.0000
 3755,-0.00004468,-0.00001021,0.00003781,-0.00100316,-0.00098963,0.0002
 6573,0.00003954,0.00004370,-0.00001018,-0.00095530,0.00050349,0.000960
 82,0.00026678,0.00029813,-0.00000198,-0.06079164,-0.02021656,0.0043927
 0,0.05658245,-0.00117719,0.00042124,-0.00162754,0.00409296,-0.00979211
 ,0.00217255,-0.00313397,0.00030115,-0.00201777,0.00063122,0.00013329,0
 .00012912,0.00007428,0.00000505,0.00000880,-0.00001716,-0.00000415,0.0
 0000734,0.00004124,0.00000594,-0.00004116,0.00000593,0.00001059,-0.000
 00325,-0.00011206,-0.00000973,0.00007226,-0.00004358,-0.00006198,-0.00
 001387,0.00000319,0.00001732,0.00002197,-0.00043445,0.00024896,0.00001
 599,0.00001029,0.00003879,-0.00001139,0.00010405,0.00006281,0.00001267
 ,-0.00000878,-0.00005850,0.00003256,-0.00005519,0.00000959,0.00002478,
 0.00100781,-0.00045486,-0.00005205,0.00034290,0.00045120,-0.00015895,0
 .00082801,0.00083355,-0.00011199,-0.00004589,-0.00003864,-0.00000867,-
 0.01905674,-0.31978413,0.03847798,0.01895395,0.34334807,0.00004223,0.0
 0045951,-0.00037377,0.00168851,-0.01660425,0.00294002,-0.00288825,0.00
 075685,-0.00392502,0.00042957,0.00000806,-0.00017593,-0.00006797,0.000
 02114,-0.00000092,-0.00000622,-0.00000277,0.00000652,-0.00004540,0.000
 00865,-0.00003950,0.00001200,-0.00000219,0.00000111,0.00015784,0.00004
 888,0.00003560,0.00002341,0.00004193,0.00000517,0.00002382,0.00001937,
 -0.00002738,-0.00030861,0.00013882,-0.00005117,-0.00003824,0.00010715,
 -0.00002243,0.00009106,0.00001698,0.00000332,-0.00002862,-0.00006870,0
 .00001683,-0.00003225,-0.00001207,0.00000650,0.00020399,0.00078137,0.0
 0022795,-0.00024575,-0.00015704,0.00002829,0.00063912,-0.00053347,0.00
 001814,-0.00008796,0.00015033,0.00007437,0.00349315,0.03460577,-0.0564
 9001,-0.00274072,-0.04012519,0.05760735,-0.00373038,-0.00331513,-0.003
 69751,-0.02657585,0.01832513,0.01815636,0.00704758,-0.00042356,0.00009
 122,-0.00007804,0.00066623,0.00062981,-0.00012667,0.00011082,0.0000084
 2,0.00000327,-0.00003698,0.00001238,-0.00000301,0.00007457,-0.00002039
 ,-0.00001669,-0.00002086,-0.00000451,-0.00048007,-0.00040056,0.0001734
 0,0.00004477,0.00001269,-0.00007187,-0.00000879,-0.00004785,0.00009019
 ,-0.00054968,0.00018858,-0.00012361,0.00003677,0.00008049,0.00008932,-
 0.00004624,-0.00006547,0.00001995,-0.00004547,0.00003203,-0.00001312,0
 .00002499,-0.00006077,-0.00005354,0.00024989,-0.00059287,-0.00068285,0
 .00008316,0.00006024,0.00006620,0.00022178,0.00009970,-0.00012222,0.00
 003065,-0.00006734,0.00010167,-0.22551311,0.09708419,0.09287169,0.0043
 5798,-0.00203907,-0.00326578,0.24199634,-0.00123784,-0.00051421,-0.001
 55164,-0.01304951,0.00523048,0.00528928,0.00005404,0.00030016,0.001519
 19,-0.00075697,0.00019048,-0.00004125,0.00002270,-0.00004214,0.0000230
 6,-0.00000748,-0.00000001,-0.00000560,-0.00001135,0.00000736,0.0000075
 7,-0.00000666,0.00000323,0.00000038,0.00022100,0.00011846,-0.00009170,
 -0.00003996,-0.00002787,0.00000678,0.00000467,0.00002137,-0.00001842,-
 0.00021821,0.00009948,-0.00003437,0.00000106,0.00000713,-0.00000473,-0
 .00002788,-0.00000320,0.00000726,0.00000961,0.00001386,0.00000154,0.00
 001399,0.00000146,0.00000334,0.00012494,-0.00084224,0.00003483,0.00019
 792,0.00028976,-0.00010008,0.00023686,0.00059989,0.00009919,0.00002664
 ,0.00005088,-0.00014681,0.10259075,-0.11690775,-0.05456891,0.02645891,
 -0.01157396,-0.01541561,-0.10691725,0.11885946,-0.00163018,-0.00148770
 ,-0.00084301,-0.01402403,0.00713541,0.00607319,0.00016963,0.00115761,0
 .00044539,-0.00055038,-0.00009670,0.00043554,-0.00002417,0.00001378,0.
 00001179,0.00000216,-0.00001174,-0.00000292,-0.00000204,-0.00004000,-0
 .00001864,0.00001414,-0.00000133,0.00000738,-0.00026908,-0.00014285,0.
 00000961,-0.00003024,-0.00003249,-0.00003187,-0.00002670,-0.00003981,0
 .00005708,0.00010333,0.00000755,0.00002899,0.00000506,0.00002217,0.000
 00596,-0.00000869,-0.00001130,0.00001679,-0.00001705,0.00001262,0.0000
 0545,0.00001443,-0.00000625,0.00000152,0.00036894,-0.00028209,-0.00060
 942,0.00014319,0.00002663,0.00024183,0.00019425,0.00021116,-0.00023775
 ,-0.00012998,-0.00015938,0.00045036,0.09916907,-0.05503380,-0.11339882
 ,-0.00660862,0.00296433,0.00335470,-0.10282855,0.06179887,0.11484736,-
 0.00268559,-0.00131923,0.00174784,0.00922305,0.01119402,-0.02882637,-0
 .00369560,-0.00558751,-0.00088273,0.00173209,0.00044768,0.00036659,-0.
 00022767,0.00016086,-0.00001896,0.00003362,-0.00003305,0.00001808,-0.0
 0004535,-0.00005742,-0.00009815,0.00004729,0.00000002,0.00000499,-0.00
 094402,-0.00065526,0.00044794,-0.00003439,-0.00004952,-0.00006914,-0.0
 0004799,-0.00010748,0.00013762,0.00024789,-0.00010875,0.00013038,-0.00
 001458,-0.00023921,0.00004213,-0.00002061,0.00010667,-0.00002407,0.000
 02256,0.00001964,0.00002702,-0.00004487,0.00002970,0.00000245,-0.00116
 546,0.00117324,-0.00109481,0.00009772,-0.00010573,0.00009978,-0.000437
 65,0.00035784,0.00022372,-0.00050381,0.00007410,0.00074804,-0.06127820
 ,0.00322122,-0.00633466,0.00001846,0.00002825,0.00295107,0.00307681,-0
 .00768997,0.02596551,0.05664630,0.00036296,0.00014569,0.00050527,0.002
 51864,0.00237697,-0.01446527,-0.00329005,-0.00339543,-0.00028761,0.000
 22707,-0.00006489,-0.00009812,-0.00012928,0.00008063,-0.00002288,0.000
 02155,-0.00001089,0.00000927,-0.00006451,-0.00000034,-0.00003506,0.000
 02410,-0.00000461,-0.00000051,-0.00017339,-0.00018001,0.00013240,0.000
 03764,0.00004839,0.00000121,-0.00000326,-0.00003852,0.00002511,0.00018
 664,-0.00011196,-0.00000210,-0.00006528,-0.00013542,0.00005547,-0.0000
 1007,0.00006463,-0.00002632,0.00002442,0.00001079,0.00000089,-0.000021
 88,0.00002594,-0.00001866,0.00012856,0.00053140,0.00034181,-0.00024069
 ,-0.00013092,-0.00005455,0.00007868,-0.00066742,0.00052383,0.00024360,
 0.00023490,-0.00014031,0.00246636,-0.05910304,0.04182039,0.00128521,-0
 .00410950,0.03575648,-0.00274695,0.00411790,-0.01600469,-0.00086010,0.
 06031570,-0.00150748,-0.00137484,0.00033520,0.00649550,0.00302777,-0.0
 1078814,-0.00405490,-0.00245736,-0.00047368,0.00099347,0.00032969,0.00
 006812,-0.00021493,0.00008430,-0.00000247,0.00000586,-0.00002471,0.000
 01979,-0.00006932,0.00001278,-0.00010153,0.00002414,0.00000417,0.00000
 156,-0.00043991,-0.00040256,0.00033917,-0.00002921,-0.00004361,-0.0000
 5370,-0.00001134,-0.00005924,0.00004379,-0.00008207,0.00012224,0.00015
 351,-0.00000388,-0.00009382,0.00003705,0.00003499,0.00010287,-0.000024
 31,0.00006153,-0.00000458,0.00004130,-0.00007296,0.00002740,0.00001316
 ,0.00149759,-0.00060609,0.00001965,0.00027046,0.00000970,0.00038599,0.
 00027749,0.00034776,-0.00021690,0.00018403,-0.00011512,0.00051335,-0.0
 0655306,0.04570995,-0.31843426,0.00018492,0.00023148,-0.00321972,-0.00
 142666,0.00318783,-0.01085050,0.00443571,-0.04801603,0.34219356\\0.000
 00024,-0.00000108,0.00000126,-0.00000049,-0.00000055,0.00000198,-0.000
 00040,0.00000424,-0.00000333,-0.00000188,-0.00000118,0.00000111,0.0000
 0039,-0.00000175,-0.00000152,0.00000150,-0.00000186,-0.00000137,0.0000
 0067,0.00000011,-0.00000179,0.00000161,-0.00000096,-0.00000144,0.00000
 149,0.00000007,0.00000018,-0.00000070,-0.00000112,-0.00000085,0.000000
 89,-0.00000293,-0.00000039,-0.00000059,0.00000003,0.00000176,0.0000006
 3,0.00000178,-0.00000040,0.00000061,0.00000164,-0.00000142,-0.00000082
 ,0.00000176,-0.00000029,-0.00000002,0.00000034,-0.00000006,-0.00000061
 ,0.00000026,0.00000143,0.00000013,0.00000205,-0.00000243,0.00000420,-0
 .00000206,0.00000538,-0.00000625,-0.00000263,0.00000063,-0.00000038,0.
 00000099,0.00000134,0.00000010,0.00000136,0.00000081,-0.00000032,0.000
 00155,-0.00000027,0.,-0.00000004,-0.00000030\\\@
 The archive entry for this job was punched.


 BE CAREFUL NOT TO BECOME TOO GOOD OF A SONGBIRD OR 
 THEY'LL THROW YOU INTO A CAGE.

                                    -- SNOOPY TO WOODSTOCK
 Job cpu time:       0 days  0 hours 44 minutes 22.9 seconds.
 Elapsed time:       0 days  0 hours  7 minutes 15.5 seconds.
 File lengths (MBytes):  RWF=      6 Int=      0 D2E=      0 Chk=      2 Scr=      1
 Normal termination of Gaussian 16 at Thu Jan 18 20:02:03 2024.
