Unloading slurm/anatra/current
  ERROR: No such file or directory on
    '/cm/local/modulefiles/slurm/anatra/current'
environment: line 0: unalias: gv: not found
environment: line 0: unalias: sl: not found
 Entering Gaussian System, Link 0=g16
 Initial command:
 /apps/gaussian/g16/C.01/g16/l1.exe "/local/jobs/1149330/Gau-2148599.inp" -scrdir="/local/jobs/1149330/"
 Entering Link 1 = /apps/gaussian/g16/C.01/g16/l1.exe PID=   2148600.
  
 Copyright (c) 1988-2019, Gaussian, Inc.  All Rights Reserved.
  
 This is part of the Gaussian(R) 16 program.  It is based on
 the Gaussian(R) 09 system (copyright 2009, Gaussian, Inc.),
 the Gaussian(R) 03 system (copyright 2003, Gaussian, Inc.),
 the Gaussian(R) 98 system (copyright 1998, Gaussian, Inc.),
 the Gaussian(R) 94 system (copyright 1995, Gaussian, Inc.),
 the Gaussian 92(TM) system (copyright 1992, Gaussian, Inc.),
 the Gaussian 90(TM) system (copyright 1990, Gaussian, Inc.),
 the Gaussian 88(TM) system (copyright 1988, Gaussian, Inc.),
 the Gaussian 86(TM) system (copyright 1986, Carnegie Mellon
 University), and the Gaussian 82(TM) system (copyright 1983,
 Carnegie Mellon University). Gaussian is a federally registered
 trademark of Gaussian, Inc.
  
 This software contains proprietary and confidential information,
 including trade secrets, belonging to Gaussian, Inc.
  
 This software is provided under written license and may be
 used, copied, transmitted, or stored only in accord with that
 written license.
  
 The following legend is applicable only to US Government
 contracts under FAR:
  
                    RESTRICTED RIGHTS LEGEND
  
 Use, reproduction and disclosure by the US Government is
 subject to restrictions as set forth in subparagraphs (a)
 and (c) of the Commercial Computer Software - Restricted
 Rights clause in FAR 52.227-19.
  
 Gaussian, Inc.
 340 Quinnipiac St., Bldg. 40, Wallingford CT 06492
  
  
 ---------------------------------------------------------------
 Warning -- This program may not be used in any manner that
 competes with the business of Gaussian, Inc. or will provide
 assistance to any competitor of Gaussian, Inc.  The licensee
 of this program is prohibited from giving any competitor of
 Gaussian, Inc. access to this program.  By using this program,
 the user acknowledges that Gaussian, Inc. is engaged in the
 business of creating and licensing software in the field of
 computational chemistry and represents and warrants to the
 licensee that it is not a competitor of Gaussian, Inc. and that
 it will not use this program in any manner prohibited above.
 ---------------------------------------------------------------
  

 Cite this work as:
 Gaussian 16, Revision C.01,
 M. J. Frisch, G. W. Trucks, H. B. Schlegel, G. E. Scuseria, 
 M. A. Robb, J. R. Cheeseman, G. Scalmani, V. Barone, 
 G. A. Petersson, H. Nakatsuji, X. Li, M. Caricato, A. V. Marenich, 
 J. Bloino, B. G. Janesko, R. Gomperts, B. Mennucci, H. P. Hratchian, 
 J. V. Ortiz, A. F. Izmaylov, J. L. Sonnenberg, D. Williams-Young, 
 F. Ding, F. Lipparini, F. Egidi, J. Goings, B. Peng, A. Petrone, 
 T. Henderson, D. Ranasinghe, V. G. Zakrzewski, J. Gao, N. Rega, 
 G. Zheng, W. Liang, M. Hada, M. Ehara, K. Toyota, R. Fukuda, 
 J. Hasegawa, M. Ishida, T. Nakajima, Y. Honda, O. Kitao, H. Nakai, 
 T. Vreven, K. Throssell, J. A. Montgomery, Jr., J. E. Peralta, 
 F. Ogliaro, M. J. Bearpark, J. J. Heyd, E. N. Brothers, K. N. Kudin, 
 V. N. Staroverov, T. A. Keith, R. Kobayashi, J. Normand, 
 K. Raghavachari, A. P. Rendell, J. C. Burant, S. S. Iyengar, 
 J. Tomasi, M. Cossi, J. M. Millam, M. Klene, C. Adamo, R. Cammi, 
 J. W. Ochterski, R. L. Martin, K. Morokuma, O. Farkas, 
 J. B. Foresman, and D. J. Fox, Gaussian, Inc., Wallingford CT, 2019.
 
 ******************************************
 Gaussian 16:  ES64L-G16RevC.01  3-Jul-2019
                 9-Dec-2023 
 ******************************************
 %chk=takemoto_OPLS3e_1_opt.chk
 %nprocshared=12
 Will use up to   12 processors via shared memory.
 %mem=48GB
 ----------------------------------------------------------------------
 # m062x 6-31g(d) scrf=(iefpcm,solvent=benzene) opt=(maxcycles=50,maxst
 ep=10)
 ----------------------------------------------------------------------
 1/6=50,8=10,18=20,19=15,26=3,38=1/1,3;
 2/9=110,12=2,17=6,18=5,40=1/2;
 3/5=1,6=6,7=1,11=2,25=1,30=1,70=2201,71=1,72=12,74=-55/1,2,3;
 4//1;
 5/5=2,38=5,53=12/2;
 6/7=2,8=2,9=2,10=2,28=1/1;
 7//1,2,3,16;
 1/6=50,8=10,18=20,19=15,26=3/3(2);
 2/9=110/2;
 99//99;
 2/9=110/2;
 3/5=1,6=6,7=1,11=2,25=1,30=1,70=2205,71=1,72=12,74=-55/1,2,3;
 4/5=5,16=3,69=1/1;
 5/5=2,38=5,53=12/2;
 7//1,2,3,16;
 1/6=50,8=10,18=20,19=15,26=3/3(-5);
 2/9=110/2;
 6/7=2,8=2,9=2,10=2,19=2,28=1/1;
 99/9=1/99;
 ----------
 Structure1
 ----------
 Symbolic Z-matrix:
 Charge =  0 Multiplicity = 1
 C                    -0.7596   -6.641    -3.6602 
 C                     0.605    -6.5009   -3.9432 
 C                     1.0935   -5.2524   -4.3479 
 C                     0.2387   -4.1487   -4.4619 
 C                    -1.1214   -4.3079   -4.1745 
 C                    -1.632    -5.558    -3.7888 
 H                    -1.1445   -7.6044   -3.3526 
 C                     1.5527   -7.6938   -3.8113 
 H                     2.1472   -5.1415   -4.5708 
 C                     0.7689   -2.7778   -4.8852 
 H                    -1.7634   -3.4383   -4.2316 
 N                    -2.9877   -5.7841   -3.4784 
 F                     2.0999   -2.7164   -4.816 
 F                     0.2677   -1.8209   -4.1032 
 F                     0.404    -2.5398   -6.1444 
 F                     1.6457   -8.3004   -4.9934 
 F                     2.7708   -7.3003   -3.4366 
 F                     1.1038   -8.5746   -2.9155 
 H                    -3.1488   -6.4941   -2.779 
 C                    -4.1104   -5.104    -3.8389 
 S                    -5.4761   -5.375    -2.9305 
 N                    -4.0177   -4.3031   -4.942 
 H                    -3.1166   -4.2248   -5.3886 
 C                    -7.2237   -3.0224   -6.7578 
 C                    -6.1646   -4.0348   -6.2813 
 C                    -5.0406   -3.3728   -5.4423 
 C                    -4.41     -2.1508   -6.1762 
 C                    -5.5045   -1.1493   -6.6242 
 C                    -6.5957   -1.8199   -7.4811 
 H                    -7.7949   -2.6703   -5.8964 
 H                    -7.944    -3.518    -7.411 
 H                    -5.7239   -4.5258   -7.1505 
 H                    -6.6575   -4.8202   -5.7065 
 H                    -5.5162   -2.9502   -4.5559 
 N                    -3.2563   -1.5672   -5.4649 
 H                    -4.0041   -2.5739   -7.0988 
 H                    -5.9619   -0.6864   -5.7496 
 H                    -5.0598   -0.3394   -7.2011 
 H                    -6.1655   -2.1492   -8.4288 
 H                    -7.3692   -1.0938   -7.7365 
 C                    -3.5917   -0.9044   -4.2012 
 C                    -2.4352   -0.693    -6.3052 
 H                    -4.2118   -0.0196   -4.354 
 H                    -4.1222   -1.5765   -3.5252 
 H                    -2.6864   -0.5879   -3.6798 
 H                    -2.9562    0.2253   -6.5803 
 H                    -1.5183   -0.4086   -5.7856 
 H                    -2.1342   -1.2004   -7.2234 
 

 GradGradGradGradGradGradGradGradGradGradGradGradGradGradGradGradGradGrad
 Berny optimization.
 Initialization pass.
                           ----------------------------
                           !    Initial Parameters    !
                           ! (Angstroms and Degrees)  !
 --------------------------                            --------------------------
 ! Name  Definition              Value          Derivative Info.                !
 --------------------------------------------------------------------------------
 ! R1    R(1,2)                  1.4007         estimate D2E/DX2                !
 ! R2    R(1,6)                  1.3966         estimate D2E/DX2                !
 ! R3    R(1,7)                  1.0821         estimate D2E/DX2                !
 ! R4    R(2,3)                  1.4004         estimate D2E/DX2                !
 ! R5    R(2,8)                  1.5292         estimate D2E/DX2                !
 ! R6    R(3,4)                  1.4007         estimate D2E/DX2                !
 ! R7    R(3,9)                  1.0827         estimate D2E/DX2                !
 ! R8    R(4,5)                  1.3992         estimate D2E/DX2                !
 ! R9    R(4,10)                 1.5296         estimate D2E/DX2                !
 ! R10   R(5,6)                  1.4044         estimate D2E/DX2                !
 ! R11   R(5,11)                 1.0824         estimate D2E/DX2                !
 ! R12   R(6,12)                 1.409          estimate D2E/DX2                !
 ! R13   R(8,16)                 1.3319         estimate D2E/DX2                !
 ! R14   R(8,17)                 1.3338         estimate D2E/DX2                !
 ! R15   R(8,18)                 1.3341         estimate D2E/DX2                !
 ! R16   R(10,13)                1.3342         estimate D2E/DX2                !
 ! R17   R(10,14)                1.3336         estimate D2E/DX2                !
 ! R18   R(10,15)                1.3324         estimate D2E/DX2                !
 ! R19   R(12,19)                1.0096         estimate D2E/DX2                !
 ! R20   R(12,20)                1.3612         estimate D2E/DX2                !
 ! R21   R(20,21)                1.6625         estimate D2E/DX2                !
 ! R22   R(20,22)                1.3663         estimate D2E/DX2                !
 ! R23   R(22,23)                1.0087         estimate D2E/DX2                !
 ! R24   R(22,26)                1.4704         estimate D2E/DX2                !
 ! R25   R(24,25)                1.5407         estimate D2E/DX2                !
 ! R26   R(24,29)                1.5374         estimate D2E/DX2                !
 ! R27   R(24,30)                1.0919         estimate D2E/DX2                !
 ! R28   R(24,31)                1.0914         estimate D2E/DX2                !
 ! R29   R(25,26)                1.551          estimate D2E/DX2                !
 ! R30   R(25,32)                1.0912         estimate D2E/DX2                !
 ! R31   R(25,33)                1.091          estimate D2E/DX2                !
 ! R32   R(26,27)                1.5587         estimate D2E/DX2                !
 ! R33   R(26,34)                1.0911         estimate D2E/DX2                !
 ! R34   R(27,28)                1.5497         estimate D2E/DX2                !
 ! R35   R(27,35)                1.4757         estimate D2E/DX2                !
 ! R36   R(27,36)                1.0931         estimate D2E/DX2                !
 ! R37   R(28,29)                1.541          estimate D2E/DX2                !
 ! R38   R(28,37)                1.0901         estimate D2E/DX2                !
 ! R39   R(28,38)                1.0893         estimate D2E/DX2                !
 ! R40   R(29,39)                1.0916         estimate D2E/DX2                !
 ! R41   R(29,40)                1.0912         estimate D2E/DX2                !
 ! R42   R(35,41)                1.4659         estimate D2E/DX2                !
 ! R43   R(35,42)                1.4644         estimate D2E/DX2                !
 ! R44   R(41,43)                1.0912         estimate D2E/DX2                !
 ! R45   R(41,44)                1.0909         estimate D2E/DX2                !
 ! R46   R(41,45)                1.0916         estimate D2E/DX2                !
 ! R47   R(42,46)                1.0911         estimate D2E/DX2                !
 ! R48   R(42,47)                1.0916         estimate D2E/DX2                !
 ! R49   R(42,48)                1.0914         estimate D2E/DX2                !
 ! A1    A(2,1,6)              120.8243         estimate D2E/DX2                !
 ! A2    A(2,1,7)              119.5402         estimate D2E/DX2                !
 ! A3    A(6,1,7)              119.629          estimate D2E/DX2                !
 ! A4    A(1,2,3)              119.1703         estimate D2E/DX2                !
 ! A5    A(1,2,8)              120.5517         estimate D2E/DX2                !
 ! A6    A(3,2,8)              120.278          estimate D2E/DX2                !
 ! A7    A(2,3,4)              120.8736         estimate D2E/DX2                !
 ! A8    A(2,3,9)              119.3595         estimate D2E/DX2                !
 ! A9    A(4,3,9)              119.7664         estimate D2E/DX2                !
 ! A10   A(3,4,5)              119.1338         estimate D2E/DX2                !
 ! A11   A(3,4,10)             121.1458         estimate D2E/DX2                !
 ! A12   A(5,4,10)             119.7194         estimate D2E/DX2                !
 ! A13   A(4,5,6)              120.7377         estimate D2E/DX2                !
 ! A14   A(4,5,11)             118.3132         estimate D2E/DX2                !
 ! A15   A(6,5,11)             120.9294         estimate D2E/DX2                !
 ! A16   A(1,6,5)              119.2386         estimate D2E/DX2                !
 ! A17   A(1,6,12)             117.1482         estimate D2E/DX2                !
 ! A18   A(5,6,12)             123.584          estimate D2E/DX2                !
 ! A19   A(2,8,16)             108.7834         estimate D2E/DX2                !
 ! A20   A(2,8,17)             111.104          estimate D2E/DX2                !
 ! A21   A(2,8,18)             111.3713         estimate D2E/DX2                !
 ! A22   A(16,8,17)            108.6585         estimate D2E/DX2                !
 ! A23   A(16,8,18)            108.5874         estimate D2E/DX2                !
 ! A24   A(17,8,18)            108.267          estimate D2E/DX2                !
 ! A25   A(4,10,13)            111.8813         estimate D2E/DX2                !
 ! A26   A(4,10,14)            110.521          estimate D2E/DX2                !
 ! A27   A(4,10,15)            109.068          estimate D2E/DX2                !
 ! A28   A(13,10,14)           108.1494         estimate D2E/DX2                !
 ! A29   A(13,10,15)           108.3002         estimate D2E/DX2                !
 ! A30   A(14,10,15)           108.8489         estimate D2E/DX2                !
 ! A31   A(6,12,19)            114.7713         estimate D2E/DX2                !
 ! A32   A(6,12,20)            130.9222         estimate D2E/DX2                !
 ! A33   A(19,12,20)           113.7803         estimate D2E/DX2                !
 ! A34   A(12,20,21)           116.8327         estimate D2E/DX2                !
 ! A35   A(12,20,22)           116.7897         estimate D2E/DX2                !
 ! A36   A(21,20,22)           126.33           estimate D2E/DX2                !
 ! A37   A(20,22,23)           117.6158         estimate D2E/DX2                !
 ! A38   A(20,22,26)           126.7524         estimate D2E/DX2                !
 ! A39   A(23,22,26)           114.9406         estimate D2E/DX2                !
 ! A40   A(25,24,29)           112.2519         estimate D2E/DX2                !
 ! A41   A(25,24,30)           109.1179         estimate D2E/DX2                !
 ! A42   A(25,24,31)           109.9012         estimate D2E/DX2                !
 ! A43   A(29,24,30)           109.428          estimate D2E/DX2                !
 ! A44   A(29,24,31)           110.0719         estimate D2E/DX2                !
 ! A45   A(30,24,31)           105.8629         estimate D2E/DX2                !
 ! A46   A(24,25,26)           112.6443         estimate D2E/DX2                !
 ! A47   A(24,25,32)           109.0828         estimate D2E/DX2                !
 ! A48   A(24,25,33)           108.992          estimate D2E/DX2                !
 ! A49   A(26,25,32)           109.2842         estimate D2E/DX2                !
 ! A50   A(26,25,33)           110.4684         estimate D2E/DX2                !
 ! A51   A(32,25,33)           106.1532         estimate D2E/DX2                !
 ! A52   A(22,26,25)           114.7182         estimate D2E/DX2                !
 ! A53   A(22,26,27)           112.0105         estimate D2E/DX2                !
 ! A54   A(22,26,34)           105.7754         estimate D2E/DX2                !
 ! A55   A(25,26,27)           111.908          estimate D2E/DX2                !
 ! A56   A(25,26,34)           106.7914         estimate D2E/DX2                !
 ! A57   A(27,26,34)           104.7857         estimate D2E/DX2                !
 ! A58   A(26,27,28)           110.918          estimate D2E/DX2                !
 ! A59   A(26,27,35)           113.5406         estimate D2E/DX2                !
 ! A60   A(26,27,36)           104.1325         estimate D2E/DX2                !
 ! A61   A(28,27,35)           115.8446         estimate D2E/DX2                !
 ! A62   A(28,27,36)           105.5684         estimate D2E/DX2                !
 ! A63   A(35,27,36)           105.64           estimate D2E/DX2                !
 ! A64   A(27,28,29)           112.3107         estimate D2E/DX2                !
 ! A65   A(27,28,37)           109.8046         estimate D2E/DX2                !
 ! A66   A(27,28,38)           110.1984         estimate D2E/DX2                !
 ! A67   A(29,28,37)           109.4993         estimate D2E/DX2                !
 ! A68   A(29,28,38)           108.5508         estimate D2E/DX2                !
 ! A69   A(37,28,38)           106.2889         estimate D2E/DX2                !
 ! A70   A(24,29,28)           111.5933         estimate D2E/DX2                !
 ! A71   A(24,29,39)           109.4798         estimate D2E/DX2                !
 ! A72   A(24,29,40)           109.9393         estimate D2E/DX2                !
 ! A73   A(28,29,39)           109.5704         estimate D2E/DX2                !
 ! A74   A(28,29,40)           110.0305         estimate D2E/DX2                !
 ! A75   A(39,29,40)           106.0742         estimate D2E/DX2                !
 ! A76   A(27,35,41)           114.5497         estimate D2E/DX2                !
 ! A77   A(27,35,42)           113.4448         estimate D2E/DX2                !
 ! A78   A(41,35,42)           110.6738         estimate D2E/DX2                !
 ! A79   A(35,41,43)           112.0822         estimate D2E/DX2                !
 ! A80   A(35,41,44)           111.5244         estimate D2E/DX2                !
 ! A81   A(35,41,45)           110.678          estimate D2E/DX2                !
 ! A82   A(43,41,44)           108.0577         estimate D2E/DX2                !
 ! A83   A(43,41,45)           107.642          estimate D2E/DX2                !
 ! A84   A(44,41,45)           106.615          estimate D2E/DX2                !
 ! A85   A(35,42,46)           112.295          estimate D2E/DX2                !
 ! A86   A(35,42,47)           110.6931         estimate D2E/DX2                !
 ! A87   A(35,42,48)           111.0913         estimate D2E/DX2                !
 ! A88   A(46,42,47)           107.5679         estimate D2E/DX2                !
 ! A89   A(46,42,48)           108.1114         estimate D2E/DX2                !
 ! A90   A(47,42,48)           106.8539         estimate D2E/DX2                !
 ! D1    D(6,1,2,3)              0.5774         estimate D2E/DX2                !
 ! D2    D(6,1,2,8)           -179.4971         estimate D2E/DX2                !
 ! D3    D(7,1,2,3)            179.6439         estimate D2E/DX2                !
 ! D4    D(7,1,2,8)             -0.4306         estimate D2E/DX2                !
 ! D5    D(2,1,6,5)             -1.6188         estimate D2E/DX2                !
 ! D6    D(2,1,6,12)          -179.7256         estimate D2E/DX2                !
 ! D7    D(7,1,6,5)            179.3155         estimate D2E/DX2                !
 ! D8    D(7,1,6,12)             1.2087         estimate D2E/DX2                !
 ! D9    D(1,2,3,4)              0.4721         estimate D2E/DX2                !
 ! D10   D(1,2,3,9)           -179.7862         estimate D2E/DX2                !
 ! D11   D(8,2,3,4)           -179.4536         estimate D2E/DX2                !
 ! D12   D(8,2,3,9)              0.2881         estimate D2E/DX2                !
 ! D13   D(1,2,8,16)            92.6799         estimate D2E/DX2                !
 ! D14   D(1,2,8,17)          -147.7504         estimate D2E/DX2                !
 ! D15   D(1,2,8,18)           -26.9655         estimate D2E/DX2                !
 ! D16   D(3,2,8,16)           -87.3954         estimate D2E/DX2                !
 ! D17   D(3,2,8,17)            32.1742         estimate D2E/DX2                !
 ! D18   D(3,2,8,18)           152.9591         estimate D2E/DX2                !
 ! D19   D(2,3,4,5)             -0.451          estimate D2E/DX2                !
 ! D20   D(2,3,4,10)           179.1688         estimate D2E/DX2                !
 ! D21   D(9,3,4,5)            179.8083         estimate D2E/DX2                !
 ! D22   D(9,3,4,10)            -0.5719         estimate D2E/DX2                !
 ! D23   D(3,4,5,6)             -0.6145         estimate D2E/DX2                !
 ! D24   D(3,4,5,11)           177.7871         estimate D2E/DX2                !
 ! D25   D(10,4,5,6)           179.7602         estimate D2E/DX2                !
 ! D26   D(10,4,5,11)           -1.8382         estimate D2E/DX2                !
 ! D27   D(3,4,10,13)          -14.3158         estimate D2E/DX2                !
 ! D28   D(3,4,10,14)         -134.8965         estimate D2E/DX2                !
 ! D29   D(3,4,10,15)          105.4752         estimate D2E/DX2                !
 ! D30   D(5,4,10,13)          165.3018         estimate D2E/DX2                !
 ! D31   D(5,4,10,14)           44.7212         estimate D2E/DX2                !
 ! D32   D(5,4,10,15)          -74.9071         estimate D2E/DX2                !
 ! D33   D(4,5,6,1)              1.6387         estimate D2E/DX2                !
 ! D34   D(4,5,6,12)           179.6165         estimate D2E/DX2                !
 ! D35   D(11,5,6,1)          -176.7208         estimate D2E/DX2                !
 ! D36   D(11,5,6,12)            1.257          estimate D2E/DX2                !
 ! D37   D(1,6,12,19)           29.8656         estimate D2E/DX2                !
 ! D38   D(1,6,12,20)         -159.1025         estimate D2E/DX2                !
 ! D39   D(5,6,12,19)         -148.1514         estimate D2E/DX2                !
 ! D40   D(5,6,12,20)           22.8805         estimate D2E/DX2                !
 ! D41   D(6,12,20,21)        -162.0025         estimate D2E/DX2                !
 ! D42   D(6,12,20,22)          20.3446         estimate D2E/DX2                !
 ! D43   D(19,12,20,21)          9.0997         estimate D2E/DX2                !
 ! D44   D(19,12,20,22)       -168.5533         estimate D2E/DX2                !
 ! D45   D(12,20,22,23)         -3.3112         estimate D2E/DX2                !
 ! D46   D(12,20,22,26)       -173.2542         estimate D2E/DX2                !
 ! D47   D(21,20,22,23)        179.2886         estimate D2E/DX2                !
 ! D48   D(21,20,22,26)          9.3456         estimate D2E/DX2                !
 ! D49   D(20,22,26,25)        -81.0812         estimate D2E/DX2                !
 ! D50   D(20,22,26,27)        149.9329         estimate D2E/DX2                !
 ! D51   D(20,22,26,34)         36.3396         estimate D2E/DX2                !
 ! D52   D(23,22,26,25)        108.7442         estimate D2E/DX2                !
 ! D53   D(23,22,26,27)        -20.2417         estimate D2E/DX2                !
 ! D54   D(23,22,26,34)       -133.835          estimate D2E/DX2                !
 ! D55   D(29,24,25,26)         52.3999         estimate D2E/DX2                !
 ! D56   D(29,24,25,32)        -69.1313         estimate D2E/DX2                !
 ! D57   D(29,24,25,33)        175.376          estimate D2E/DX2                !
 ! D58   D(30,24,25,26)        -69.0792         estimate D2E/DX2                !
 ! D59   D(30,24,25,32)        169.3895         estimate D2E/DX2                !
 ! D60   D(30,24,25,33)         53.8968         estimate D2E/DX2                !
 ! D61   D(31,24,25,26)        175.253          estimate D2E/DX2                !
 ! D62   D(31,24,25,32)         53.7217         estimate D2E/DX2                !
 ! D63   D(31,24,25,33)        -61.771          estimate D2E/DX2                !
 ! D64   D(25,24,29,28)        -53.478          estimate D2E/DX2                !
 ! D65   D(25,24,29,39)         67.9966         estimate D2E/DX2                !
 ! D66   D(25,24,29,40)       -175.8522         estimate D2E/DX2                !
 ! D67   D(30,24,29,28)         67.8234         estimate D2E/DX2                !
 ! D68   D(30,24,29,39)       -170.7019         estimate D2E/DX2                !
 ! D69   D(30,24,29,40)        -54.5507         estimate D2E/DX2                !
 ! D70   D(31,24,29,28)       -176.2348         estimate D2E/DX2                !
 ! D71   D(31,24,29,39)        -54.7601         estimate D2E/DX2                !
 ! D72   D(31,24,29,40)         61.3911         estimate D2E/DX2                !
 ! D73   D(24,25,26,22)        178.8921         estimate D2E/DX2                !
 ! D74   D(24,25,26,27)        -52.0711         estimate D2E/DX2                !
 ! D75   D(24,25,26,34)         62.0504         estimate D2E/DX2                !
 ! D76   D(32,25,26,22)        -59.6911         estimate D2E/DX2                !
 ! D77   D(32,25,26,27)         69.3457         estimate D2E/DX2                !
 ! D78   D(32,25,26,34)       -176.5328         estimate D2E/DX2                !
 ! D79   D(33,25,26,22)         56.7453         estimate D2E/DX2                !
 ! D80   D(33,25,26,27)       -174.2179         estimate D2E/DX2                !
 ! D81   D(33,25,26,34)        -60.0964         estimate D2E/DX2                !
 ! D82   D(22,26,27,28)       -176.8904         estimate D2E/DX2                !
 ! D83   D(22,26,27,35)        -44.3918         estimate D2E/DX2                !
 ! D84   D(22,26,27,36)         69.9975         estimate D2E/DX2                !
 ! D85   D(25,26,27,28)         52.6656         estimate D2E/DX2                !
 ! D86   D(25,26,27,35)       -174.8358         estimate D2E/DX2                !
 ! D87   D(25,26,27,36)        -60.4465         estimate D2E/DX2                !
 ! D88   D(34,26,27,28)        -62.6869         estimate D2E/DX2                !
 ! D89   D(34,26,27,35)         69.8117         estimate D2E/DX2                !
 ! D90   D(34,26,27,36)       -175.799          estimate D2E/DX2                !
 ! D91   D(26,27,28,29)        -54.5372         estimate D2E/DX2                !
 ! D92   D(26,27,28,37)         67.5534         estimate D2E/DX2                !
 ! D93   D(26,27,28,38)       -175.6945         estimate D2E/DX2                !
 ! D94   D(35,27,28,29)        174.1447         estimate D2E/DX2                !
 ! D95   D(35,27,28,37)        -63.7647         estimate D2E/DX2                !
 ! D96   D(35,27,28,38)         52.9874         estimate D2E/DX2                !
 ! D97   D(36,27,28,29)         57.6628         estimate D2E/DX2                !
 ! D98   D(36,27,28,37)        179.7534         estimate D2E/DX2                !
 ! D99   D(36,27,28,38)        -63.4945         estimate D2E/DX2                !
 ! D100  D(26,27,35,41)        -68.1817         estimate D2E/DX2                !
 ! D101  D(26,27,35,42)        163.4183         estimate D2E/DX2                !
 ! D102  D(28,27,35,41)         61.89           estimate D2E/DX2                !
 ! D103  D(28,27,35,42)        -66.5101         estimate D2E/DX2                !
 ! D104  D(36,27,35,41)        178.3317         estimate D2E/DX2                !
 ! D105  D(36,27,35,42)         49.9316         estimate D2E/DX2                !
 ! D106  D(27,28,29,24)         55.057          estimate D2E/DX2                !
 ! D107  D(27,28,29,39)        -66.3651         estimate D2E/DX2                !
 ! D108  D(27,28,29,40)        177.3788         estimate D2E/DX2                !
 ! D109  D(37,28,29,24)        -67.2068         estimate D2E/DX2                !
 ! D110  D(37,28,29,39)        171.371          estimate D2E/DX2                !
 ! D111  D(37,28,29,40)         55.1149         estimate D2E/DX2                !
 ! D112  D(38,28,29,24)        177.1551         estimate D2E/DX2                !
 ! D113  D(38,28,29,39)         55.733          estimate D2E/DX2                !
 ! D114  D(38,28,29,40)        -60.5231         estimate D2E/DX2                !
 ! D115  D(27,35,41,43)        -65.6669         estimate D2E/DX2                !
 ! D116  D(27,35,41,44)         55.6384         estimate D2E/DX2                !
 ! D117  D(27,35,41,45)        174.1541         estimate D2E/DX2                !
 ! D118  D(42,35,41,43)         64.1155         estimate D2E/DX2                !
 ! D119  D(42,35,41,44)       -174.5792         estimate D2E/DX2                !
 ! D120  D(42,35,41,45)        -56.0635         estimate D2E/DX2                !
 ! D121  D(27,35,42,46)         68.3664         estimate D2E/DX2                !
 ! D122  D(27,35,42,47)       -171.395          estimate D2E/DX2                !
 ! D123  D(27,35,42,48)        -52.8487         estimate D2E/DX2                !
 ! D124  D(41,35,42,46)        -62.0006         estimate D2E/DX2                !
 ! D125  D(41,35,42,47)         58.2379         estimate D2E/DX2                !
 ! D126  D(41,35,42,48)        176.7843         estimate D2E/DX2                !
 --------------------------------------------------------------------------------
 Trust Radius=1.00D-01 FncErr=1.00D-07 GrdErr=1.00D-06 EigMax=2.50D+02 EigMin=1.00D-04
 Number of steps in this run=     50 maximum allowed number of steps=    288.
 GradGradGradGradGradGradGradGradGradGradGradGradGradGradGradGradGradGrad

                          Input orientation:                          
 ---------------------------------------------------------------------
 Center     Atomic      Atomic             Coordinates (Angstroms)
 Number     Number       Type             X           Y           Z
 ---------------------------------------------------------------------
      1          6           0       -0.759600   -6.641000   -3.660200
      2          6           0        0.605000   -6.500900   -3.943200
      3          6           0        1.093500   -5.252400   -4.347900
      4          6           0        0.238700   -4.148700   -4.461900
      5          6           0       -1.121400   -4.307900   -4.174500
      6          6           0       -1.632000   -5.558000   -3.788800
      7          1           0       -1.144500   -7.604400   -3.352600
      8          6           0        1.552700   -7.693800   -3.811300
      9          1           0        2.147200   -5.141500   -4.570800
     10          6           0        0.768900   -2.777800   -4.885200
     11          1           0       -1.763400   -3.438300   -4.231600
     12          7           0       -2.987700   -5.784100   -3.478400
     13          9           0        2.099900   -2.716400   -4.816000
     14          9           0        0.267700   -1.820900   -4.103200
     15          9           0        0.404000   -2.539800   -6.144400
     16          9           0        1.645700   -8.300400   -4.993400
     17          9           0        2.770800   -7.300300   -3.436600
     18          9           0        1.103800   -8.574600   -2.915500
     19          1           0       -3.148800   -6.494100   -2.779000
     20          6           0       -4.110400   -5.104000   -3.838900
     21         16           0       -5.476100   -5.375000   -2.930500
     22          7           0       -4.017700   -4.303100   -4.942000
     23          1           0       -3.116600   -4.224800   -5.388600
     24          6           0       -7.223700   -3.022400   -6.757800
     25          6           0       -6.164600   -4.034800   -6.281300
     26          6           0       -5.040600   -3.372800   -5.442300
     27          6           0       -4.410000   -2.150800   -6.176200
     28          6           0       -5.504500   -1.149300   -6.624200
     29          6           0       -6.595700   -1.819900   -7.481100
     30          1           0       -7.794900   -2.670300   -5.896400
     31          1           0       -7.944000   -3.518000   -7.411000
     32          1           0       -5.723900   -4.525800   -7.150500
     33          1           0       -6.657500   -4.820200   -5.706500
     34          1           0       -5.516200   -2.950200   -4.555900
     35          7           0       -3.256300   -1.567200   -5.464900
     36          1           0       -4.004100   -2.573900   -7.098800
     37          1           0       -5.961900   -0.686400   -5.749600
     38          1           0       -5.059800   -0.339400   -7.201100
     39          1           0       -6.165500   -2.149200   -8.428800
     40          1           0       -7.369200   -1.093800   -7.736500
     41          6           0       -3.591700   -0.904400   -4.201200
     42          6           0       -2.435200   -0.693000   -6.305200
     43          1           0       -4.211800   -0.019600   -4.354000
     44          1           0       -4.122200   -1.576500   -3.525200
     45          1           0       -2.686400   -0.587900   -3.679800
     46          1           0       -2.956200    0.225300   -6.580300
     47          1           0       -1.518300   -0.408600   -5.785600
     48          1           0       -2.134200   -1.200400   -7.223400
 ---------------------------------------------------------------------
                    Distance matrix (angstroms):
                    1          2          3          4          5
     1  C    0.000000
     2  C    1.400661   0.000000
     3  C    2.415599   1.400417   0.000000
     4  C    2.801943   2.436405   1.400654   0.000000
     5  C    2.416352   2.800572   2.414111   1.399220   0.000000
     6  C    1.396606   2.432503   2.798988   2.436947   1.404360
     7  H    1.082084   2.151109   3.395758   3.884025   3.397494
     8  C    2.545182   1.529230   2.541503   3.836354   4.329786
     9  H    3.395170   2.149472   1.082713   2.154039   3.396423
    10  C    4.331426   3.843917   2.552979   1.529595   2.533680
    11  H    3.404614   3.882269   3.386202   2.136846   1.082418
    12  N    2.394109   3.692876   4.206534   3.748528   2.479274
    13  F    4.991503   4.161604   2.768258   2.375065   3.649818
    14  F    4.948228   4.694866   3.537940   2.355453   2.849535
    15  F    4.934071   4.536077   3.325811   2.333814   3.055082
    16  F    3.211931   2.328986   3.164159   4.415739   4.926205
    17  F    3.598388   2.363551   2.799589   4.170774   4.964693
    18  F    2.786691   2.367530   3.617857   4.767425   4.974065
    19  H    2.550759   3.930194   4.690456   4.450642   3.291997
    20  C    3.690821   4.919065   5.230839   4.496154   3.111354
    21  S    4.937671   6.266817   6.721882   6.042180   4.652918
    22  N    4.209989   5.215101   5.232446   4.286173   2.996270
    23  H    3.792208   4.595663   4.456900   3.481753   2.337042
    24  C    8.029569   9.017232   8.941831   7.888417   6.750112
    25  C    6.548013   7.574684   7.609244   6.657735   5.472390
    26  C    5.673092   6.626093   6.508286   5.425331   4.223962
    27  C    6.310117   7.004276   6.576558   5.342363   4.413023
    28  C    7.839524   8.552975   8.096331   6.830541   5.932061
    29  C    8.479525   9.288626   8.984587   7.826104   6.862340
    30  H    8.382273   9.436462   9.384495   8.293503   7.083945
    31  H    8.685461   9.695810   9.698821   8.720754   7.592545
    32  H    6.426550   7.364969   7.406717   6.551593   5.485168
    33  H    6.502913   7.660149   7.881027   7.039710   5.766964
    34  H    6.086832   7.102954   7.002251   5.879125   4.615526
    35  N    5.935815   6.447217   5.809402   4.459280   3.705991
    36  H    6.236349   6.828100   6.381797   5.237804   4.457381
    37  H    8.178434   8.955203   8.520081   7.217557   6.247131
    38  H    8.410699   8.981534   8.375047   7.077294   6.357696
    39  H    8.493502   9.213988   8.886882   7.794105   6.942766
    40  H    9.543294  10.354406  10.019673   8.828112   7.877391
    41  C    6.420440   6.999976   6.393569   5.026471   4.205580
    42  C    6.721783   6.968039   6.088586   4.742295   4.396982
    43  H    7.499465   8.085640   7.451741   6.071907   5.288885
    44  H    6.080663   6.838922   6.433708   5.148890   4.109372
    45  H    6.352398   6.772464   6.040825   4.674097   4.066000
    46  H    7.778053   8.054701   7.168604   5.816088   5.450162
    47  H    6.628406   6.709617   5.687783   4.339076   4.237654
    48  H    6.647259   6.808688   5.924968   4.684977   4.469688
                    6          7          8          9         10
     6  C    0.000000
     7  H    2.148413   0.000000
     8  C    3.834640   2.737387   0.000000
     9  H    3.881668   4.287794   2.728462   0.000000
    10  C    3.833527   5.413504   5.092608   2.754203   0.000000
    11  H    2.169439   4.302565   5.411326   4.278871   2.697406
    12  N    1.409039   2.593589   4.936903   5.288995   5.012880
    13  F    4.801761   6.046504   5.107187   2.437923   1.334211
    14  F    4.204001   6.000548   6.018919   3.844158   1.333560
    15  F    4.336321   5.986833   5.772918   3.504826   1.332434
    16  F    4.440173   3.310869   1.331906   3.226258   5.592816
    17  F    4.748084   3.927990   1.333795   2.517082   5.153547
    18  F    4.164989   2.487408   1.334083   3.951566   6.131457
    19  H    2.048575   2.361991   4.960748   5.752190   5.796148
    20  C    2.520137   3.909610   6.227241   6.300368   5.505771
    21  S    3.943003   4.889903   7.453635   7.801270   7.040336
    22  N    2.931929   4.656184   6.618511   6.232712   5.024073
    23  H    2.557503   4.410915   6.026956   5.405250   4.176641
    24  C    6.819922   8.339471  10.369621   9.853290   8.212680
    25  C    5.392324   6.820611   8.890776   8.557839   7.183493
    26  C    4.373524   6.119876   8.050019   7.453340   5.866402
    27  C    5.002597   6.955427   8.477700   7.383662   5.374087
    28  C    6.517084   8.448744  10.027311   8.871450   6.710565
    29  C    7.228056   8.956592  10.694230   9.794957   7.867249
    30  H    7.124754   8.662799  10.814843  10.330024   8.623964
    31  H    7.557994   8.910807  10.981004  10.608242   9.101768
    32  H    5.395379   6.698711   8.610191   8.305911   7.095318
    33  H    5.429325   6.609522   8.902626   8.883456   7.745796
    34  H    4.740894   6.497790   8.545497   7.970553   6.296082
    35  N    4.623218   6.735673   7.962167   6.540095   4.243093
    36  H    5.048545   6.893276   8.240089   7.128944   5.265276
    37  H    6.806266   8.764227  10.456093   9.327110   7.101043
    38  H    7.115293   9.106083  10.454812   9.050939   6.729259
    39  H    7.328174   8.985402  10.565723   9.640488   7.812691
    40  H    8.272175  10.017654  11.771470  10.815147   8.786037
    41  C    5.066211   7.183238   8.527182   7.143150   4.795030
    42  C    5.535849   7.625694   8.434102   6.617831   4.077873
    43  H    6.135853   8.242592   9.613393   8.168093   5.718148
    44  H    4.703501   6.725479   8.349114   7.287515   5.216855
    45  H    5.081883   7.191369   8.275329   6.700212   4.264710
    46  H    6.556869   8.660514   9.524163   7.673677   5.076253
    47  H    5.524170   7.605179   8.148806   6.108353   3.413959
    48  H    5.571118   7.548100   8.209744   6.395228   4.047636
                   11         12         13         14         15
    11  H    0.000000
    12  N    2.751181   0.000000
    13  F    3.973380   6.089633   0.000000
    14  F    2.599584   5.166716   2.160315   0.000000
    15  F    3.027165   5.397839   2.161460   2.168385   0.000000
    16  F    5.986845   5.485926   5.605250   6.683955   6.004260
    17  F    6.008830   5.954908   4.833735   6.060832   5.966262
    18  F    6.027813   4.984388   6.238800   6.908123   6.879995
    19  H    3.656131   1.009561   6.780062   5.938415   6.291645
    20  C    2.904682   1.361232   6.724819   5.478719   5.680692
    21  S    4.384953   2.580638   8.247366   6.855515   7.276200
    22  N    2.516827   2.323012   6.321275   5.022903   4.909829
    23  H    1.946377   2.469189   5.460313   4.345627   3.975561
    24  C    6.030716   6.027035   9.528575   8.038133   7.667527
    25  C    4.891589   4.583557   8.496308   7.142825   6.737972
    26  C    3.494299   3.726348   7.197906   5.690310   5.552522
    27  C    3.527551   4.743620   6.674492   5.127089   4.829796
    28  C    4.995987   6.140986   7.971969   6.334412   6.088848
    29  C    6.043972   6.689854   9.138924   7.649606   7.162459
    30  H    6.303997   6.217045   9.953716   8.303166   8.203688
    31  H    6.950881   6.720525  10.404639   9.014084   8.500015
    32  H    5.038670   4.749150   8.362755   7.245812   6.519785
    33  H    5.295016   4.400110   9.050471   7.715230   7.433489
    34  H    3.798279   3.947823   7.624126   5.910478   6.143332
    35  N    2.692730   4.669108   5.516395   3.786445   3.847787
    36  H    3.740155   4.944264   6.518458   5.271518   4.510364
    37  H    5.244490   6.323825   8.365711   6.542602   6.641961
    38  H    5.411780   6.913527   7.912025   6.338303   5.984270
    39  H    6.217455   6.915011   9.038301   7.759166   6.966303
    40  H    7.014699   7.702459  10.041215   8.488332   8.065255
    41  C    3.124781   4.969781   6.004634   3.967940   4.734573
    42  C    3.505396   5.849389   5.184496   3.664237   3.390809
    43  H    4.206799   5.957731   6.879225   4.834615   5.555407
    44  H    3.086946   4.358116   6.456010   4.434528   5.317391
    45  H    3.046505   5.208823   5.360049   3.228972   4.408485
    46  H    4.512331   6.762815   6.109869   4.551537   4.373412
    47  H    3.413806   6.031443   4.399709   2.831052   2.892402
    48  H    3.754538   5.980284   5.101121   3.986200   3.066055
                   16         17         18         19         20
    16  F    0.000000
    17  F    2.165566   0.000000
    18  F    2.164835   2.162007   0.000000
    19  H    5.581534   6.010329   4.736214   0.000000
    20  C    6.684499   7.234396   6.331320   1.995104   0.000000
    21  S    7.970794   8.483765   7.316608   2.586825   1.662458
    22  N    6.932182   7.571867   6.970092   3.199068   1.366332
    23  H    6.280621   6.923184   6.545896   3.458435   2.040147
    24  C   10.470752  11.367534  10.720889   6.669960   4.748228
    25  C    8.991931   9.929611   9.206956   5.235390   3.365746
    26  C    8.318014   8.970288   8.437837   4.518251   2.536379
    27  C    8.711378   9.251305   9.071900   5.656487   3.778111
    28  C   10.243198  10.792413  10.609390   6.992980   5.033991
    29  C   10.775259  11.581195  11.213963   7.472550   5.497968
    30  H   11.028978  11.794979  11.087533   6.776863   4.871524
    31  H   10.985376  12.037798  11.297850   7.301133   5.474649
    32  H    8.556383   9.677336   8.996971   5.441999   3.728859
    33  H    9.031248  10.009804   9.062173   4.866536   3.171150
    34  H    8.950355   9.426058   8.840203   4.617487   2.670059
    35  N    8.341936   8.562031   8.637915   5.612482   3.985262
    36  H    8.315392   9.036030   8.921830   5.895776   4.127912
    37  H   10.789829  11.196146  10.962661   7.104039   5.156939
    38  H   10.640263  11.133009  11.143377   7.815831   5.908228
    39  H   10.519224  11.459204  11.159075   7.739436   5.832792
    40  H   11.862888  12.642365  12.288049   8.458831   6.472462
    41  C    9.097184   9.053925   9.084752   5.784770   4.246993
    42  C    8.731958   8.887503   9.280852   6.826132   5.324082
    43  H   10.163208  10.129507  10.174129   6.747573   5.111432
    44  H    8.979706   8.960088   8.755353   5.068245   3.541441
    45  H    8.942891   8.654276   8.873395   5.992366   4.737958
    46  H    9.817499   9.965743  10.361110   7.722520   6.103187
    47  H    8.539261   8.450427   9.044138   6.980794   5.705734
    48  H    8.346888   8.695266   9.133536   6.986084   5.531573
                   21         22         23         24         25
    21  S    0.000000
    22  N    2.705925   0.000000
    23  H    3.596172   1.008744   0.000000
    24  C    4.820483   3.900738   4.493189   0.000000
    25  C    3.673966   2.544580   3.181716   1.540681   0.000000
    26  C    3.241544   1.470402   2.104890   2.572790   1.550981
    27  C    4.697510   2.511881   2.568010   3.002474   2.576650
    28  C    5.612554   3.871282   4.085030   2.545977   2.979836
    29  C    5.882194   4.388553   4.718711   1.537385   2.555611
    30  H    4.635601   4.224234   4.955888   1.091904   2.160529
    31  H    5.441862   4.704059   5.281426   1.091385   2.170154
    32  H    4.311722   2.799676   3.161156   2.159589   1.091241
    33  H    3.067521   2.796497   3.604655   2.158217   1.090962
    34  H    2.919450   2.055460   2.841844   2.787316   2.138641
    35  N    5.084293   2.887612   2.662363   4.419215   3.900483
    36  H    5.233323   2.764436   2.537304   3.268525   2.733184
    37  H    5.492385   4.184812   4.554814   2.839983   3.396406
    38  H    6.615784   4.679789   4.707177   3.475265   3.965173
    39  H    6.411892   4.627105   4.779825   2.162061   2.857839
    40  H    6.708959   5.416769   5.779308   2.167607   3.495447
    41  C    5.015168   3.504486   3.558187   4.920727   4.554782
    42  C    6.523557   4.170784   3.711883   5.344220   5.007656
    43  H    5.683759   4.328024   4.466942   4.885346   4.863100
    44  H    4.076189   3.074506   3.390720   4.707402   4.220275
    45  H    5.591082   4.143455   4.041301   5.998997   5.544979
    46  H    7.143829   4.931249   4.609693   5.365689   5.341506
    47  H    6.962823   4.703806   4.156387   6.350489   5.914655
    48  H    6.857446   4.287086   3.671321   5.425816   5.016523
                   26         27         28         29         30
    26  C    0.000000
    27  C    1.558701   0.000000
    28  C    2.560477   1.549721   0.000000
    29  C    2.997756   2.567011   1.541006   0.000000
    30  H    2.878521   3.435945   2.844128   2.161605   0.000000
    31  H    3.510925   3.985364   3.490122   2.169417   1.742079
    32  H    2.171234   2.883785   3.424307   2.862032   3.050359
    33  H    2.186123   3.521018   3.955640   3.486377   2.439633
    34  H    1.091096   2.118511   2.742488   3.316579   2.658526
    35  N    2.538588   1.475656   2.563790   3.909030   4.690620
    36  H    2.111058   1.093142   2.122718   2.725997   3.978093
    37  H    2.856566   2.175971   1.090145   2.164398   2.705051
    38  H    3.506460   2.180328   1.089270   2.151574   3.823102
    39  H    3.417862   2.855869   2.166403   1.091625   3.056066
    40  H    3.984918   3.508369   2.171957   1.091216   2.460191
    41  C    3.119718   2.474622   3.096726   4.540914   4.864051
    42  C    3.835888   2.457978   3.119387   4.467931   5.727409
    43  H    3.621499   2.810998   2.846244   4.324675   4.716335
    44  H    2.783060   2.727719   3.420096   4.671894   4.506408
    45  H    4.050226   3.412545   4.114164   5.590200   5.945290
    46  H    4.311159   2.814726   2.895736   4.270860   5.680250
    47  H    4.616377   3.398494   4.140251   5.535926   6.672576
    48  H    4.042128   2.679394   3.423532   4.511671   5.997088
                   31         32         33         34         35
    31  H    0.000000
    32  H    2.452012   0.000000
    33  H    2.501225   1.744539   0.000000
    34  H    3.790542   3.042631   2.474540   0.000000
    35  N    5.437597   4.205189   4.712594   2.801092   0.000000
    36  H    4.063448   2.601980   3.744983   2.982346   2.059679
    37  H    3.834961   4.093917   4.192138   2.597760   2.859569
    38  H    4.297228   4.239049   4.986386   3.744551   2.788278
    39  H    2.464263   2.734463   3.845416   4.007811   4.193670
    40  H    2.512587   3.850848   4.302729   4.122626   4.722311
    41  C    6.006350   5.134120   5.196013   2.831044   1.465856
    42  C    6.288903   5.120589   5.934647   4.200900   1.464423
    43  H    5.959309   5.514771   5.554860   3.214131   2.131231
    44  H    5.785760   4.940305   4.659121   2.211929   2.124219
    45  H    7.081645   6.064587   6.147317   3.788902   2.114331
    46  H    6.291304   5.527951   6.318245   4.553635   2.132424
    47  H    7.321196   6.041635   6.773466   4.894394   2.113255
    48  H    6.257814   4.893827   5.988671   4.649224   2.118012
                   36         37         38         39         40
    36  H    0.000000
    37  H    3.035783   0.000000
    38  H    2.473451   1.743859   0.000000
    39  H    2.573115   3.059305   2.450550   0.000000
    40  H    3.731120   2.468651   2.487790   1.744145   0.000000
    41  C    3.369479   2.839527   3.387321   5.103585   5.177231
    42  C    2.574691   3.570203   2.795746   4.532696   5.153020
    43  H    3.755198   2.335631   2.987868   4.995612   4.750199
    44  H    3.712058   3.020717   3.990207   5.343066   5.339575
    45  H    4.167744   3.875910   4.253743   6.090550   6.216218
    46  H    3.033555   3.248922   2.264820   4.399410   4.748831
    47  H    3.548552   4.452421   3.814532   5.622514   6.205525
    48  H    2.323479   4.133711   3.049746   4.313304   5.261165
                   41         42         43         44         45
    41  C    0.000000
    42  C    2.410186   0.000000
    43  H    1.091212   2.723409   0.000000
    44  H    1.090928   3.369709   1.766034   0.000000
    45  H    1.091604   2.639483   1.761918   1.750072   0.000000
    46  H    2.709280   1.091053   2.567668   3.733587   3.024399
    47  H    2.656149   1.091592   3.075019   3.640562   2.414746
    48  H    3.368325   1.091397   3.734189   4.215481   3.638294
                   46         47         48
    46  H    0.000000
    47  H    1.760947   0.000000
    48  H    1.766885   1.753154   0.000000
 Stoichiometry    C17H21F6N3S
 Framework group  C1[X(C17H21F6N3S)]
 Deg. of freedom   138
 Full point group                 C1      NOp   1
 Largest Abelian subgroup         C1      NOp   1
 Largest concise Abelian subgroup C1      NOp   1
                         Standard orientation:                         
 ---------------------------------------------------------------------
 Center     Atomic      Atomic             Coordinates (Angstroms)
 Number     Number       Type             X           Y           Z
 ---------------------------------------------------------------------
      1          6           0       -2.556934   -1.529967   -0.068129
      2          6           0       -3.557075   -0.590376    0.212474
      3          6           0       -3.245116    0.773958    0.163078
      4          6           0       -1.954943    1.204597   -0.171342
      5          6           0       -0.969128    0.251220   -0.448929
      6          6           0       -1.258951   -1.121295   -0.382355
      7          1           0       -2.789915   -2.585833   -0.026044
      8          6           0       -4.973431   -1.045109    0.567011
      9          1           0       -4.014996    1.502830    0.382845
     10          6           0       -1.612249    2.693463   -0.245516
     11          1           0        0.013371    0.598821   -0.741329
     12          7           0       -0.315647   -2.131314   -0.657004
     13          9           0       -2.707348    3.455337   -0.266189
     14          9           0       -0.902939    2.955749   -1.343909
     15          9           0       -0.890158    3.027705    0.823244
     16          9           0       -5.072684   -1.145620    1.891405
     17          9           0       -5.881338   -0.168019    0.136397
     18          9           0       -5.251638   -2.233466    0.028323
     19          1           0       -0.701825   -2.972473   -1.060156
     20          6           0        1.045030   -2.113869   -0.622277
     21         16           0        1.832161   -3.329825   -1.438146
     22          7           0        1.629500   -1.127307    0.120660
     23          1           0        1.023694   -0.446371    0.552967
     24          6           0        5.371938   -1.381604    1.190822
     25          6           0        3.870907   -1.727909    1.164816
     26          6           0        3.065055   -0.819199    0.200248
     27          6           0        3.323591    0.693331    0.474042
     28          6           0        4.841915    1.003696    0.475685
     29          6           0        5.620393    0.111204    1.461651
     30          1           0        5.818966   -1.656315    0.233245
     31          1           0        5.880206   -1.988282    1.942305
     32          1           0        3.465192   -1.632320    2.173312
     33          1           0        3.753249   -2.776714    0.888477
     34          1           0        3.461641   -0.992641   -0.801314
     35          7           0        2.484216    1.591859   -0.341836
     36          1           0        2.993447    0.838007    1.506046
     37          1           0        5.246244    0.875283   -0.528528
     38          1           0        5.012467    2.045856    0.742752
     39          1           0        5.322761    0.350092    2.484389
     40          1           0        6.688014    0.328088    1.399195
     41          6           0        2.794141    1.580711   -1.774511
     42          6           0        2.435741    2.964559    0.165982
     43          1           0        3.788713    1.978758   -1.982185
     44          1           0        2.740300    0.572553   -2.187844
     45          1           0        2.073650    2.184470   -2.329459
     46          1           0        3.393497    3.477303    0.065029
     47          1           0        1.689995    3.549906   -0.375132
     48          1           0        2.149917    2.983858    1.219110
 ---------------------------------------------------------------------
 Rotational constants (GHZ):           0.2479422           0.0992798           0.0785507
 Standard basis: 6-31G(d) (6D, 7F)
 There are   451 symmetry adapted cartesian basis functions of A   symmetry.
 There are   451 symmetry adapted basis functions of A   symmetry.
   451 basis functions,   864 primitive gaussians,   451 cartesian basis functions
   107 alpha electrons      107 beta electrons
       nuclear repulsion energy      2873.3249782659 Hartrees.
 NAtoms=   48 NActive=   48 NUniq=   48 SFac= 1.00D+00 NAtFMM=   60 NAOKFM=F Big=F
 Integral buffers will be    131072 words long.
 Raffenetti 2 integral format.
 Two-electron integral symmetry is turned on.
 ------------------------------------------------------------------------------
 Polarizable Continuum Model (PCM)
 =================================
 Model                : PCM.
 Atomic radii         : UFF (Universal Force Field).
 Polarization charges : Total charges.
 Charge compensation  : None.
 Solution method      : On-the-fly selection.
 Cavity type          : Scaled VdW (van der Waals Surface) (Alpha=1.100).
 Cavity algorithm     : GePol (No added spheres)
                        Default sphere list used, NSphG=   48.
                        Lebedev-Laikov grids with approx.  5.0 points / Ang**2.
                        Smoothing algorithm: York/Karplus (Gamma=1.0000).
                        Polarization charges: spherical gaussians, with
                                              point-specific exponents (IZeta= 3).
                        Self-potential: point-specific (ISelfS= 7).
                        Self-field    : sphere-specific E.n sum rule (ISelfD= 2).
 1st derivatives      : Analytical E(r).r(x)/FMM algorithm (CHGder, D1EAlg=3).
                        Cavity 1st derivative terms included.
 Solvent              : Benzene, Eps=   2.270600 Eps(inf)=   2.253301
 ------------------------------------------------------------------------------
 One-electron integrals computed using PRISM.
 NBasis=   451 RedAO= T EigKep=  3.60D-04  NBF=   451
 NBsUse=   451 1.00D-06 EigRej= -1.00D+00 NBFU=   451
 ExpMin= 1.17D-01 ExpMax= 2.19D+04 ExpMxC= 3.30D+03 IAcc=3 IRadAn=         5 AccDes= 0.00D+00
 Harris functional with IExCor= 1009 and IRadAn=       5 diagonalized for initial guess.
 HarFok:  IExCor= 1009 AccDes= 0.00D+00 IRadAn=         5 IDoV= 1 UseB2=F ITyADJ=14
 ICtDFT=  3500011 ScaDFX=  1.000000  1.000000  1.000000  1.000000
 FoFCou: FMM=F IPFlag=           0 FMFlag=      100000 FMFlg1=           0
         NFxFlg=           0 DoJE=T BraDBF=F KetDBF=T FulRan=T
         wScrn=  0.000000 ICntrl=       500 IOpCl=  0 I1Cent=   200000004 NGrid=           0
         NMat0=    1 NMatS0=      1 NMatT0=    0 NMatD0=    1 NMtDS0=    0 NMtDT0=    0
 Petite list used in FoFCou.
 Requested convergence on RMS density matrix=1.00D-08 within 128 cycles.
 Requested convergence on MAX density matrix=1.00D-06.
 Requested convergence on             energy=1.00D-06.
 No special actions if energy rises.
 Inv3:  Mode=1 IEnd=    35542092.
 Iteration    1 A*A^-1 deviation from unit magnitude is 3.33D-15 for   1739.
 Iteration    1 A*A^-1 deviation from orthogonality  is 2.33D-15 for   2486    165.
 Iteration    1 A^-1*A deviation from unit magnitude is 3.11D-15 for   1089.
 Iteration    1 A^-1*A deviation from orthogonality  is 2.50D-15 for   3009   2020.
 Error on total polarization charges =  0.00956
 SCF Done:  E(RM062X) =  -1821.40961920     A.U. after   13 cycles
            NFock= 13  Conv=0.62D-08     -V/T= 2.0068

 **********************************************************************

            Population analysis using the SCF Density.

 **********************************************************************

 Orbital symmetries:
       Occupied  (A) (A) (A) (A) (A) (A) (A) (A) (A) (A) (A) (A)
                 (A) (A) (A) (A) (A) (A) (A) (A) (A) (A) (A) (A)
                 (A) (A) (A) (A) (A) (A) (A) (A) (A) (A) (A) (A)
                 (A) (A) (A) (A) (A) (A) (A) (A) (A) (A) (A) (A)
                 (A) (A) (A) (A) (A) (A) (A) (A) (A) (A) (A) (A)
                 (A) (A) (A) (A) (A) (A) (A) (A) (A) (A) (A) (A)
                 (A) (A) (A) (A) (A) (A) (A) (A) (A) (A) (A) (A)
                 (A) (A) (A) (A) (A) (A) (A) (A) (A) (A) (A) (A)
                 (A) (A) (A) (A) (A) (A) (A) (A) (A) (A) (A)
       Virtual   (A) (A) (A) (A) (A) (A) (A) (A) (A) (A) (A) (A)
                 (A) (A) (A) (A) (A) (A) (A) (A) (A) (A) (A) (A)
                 (A) (A) (A) (A) (A) (A) (A) (A) (A) (A) (A) (A)
                 (A) (A) (A) (A) (A) (A) (A) (A) (A) (A) (A) (A)
                 (A) (A) (A) (A) (A) (A) (A) (A) (A) (A) (A) (A)
                 (A) (A) (A) (A) (A) (A) (A) (A) (A) (A) (A) (A)
                 (A) (A) (A) (A) (A) (A) (A) (A) (A) (A) (A) (A)
                 (A) (A) (A) (A) (A) (A) (A) (A) (A) (A) (A) (A)
                 (A) (A) (A) (A) (A) (A) (A) (A) (A) (A) (A) (A)
                 (A) (A) (A) (A) (A) (A) (A) (A) (A) (A) (A) (A)
                 (A) (A) (A) (A) (A) (A) (A) (A) (A) (A) (A) (A)
                 (A) (A) (A) (A) (A) (A) (A) (A) (A) (A) (A) (A)
                 (A) (A) (A) (A) (A) (A) (A) (A) (A) (A) (A) (A)
                 (A) (A) (A) (A) (A) (A) (A) (A) (A) (A) (A) (A)
                 (A) (A) (A) (A) (A) (A) (A) (A) (A) (A) (A) (A)
                 (A) (A) (A) (A) (A) (A) (A) (A) (A) (A) (A) (A)
                 (A) (A) (A) (A) (A) (A) (A) (A) (A) (A) (A) (A)
                 (A) (A) (A) (A) (A) (A) (A) (A) (A) (A) (A) (A)
                 (A) (A) (A) (A) (A) (A) (A) (A) (A) (A) (A) (A)
                 (A) (A) (A) (A) (A) (A) (A) (A) (A) (A) (A) (A)
                 (A) (A) (A) (A) (A) (A) (A) (A) (A) (A) (A) (A)
                 (A) (A) (A) (A) (A) (A) (A) (A) (A) (A) (A) (A)
                 (A) (A) (A) (A) (A) (A) (A) (A) (A) (A) (A) (A)
                 (A) (A) (A) (A) (A) (A) (A) (A) (A) (A) (A) (A)
                 (A) (A) (A) (A) (A) (A) (A) (A) (A) (A) (A) (A)
                 (A) (A) (A) (A) (A) (A) (A) (A) (A) (A) (A) (A)
                 (A) (A) (A) (A) (A) (A) (A) (A) (A) (A) (A) (A)
                 (A) (A) (A) (A) (A) (A) (A) (A) (A) (A) (A) (A)
                 (A) (A) (A) (A) (A) (A) (A) (A)
 The electronic state is 1-A.
 Alpha  occ. eigenvalues --  -89.86553 -25.29953 -25.29857 -25.29838 -25.29740
 Alpha  occ. eigenvalues --  -25.29540 -25.29262 -14.81670 -14.80643 -14.76240
 Alpha  occ. eigenvalues --  -10.81571 -10.81449 -10.67947 -10.63342 -10.60095
 Alpha  occ. eigenvalues --  -10.60077 -10.59602 -10.58958 -10.58785 -10.58765
 Alpha  occ. eigenvalues --  -10.58750 -10.56431 -10.56366 -10.54575 -10.54397
 Alpha  occ. eigenvalues --  -10.54390 -10.54220  -8.21335  -6.13458  -6.13024
 Alpha  occ. eigenvalues --   -6.12804  -1.47147  -1.47011  -1.37852  -1.37771
 Alpha  occ. eigenvalues --   -1.37730  -1.37560  -1.11941  -1.04807  -1.02529
 Alpha  occ. eigenvalues --   -0.99389  -0.92544  -0.91355  -0.89640  -0.84384
 Alpha  occ. eigenvalues --   -0.83841  -0.82254  -0.81428  -0.81093  -0.80116
 Alpha  occ. eigenvalues --   -0.75074  -0.73997  -0.73605  -0.72044  -0.70088
 Alpha  occ. eigenvalues --   -0.69636  -0.69524  -0.69366  -0.68641  -0.66998
 Alpha  occ. eigenvalues --   -0.66734  -0.65165  -0.63425  -0.61241  -0.60387
 Alpha  occ. eigenvalues --   -0.58927  -0.57657  -0.57303  -0.57195  -0.56761
 Alpha  occ. eigenvalues --   -0.56676  -0.55492  -0.54768  -0.53542  -0.53426
 Alpha  occ. eigenvalues --   -0.53258  -0.53098  -0.52872  -0.52108  -0.51598
 Alpha  occ. eigenvalues --   -0.51200  -0.51079  -0.50467  -0.49873  -0.48977
 Alpha  occ. eigenvalues --   -0.48830  -0.48524  -0.46935  -0.46511  -0.45535
 Alpha  occ. eigenvalues --   -0.45233  -0.44582  -0.43461  -0.43321  -0.43045
 Alpha  occ. eigenvalues --   -0.42593  -0.41100  -0.40193  -0.39192  -0.38576
 Alpha  occ. eigenvalues --   -0.36818  -0.36367  -0.34242  -0.30092  -0.27946
 Alpha  occ. eigenvalues --   -0.27430  -0.26635
 Alpha virt. eigenvalues --   -0.01845  -0.01231   0.04609   0.10858   0.11027
 Alpha virt. eigenvalues --    0.12462   0.13221   0.14686   0.14815   0.16202
 Alpha virt. eigenvalues --    0.16307   0.17463   0.17675   0.17819   0.18512
 Alpha virt. eigenvalues --    0.19169   0.19280   0.19626   0.20024   0.20163
 Alpha virt. eigenvalues --    0.20876   0.21261   0.21913   0.22149   0.22381
 Alpha virt. eigenvalues --    0.23240   0.23571   0.25035   0.25235   0.25391
 Alpha virt. eigenvalues --    0.26324   0.26682   0.27048   0.27630   0.28079
 Alpha virt. eigenvalues --    0.28362   0.28485   0.29431   0.30145   0.30668
 Alpha virt. eigenvalues --    0.31567   0.31773   0.31864   0.32249   0.32793
 Alpha virt. eigenvalues --    0.33232   0.34021   0.34890   0.37395   0.39994
 Alpha virt. eigenvalues --    0.41927   0.43612   0.45397   0.46510   0.49098
 Alpha virt. eigenvalues --    0.49882   0.51447   0.51573   0.51766   0.52532
 Alpha virt. eigenvalues --    0.54214   0.55093   0.55115   0.55985   0.56427
 Alpha virt. eigenvalues --    0.56854   0.57226   0.58075   0.58809   0.59742
 Alpha virt. eigenvalues --    0.60116   0.60444   0.61033   0.62485   0.62836
 Alpha virt. eigenvalues --    0.63497   0.64088   0.64898   0.65300   0.66374
 Alpha virt. eigenvalues --    0.66991   0.68406   0.69623   0.70115   0.70879
 Alpha virt. eigenvalues --    0.72696   0.73526   0.74645   0.74939   0.75699
 Alpha virt. eigenvalues --    0.77294   0.78342   0.78517   0.78952   0.79320
 Alpha virt. eigenvalues --    0.80922   0.81715   0.82443   0.83306   0.84787
 Alpha virt. eigenvalues --    0.85640   0.85808   0.87374   0.87754   0.88417
 Alpha virt. eigenvalues --    0.88645   0.90480   0.90738   0.91780   0.93045
 Alpha virt. eigenvalues --    0.93244   0.93905   0.94165   0.94760   0.95346
 Alpha virt. eigenvalues --    0.95563   0.95940   0.96406   0.97507   0.97821
 Alpha virt. eigenvalues --    0.98953   0.99407   1.00174   1.01310   1.01704
 Alpha virt. eigenvalues --    1.02260   1.03111   1.03298   1.04750   1.05432
 Alpha virt. eigenvalues --    1.06382   1.07201   1.08193   1.08888   1.09359
 Alpha virt. eigenvalues --    1.11221   1.11564   1.12434   1.14825   1.15915
 Alpha virt. eigenvalues --    1.16133   1.16570   1.16670   1.16899   1.18384
 Alpha virt. eigenvalues --    1.19048   1.19420   1.19809   1.20952   1.21938
 Alpha virt. eigenvalues --    1.22201   1.23660   1.24180   1.27109   1.27563
 Alpha virt. eigenvalues --    1.28569   1.29320   1.30797   1.32535   1.35995
 Alpha virt. eigenvalues --    1.36531   1.39537   1.40395   1.40748   1.40994
 Alpha virt. eigenvalues --    1.41621   1.41743   1.42257   1.43726   1.43785
 Alpha virt. eigenvalues --    1.44288   1.44581   1.44850   1.46792   1.47655
 Alpha virt. eigenvalues --    1.48128   1.49272   1.49374   1.49896   1.50421
 Alpha virt. eigenvalues --    1.51447   1.52432   1.54271   1.56526   1.57678
 Alpha virt. eigenvalues --    1.58936   1.59607   1.61262   1.62757   1.64837
 Alpha virt. eigenvalues --    1.67316   1.67858   1.69960   1.70953   1.71687
 Alpha virt. eigenvalues --    1.72678   1.74003   1.74951   1.75444   1.76913
 Alpha virt. eigenvalues --    1.78312   1.79412   1.79802   1.81009   1.82082
 Alpha virt. eigenvalues --    1.82987   1.83661   1.86360   1.87581   1.89312
 Alpha virt. eigenvalues --    1.89658   1.90444   1.90647   1.91432   1.91573
 Alpha virt. eigenvalues --    1.92786   1.92926   1.93374   1.93981   1.95018
 Alpha virt. eigenvalues --    1.96263   1.96708   1.97882   2.01080   2.02044
 Alpha virt. eigenvalues --    2.02574   2.02943   2.03593   2.03984   2.05046
 Alpha virt. eigenvalues --    2.05459   2.05527   2.05662   2.06026   2.06708
 Alpha virt. eigenvalues --    2.07508   2.08793   2.09355   2.10692   2.11335
 Alpha virt. eigenvalues --    2.11695   2.12183   2.12267   2.13250   2.13581
 Alpha virt. eigenvalues --    2.15147   2.15246   2.16118   2.16406   2.17031
 Alpha virt. eigenvalues --    2.17229   2.18284   2.18465   2.19133   2.19499
 Alpha virt. eigenvalues --    2.21484   2.22349   2.24454   2.25868   2.27077
 Alpha virt. eigenvalues --    2.28302   2.30446   2.31491   2.32312   2.33027
 Alpha virt. eigenvalues --    2.36420   2.36974   2.37946   2.39698   2.40228
 Alpha virt. eigenvalues --    2.41981   2.44266   2.44828   2.45808   2.45981
 Alpha virt. eigenvalues --    2.48161   2.51858   2.53024   2.53340   2.54221
 Alpha virt. eigenvalues --    2.55351   2.56534   2.57999   2.59328   2.61625
 Alpha virt. eigenvalues --    2.64276   2.65256   2.66079   2.67833   2.69012
 Alpha virt. eigenvalues --    2.69197   2.72392   2.74352   2.75288   2.77234
 Alpha virt. eigenvalues --    2.79450   2.80591   2.81546   2.81859   2.82662
 Alpha virt. eigenvalues --    2.86433   2.89194   2.89436   2.91808   2.95474
 Alpha virt. eigenvalues --    2.98313   2.99079   3.03258   3.07814   3.07962
 Alpha virt. eigenvalues --    3.09082   3.10626   3.11302   3.12663   3.17159
 Alpha virt. eigenvalues --    3.25056   3.39684   3.98839   4.04670   4.05478
 Alpha virt. eigenvalues --    4.08624   4.09096   4.11377   4.15309   4.22001
 Alpha virt. eigenvalues --    4.26963   4.28892   4.29977   4.30966   4.34832
 Alpha virt. eigenvalues --    4.36979   4.38045   4.45719   4.47926   4.54016
 Alpha virt. eigenvalues --    4.55883   4.58365   4.60817   4.62079   4.67496
 Alpha virt. eigenvalues --    4.80792   4.84443   5.52390   5.61662
          Condensed to atoms (all electrons):
               1          2          3          4          5          6
     1  C    5.081615   0.500506  -0.071693  -0.035876  -0.064421   0.505503
     2  C    0.500506   5.095527   0.462532  -0.019533  -0.036134  -0.016130
     3  C   -0.071693   0.462532   5.099739   0.491213  -0.072359  -0.034942
     4  C   -0.035876  -0.019533   0.491213   5.099962   0.468787  -0.014721
     5  C   -0.064421  -0.036134  -0.072359   0.468787   5.145042   0.512382
     6  C    0.505503  -0.016130  -0.034942  -0.014721   0.512382   4.629231
     7  H    0.357237  -0.034528   0.004300   0.000260   0.004946  -0.035174
     8  C   -0.021122   0.326636  -0.019203   0.003296   0.000397   0.002840
     9  H    0.004214  -0.037750   0.360774  -0.033644   0.004698   0.000454
    10  C    0.000397   0.003864  -0.026822   0.327754  -0.014602   0.002566
    11  H    0.004403   0.000248   0.004278  -0.037071   0.328809  -0.031980
    12  N   -0.050621   0.004105   0.000945   0.004258  -0.062505   0.197994
    13  F   -0.000002   0.000799   0.005637  -0.056172   0.002866  -0.000026
    14  F   -0.000003  -0.000031   0.001963  -0.059307   0.005466   0.000558
    15  F   -0.000004  -0.000022   0.000010  -0.060116   0.001446   0.000106
    16  F   -0.000112  -0.061644   0.000225   0.000024  -0.000005   0.000002
    17  F    0.002618  -0.058127   0.005367   0.000700  -0.000004  -0.000025
    18  F    0.006221  -0.058065   0.002724  -0.000028  -0.000003   0.000751
    19  H   -0.004907   0.000075  -0.000003  -0.000018   0.003928  -0.023538
    20  C    0.003792  -0.000085   0.000002   0.000031  -0.003479  -0.024963
    21  S   -0.000626  -0.000000   0.000000  -0.000025  -0.000026   0.008764
    22  N    0.000089   0.000000   0.000001   0.000743  -0.004142  -0.003009
    23  H    0.000032  -0.000032  -0.000059  -0.000577   0.007913   0.008350
    24  C    0.000000  -0.000000  -0.000000  -0.000000   0.000000   0.000000
    25  C    0.000000  -0.000000   0.000000   0.000000  -0.000010  -0.000007
    26  C    0.000000  -0.000000   0.000000   0.000008   0.000783   0.000104
    27  C    0.000000   0.000000  -0.000000  -0.000017   0.000060  -0.000033
    28  C    0.000000  -0.000000  -0.000000  -0.000000  -0.000015   0.000000
    29  C   -0.000000   0.000000   0.000000   0.000000   0.000000  -0.000000
    30  H    0.000000  -0.000000  -0.000000  -0.000000  -0.000000  -0.000000
    31  H    0.000000   0.000000   0.000000   0.000000   0.000000  -0.000000
    32  H    0.000000  -0.000000  -0.000000  -0.000000  -0.000001   0.000002
    33  H    0.000000   0.000000  -0.000000   0.000000   0.000001  -0.000004
    34  H   -0.000000   0.000000  -0.000000  -0.000002  -0.000022   0.000032
    35  N   -0.000001  -0.000000  -0.000004  -0.000597  -0.008163   0.000115
    36  H   -0.000000   0.000000  -0.000000   0.000002   0.000079   0.000001
    37  H   -0.000000   0.000000  -0.000000  -0.000000   0.000000  -0.000000
    38  H   -0.000000   0.000000  -0.000000  -0.000000   0.000000   0.000000
    39  H    0.000000  -0.000000   0.000000   0.000000   0.000000  -0.000000
    40  H    0.000000  -0.000000  -0.000000  -0.000000  -0.000000   0.000000
    41  C   -0.000000   0.000000  -0.000000   0.000046   0.000371  -0.000010
    42  C   -0.000000   0.000000  -0.000001  -0.000160   0.000367   0.000006
    43  H    0.000000  -0.000000  -0.000000  -0.000001  -0.000032   0.000000
    44  H    0.000000   0.000000   0.000000   0.000010   0.000226  -0.000017
    45  H    0.000000   0.000000  -0.000000  -0.000019   0.000310   0.000006
    46  H    0.000000  -0.000000  -0.000000  -0.000002  -0.000018   0.000000
    47  H    0.000000   0.000000  -0.000001   0.000034   0.000111   0.000000
    48  H   -0.000000   0.000000  -0.000000   0.000016   0.000077   0.000000
               7          8          9         10         11         12
     1  C    0.357237  -0.021122   0.004214   0.000397   0.004403  -0.050621
     2  C   -0.034528   0.326636  -0.037750   0.003864   0.000248   0.004105
     3  C    0.004300  -0.019203   0.360774  -0.026822   0.004278   0.000945
     4  C    0.000260   0.003296  -0.033644   0.327754  -0.037071   0.004258
     5  C    0.004946   0.000397   0.004698  -0.014602   0.328809  -0.062505
     6  C   -0.035174   0.002840   0.000454   0.002566  -0.031980   0.197994
     7  H    0.492661  -0.003710  -0.000127   0.000005  -0.000109  -0.004664
     8  C   -0.003710   3.955493  -0.003173  -0.000069   0.000005  -0.000089
     9  H   -0.000127  -0.003173   0.487452  -0.005128  -0.000127   0.000004
    10  C    0.000005  -0.000069  -0.005128   3.959886  -0.001513  -0.000068
    11  H   -0.000109   0.000005  -0.000127  -0.001513   0.485871  -0.006374
    12  N   -0.004664  -0.000089   0.000004  -0.000068  -0.006374   7.216952
    13  F   -0.000000  -0.000003   0.006629   0.311015   0.000072   0.000000
    14  F   -0.000000   0.000000   0.000104   0.294521   0.003747  -0.000000
    15  F   -0.000000   0.000000   0.000151   0.296128   0.000417   0.000000
    16  F    0.000177   0.303929   0.000193   0.000000  -0.000000   0.000000
    17  F    0.000088   0.304887   0.004922  -0.000002  -0.000000   0.000000
    18  F    0.005704   0.305884   0.000078   0.000000  -0.000000  -0.000001
    19  H    0.003841   0.000000  -0.000000   0.000001  -0.000137   0.315349
    20  C   -0.000011   0.000001  -0.000000   0.000004   0.002911   0.311504
    21  S   -0.000069  -0.000000   0.000000   0.000000  -0.000176  -0.115766
    22  N   -0.000002   0.000000   0.000000  -0.000023   0.000318  -0.077830
    23  H   -0.000005  -0.000000  -0.000000   0.000060   0.000805  -0.005586
    24  C   -0.000000   0.000000  -0.000000   0.000000  -0.000000   0.000000
    25  C    0.000000  -0.000000   0.000000  -0.000000   0.000046  -0.000089
    26  C    0.000000  -0.000000  -0.000000  -0.000002  -0.001584   0.002786
    27  C   -0.000000   0.000000  -0.000000   0.000002  -0.000447  -0.000074
    28  C    0.000000  -0.000000   0.000000   0.000000   0.000087   0.000001
    29  C   -0.000000   0.000000  -0.000000  -0.000000  -0.000001   0.000000
    30  H    0.000000   0.000000  -0.000000  -0.000000   0.000000   0.000000
    31  H    0.000000  -0.000000   0.000000  -0.000000   0.000000  -0.000000
    32  H   -0.000000   0.000000   0.000000   0.000000  -0.000003  -0.000008
    33  H   -0.000000   0.000000  -0.000000  -0.000000  -0.000001  -0.000023
    34  H   -0.000000   0.000000   0.000000   0.000000  -0.000221   0.000219
    35  N    0.000000  -0.000000   0.000000   0.000586   0.022916   0.000014
    36  H   -0.000000   0.000000  -0.000000  -0.000003  -0.000274  -0.000002
    37  H   -0.000000   0.000000  -0.000000  -0.000000  -0.000001  -0.000000
    38  H   -0.000000  -0.000000   0.000000  -0.000000  -0.000001  -0.000000
    39  H   -0.000000  -0.000000  -0.000000  -0.000000  -0.000000  -0.000000
    40  H    0.000000  -0.000000   0.000000   0.000000   0.000000   0.000000
    41  C   -0.000000   0.000000  -0.000000  -0.000035  -0.001260  -0.000007
    42  C   -0.000000   0.000000  -0.000000   0.000228  -0.000599  -0.000000
    43  H    0.000000  -0.000000   0.000000   0.000002   0.000237   0.000000
    44  H    0.000000   0.000000  -0.000000  -0.000003  -0.000499  -0.000052
    45  H   -0.000000   0.000000  -0.000000   0.000005  -0.000812  -0.000000
    46  H    0.000000  -0.000000   0.000000   0.000019   0.000122   0.000000
    47  H    0.000000   0.000000  -0.000000   0.000876  -0.000467  -0.000000
    48  H   -0.000000   0.000000  -0.000000  -0.000012  -0.000215   0.000000
              13         14         15         16         17         18
     1  C   -0.000002  -0.000003  -0.000004  -0.000112   0.002618   0.006221
     2  C    0.000799  -0.000031  -0.000022  -0.061644  -0.058127  -0.058065
     3  C    0.005637   0.001963   0.000010   0.000225   0.005367   0.002724
     4  C   -0.056172  -0.059307  -0.060116   0.000024   0.000700  -0.000028
     5  C    0.002866   0.005466   0.001446  -0.000005  -0.000004  -0.000003
     6  C   -0.000026   0.000558   0.000106   0.000002  -0.000025   0.000751
     7  H   -0.000000  -0.000000  -0.000000   0.000177   0.000088   0.005704
     8  C   -0.000003   0.000000   0.000000   0.303929   0.304887   0.305884
     9  H    0.006629   0.000104   0.000151   0.000193   0.004922   0.000078
    10  C    0.311015   0.294521   0.296128   0.000000  -0.000002   0.000000
    11  H    0.000072   0.003747   0.000417  -0.000000  -0.000000  -0.000000
    12  N    0.000000  -0.000000   0.000000   0.000000   0.000000  -0.000001
    13  F    9.079945  -0.039575  -0.040272   0.000000   0.000000  -0.000000
    14  F   -0.039575   9.097512  -0.039526   0.000000  -0.000000  -0.000000
    15  F   -0.040272  -0.039526   9.104196  -0.000000   0.000000  -0.000000
    16  F    0.000000   0.000000  -0.000000   9.100841  -0.040580  -0.040601
    17  F    0.000000  -0.000000   0.000000  -0.040580   9.089366  -0.039640
    18  F   -0.000000  -0.000000  -0.000000  -0.040601  -0.039640   9.087882
    19  H   -0.000000  -0.000000  -0.000000   0.000000  -0.000000  -0.000001
    20  C    0.000000   0.000000   0.000000  -0.000000  -0.000000  -0.000000
    21  S    0.000000  -0.000000   0.000000   0.000000   0.000000   0.000000
    22  N   -0.000000   0.000000  -0.000001  -0.000000   0.000000   0.000000
    23  H    0.000000  -0.000009   0.000021   0.000000  -0.000000  -0.000000
    24  C    0.000000  -0.000000   0.000000   0.000000   0.000000  -0.000000
    25  C   -0.000000  -0.000000  -0.000000  -0.000000   0.000000  -0.000000
    26  C   -0.000000  -0.000000   0.000000   0.000000  -0.000000   0.000000
    27  C    0.000000   0.000003  -0.000003  -0.000000  -0.000000   0.000000
    28  C    0.000000  -0.000000   0.000000  -0.000000  -0.000000   0.000000
    29  C   -0.000000  -0.000000   0.000000   0.000000   0.000000   0.000000
    30  H   -0.000000  -0.000000   0.000000  -0.000000   0.000000  -0.000000
    31  H   -0.000000   0.000000   0.000000  -0.000000   0.000000   0.000000
    32  H    0.000000  -0.000000   0.000000  -0.000000  -0.000000  -0.000000
    33  H    0.000000   0.000000  -0.000000  -0.000000  -0.000000  -0.000000
    34  H    0.000000  -0.000000   0.000000  -0.000000  -0.000000  -0.000000
    35  N    0.000000  -0.000025  -0.000192   0.000000   0.000000   0.000000
    36  H   -0.000000  -0.000000  -0.000004  -0.000000  -0.000000   0.000000
    37  H   -0.000000  -0.000000   0.000000  -0.000000   0.000000   0.000000
    38  H   -0.000000  -0.000000  -0.000000   0.000000   0.000000  -0.000000
    39  H    0.000000   0.000000   0.000000  -0.000000   0.000000  -0.000000
    40  H    0.000000  -0.000000  -0.000000   0.000000   0.000000   0.000000
    41  C   -0.000000  -0.000244  -0.000002  -0.000000   0.000000   0.000000
    42  C    0.000001  -0.000970   0.000901   0.000000  -0.000000  -0.000000
    43  H    0.000000   0.000001  -0.000000  -0.000000   0.000000   0.000000
    44  H   -0.000000  -0.000001   0.000000  -0.000000   0.000000   0.000000
    45  H    0.000000   0.000953  -0.000003  -0.000000   0.000000   0.000000
    46  H    0.000000   0.000007   0.000035  -0.000000  -0.000000   0.000000
    47  H   -0.000002   0.003690   0.000993  -0.000000  -0.000000   0.000000
    48  H    0.000000  -0.000003   0.000582   0.000000   0.000000  -0.000000
              19         20         21         22         23         24
     1  C   -0.004907   0.003792  -0.000626   0.000089   0.000032   0.000000
     2  C    0.000075  -0.000085  -0.000000   0.000000  -0.000032  -0.000000
     3  C   -0.000003   0.000002   0.000000   0.000001  -0.000059  -0.000000
     4  C   -0.000018   0.000031  -0.000025   0.000743  -0.000577  -0.000000
     5  C    0.003928  -0.003479  -0.000026  -0.004142   0.007913   0.000000
     6  C   -0.023538  -0.024963   0.008764  -0.003009   0.008350   0.000000
     7  H    0.003841  -0.000011  -0.000069  -0.000002  -0.000005  -0.000000
     8  C    0.000000   0.000001  -0.000000   0.000000  -0.000000   0.000000
     9  H   -0.000000  -0.000000   0.000000   0.000000  -0.000000  -0.000000
    10  C    0.000001   0.000004   0.000000  -0.000023   0.000060   0.000000
    11  H   -0.000137   0.002911  -0.000176   0.000318   0.000805  -0.000000
    12  N    0.315349   0.311504  -0.115766  -0.077830  -0.005586   0.000000
    13  F   -0.000000   0.000000   0.000000  -0.000000   0.000000   0.000000
[...]
    19  H    0.000008  -0.000057   0.000000  -0.000000   0.000000  -0.000000
    20  C   -0.004542  -0.038544   0.005857  -0.000099  -0.000000   0.000008
    21  S   -0.010726  -0.002512   0.001993   0.000017  -0.000005   0.000240
    22  N   -0.055154   0.233794  -0.047533   0.004652   0.000029  -0.000006
    23  H    0.000391  -0.030078  -0.002976   0.000431  -0.000040   0.000002
    24  C    0.353919  -0.039393  -0.011501  -0.052517   0.372350   0.384997
    25  C    5.096254   0.378986  -0.046546  -0.008813  -0.051820  -0.040630
    26  C    0.378986   4.975562   0.363646  -0.057736  -0.011462  -0.006319
    27  C   -0.046546   0.363646   4.975579   0.358955  -0.032781  -0.001030
    28  C   -0.008813  -0.057736   0.358955   5.148218   0.352254  -0.003835
    29  C   -0.051820  -0.011462  -0.032781   0.352254   5.050145  -0.041614
    30  H   -0.040630  -0.006319  -0.001030  -0.003835  -0.041614   0.564920
    31  H   -0.031445   0.004482   0.000080   0.004858  -0.033571  -0.030103
    32  H    0.375605  -0.041229  -0.008382  -0.000353  -0.004577   0.005228
    33  H    0.378664  -0.031775   0.004611  -0.000192   0.004461  -0.003488
    34  H   -0.046871   0.391441  -0.039690  -0.004694  -0.000929   0.005134
    35  N    0.003672  -0.067339   0.303293  -0.056577   0.003743  -0.000013
    36  H   -0.005850  -0.036995   0.383815  -0.055132  -0.001877   0.000169
    37  H   -0.000433  -0.007269  -0.038997   0.380220  -0.037313   0.004145
    38  H   -0.000188   0.004642  -0.034468   0.381990  -0.030138  -0.000038
    39  H   -0.003782  -0.000993  -0.005937  -0.042933   0.383562   0.005315
    40  H    0.004860   0.000018   0.003957  -0.032544   0.383574  -0.003819
    41  C    0.000274  -0.000498  -0.060841  -0.005216   0.000103  -0.000009
    42  C   -0.000113   0.006009  -0.059012  -0.004407   0.000068  -0.000000
    43  H    0.000004  -0.001682  -0.004650   0.005769  -0.000144  -0.000002
    44  H    0.000248   0.005505  -0.007986  -0.000750   0.000017  -0.000009
    45  H   -0.000005   0.000136   0.005983  -0.000201   0.000001   0.000000
    46  H    0.000004  -0.000391  -0.007704   0.005380  -0.000225   0.000000
    47  H    0.000002  -0.000123   0.005246  -0.000076   0.000002  -0.000000
    48  H   -0.000013   0.000280  -0.002209  -0.001584  -0.000006  -0.000000
              31         32         33         34         35         36
     1  C    0.000000   0.000000   0.000000  -0.000000  -0.000007  -0.000000
     2  C    0.000000  -0.000000  -0.000000  -0.000000   0.000000  -0.000000
     3  C    0.000000  -0.000000  -0.000000  -0.000000  -0.000015   0.000000
     4  C    0.000000  -0.000000   0.000000  -0.000002  -0.001435   0.000010
     5  C    0.000000  -0.000002   0.000002  -0.000032  -0.010262   0.000089
     6  C   -0.000000   0.000002  -0.000005   0.000033   0.000029   0.000001
     7  H    0.000000  -0.000000  -0.000000  -0.000000   0.000000  -0.000000
     8  C   -0.000000   0.000000   0.000000   0.000000  -0.000000   0.000000
     9  H    0.000000   0.000000  -0.000000   0.000000   0.000000  -0.000000
    10  C   -0.000000   0.000000  -0.000000   0.000000   0.001643  -0.000007
    11  H    0.000000  -0.000003  -0.000002  -0.000184   0.022033  -0.000275
    12  N   -0.000000  -0.000005  -0.000047   0.000290   0.000089  -0.000004
    13  F   -0.000000   0.000000   0.000000   0.000000   0.000000  -0.000000
    14  F    0.000000  -0.000000   0.000000  -0.000000   0.000182   0.000000
    15  F    0.000000   0.000000  -0.000000   0.000000  -0.000393  -0.000004
    16  F   -0.000000  -0.000000  -0.000000  -0.000000  -0.000000   0.000000
    17  F    0.000000  -0.000000  -0.000000  -0.000000   0.000000  -0.000000
    18  F    0.000000  -0.000000  -0.000000  -0.000000   0.000000   0.000000
    19  H    0.000000  -0.000000   0.000001  -0.000008  -0.000000   0.000000
    20  C   -0.000002   0.000365   0.002261  -0.003736  -0.000161  -0.000147
    21  S    0.000001   0.000119   0.008978   0.010513   0.000001  -0.000059
    22  N   -0.000106  -0.001587  -0.003800  -0.052680  -0.006587  -0.005120
    23  H    0.000002   0.001123  -0.000174   0.004585   0.010480   0.003088
    24  C    0.383107  -0.036741  -0.026472  -0.000404   0.000024  -0.000605
    25  C   -0.031445   0.375605   0.378664  -0.046871   0.003672  -0.005850
    26  C    0.004482  -0.041229  -0.031775   0.391441  -0.067339  -0.036995
    27  C    0.000080  -0.008382   0.004611  -0.039690   0.303293   0.383815
    28  C    0.004858  -0.000353  -0.000192  -0.004694  -0.056577  -0.055132
    29  C   -0.033571  -0.004577   0.004461  -0.000929   0.003743  -0.001877
    30  H   -0.030103   0.005228  -0.003488   0.005134  -0.000013   0.000169
    31  H    0.549677  -0.003803  -0.002691  -0.000097   0.000004  -0.000055
    32  H   -0.003803   0.580545  -0.029115   0.005645  -0.000023   0.006511
    33  H   -0.002691  -0.029115   0.513617  -0.004537  -0.000095  -0.000022
    34  H   -0.000097   0.005645  -0.004537   0.538894  -0.004548   0.005500
    35  N    0.000004  -0.000023  -0.000095  -0.004548   6.994474  -0.054259
    36  H   -0.000055   0.006511  -0.000022   0.005500  -0.054259   0.602608
    37  H   -0.000053   0.000131  -0.000024   0.005121  -0.003238   0.005523
    38  H   -0.000133  -0.000024   0.000011   0.000010  -0.004381  -0.003608
    39  H   -0.003947   0.004210  -0.000035   0.000155   0.000008   0.005671
    40  H   -0.002268  -0.000044  -0.000122  -0.000034  -0.000093  -0.000090
    41  C    0.000000  -0.000001   0.000004   0.001844   0.278391   0.006661
    42  C   -0.000000  -0.000014   0.000003  -0.000120   0.302242  -0.006659
    43  H   -0.000000  -0.000001  -0.000001  -0.000259  -0.047107  -0.000299
    44  H    0.000000  -0.000005   0.000009   0.000597  -0.038631   0.000010
    45  H    0.000000   0.000000  -0.000000   0.000027  -0.040955  -0.000121
    46  H   -0.000000   0.000000  -0.000000  -0.000007  -0.050084  -0.001205
    47  H   -0.000000   0.000000  -0.000000   0.000004  -0.040430   0.000156
    48  H   -0.000000  -0.000002   0.000000   0.000002  -0.039982   0.006904
              37         38         39         40         41         42
     1  C   -0.000000  -0.000000   0.000000  -0.000000  -0.000000   0.000000
     2  C    0.000000   0.000000  -0.000000  -0.000000  -0.000000   0.000000
     3  C    0.000000  -0.000000   0.000000  -0.000000   0.000001   0.000000
     4  C    0.000000  -0.000000   0.000000  -0.000000   0.000218  -0.000310
     5  C    0.000000   0.000000   0.000000  -0.000000   0.000443   0.000569
     6  C   -0.000000   0.000000  -0.000000   0.000000  -0.000011   0.000008
     7  H   -0.000000  -0.000000  -0.000000   0.000000   0.000000  -0.000000
     8  C   -0.000000  -0.000000  -0.000000  -0.000000  -0.000000   0.000000
     9  H   -0.000000   0.000000  -0.000000   0.000000   0.000000  -0.000000
    10  C   -0.000000  -0.000000  -0.000000   0.000000  -0.000121   0.000139
    11  H   -0.000002  -0.000002  -0.000000   0.000000  -0.002369  -0.000878
    12  N   -0.000000  -0.000000  -0.000000   0.000000  -0.000022  -0.000000
    13  F   -0.000000   0.000000   0.000000   0.000000  -0.000000   0.000003
    14  F    0.000000  -0.000000   0.000000   0.000000  -0.001462  -0.003416
    15  F    0.000000  -0.000000   0.000000  -0.000000  -0.000011   0.001421
    16  F   -0.000000   0.000000  -0.000000   0.000000   0.000000   0.000000
    17  F    0.000000   0.000000   0.000000   0.000000   0.000000  -0.000000
    18  F    0.000000  -0.000000  -0.000000   0.000000   0.000000  -0.000000
    19  H    0.000000   0.000000   0.000000  -0.000000  -0.000001   0.000000
    20  C   -0.000008   0.000002  -0.000000  -0.000000  -0.000205   0.000014
    21  S   -0.000046   0.000000  -0.000001   0.000000  -0.000475   0.000000
    22  N    0.000036  -0.000106  -0.000017   0.000005  -0.001421   0.000104
    23  H    0.000013  -0.000002  -0.000005   0.000000  -0.000418  -0.000493
    24  C   -0.004054   0.004615  -0.041519  -0.033514  -0.000026  -0.000001
    25  C   -0.000433  -0.000188  -0.003782   0.004860   0.000274  -0.000113
    26  C   -0.007269   0.004642  -0.000993   0.000018  -0.000498   0.006009
    27  C   -0.038997  -0.034468  -0.005937   0.003957  -0.060841  -0.059012
    28  C    0.380220   0.381990  -0.042933  -0.032544  -0.005216  -0.004407
    29  C   -0.037313  -0.030138   0.383562   0.383574   0.000103   0.000068
    30  H    0.004145  -0.000038   0.005315  -0.003819  -0.000009  -0.000000
    31  H   -0.000053  -0.000133  -0.003947  -0.002268   0.000000  -0.000000
    32  H    0.000131  -0.000024   0.004210  -0.000044  -0.000001  -0.000014
    33  H   -0.000024   0.000011  -0.000035  -0.000122   0.000004   0.000003
    34  H    0.005121   0.000010   0.000155  -0.000034   0.001844  -0.000120
    35  N   -0.003238  -0.004381   0.000008  -0.000093   0.278391   0.302242
    36  H    0.005523  -0.003608   0.005671  -0.000090   0.006661  -0.006659
    37  H    0.563534  -0.031137   0.005258  -0.003562   0.002656  -0.000225
    38  H   -0.031137   0.548005  -0.003693  -0.002757  -0.000304   0.002953
    39  H    0.005258  -0.003693   0.578977  -0.031372   0.000003  -0.000009
    40  H   -0.003562  -0.002757  -0.031372   0.553055   0.000002  -0.000002
    41  C    0.002656  -0.000304   0.000003   0.000002   5.054041  -0.064958
    42  C   -0.000225   0.002953  -0.000009  -0.000002  -0.064958   5.027840
    43  H    0.000773   0.000136  -0.000003   0.000014   0.374918  -0.004333
    44  H   -0.000088   0.000031  -0.000000  -0.000001   0.386303   0.005430
    45  H    0.000007  -0.000026   0.000000  -0.000000   0.385478  -0.004116
    46  H    0.000094   0.001992  -0.000005   0.000017  -0.005196   0.366763
    47  H   -0.000018  -0.000042  -0.000000  -0.000000  -0.002786   0.379993
    48  H    0.000047   0.000250   0.000007  -0.000001   0.005832   0.386381
              43         44         45         46         47         48
     1  C   -0.000000   0.000001   0.000000  -0.000000   0.000000  -0.000000
     2  C    0.000000  -0.000000  -0.000000   0.000000   0.000000  -0.000000
     3  C   -0.000000   0.000000  -0.000002  -0.000000  -0.000004   0.000000
     4  C   -0.000004   0.000037  -0.000089  -0.000007   0.000211   0.000036
     5  C   -0.000054   0.000327   0.000594  -0.000027   0.000127   0.000061
     6  C    0.000001  -0.000032   0.000045  -0.000000  -0.000001   0.000000
     7  H    0.000000   0.000000  -0.000000   0.000000   0.000000  -0.000000
     8  C   -0.000000   0.000000   0.000000  -0.000000  -0.000000  -0.000000
     9  H    0.000000  -0.000000  -0.000000   0.000000  -0.000000  -0.000000
    10  C    0.000008  -0.000014  -0.000057   0.000052   0.001264  -0.000056
    11  H    0.000456  -0.000606  -0.001375   0.000180  -0.000763  -0.000197
    12  N    0.000001  -0.000208  -0.000003   0.000000  -0.000000  -0.000000
    13  F    0.000000  -0.000000   0.000003   0.000000  -0.000021   0.000000
    14  F    0.000008  -0.000002   0.004334   0.000034   0.008883   0.000014
    15  F   -0.000000   0.000000  -0.000001   0.000079   0.001722   0.000377
    16  F   -0.000000  -0.000000  -0.000000  -0.000000  -0.000000   0.000000
    17  F    0.000000   0.000000  -0.000000  -0.000000  -0.000000   0.000000
    18  F    0.000000  -0.000000   0.000000   0.000000   0.000000  -0.000000
    19  H   -0.000000  -0.000002   0.000000  -0.000000   0.000000   0.000000
    20  C   -0.000018   0.002178   0.000006  -0.000000   0.000000  -0.000001
    21  S    0.000007   0.001231   0.000007   0.000000  -0.000000  -0.000000
    22  N    0.000267  -0.000755  -0.000109  -0.000002   0.000014  -0.000008
    23  H    0.000068  -0.000464  -0.000069   0.000041  -0.000034  -0.000070
    24  C   -0.000005  -0.000008   0.000000  -0.000002   0.000000   0.000001
    25  C    0.000004   0.000248  -0.000005   0.000004   0.000002  -0.000013
    26  C   -0.001682   0.005505   0.000136  -0.000391  -0.000123   0.000280
    27  C   -0.004650  -0.007986   0.005983  -0.007704   0.005246  -0.002209
    28  C    0.005769  -0.000750  -0.000201   0.005380  -0.000076  -0.001584
    29  C   -0.000144   0.000017   0.000001  -0.000225   0.000002  -0.000006
    30  H   -0.000002  -0.000009   0.000000   0.000000  -0.000000  -0.000000
    31  H   -0.000000   0.000000   0.000000  -0.000000  -0.000000  -0.000000
    32  H   -0.000001  -0.000005   0.000000   0.000000   0.000000  -0.000002
    33  H   -0.000001   0.000009  -0.000000  -0.000000  -0.000000   0.000000
    34  H   -0.000259   0.000597   0.000027  -0.000007   0.000004   0.000002
    35  N   -0.047107  -0.038631  -0.040955  -0.050084  -0.040430  -0.039982
    36  H   -0.000299   0.000010  -0.000121  -0.001205   0.000156   0.006904
    37  H    0.000773  -0.000088   0.000007   0.000094  -0.000018   0.000047
    38  H    0.000136   0.000031  -0.000026   0.001992  -0.000042   0.000250
    39  H   -0.000003  -0.000000   0.000000  -0.000005  -0.000000   0.000007
    40  H    0.000014  -0.000001  -0.000000   0.000017  -0.000000  -0.000001
    41  C    0.374918   0.386303   0.385478  -0.005196  -0.002786   0.005832
    42  C   -0.004333   0.005430  -0.004116   0.366763   0.379993   0.386381
    43  H    0.584013  -0.035210  -0.035791   0.010377  -0.001350  -0.000256
    44  H   -0.035210   0.525321  -0.022718  -0.000302   0.000135  -0.000191
    45  H   -0.035791  -0.022718   0.531153  -0.001702   0.005238   0.000143
    46  H    0.010377  -0.000302  -0.001702   0.613539  -0.037813  -0.036732
    47  H   -0.001350   0.000135   0.005238  -0.037813   0.530176  -0.022153
    48  H   -0.000256  -0.000191   0.000143  -0.036732  -0.022153   0.535822
 Mulliken charges:
               1
     1  C   -0.197374
     2  C   -0.086166
     3  C   -0.188092
     4  C   -0.094512
     5  C   -0.191985
     6  C    0.285281
     7  H    0.214146
     8  C    0.837082
     9  H    0.221434
    10  C    0.841443
    11  H    0.247015
    12  N   -0.736842
    13  F   -0.273295
    14  F   -0.274764
    15  F   -0.268936
    16  F   -0.267794
    17  F   -0.275603
    18  F   -0.276166
    19  H    0.394403
    20  C    0.375875
    21  S   -0.341920
    22  N   -0.609033
    23  H    0.376475
    24  C   -0.308911
    25  C   -0.285848
    26  C    0.007795
    27  C   -0.000134
    28  C   -0.315184
    29  C   -0.303804
    30  H    0.160758
    31  H    0.166062
    32  H    0.146425
    33  H    0.189975
    34  H    0.189038
    35  N   -0.453691
    36  H    0.145679
    37  H    0.158905
    38  H    0.166411
    39  H    0.151086
    40  H    0.164719
    41  C   -0.350820
    42  C   -0.330871
    43  H    0.154352
    44  H    0.180603
    45  H    0.174186
    46  H    0.142852
    47  H    0.172441
    48  H    0.167305
 Sum of Mulliken charges =  -0.00000
 Mulliken charges with hydrogens summed into heavy atoms:
               1
     1  C    0.016772
     2  C   -0.086166
     3  C    0.033342
     4  C   -0.094512
     5  C    0.055029
     6  C    0.285281
     8  C    0.837082
    10  C    0.841443
    12  N   -0.342439
    13  F   -0.273295
    14  F   -0.274764
    15  F   -0.268936
    16  F   -0.267794
    17  F   -0.275603
    18  F   -0.276166
    20  C    0.375875
    21  S   -0.341920
    22  N   -0.232557
    24  C    0.017909
    25  C    0.050552
    26  C    0.196833
    27  C    0.145545
    28  C    0.010132
    29  C    0.012002
    35  N   -0.453691
    41  C    0.158322
    42  C    0.151726
 Electronic spatial extent (au):  <R**2>=          12553.2646
 Charge=              0.0000 electrons
 Dipole moment (field-independent basis, Debye):
    X=              0.9990    Y=              3.0665    Z=              2.0953  Tot=              3.8460
 Quadrupole moment (field-independent basis, Debye-Ang):
   XX=           -163.9127   YY=           -176.5313   ZZ=           -167.0305
   XY=             13.3847   XZ=              9.1640   YZ=             -5.9906
 Traceless Quadrupole moment (field-independent basis, Debye-Ang):
   XX=              5.2455   YY=             -7.3731   ZZ=              2.1277
   XY=             13.3847   XZ=              9.1640   YZ=             -5.9906
 Octapole moment (field-independent basis, Debye-Ang**2):
  XXX=            -17.9861  YYY=             80.0684  ZZZ=             19.2693  XYY=            -78.5404
  XXY=             54.6411  XXZ=             11.0278  XZZ=            -38.4460  YZZ=             29.9695
  YYZ=             25.5081  XYZ=            -25.6106
 Hexadecapole moment (field-independent basis, Debye-Ang**3):
 XXXX=         -10731.7264 YYYY=          -3930.9954 ZZZZ=          -1019.7535 XXXY=            -19.9406
 XXXZ=             38.3377 YYYX=            240.7572 YYYZ=           -106.3458 ZZZX=            -31.7950
 ZZZY=            -69.9118 XXYY=          -2449.5919 XXZZ=          -1957.1537 YYZZ=           -832.2316
 XXYZ=            -31.6895 YYXZ=             39.4319 ZZXY=             38.3810
 N-N= 2.916370524796D+03 E-N=-1.011531895199D+04  KE= 1.809392350886D+03
 Unable to Open any file for archive entry.
 1\1\GINC-NODE-003\FOpt\RM062X\6-31G(d)\C17H21F6N3S1\JP2658\09-Dec-2023
 \0\\# m062x 6-31g(d) scrf=(iefpcm,solvent=benzene) opt=(maxcycles=50,m
 axstep=10)\\Structure1\\0,1\C,-0.8035003522,-6.5637636502,-3.671253001
 5\C,0.5454546453,-6.3803248077,-3.9311278236\C,1.0441549797,-5.1411159
 915,-4.3267741366\C,0.1521349768,-4.0853576372,-4.439779341\C,-1.20400
 95796,-4.2339278623,-4.1624133583\C,-1.6944629297,-5.4884015493,-3.786
 8032345\H,-1.1734066095,-7.539678837,-3.3728337826\C,1.4859968763,-7.5
 515924873,-3.8506313871\H,2.1007317486,-5.0046041186,-4.5268185974\C,0
 .6291119793,-2.7344594478,-4.8953027367\H,-1.8563833865,-3.3675726487,
 -4.2395482351\N,-3.0378394156,-5.7125824134,-3.447846371\F,1.953017523
 8,-2.5971528418,-4.7650625241\F,0.0466760654,-1.7456774676,-4.19581787
 65\F,0.3301335647,-2.5209619185,-6.1865176336\F,1.6781286929,-8.105717
 8128,-5.0569391286\F,2.6896336715,-7.1811790073,-3.3939791599\F,1.0193
 218549,-8.5124376022,-3.043067697\H,-3.216047687,-6.3866174354,-2.7139
 02395\C,-4.1649278585,-5.0247236945,-3.8347985645\S,-5.5675126873,-5.1
 591129778,-2.912629265\N,-4.0648921352,-4.2971415734,-4.9520756855\H,-
 3.1902503909,-4.2991547565,-5.4643465678\C,-7.1812851182,-2.9929515732
 ,-6.7317477113\C,-6.1400018279,-4.0251079242,-6.2945006308\C,-5.068296
 9863,-3.3560061437,-5.4292377355\C,-4.3654079182,-2.2364434715,-6.2114
 532496\C,-5.4147647892,-1.1857106204,-6.6114441589\C,-6.5218116985,-1.
 8202501917,-7.4606831355\H,-7.7078999162,-2.6196283015,-5.8431875617\H
 ,-7.9338160562,-3.4662995074,-7.3703877894\H,-5.6578632131,-4.47322961
 13,-7.174061087\H,-6.6022777829,-4.8326531047,-5.7195163583\H,-5.56182
 81731,-2.9393327858,-4.543057836\N,-3.1803229672,-1.7462623722,-5.4978
 109641\H,-3.9789796362,-2.6850226701,-7.141774232\H,-5.8546368946,-0.7
 449751627,-5.7068352034\H,-4.9363316453,-0.3725731614,-7.1672032827\H,
 -6.0865888333,-2.1803671544,-8.403011225\H,-7.2690942971,-1.0651977699
 ,-7.7256718975\C,-3.4609804917,-1.1554981145,-4.1951028126\C,-2.382398
 1634,-0.8403648548,-6.3124734837\H,-4.0670600696,-0.2364432093,-4.2516
 541547\H,-3.9755356337,-1.8746115364,-3.5498567041\H,-2.5082366727,-0.
 9023299939,-3.7199293232\H,-2.8764915146,0.1271497604,-6.4990142895\H,
 -1.4350994776,-0.6442566771,-5.8059129682\H,-2.1629537702,-1.310075309
 7,-7.2763037026\\Version=ES64L-G16RevC.01\State=1-A\HF=-1821.4235635\R
 MSD=7.029e-09\RMSF=5.435e-06\Dipole=0.3502722,0.8313457,-1.214795\Quad
 rupole=-8.4767334,5.501933,2.9748004,-4.9034981,10.3496322,-1.5860348\
 PG=C01 [X(C17H21F6N3S1)]\\@
 The archive entry for this job was punched.


 IF I HAVE SEEN FARTHER, IT IS BY STANDING ON THE
 SHOULDERS OF GIANTS. -- SIR ISAAC NEWTON
 Job cpu time:       0 days  4 hours 27 minutes 43.7 seconds.
 Elapsed time:       0 days  0 hours 22 minutes 54.5 seconds.
 File lengths (MBytes):  RWF=    327 Int=      0 D2E=      0 Chk=     20 Scr=      1
 Normal termination of Gaussian 16 at Sat Dec  9 23:48:42 2023.
