Unloading slurm/anatra/current
  ERROR: No such file or directory on
    '/cm/local/modulefiles/slurm/anatra/current'
environment: line 0: unalias: gv: not found
environment: line 0: unalias: sl: not found
 Entering Gaussian System, Link 0=g16
 Initial command:
 /apps/gaussian/g16/C.01/g16/l1.exe "/local/jobs/1149480/Gau-316806.inp" -scrdir="/local/jobs/1149480/"
 Entering Link 1 = /apps/gaussian/g16/C.01/g16/l1.exe PID=    316809.
  
 Copyright (c) 1988-2019, Gaussian, Inc.  All Rights Reserved.
  
 This is part of the Gaussian(R) 16 program.  It is based on
 the Gaussian(R) 09 system (copyright 2009, Gaussian, Inc.),
 the Gaussian(R) 03 system (copyright 2003, Gaussian, Inc.),
 the Gaussian(R) 98 system (copyright 1998, Gaussian, Inc.),
 the Gaussian(R) 94 system (copyright 1995, Gaussian, Inc.),
 the Gaussian 92(TM) system (copyright 1992, Gaussian, Inc.),
 the Gaussian 90(TM) system (copyright 1990, Gaussian, Inc.),
 the Gaussian 88(TM) system (copyright 1988, Gaussian, Inc.),
 the Gaussian 86(TM) system (copyright 1986, Carnegie Mellon
 University), and the Gaussian 82(TM) system (copyright 1983,
 Carnegie Mellon University). Gaussian is a federally registered
 trademark of Gaussian, Inc.
  
 This software contains proprietary and confidential information,
 including trade secrets, belonging to Gaussian, Inc.
  
 This software is provided under written license and may be
 used, copied, transmitted, or stored only in accord with that
 written license.
  
 The following legend is applicable only to US Government
 contracts under FAR:
  
                    RESTRICTED RIGHTS LEGEND
  
 Use, reproduction and disclosure by the US Government is
 subject to restrictions as set forth in subparagraphs (a)
 and (c) of the Commercial Computer Software - Restricted
 Rights clause in FAR 52.227-19.
  
 Gaussian, Inc.
 340 Quinnipiac St., Bldg. 40, Wallingford CT 06492
  
  
 ---------------------------------------------------------------
 Warning -- This program may not be used in any manner that
 competes with the business of Gaussian, Inc. or will provide
 assistance to any competitor of Gaussian, Inc.  The licensee
 of this program is prohibited from giving any competitor of
 Gaussian, Inc. access to this program.  By using this program,
 the user acknowledges that Gaussian, Inc. is engaged in the
 business of creating and licensing software in the field of
 computational chemistry and represents and warrants to the
 licensee that it is not a competitor of Gaussian, Inc. and that
 it will not use this program in any manner prohibited above.
 ---------------------------------------------------------------
  

 Cite this work as:
 Gaussian 16, Revision C.01,
 M. J. Frisch, G. W. Trucks, H. B. Schlegel, G. E. Scuseria, 
 M. A. Robb, J. R. Cheeseman, G. Scalmani, V. Barone, 
 G. A. Petersson, H. Nakatsuji, X. Li, M. Caricato, A. V. Marenich, 
 J. Bloino, B. G. Janesko, R. Gomperts, B. Mennucci, H. P. Hratchian, 
 J. V. Ortiz, A. F. Izmaylov, J. L. Sonnenberg, D. Williams-Young, 
 F. Ding, F. Lipparini, F. Egidi, J. Goings, B. Peng, A. Petrone, 
 T. Henderson, D. Ranasinghe, V. G. Zakrzewski, J. Gao, N. Rega, 
 G. Zheng, W. Liang, M. Hada, M. Ehara, K. Toyota, R. Fukuda, 
 J. Hasegawa, M. Ishida, T. Nakajima, Y. Honda, O. Kitao, H. Nakai, 
 T. Vreven, K. Throssell, J. A. Montgomery, Jr., J. E. Peralta, 
 F. Ogliaro, M. J. Bearpark, J. J. Heyd, E. N. Brothers, K. N. Kudin, 
 V. N. Staroverov, T. A. Keith, R. Kobayashi, J. Normand, 
 K. Raghavachari, A. P. Rendell, J. C. Burant, S. S. Iyengar, 
 J. Tomasi, M. Cossi, J. M. Millam, M. Klene, C. Adamo, R. Cammi, 
 J. W. Ochterski, R. L. Martin, K. Morokuma, O. Farkas, 
 J. B. Foresman, and D. J. Fox, Gaussian, Inc., Wallingford CT, 2019.
 
 ******************************************
 Gaussian 16:  ES64L-G16RevC.01  3-Jul-2019
                11-Dec-2023 
 ******************************************
 %chk=antilla_OPLS3e_1_opt_freq.chk
 %nprocshared=12
 Will use up to   12 processors via shared memory.
 %mem=48GB
 ----------------------------------------------------------------------
 # m062x 6-31g(d) scrf=(iefpcm,solvent=benzene) opt=(maxcycles=50,maxst
 ep=10) freq=noraman
 ----------------------------------------------------------------------
 1/6=50,8=10,18=20,19=15,26=3,38=1/1,3;
 2/9=110,12=2,17=6,18=5,40=1/2;
 3/5=1,6=6,7=1,11=2,25=1,30=1,70=2201,71=1,72=12,74=-55/1,2,3;
 4//1;
 5/5=2,38=5,53=12/2;
 6/7=2,8=2,9=2,10=2,28=1/1;
 7//1,2,3,16;
 1/6=50,8=10,18=20,19=15,26=3/3(2);
 2/9=110/2;
 99//99;
 2/9=110/2;
 3/5=1,6=6,7=1,11=2,25=1,30=1,70=2205,71=1,72=12,74=-55/1,2,3;
 4/5=5,16=3,69=1/1;
 5/5=2,38=5,53=12/2;
 7//1,2,3,16;
 1/6=50,8=10,18=20,19=15,26=3/3(-5);
 2/9=110/2;
 6/7=2,8=2,9=2,10=2,19=2,28=1/1;
 99/9=1/99;
 ----------
 Structure3
 ----------
 Symbolic Z-matrix:
 Charge =  0 Multiplicity = 1
 C                    -2.2847   -2.4195   -2.256 
 C                    -1.4184   -3.5056   -2.2177 
 C                    -0.1841   -3.3741   -1.5494 
 C                     0.1252   -2.1764   -0.8617 
 H                    -3.2387   -2.5248   -2.7519 
 O                     1.294    -2.1513   -0.1483 
 C                     1.2044   -5.122    -0.3419 
 C                     0.808    -4.5177   -1.5597 
 C                     1.3343   -4.9783   -2.7832 
 C                     2.1695   -6.0883   -2.7825 
 O                     0.6885   -4.5819    0.8061 
 H                     2.5771   -6.4405   -3.7189 
 C                    -0.7441   -1.0247   -0.9402 
 C                    -1.9776   -1.1911   -1.6425 
 C                    -2.9085   -0.1366   -1.7134 
 C                    -2.6521    1.0805   -1.1105 
 H                    -3.8413   -0.2849   -2.2384 
 H                    -3.3838    1.8734   -1.1696 
 C                     2.5293   -6.7575   -1.5987 
 C                     2.0574   -6.2905   -0.3322 
 C                     3.756    -8.5676   -0.5432 
 C                     3.3707   -7.8837   -1.6802 
 H                     4.4028   -9.4289   -0.628 
 H                     3.7216   -8.2174   -2.6461 
 C                    -1.441     1.3063   -0.4335 
 C                    -0.4611    0.2615   -0.3533 
 C                     0.7677    0.5937    0.3086 
 C                     0.9801    1.8473    0.875 
 C                     0.0038    2.8277    0.8083 
 C                    -1.1953    2.5712    0.1585 
 H                     1.5904   -0.0908    0.3802 
 H                     1.9192    2.0616    1.3655 
 H                     0.1834    3.7968    1.2518 
 H                    -1.9476    3.3443    0.0956 
 C                     2.4614   -7.0097    0.8511 
 C                     3.3175   -8.1549    0.7264 
 C                     3.7286   -8.8772    1.8754 
 C                     3.3109   -8.4912    3.141 
 C                     2.483    -7.3911    3.2917 
 C                     2.0611   -6.6621    2.1836 
 H                     4.3754   -9.7352    1.7627 
 H                     3.632    -9.0459    4.011 
 H                     2.1644   -7.0939    4.2806 
 H                     1.4245   -5.8274    2.3982 
 C                    -2.8333   -7.1615   -3.9649 
 C                    -2.8457   -5.9872   -4.7131 
 C                    -2.3832   -4.8033   -4.1437 
 C                    -1.8989   -4.7835   -2.8295 
 C                    -1.9063   -5.9718   -2.0884 
 C                    -2.3657   -7.1586   -2.6532 
 H                    -3.1902   -8.0821   -4.4039 
 H                    -3.2065   -5.9935   -5.7312 
 H                    -2.3743   -3.8977   -4.7333 
 H                    -1.5498   -5.9725   -1.0677 
 H                    -2.359    -8.0701   -2.0731 
 C                     0.7064   -3.0343   -6.5578 
 C                     1.142    -2.2925   -5.4628 
 C                     1.3441   -2.925    -4.239 
 C                     1.1032   -4.297    -4.095 
 C                     0.6756   -5.0289   -5.2101 
 C                     0.4734   -4.4018   -6.4372 
 H                     0.5497   -2.5445   -7.5081 
 H                     1.325    -1.232    -5.5589 
 H                     1.6886   -2.3469   -3.3929 
 H                     0.4741   -6.0863   -5.1139 
 H                     0.133    -4.9739   -7.2879 
 P                     1.291    -3.1172    1.1559 
 O                     0.1271   -2.4781    2.0611 
 O                     2.5756   -3.1412    1.8974 
 H                     0.5181   -2.0825    2.8573 
 

 GradGradGradGradGradGradGradGradGradGradGradGradGradGradGradGradGradGrad
 Berny optimization.
 Initialization pass.
                           ----------------------------
                           !    Initial Parameters    !
                           ! (Angstroms and Degrees)  !
 --------------------------                            --------------------------
 ! Name  Definition              Value          Derivative Info.                !
 --------------------------------------------------------------------------------
 ! R1    R(1,2)                  1.3898         estimate D2E/DX2                !
 ! R2    R(1,5)                  1.0803         estimate D2E/DX2                !
 ! R3    R(1,14)                 1.407          estimate D2E/DX2                !
 ! R4    R(2,3)                  1.4098         estimate D2E/DX2                !
 ! R5    R(2,48)                 1.4961         estimate D2E/DX2                !
 ! R6    R(3,4)                  1.4153         estimate D2E/DX2                !
 ! R7    R(3,8)                  1.514          estimate D2E/DX2                !
 ! R8    R(4,6)                  1.3695         estimate D2E/DX2                !
 ! R9    R(4,13)                 1.4451         estimate D2E/DX2                !
 ! R10   R(6,67)                 1.6229         estimate D2E/DX2                !
 ! R11   R(7,8)                  1.4161         estimate D2E/DX2                !
 ! R12   R(7,11)                 1.3696         estimate D2E/DX2                !
 ! R13   R(7,20)                 1.4468         estimate D2E/DX2                !
 ! R14   R(8,9)                  1.4093         estimate D2E/DX2                !
 ! R15   R(9,10)                 1.3891         estimate D2E/DX2                !
 ! R16   R(9,59)                 1.4961         estimate D2E/DX2                !
 ! R17   R(10,12)                1.0803         estimate D2E/DX2                !
 ! R18   R(10,19)                1.4067         estimate D2E/DX2                !
 ! R19   R(11,67)                1.6219         estimate D2E/DX2                !
 ! R20   R(13,14)                1.4291         estimate D2E/DX2                !
 ! R21   R(13,26)                1.4418         estimate D2E/DX2                !
 ! R22   R(14,15)                1.4084         estimate D2E/DX2                !
 ! R23   R(15,16)                1.3822         estimate D2E/DX2                !
 ! R24   R(15,17)                1.0806         estimate D2E/DX2                !
 ! R25   R(16,18)                1.0805         estimate D2E/DX2                !
 ! R26   R(16,25)                1.4057         estimate D2E/DX2                !
 ! R27   R(19,20)                1.43           estimate D2E/DX2                !
 ! R28   R(19,22)                1.4082         estimate D2E/DX2                !
 ! R29   R(20,35)                1.4425         estimate D2E/DX2                !
 ! R30   R(21,22)                1.3816         estimate D2E/DX2                !
 ! R31   R(21,23)                1.0805         estimate D2E/DX2                !
 ! R32   R(21,36)                1.4052         estimate D2E/DX2                !
 ! R33   R(22,24)                1.0805         estimate D2E/DX2                !
 ! R34   R(25,26)                1.4347         estimate D2E/DX2                !
 ! R35   R(25,30)                1.418          estimate D2E/DX2                !
 ! R36   R(26,27)                1.4347         estimate D2E/DX2                !
 ! R37   R(27,28)                1.3919         estimate D2E/DX2                !
 ! R38   R(27,31)                1.0726         estimate D2E/DX2                !
 ! R39   R(28,29)                1.3852         estimate D2E/DX2                !
 ! R40   R(28,32)                1.0809         estimate D2E/DX2                !
 ! R41   R(29,30)                1.3878         estimate D2E/DX2                !
 ! R42   R(29,33)                1.0808         estimate D2E/DX2                !
 ! R43   R(30,34)                1.0806         estimate D2E/DX2                !
 ! R44   R(35,36)                1.4352         estimate D2E/DX2                !
 ! R45   R(35,40)                1.4341         estimate D2E/DX2                !
 ! R46   R(36,37)                1.4181         estimate D2E/DX2                !
 ! R47   R(37,38)                1.3875         estimate D2E/DX2                !
 ! R48   R(37,41)                1.0804         estimate D2E/DX2                !
 ! R49   R(38,39)                1.385          estimate D2E/DX2                !
 ! R50   R(38,42)                1.0806         estimate D2E/DX2                !
 ! R51   R(39,40)                1.3919         estimate D2E/DX2                !
 ! R52   R(39,43)                1.0806         estimate D2E/DX2                !
 ! R53   R(40,44)                1.0715         estimate D2E/DX2                !
 ! R54   R(45,46)                1.3925         estimate D2E/DX2                !
 ! R55   R(45,50)                1.3926         estimate D2E/DX2                !
 ! R56   R(45,51)                1.0806         estimate D2E/DX2                !
 ! R57   R(46,47)                1.3927         estimate D2E/DX2                !
 ! R58   R(46,52)                1.0802         estimate D2E/DX2                !
 ! R59   R(47,48)                1.4007         estimate D2E/DX2                !
 ! R60   R(47,53)                1.0807         estimate D2E/DX2                !
 ! R61   R(48,49)                1.4005         estimate D2E/DX2                !
 ! R62   R(49,50)                1.3923         estimate D2E/DX2                !
 ! R63   R(49,54)                1.0812         estimate D2E/DX2                !
 ! R64   R(50,55)                1.0805         estimate D2E/DX2                !
 ! R65   R(56,57)                1.3925         estimate D2E/DX2                !
 ! R66   R(56,61)                1.3924         estimate D2E/DX2                !
 ! R67   R(56,62)                1.0805         estimate D2E/DX2                !
 ! R68   R(57,58)                1.3923         estimate D2E/DX2                !
 ! R69   R(57,63)                1.0805         estimate D2E/DX2                !
 ! R70   R(58,59)                1.4004         estimate D2E/DX2                !
 ! R71   R(58,64)                1.0811         estimate D2E/DX2                !
 ! R72   R(59,60)                1.4007         estimate D2E/DX2                !
 ! R73   R(60,61)                1.3928         estimate D2E/DX2                !
 ! R74   R(60,65)                1.0807         estimate D2E/DX2                !
 ! R75   R(61,66)                1.0802         estimate D2E/DX2                !
 ! R76   R(67,68)                1.607          estimate D2E/DX2                !
 ! R77   R(67,69)                1.4834         estimate D2E/DX2                !
 ! R78   R(68,70)                0.9712         estimate D2E/DX2                !
 ! A1    A(2,1,5)              119.1379         estimate D2E/DX2                !
 ! A2    A(2,1,14)             122.2904         estimate D2E/DX2                !
 ! A3    A(5,1,14)             118.5541         estimate D2E/DX2                !
 ! A4    A(1,2,3)              119.0725         estimate D2E/DX2                !
 ! A5    A(1,2,48)             117.1326         estimate D2E/DX2                !
 ! A6    A(3,2,48)             123.6927         estimate D2E/DX2                !
 ! A7    A(2,3,4)              120.0411         estimate D2E/DX2                !
 ! A8    A(2,3,8)              120.003          estimate D2E/DX2                !
 ! A9    A(4,3,8)              119.9547         estimate D2E/DX2                !
 ! A10   A(3,4,6)              117.0729         estimate D2E/DX2                !
 ! A11   A(3,4,13)             121.1034         estimate D2E/DX2                !
 ! A12   A(6,4,13)             121.8078         estimate D2E/DX2                !
 ! A13   A(4,6,67)             113.961          estimate D2E/DX2                !
 ! A14   A(8,7,11)             116.5581         estimate D2E/DX2                !
 ! A15   A(8,7,20)             121.0288         estimate D2E/DX2                !
 ! A16   A(11,7,20)            122.3424         estimate D2E/DX2                !
 ! A17   A(3,8,7)              119.9943         estimate D2E/DX2                !
 ! A18   A(3,8,9)              119.8344         estimate D2E/DX2                !
 ! A19   A(7,8,9)              120.1713         estimate D2E/DX2                !
 ! A20   A(8,9,10)             119.0293         estimate D2E/DX2                !
 ! A21   A(8,9,59)             123.6894         estimate D2E/DX2                !
 ! A22   A(10,9,59)            117.2058         estimate D2E/DX2                !
 ! A23   A(9,10,12)            119.139          estimate D2E/DX2                !
 ! A24   A(9,10,19)            122.3006         estimate D2E/DX2                !
 ! A25   A(12,10,19)           118.5462         estimate D2E/DX2                !
 ! A26   A(7,11,67)            113.3888         estimate D2E/DX2                !
 ! A27   A(4,13,14)            116.9433         estimate D2E/DX2                !
 ! A28   A(4,13,26)            124.8041         estimate D2E/DX2                !
 ! A29   A(14,13,26)           118.2493         estimate D2E/DX2                !
 ! A30   A(1,14,13)            120.2858         estimate D2E/DX2                !
 ! A31   A(1,14,15)            119.1742         estimate D2E/DX2                !
 ! A32   A(13,14,15)           120.5338         estimate D2E/DX2                !
 ! A33   A(14,15,16)           120.9782         estimate D2E/DX2                !
 ! A34   A(14,15,17)           119.4891         estimate D2E/DX2                !
 ! A35   A(16,15,17)           119.5297         estimate D2E/DX2                !
 ! A36   A(15,16,18)           119.7797         estimate D2E/DX2                !
 ! A37   A(15,16,25)           120.7516         estimate D2E/DX2                !
 ! A38   A(18,16,25)           119.464          estimate D2E/DX2                !
 ! A39   A(10,19,20)           120.3706         estimate D2E/DX2                !
 ! A40   A(10,19,22)           118.9868         estimate D2E/DX2                !
 ! A41   A(20,19,22)           120.6395         estimate D2E/DX2                !
 ! A42   A(7,20,19)            116.898          estimate D2E/DX2                !
 ! A43   A(7,20,35)            124.9831         estimate D2E/DX2                !
 ! A44   A(19,20,35)           118.1189         estimate D2E/DX2                !
 ! A45   A(22,21,23)           119.7979         estimate D2E/DX2                !
 ! A46   A(22,21,36)           120.7394         estimate D2E/DX2                !
 ! A47   A(23,21,36)           119.4626         estimate D2E/DX2                !
 ! A48   A(19,22,21)           120.9892         estimate D2E/DX2                !
 ! A49   A(19,22,24)           119.5242         estimate D2E/DX2                !
 ! A50   A(21,22,24)           119.4866         estimate D2E/DX2                !
 ! A51   A(16,25,26)           119.8939         estimate D2E/DX2                !
 ! A52   A(16,25,30)           119.5788         estimate D2E/DX2                !
 ! A53   A(26,25,30)           120.5261         estimate D2E/DX2                !
 ! A54   A(13,26,25)           119.5271         estimate D2E/DX2                !
 ! A55   A(13,26,27)           124.2256         estimate D2E/DX2                !
 ! A56   A(25,26,27)           116.2415         estimate D2E/DX2                !
 ! A57   A(26,27,28)           121.8002         estimate D2E/DX2                !
 ! A58   A(26,27,31)           122.6805         estimate D2E/DX2                !
 ! A59   A(28,27,31)           115.5019         estimate D2E/DX2                !
 ! A60   A(27,28,29)           120.6831         estimate D2E/DX2                !
 ! A61   A(27,28,32)           119.7209         estimate D2E/DX2                !
 ! A62   A(29,28,32)           119.5943         estimate D2E/DX2                !
 ! A63   A(28,29,30)           120.0477         estimate D2E/DX2                !
 ! A64   A(28,29,33)           119.8509         estimate D2E/DX2                !
 ! A65   A(30,29,33)           120.0963         estimate D2E/DX2                !
 ! A66   A(25,30,29)           120.6682         estimate D2E/DX2                !
 ! A67   A(25,30,34)           119.5558         estimate D2E/DX2                !
 ! A68   A(29,30,34)           119.7744         estimate D2E/DX2                !
 ! A69   A(20,35,36)           119.579          estimate D2E/DX2                !
 ! A70   A(20,35,40)           124.2771         estimate D2E/DX2                !
 ! A71   A(36,35,40)           116.1438         estimate D2E/DX2                !
 ! A72   A(21,36,35)           119.9332         estimate D2E/DX2                !
 ! A73   A(21,36,37)           119.4734         estimate D2E/DX2                !
 ! A74   A(35,36,37)           120.5934         estimate D2E/DX2                !
 ! A75   A(36,37,38)           120.6697         estimate D2E/DX2                !
 ! A76   A(36,37,41)           119.5741         estimate D2E/DX2                !
 ! A77   A(38,37,41)           119.7561         estimate D2E/DX2                !
 ! A78   A(37,38,39)           120.01           estimate D2E/DX2                !
 ! A79   A(37,38,42)           120.1394         estimate D2E/DX2                !
 ! A80   A(39,38,42)           119.8505         estimate D2E/DX2                !
 ! A81   A(38,39,40)           120.7014         estimate D2E/DX2                !
 ! A82   A(38,39,43)           119.62           estimate D2E/DX2                !
 ! A83   A(40,39,43)           119.6782         estimate D2E/DX2                !
 ! A84   A(35,40,39)           121.8814         estimate D2E/DX2                !
 ! A85   A(35,40,44)           122.7357         estimate D2E/DX2                !
 ! A86   A(39,40,44)           115.3825         estimate D2E/DX2                !
 ! A87   A(46,45,50)           120.488          estimate D2E/DX2                !
 ! A88   A(46,45,51)           119.8182         estimate D2E/DX2                !
 ! A89   A(50,45,51)           119.6938         estimate D2E/DX2                !
 ! A90   A(45,46,47)           119.6195         estimate D2E/DX2                !
 ! A91   A(45,46,52)           120.2987         estimate D2E/DX2                !
 ! A92   A(47,46,52)           120.081          estimate D2E/DX2                !
 ! A93   A(46,47,48)           120.6909         estimate D2E/DX2                !
 ! A94   A(46,47,53)           119.4738         estimate D2E/DX2                !
 ! A95   A(48,47,53)           119.8146         estimate D2E/DX2                !
 ! A96   A(2,48,47)            120.4506         estimate D2E/DX2                !
 ! A97   A(2,48,49)            120.6678         estimate D2E/DX2                !
 ! A98   A(47,48,49)           118.8595         estimate D2E/DX2                !
 ! A99   A(48,49,50)           120.686          estimate D2E/DX2                !
 ! A100  A(48,49,54)           119.8934         estimate D2E/DX2                !
 ! A101  A(50,49,54)           119.4204         estimate D2E/DX2                !
 ! A102  A(45,50,49)           119.648          estimate D2E/DX2                !
 ! A103  A(45,50,55)           120.4012         estimate D2E/DX2                !
 ! A104  A(49,50,55)           119.9507         estimate D2E/DX2                !
 ! A105  A(57,56,61)           120.4914         estimate D2E/DX2                !
 ! A106  A(57,56,62)           119.7011         estimate D2E/DX2                !
 ! A107  A(61,56,62)           119.8074         estimate D2E/DX2                !
 ! A108  A(56,57,58)           119.6424         estimate D2E/DX2                !
 ! A109  A(56,57,63)           120.3921         estimate D2E/DX2                !
 ! A110  A(58,57,63)           119.9654         estimate D2E/DX2                !
 ! A111  A(57,58,59)           120.6951         estimate D2E/DX2                !
 ! A112  A(57,58,64)           119.422          estimate D2E/DX2                !
 ! A113  A(59,58,64)           119.8828         estimate D2E/DX2                !
 ! A114  A(9,59,58)            120.6455         estimate D2E/DX2                !
 ! A115  A(9,59,60)            120.4794         estimate D2E/DX2                !
 ! A116  A(58,59,60)           118.8538         estimate D2E/DX2                !
 ! A117  A(59,60,61)           120.6933         estimate D2E/DX2                !
 ! A118  A(59,60,65)           119.8217         estimate D2E/DX2                !
 ! A119  A(61,60,65)           119.4645         estimate D2E/DX2                !
 ! A120  A(56,61,60)           119.6164         estimate D2E/DX2                !
 ! A121  A(56,61,66)           120.3083         estimate D2E/DX2                !
 ! A122  A(60,61,66)           120.0745         estimate D2E/DX2                !
 ! A123  A(6,67,11)            111.3973         estimate D2E/DX2                !
 ! A124  A(6,67,68)            102.5508         estimate D2E/DX2                !
 ! A125  A(6,67,69)            114.1868         estimate D2E/DX2                !
 ! A126  A(11,67,68)           102.2149         estimate D2E/DX2                !
 ! A127  A(11,67,69)           114.5109         estimate D2E/DX2                !
 ! A128  A(68,67,69)           110.6133         estimate D2E/DX2                !
 ! A129  A(67,68,70)           109.401          estimate D2E/DX2                !
 ! D1    D(5,1,2,3)           -178.8667         estimate D2E/DX2                !
 ! D2    D(5,1,2,48)            -2.4061         estimate D2E/DX2                !
 ! D3    D(14,1,2,3)            -0.4155         estimate D2E/DX2                !
 ! D4    D(14,1,2,48)          176.0451         estimate D2E/DX2                !
 ! D5    D(2,1,14,13)           -0.4265         estimate D2E/DX2                !
 ! D6    D(2,1,14,15)         -179.5225         estimate D2E/DX2                !
 ! D7    D(5,1,14,13)          178.0334         estimate D2E/DX2                !
 ! D8    D(5,1,14,15)           -1.0626         estimate D2E/DX2                !
 ! D9    D(1,2,3,4)              3.7552         estimate D2E/DX2                !
 ! D10   D(1,2,3,8)           -176.6279         estimate D2E/DX2                !
 ! D11   D(48,2,3,4)          -172.4586         estimate D2E/DX2                !
 ! D12   D(48,2,3,8)             7.1583         estimate D2E/DX2                !
 ! D13   D(1,2,48,47)           53.0248         estimate D2E/DX2                !
 ! D14   D(1,2,48,49)         -125.2464         estimate D2E/DX2                !
 ! D15   D(3,2,48,47)         -130.6935         estimate D2E/DX2                !
 ! D16   D(3,2,48,49)           51.0353         estimate D2E/DX2                !
 ! D17   D(2,3,4,6)            175.1068         estimate D2E/DX2                !
 ! D18   D(2,3,4,13)            -6.3183         estimate D2E/DX2                !
 ! D19   D(8,3,4,6)             -4.5102         estimate D2E/DX2                !
 ! D20   D(8,3,4,13)           174.0647         estimate D2E/DX2                !
 ! D21   D(2,3,8,7)           -118.9434         estimate D2E/DX2                !
 ! D22   D(2,3,8,9)             61.0312         estimate D2E/DX2                !
 ! D23   D(4,3,8,7)             60.6738         estimate D2E/DX2                !
 ! D24   D(4,3,8,9)           -119.3516         estimate D2E/DX2                !
 ! D25   D(3,4,6,67)           -68.4854         estimate D2E/DX2                !
 ! D26   D(13,4,6,67)          112.9505         estimate D2E/DX2                !
 ! D27   D(3,4,13,14)            5.3234         estimate D2E/DX2                !
 ! D28   D(3,4,13,26)         -175.3434         estimate D2E/DX2                !
 ! D29   D(6,4,13,14)         -176.1698         estimate D2E/DX2                !
 ! D30   D(6,4,13,26)            3.1634         estimate D2E/DX2                !
 ! D31   D(4,6,67,11)           45.7154         estimate D2E/DX2                !
 ! D32   D(4,6,67,68)          -62.9499         estimate D2E/DX2                !
 ! D33   D(4,6,67,69)          177.3555         estimate D2E/DX2                !
 ! D34   D(11,7,8,3)            -2.542          estimate D2E/DX2                !
 ! D35   D(11,7,8,9)           177.4834         estimate D2E/DX2                !
 ! D36   D(20,7,8,3)           174.4697         estimate D2E/DX2                !
 ! D37   D(20,7,8,9)            -5.5048         estimate D2E/DX2                !
 ! D38   D(8,7,11,67)          -70.548          estimate D2E/DX2                !
 ! D39   D(20,7,11,67)         112.4829         estimate D2E/DX2                !
 ! D40   D(8,7,20,19)            3.0526         estimate D2E/DX2                !
 ! D41   D(8,7,20,35)         -176.9624         estimate D2E/DX2                !
 ! D42   D(11,7,20,19)         179.8887         estimate D2E/DX2                !
 ! D43   D(11,7,20,35)          -0.1263         estimate D2E/DX2                !
 ! D44   D(3,8,9,10)          -175.4947         estimate D2E/DX2                !
 ! D45   D(3,8,9,59)             7.7557         estimate D2E/DX2                !
 ! D46   D(7,8,9,10)             4.4799         estimate D2E/DX2                !
 ! D47   D(7,8,9,59)          -172.2698         estimate D2E/DX2                !
 ! D48   D(8,9,10,12)         -179.7572         estimate D2E/DX2                !
 ! D49   D(8,9,10,19)           -1.1499         estimate D2E/DX2                !
 ! D50   D(59,9,10,12)          -2.7979         estimate D2E/DX2                !
 ! D51   D(59,9,10,19)         175.8094         estimate D2E/DX2                !
 ! D52   D(8,9,59,58)           51.1102         estimate D2E/DX2                !
 ! D53   D(8,9,59,60)         -130.5907         estimate D2E/DX2                !
 ! D54   D(10,9,59,58)        -125.6943         estimate D2E/DX2                !
 ! D55   D(10,9,59,60)          52.6048         estimate D2E/DX2                !
 ! D56   D(9,10,19,20)          -1.2317         estimate D2E/DX2                !
 ! D57   D(9,10,19,22)         179.409          estimate D2E/DX2                !
 ! D58   D(12,10,19,20)        177.3836         estimate D2E/DX2                !
 ! D59   D(12,10,19,22)         -1.9757         estimate D2E/DX2                !
 ! D60   D(7,11,67,6)           46.8533         estimate D2E/DX2                !
 ! D61   D(7,11,67,68)         155.7355         estimate D2E/DX2                !
 ! D62   D(7,11,67,69)         -84.6214         estimate D2E/DX2                !
 ! D63   D(4,13,14,1)           -1.9698         estimate D2E/DX2                !
 ! D64   D(4,13,14,15)         177.1138         estimate D2E/DX2                !
 ! D65   D(26,13,14,1)         178.6518         estimate D2E/DX2                !
 ! D66   D(26,13,14,15)         -2.2646         estimate D2E/DX2                !
 ! D67   D(4,13,26,25)        -176.3587         estimate D2E/DX2                !
 ! D68   D(4,13,26,27)           4.5489         estimate D2E/DX2                !
 ! D69   D(14,13,26,25)          2.9665         estimate D2E/DX2                !
 ! D70   D(14,13,26,27)       -176.1259         estimate D2E/DX2                !
 ! D71   D(1,14,15,16)         179.2212         estimate D2E/DX2                !
 ! D72   D(1,14,15,17)          -0.1476         estimate D2E/DX2                !
 ! D73   D(13,14,15,16)          0.1276         estimate D2E/DX2                !
 ! D74   D(13,14,15,17)       -179.2413         estimate D2E/DX2                !
 ! D75   D(14,15,16,18)       -179.4586         estimate D2E/DX2                !
 ! D76   D(14,15,16,25)          1.3361         estimate D2E/DX2                !
 ! D77   D(17,15,16,18)         -0.09           estimate D2E/DX2                !
 ! D78   D(17,15,16,25)       -179.2953         estimate D2E/DX2                !
 ! D79   D(15,16,25,26)         -0.5816         estimate D2E/DX2                !
 ! D80   D(15,16,25,30)        179.035          estimate D2E/DX2                !
 ! D81   D(18,16,25,26)       -179.7894         estimate D2E/DX2                !
 ! D82   D(18,16,25,30)         -0.1728         estimate D2E/DX2                !
 ! D83   D(10,19,20,7)           0.2743         estimate D2E/DX2                !
 ! D84   D(10,19,20,35)       -179.7118         estimate D2E/DX2                !
 ! D85   D(22,19,20,7)         179.6229         estimate D2E/DX2                !
 ! D86   D(22,19,20,35)         -0.3632         estimate D2E/DX2                !
 ! D87   D(10,19,22,21)        179.6391         estimate D2E/DX2                !
 ! D88   D(10,19,22,24)         -0.2703         estimate D2E/DX2                !
 ! D89   D(20,19,22,21)          0.2816         estimate D2E/DX2                !
 ! D90   D(20,19,22,24)       -179.6278         estimate D2E/DX2                !
 ! D91   D(7,20,35,36)        -179.7668         estimate D2E/DX2                !
 ! D92   D(7,20,35,40)           0.3616         estimate D2E/DX2                !
 ! D93   D(19,20,35,36)          0.218          estimate D2E/DX2                !
 ! D94   D(19,20,35,40)       -179.6536         estimate D2E/DX2                !
 ! D95   D(23,21,22,19)       -179.9544         estimate D2E/DX2                !
 ! D96   D(23,21,22,24)         -0.045          estimate D2E/DX2                !
 ! D97   D(36,21,22,19)         -0.0427         estimate D2E/DX2                !
 ! D98   D(36,21,22,24)        179.8667         estimate D2E/DX2                !
 ! D99   D(22,21,36,35)         -0.1019         estimate D2E/DX2                !
 ! D100  D(22,21,36,37)        179.9519         estimate D2E/DX2                !
 ! D101  D(23,21,36,35)        179.8101         estimate D2E/DX2                !
 ! D102  D(23,21,36,37)         -0.1361         estimate D2E/DX2                !
 ! D103  D(16,25,26,13)         -1.5969         estimate D2E/DX2                !
 ! D104  D(16,25,26,27)        177.5663         estimate D2E/DX2                !
 ! D105  D(30,25,26,13)        178.7901         estimate D2E/DX2                !
 ! D106  D(30,25,26,27)         -2.0466         estimate D2E/DX2                !
 ! D107  D(16,25,30,29)       -178.66           estimate D2E/DX2                !
 ! D108  D(16,25,30,34)          0.8825         estimate D2E/DX2                !
 ! D109  D(26,25,30,29)          0.9542         estimate D2E/DX2                !
 ! D110  D(26,25,30,34)       -179.5033         estimate D2E/DX2                !
 ! D111  D(13,26,27,28)       -179.0578         estimate D2E/DX2                !
 ! D112  D(13,26,27,31)          2.5288         estimate D2E/DX2                !
 ! D113  D(25,26,27,28)          1.8227         estimate D2E/DX2                !
 ! D114  D(25,26,27,31)       -176.5906         estimate D2E/DX2                !
 ! D115  D(26,27,28,29)         -0.4581         estimate D2E/DX2                !
 ! D116  D(26,27,28,32)       -179.9791         estimate D2E/DX2                !
 ! D117  D(31,27,28,29)        178.0623         estimate D2E/DX2                !
 ! D118  D(31,27,28,32)         -1.4587         estimate D2E/DX2                !
 ! D119  D(27,28,29,30)         -0.7557         estimate D2E/DX2                !
 ! D120  D(27,28,29,33)       -179.9351         estimate D2E/DX2                !
 ! D121  D(32,28,29,30)        178.766          estimate D2E/DX2                !
 ! D122  D(32,28,29,33)         -0.4135         estimate D2E/DX2                !
 ! D123  D(28,29,30,25)          0.5029         estimate D2E/DX2                !
 ! D124  D(28,29,30,34)       -179.0387         estimate D2E/DX2                !
 ! D125  D(33,29,30,25)        179.6803         estimate D2E/DX2                !
 ! D126  D(33,29,30,34)          0.1387         estimate D2E/DX2                !
 ! D127  D(20,35,36,21)          0.0097         estimate D2E/DX2                !
 ! D128  D(20,35,36,37)        179.9554         estimate D2E/DX2                !
 ! D129  D(40,35,36,21)        179.8915         estimate D2E/DX2                !
 ! D130  D(40,35,36,37)         -0.1628         estimate D2E/DX2                !
 ! D131  D(20,35,40,39)       -179.9005         estimate D2E/DX2                !
 ! D132  D(20,35,40,44)         -0.1654         estimate D2E/DX2                !
 ! D133  D(36,35,40,39)          0.2239         estimate D2E/DX2                !
 ! D134  D(36,35,40,44)        179.9589         estimate D2E/DX2                !
 ! D135  D(21,36,37,38)        179.9734         estimate D2E/DX2                !
 ! D136  D(21,36,37,41)          0.1111         estimate D2E/DX2                !
 ! D137  D(35,36,37,38)          0.0275         estimate D2E/DX2                !
 ! D138  D(35,36,37,41)       -179.8349         estimate D2E/DX2                !
 ! D139  D(36,37,38,39)          0.0594         estimate D2E/DX2                !
 ! D140  D(36,37,38,42)       -179.7991         estimate D2E/DX2                !
 ! D141  D(41,37,38,39)        179.9215         estimate D2E/DX2                !
 ! D142  D(41,37,38,42)          0.063          estimate D2E/DX2                !
 ! D143  D(37,38,39,40)         -0.0005         estimate D2E/DX2                !
 ! D144  D(37,38,39,43)       -179.7788         estimate D2E/DX2                !
 ! D145  D(42,38,39,40)        179.8584         estimate D2E/DX2                !
 ! D146  D(42,38,39,43)          0.08           estimate D2E/DX2                !
 ! D147  D(38,39,40,35)         -0.1477         estimate D2E/DX2                !
 ! D148  D(38,39,40,44)       -179.901          estimate D2E/DX2                !
 ! D149  D(43,39,40,35)        179.6305         estimate D2E/DX2                !
 ! D150  D(43,39,40,44)         -0.1228         estimate D2E/DX2                !
 ! D151  D(50,45,46,47)          0.1638         estimate D2E/DX2                !
 ! D152  D(50,45,46,52)        179.8292         estimate D2E/DX2                !
 ! D153  D(51,45,46,47)       -179.9217         estimate D2E/DX2                !
 ! D154  D(51,45,46,52)         -0.2564         estimate D2E/DX2                !
 ! D155  D(46,45,50,49)         -0.0726         estimate D2E/DX2                !
 ! D156  D(46,45,50,55)        179.8473         estimate D2E/DX2                !
 ! D157  D(51,45,50,49)       -179.9871         estimate D2E/DX2                !
 ! D158  D(51,45,50,55)         -0.0672         estimate D2E/DX2                !
 ! D159  D(45,46,47,48)          0.3682         estimate D2E/DX2                !
 ! D160  D(45,46,47,53)        178.7093         estimate D2E/DX2                !
 ! D161  D(52,46,47,48)       -179.2979         estimate D2E/DX2                !
 ! D162  D(52,46,47,53)         -0.9568         estimate D2E/DX2                !
 ! D163  D(46,47,48,2)        -179.2762         estimate D2E/DX2                !
 ! D164  D(46,47,48,49)         -0.974          estimate D2E/DX2                !
 ! D165  D(53,47,48,2)           2.3884         estimate D2E/DX2                !
 ! D166  D(53,47,48,49)       -179.3095         estimate D2E/DX2                !
 ! D167  D(2,48,49,50)         179.3648         estimate D2E/DX2                !
 ! D168  D(2,48,49,54)          -0.8109         estimate D2E/DX2                !
 ! D169  D(47,48,49,50)          1.0665         estimate D2E/DX2                !
 ! D170  D(47,48,49,54)       -179.1093         estimate D2E/DX2                !
 ! D171  D(48,49,50,45)         -0.5522         estimate D2E/DX2                !
 ! D172  D(48,49,50,55)        179.5275         estimate D2E/DX2                !
 ! D173  D(54,49,50,45)        179.6227         estimate D2E/DX2                !
 ! D174  D(54,49,50,55)         -0.2976         estimate D2E/DX2                !
 ! D175  D(61,56,57,58)         -0.0615         estimate D2E/DX2                !
 ! D176  D(61,56,57,63)        179.8252         estimate D2E/DX2                !
 ! D177  D(62,56,57,58)       -179.9712         estimate D2E/DX2                !
 ! D178  D(62,56,57,63)         -0.0846         estimate D2E/DX2                !
 ! D179  D(57,56,61,60)          0.1435         estimate D2E/DX2                !
 ! D180  D(57,56,61,66)        179.8367         estimate D2E/DX2                !
 ! D181  D(62,56,61,60)       -179.9468         estimate D2E/DX2                !
 ! D182  D(62,56,61,66)         -0.2536         estimate D2E/DX2                !
 ! D183  D(56,57,58,59)         -0.5372         estimate D2E/DX2                !
 ! D184  D(56,57,58,64)        179.598          estimate D2E/DX2                !
 ! D185  D(63,57,58,59)        179.5756         estimate D2E/DX2                !
 ! D186  D(63,57,58,64)         -0.2892         estimate D2E/DX2                !
 ! D187  D(57,58,59,9)         179.3615         estimate D2E/DX2                !
 ! D188  D(57,58,59,60)          1.0351         estimate D2E/DX2                !
 ! D189  D(64,58,59,9)          -0.7743         estimate D2E/DX2                !
 ! D190  D(64,58,59,60)       -179.1007         estimate D2E/DX2                !
 ! D191  D(9,59,60,61)        -179.2812         estimate D2E/DX2                !
 ! D192  D(9,59,60,65)           2.3763         estimate D2E/DX2                !
 ! D193  D(58,59,60,61)         -0.9519         estimate D2E/DX2                !
 ! D194  D(58,59,60,65)       -179.2945         estimate D2E/DX2                !
 ! D195  D(59,60,61,56)          0.3717         estimate D2E/DX2                !
 ! D196  D(59,60,61,66)       -179.3222         estimate D2E/DX2                !
 ! D197  D(65,60,61,56)        178.7201         estimate D2E/DX2                !
 ! D198  D(65,60,61,66)         -0.9738         estimate D2E/DX2                !
 ! D199  D(6,67,68,70)        -111.9021         estimate D2E/DX2                !
 ! D200  D(11,67,68,70)        132.5913         estimate D2E/DX2                !
 ! D201  D(69,67,68,70)         10.2516         estimate D2E/DX2                !
 --------------------------------------------------------------------------------
 Trust Radius=1.00D-01 FncErr=1.00D-07 GrdErr=1.00D-06 EigMax=2.50D+02 EigMin=1.00D-04
 Number of steps in this run=     50 maximum allowed number of steps=    420.
 GradGradGradGradGradGradGradGradGradGradGradGradGradGradGradGradGradGrad

 Stoichiometry    C40H25O4P
 Framework group  C1[X(C40H25O4P)]
 Deg. of freedom   204
 Full point group                 C1      NOp   1
 Largest Abelian subgroup         C1      NOp   1
 Largest concise Abelian subgroup C1      NOp   1
                         Standard orientation:                         
 ---------------------------------------------------------------------
 Center     Atomic      Atomic             Coordinates (Angstroms)
 Number     Number       Type             X           Y           Z
 ---------------------------------------------------------------------
      1          6           0        2.480148    1.505422    1.465781
      2          6           0        1.148208    1.478815    1.069820
      3          6           0        0.700394    0.428987    0.242331
      4          6           0        1.581523   -0.621363   -0.109035
      5          1           0        2.820195    2.299213    2.114922
      6          8           0        1.056134   -1.661094   -0.829167
      7          6           0       -1.592661   -0.646355    0.078991
      8          6           0       -0.726395    0.420079   -0.264011
      9          6           0       -1.188808    1.475079   -1.075951
     10          6           0       -2.525490    1.499280   -1.453251
     11          8           0       -1.051788   -1.658340    0.826726
     12          1           0       -2.880969    2.305036   -2.078886
     13          6           0        2.979776   -0.575358    0.252945
     14          6           0        3.399953    0.514414    1.076525
     15          6           0        4.732474    0.600561    1.524342
     16          6           0        5.663063   -0.360928    1.177782
     17          1           0        5.028927    1.425295    2.156531
     18          1           0        6.678102   -0.280367    1.539410
     19          6           0       -3.432231    0.493416   -1.072822
     20          6           0       -2.990797   -0.620247   -0.291994
     21          6           0       -5.699062   -0.373915   -1.140268
     22          6           0       -4.775211    0.594177   -1.484131
     23          1           0       -6.724462   -0.277671   -1.466873
     24          1           0       -5.087896    1.440383   -2.078784
     25          6           0        5.309104   -1.436608    0.344892
     26          6           0        3.965173   -1.550099   -0.144201
     27          6           0        3.703376   -2.647053   -1.031089
     28          6           0        4.689170   -3.570907   -1.365963
     29          6           0        5.971184   -3.453238   -0.854702
     30          6           0        6.288884   -2.397733   -0.011583
     31          1           0        2.750207   -2.798738   -1.499025
     32          1           0        4.455029   -4.384592   -2.037914
     33          1           0        6.726527   -4.177645   -1.124505
     34          1           0        7.294367   -2.301487    0.372260
     35          6           0       -3.960233   -1.626729    0.065569
     36          6           0       -5.320528   -1.486680   -0.370233
     37          6           0       -6.291006   -2.463716   -0.031862
     38          6           0       -5.944368   -3.572509    0.726842
     39          6           0       -4.639596   -3.733113    1.162873
     40          6           0       -3.664229   -2.791232    0.848472
     41          1           0       -7.309702   -2.343186   -0.370899
     42          1           0       -6.690113   -4.313445    0.976995
     43          1           0       -4.375784   -4.600874    1.750368
     44          1           0       -2.684234   -3.000790    1.227593
     45          6           0       -1.405185    4.523852    2.690989
     46          6           0       -0.230367    4.883151    2.035516
     47          6           0        0.594356    3.892385    1.508299
     48          6           0        0.250363    2.539480    1.623958
     49          6           0       -0.928595    2.196996    2.297831
     50          6           0       -1.757775    3.183369    2.825155
     51          1           0       -2.048051    5.289960    3.100139
     52          1           0        0.038780    5.923985    1.930785
     53          1           0        1.494855    4.174704    0.981786
     54          1           0       -1.202801    1.157155    2.409467
     55          1           0       -2.668454    2.906045    3.336182
     56          6           0        1.327657    4.561285   -2.677117
     57          6           0        1.690046    3.225561   -2.830593
     58          6           0        0.872710    2.226048   -2.309514
     59          6           0       -0.304056    2.550373   -1.623083
     60          6           0       -0.657861    3.898880   -1.487744
     61          6           0        0.155025    4.902878   -2.008433
     62          1           0        1.961012    5.337712   -3.081532
     63          1           0        2.598870    2.962211   -3.352197
     64          1           0        1.154136    1.189968   -2.436412
     65          1           0       -1.556688    4.167449   -0.951150
     66          1           0       -0.121912    5.940110   -1.888780
     67         15           0        0.003736   -2.574024    0.003255
     68          8           0        0.918648   -3.178225    1.178148
     69          8           0       -0.615114   -3.664259   -0.789845
     70          1           0        1.022190   -4.134959    1.046793
 ---------------------------------------------------------------------
 Rotational constants (GHZ):           0.0958226           0.0669202           0.0478903
 Standard basis: 6-31G(d) (6D, 7F)
 There are   729 symmetry adapted cartesian basis functions of A   symmetry.
 There are   729 symmetry adapted basis functions of A   symmetry.
   729 basis functions,  1384 primitive gaussians,   729 cartesian basis functions
   156 alpha electrons      156 beta electrons
       nuclear repulsion energy      5576.5856824107 Hartrees.
 NAtoms=   70 NActive=   70 NUniq=   70 SFac= 1.00D+00 NAtFMM=   60 NAOKFM=T Big=T
 Integral buffers will be    131072 words long.
 Raffenetti 2 integral format.
 Two-electron integral symmetry is turned on.
 ------------------------------------------------------------------------------
 Polarizable Continuum Model (PCM)
 =================================
 Model                : PCM.
 Atomic radii         : UFF (Universal Force Field).
 Polarization charges : Total charges.
 Charge compensation  : None.
 Solution method      : On-the-fly selection.
 Cavity type          : Scaled VdW (van der Waals Surface) (Alpha=1.100).
 Cavity algorithm     : GePol (No added spheres)
                        Default sphere list used, NSphG=   70.
                        Lebedev-Laikov grids with approx.  5.0 points / Ang**2.
                        Smoothing algorithm: York/Karplus (Gamma=1.0000).
                        Polarization charges: spherical gaussians, with
                                              point-specific exponents (IZeta= 3).
                        Self-potential: point-specific (ISelfS= 7).
                        Self-field    : sphere-specific E.n sum rule (ISelfD= 2).
 1st derivatives      : Analytical E(r).r(x)/FMM algorithm (CHGder, D1EAlg=3).
                        Cavity 1st derivative terms included.
 Solvent              : Benzene, Eps=   2.270600 Eps(inf)=   2.253301
 ------------------------------------------------------------------------------
 One-electron integrals computed using PRISM.
 NBasis=   729 RedAO= T EigKep=  1.61D-04  NBF=   729
 NBsUse=   729 1.00D-06 EigRej= -1.00D+00 NBFU=   729
 ExpMin= 9.98D-02 ExpMax= 1.94D+04 ExpMxC= 2.91D+03 IAcc=3 IRadAn=         5 AccDes= 0.00D+00
 Harris functional with IExCor= 1009 and IRadAn=       5 diagonalized for initial guess.
 HarFok:  IExCor= 1009 AccDes= 0.00D+00 IRadAn=         5 IDoV= 1 UseB2=F ITyADJ=14
 ICtDFT=  3500011 ScaDFX=  1.000000  1.000000  1.000000  1.000000
 FoFCou: FMM=F IPFlag=           0 FMFlag=      100000 FMFlg1=        2001
         NFxFlg=           0 DoJE=T BraDBF=F KetDBF=T FulRan=T
         wScrn=  0.000000 ICntrl=       500 IOpCl=  0 I1Cent=   200000004 NGrid=           0
         NMat0=    1 NMatS0=      1 NMatT0=    0 NMatD0=    1 NMtDS0=    0 NMtDT0=    0
 Petite list used in FoFCou.
 Requested convergence on RMS density matrix=1.00D-08 within 128 cycles.
 Requested convergence on MAX density matrix=1.00D-06.
 Requested convergence on             energy=1.00D-06.
 No special actions if energy rises.
 Inv3:  Mode=1 IEnd=    71238387.
 Iteration    1 A*A^-1 deviation from unit magnitude is 3.44D-15 for   3178.
 Iteration    1 A*A^-1 deviation from orthogonality  is 2.33D-15 for   3803   1554.
 Iteration    1 A^-1*A deviation from unit magnitude is 3.44D-15 for   3178.
 Iteration    1 A^-1*A deviation from orthogonality  is 2.44D-15 for   2651   1992.
 Error on total polarization charges =  0.00718
 SCF Done:  E(RM062X) =  -2180.94042199     A.U. after   14 cycles
            NFock= 14  Conv=0.66D-08     -V/T= 2.0080

 **********************************************************************

            Population analysis using the SCF Density.

 **********************************************************************

 Orbital symmetries:
       Occupied  (A) (A) (A) (A) (A) (A) (A) (A) (A) (A) (A) (A)
                 (A) (A) (A) (A) (A) (A) (A) (A) (A) (A) (A) (A)
                 (A) (A) (A) (A) (A) (A) (A) (A) (A) (A) (A) (A)
                 (A) (A) (A) (A) (A) (A) (A) (A) (A) (A) (A) (A)
                 (A) (A) (A) (A) (A) (A) (A) (A) (A) (A) (A) (A)
                 (A) (A) (A) (A) (A) (A) (A) (A) (A) (A) (A) (A)
                 (A) (A) (A) (A) (A) (A) (A) (A) (A) (A) (A) (A)
                 (A) (A) (A) (A) (A) (A) (A) (A) (A) (A) (A) (A)
                 (A) (A) (A) (A) (A) (A) (A) (A) (A) (A) (A) (A)
                 (A) (A) (A) (A) (A) (A) (A) (A) (A) (A) (A) (A)
                 (A) (A) (A) (A) (A) (A) (A) (A) (A) (A) (A) (A)
                 (A) (A) (A) (A) (A) (A) (A) (A) (A) (A) (A) (A)
                 (A) (A) (A) (A) (A) (A) (A) (A) (A) (A) (A) (A)
       Virtual   (A) (A) (A) (A) (A) (A) (A) (A) (A) (A) (A) (A)
                 (A) (A) (A) (A) (A) (A) (A) (A) (A) (A) (A) (A)
                 (A) (A) (A) (A) (A) (A) (A) (A) (A) (A) (A) (A)
                 (A) (A) (A) (A) (A) (A) (A) (A) (A) (A) (A) (A)
                 (A) (A) (A) (A) (A) (A) (A) (A) (A) (A) (A) (A)
                 (A) (A) (A) (A) (A) (A) (A) (A) (A) (A) (A) (A)
                 (A) (A) (A) (A) (A) (A) (A) (A) (A) (A) (A) (A)
                 (A) (A) (A) (A) (A) (A) (A) (A) (A) (A) (A) (A)
                 (A) (A) (A) (A) (A) (A) (A) (A) (A) (A) (A) (A)
                 (A) (A) (A) (A) (A) (A) (A) (A) (A) (A) (A) (A)
                 (A) (A) (A) (A) (A) (A) (A) (A) (A) (A) (A) (A)
                 (A) (A) (A) (A) (A) (A) (A) (A) (A) (A) (A) (A)
                 (A) (A) (A) (A) (A) (A) (A) (A) (A) (A) (A) (A)
                 (A) (A) (A) (A) (A) (A) (A) (A) (A) (A) (A) (A)
                 (A) (A) (A) (A) (A) (A) (A) (A) (A) (A) (A) (A)
                 (A) (A) (A) (A) (A) (A) (A) (A) (A) (A) (A) (A)
                 (A) (A) (A) (A) (A) (A) (A) (A) (A) (A) (A) (A)
                 (A) (A) (A) (A) (A) (A) (A) (A) (A) (A) (A) (A)
                 (A) (A) (A) (A) (A) (A) (A) (A) (A) (A) (A) (A)
                 (A) (A) (A) (A) (A) (A) (A) (A) (A) (A) (A) (A)
                 (A) (A) (A) (A) (A) (A) (A) (A) (A) (A) (A) (A)
                 (A) (A) (A) (A) (A) (A) (A) (A) (A) (A) (A) (A)
                 (A) (A) (A) (A) (A) (A) (A) (A) (A) (A) (A) (A)
                 (A) (A) (A) (A) (A) (A) (A) (A) (A) (A) (A) (A)
                 (A) (A) (A) (A) (A) (A) (A) (A) (A) (A) (A) (A)
                 (A) (A) (A) (A) (A) (A) (A) (A) (A) (A) (A) (A)
                 (A) (A) (A) (A) (A) (A) (A) (A) (A) (A) (A) (A)
                 (A) (A) (A) (A) (A) (A) (A) (A) (A) (A) (A) (A)
                 (A) (A) (A) (A) (A) (A) (A) (A) (A) (A) (A) (A)
                 (A) (A) (A) (A) (A) (A) (A) (A) (A) (A) (A) (A)
                 (A) (A) (A) (A) (A) (A) (A) (A) (A) (A) (A) (A)
                 (A) (A) (A) (A) (A) (A) (A) (A) (A) (A) (A) (A)
                 (A) (A) (A) (A) (A) (A) (A) (A) (A) (A) (A) (A)
                 (A) (A) (A) (A) (A) (A) (A) (A) (A) (A) (A) (A)
                 (A) (A) (A) (A) (A) (A) (A) (A) (A) (A) (A) (A)
                 (A) (A) (A) (A) (A) (A) (A) (A) (A) (A) (A) (A)
                 (A) (A) (A) (A) (A) (A) (A) (A) (A) (A) (A) (A)
                 (A) (A) (A) (A) (A) (A) (A) (A) (A) (A) (A) (A)
                 (A) (A) (A) (A) (A) (A) (A) (A) (A) (A) (A) (A)
                 (A) (A) (A) (A) (A) (A) (A) (A) (A) (A) (A) (A)
                 (A) (A) (A) (A) (A) (A) (A) (A) (A) (A) (A) (A)
                 (A) (A) (A) (A) (A) (A) (A) (A) (A) (A) (A) (A)
                 (A) (A) (A) (A) (A) (A) (A) (A) (A) (A) (A) (A)
                 (A) (A) (A) (A) (A) (A) (A) (A) (A) (A) (A) (A)
                 (A) (A) (A) (A) (A) (A) (A) (A) (A) (A) (A) (A)
                 (A) (A) (A) (A) (A) (A) (A) (A) (A) (A) (A) (A)
                 (A) (A) (A) (A) (A) (A) (A) (A) (A) (A) (A) (A)
                 (A) (A) (A) (A) (A) (A) (A) (A) (A)
 The electronic state is 1-A.
 Alpha  occ. eigenvalues --  -78.23791 -19.71751 -19.71589 -19.68706 -19.61705
 Alpha  occ. eigenvalues --  -10.64129 -10.64085 -10.58344 -10.58297 -10.58287
 Alpha  occ. eigenvalues --  -10.58263 -10.57537 -10.57482 -10.57391 -10.57302
 Alpha  occ. eigenvalues --  -10.57158 -10.57051 -10.56615 -10.56387 -10.56376
 Alpha  occ. eigenvalues --  -10.56350 -10.55934 -10.55919 -10.55848 -10.55843
 Alpha  occ. eigenvalues --  -10.55752 -10.55661 -10.55656 -10.55430 -10.55365
 Alpha  occ. eigenvalues --  -10.55292 -10.55211 -10.55188 -10.55179 -10.55161
 Alpha  occ. eigenvalues --  -10.55153 -10.55105 -10.55102 -10.55075 -10.55041
 Alpha  occ. eigenvalues --  -10.55012 -10.55008 -10.54988 -10.54958 -10.54827
 Alpha  occ. eigenvalues --   -7.01797  -5.13587  -5.13546  -5.13407  -1.26542
 Alpha  occ. eigenvalues --   -1.21780  -1.18066  -1.09249  -1.00097  -0.99376
 Alpha  occ. eigenvalues --   -0.97683  -0.96594  -0.95367  -0.94949  -0.92587
 Alpha  occ. eigenvalues --   -0.91041  -0.88855  -0.88466  -0.87589  -0.85681
 Alpha  occ. eigenvalues --   -0.85375  -0.84611  -0.84233  -0.84045  -0.82275
 Alpha  occ. eigenvalues --   -0.81380  -0.80990  -0.80268  -0.77147  -0.73529
 Alpha  occ. eigenvalues --   -0.73230  -0.72276  -0.70882  -0.70417  -0.69469
 Alpha  occ. eigenvalues --   -0.68963  -0.68682  -0.68491  -0.67560  -0.67277
 Alpha  occ. eigenvalues --   -0.66822  -0.63822  -0.62771  -0.61948  -0.60772
 Alpha  occ. eigenvalues --   -0.60511  -0.59367  -0.58401  -0.58304  -0.58163
 Alpha  occ. eigenvalues --   -0.57303  -0.56666  -0.56248  -0.55649  -0.54915
 Alpha  occ. eigenvalues --   -0.54408  -0.53665  -0.53386  -0.53037  -0.51924
 Alpha  occ. eigenvalues --   -0.51679  -0.51586  -0.50942  -0.49889  -0.49821
 Alpha  occ. eigenvalues --   -0.49287  -0.49161  -0.48923  -0.48684  -0.48652
 Alpha  occ. eigenvalues --   -0.48335  -0.47762  -0.47544  -0.47145  -0.46529
 Alpha  occ. eigenvalues --   -0.46264  -0.45860  -0.45469  -0.45008  -0.44800
 Alpha  occ. eigenvalues --   -0.44365  -0.43817  -0.43570  -0.42857  -0.42660
 Alpha  occ. eigenvalues --   -0.42393  -0.42203  -0.40515  -0.40415  -0.40216
 Alpha  occ. eigenvalues --   -0.40152  -0.39636  -0.39305  -0.38658  -0.38443
 Alpha  occ. eigenvalues --   -0.37930  -0.37732  -0.37461  -0.37087  -0.34997
 Alpha  occ. eigenvalues --   -0.34706  -0.32665  -0.31866  -0.31293  -0.30344
 Alpha  occ. eigenvalues --   -0.30119  -0.29404  -0.26989  -0.26601  -0.26150
 Alpha  occ. eigenvalues --   -0.25352
 Alpha virt. eigenvalues --   -0.03273  -0.02382  -0.01439  -0.01334   0.02312
 Alpha virt. eigenvalues --    0.02482   0.03273   0.03678   0.04287   0.04590
 Alpha virt. eigenvalues --    0.06587   0.06920   0.07769   0.11050   0.12112
 Alpha virt. eigenvalues --    0.12401   0.13813   0.14099   0.14308   0.14471
 Alpha virt. eigenvalues --    0.14805   0.14973   0.16286   0.16693   0.17619
 Alpha virt. eigenvalues --    0.17799   0.18255   0.18489   0.19287   0.19553
 Alpha virt. eigenvalues --    0.19892   0.20408   0.20421   0.20592   0.20897
 Alpha virt. eigenvalues --    0.21245   0.21399   0.21614   0.22017   0.23095
 Alpha virt. eigenvalues --    0.23357   0.23579   0.23673   0.24071   0.24219
 Alpha virt. eigenvalues --    0.25253   0.25672   0.26094   0.26556   0.26981
 Alpha virt. eigenvalues --    0.27245   0.28558   0.28798   0.29323   0.29622
 Alpha virt. eigenvalues --    0.29971   0.30686   0.31480   0.32319   0.33403
 Alpha virt. eigenvalues --    0.33525   0.33708   0.34099   0.34530   0.34776
 Alpha virt. eigenvalues --    0.35056   0.35219   0.35770   0.36239   0.36316
 Alpha virt. eigenvalues --    0.36479   0.36813   0.37222   0.37648   0.39271
 Alpha virt. eigenvalues --    0.39342   0.39740   0.41158   0.41870   0.42568
 Alpha virt. eigenvalues --    0.42909   0.43365   0.44781   0.45232   0.46126
 Alpha virt. eigenvalues --    0.46426   0.48184   0.49432   0.50126   0.50743
 Alpha virt. eigenvalues --    0.52386   0.53116   0.53649   0.53833   0.54333
 Alpha virt. eigenvalues --    0.54845   0.54995   0.55315   0.55566   0.56002
 Alpha virt. eigenvalues --    0.56309   0.56619   0.56796   0.56865   0.57495
 Alpha virt. eigenvalues --    0.58003   0.58595   0.58829   0.59069   0.59211
 Alpha virt. eigenvalues --    0.59601   0.59870   0.60068   0.60621   0.60707
 Alpha virt. eigenvalues --    0.60949   0.61458   0.61562   0.61919   0.62402
 Alpha virt. eigenvalues --    0.62652   0.62776   0.63007   0.63278   0.63595
 Alpha virt. eigenvalues --    0.63768   0.64233   0.64671   0.64786   0.64879
 Alpha virt. eigenvalues --    0.65032   0.65110   0.65627   0.65858   0.65898
 Alpha virt. eigenvalues --    0.66061   0.66154   0.66416   0.66544   0.66625
 Alpha virt. eigenvalues --    0.66731   0.66845   0.66992   0.67222   0.67995
 Alpha virt. eigenvalues --    0.68193   0.68236   0.68553   0.69072   0.69339
 Alpha virt. eigenvalues --    0.69706   0.70006   0.70954   0.70997   0.71733
 Alpha virt. eigenvalues --    0.72156   0.72329   0.73013   0.73194   0.73539
 Alpha virt. eigenvalues --    0.74674   0.74895   0.76095   0.76482   0.77176
 Alpha virt. eigenvalues --    0.78440   0.78690   0.79372   0.79980   0.81418
 Alpha virt. eigenvalues --    0.82019   0.82921   0.83918   0.84994   0.85450
 Alpha virt. eigenvalues --    0.86038   0.86952   0.87133   0.87953   0.88163
 Alpha virt. eigenvalues --    0.88549   0.89043   0.89438   0.89722   0.89833
 Alpha virt. eigenvalues --    0.90267   0.90737   0.90811   0.90886   0.91349
 Alpha virt. eigenvalues --    0.91567   0.91806   0.91823   0.91973   0.92416
 Alpha virt. eigenvalues --    0.92643   0.92799   0.93071   0.93497   0.94053
 Alpha virt. eigenvalues --    0.94636   0.94764   0.95391   0.96312   0.96425
 Alpha virt. eigenvalues --    0.96881   0.97100   0.97233   0.97586   0.98149
 Alpha virt. eigenvalues --    0.98502   0.98928   0.99230   0.99670   1.00377
 Alpha virt. eigenvalues --    1.00486   1.00941   1.01220   1.01424   1.01887
 Alpha virt. eigenvalues --    1.02048   1.02959   1.03525   1.03991   1.04449
 Alpha virt. eigenvalues --    1.04681   1.05335   1.06042   1.06431   1.06777
 Alpha virt. eigenvalues --    1.07452   1.07648   1.08363   1.08767   1.08867
 Alpha virt. eigenvalues --    1.09323   1.09889   1.10569   1.11765   1.12697
 Alpha virt. eigenvalues --    1.13866   1.14105   1.15258   1.15827   1.16542
 Alpha virt. eigenvalues --    1.17274   1.17929   1.18519   1.18961   1.19079
 Alpha virt. eigenvalues --    1.20251   1.21031   1.21163   1.21877   1.22140
 Alpha virt. eigenvalues --    1.22441   1.23548   1.23948   1.24640   1.25645
 Alpha virt. eigenvalues --    1.26446   1.26919   1.27267   1.27506   1.27993
 Alpha virt. eigenvalues --    1.28959   1.29301   1.30259   1.30357   1.30590
 Alpha virt. eigenvalues --    1.31350   1.31615   1.32059   1.32865   1.33055
 Alpha virt. eigenvalues --    1.33768   1.34453   1.34737   1.35933   1.36848
 Alpha virt. eigenvalues --    1.39236   1.40094   1.40376   1.41461   1.42003
 Alpha virt. eigenvalues --    1.42734   1.43845   1.44552   1.44780   1.45377
 Alpha virt. eigenvalues --    1.45875   1.46752   1.47062   1.48415   1.48476
 Alpha virt. eigenvalues --    1.48716   1.49384   1.50009   1.50125   1.50330
 Alpha virt. eigenvalues --    1.50745   1.51145   1.51425   1.51515   1.52056
 Alpha virt. eigenvalues --    1.52360   1.53331   1.53574   1.54028   1.54233
 Alpha virt. eigenvalues --    1.54401   1.54531   1.54866   1.55084   1.55245
 Alpha virt. eigenvalues --    1.55436   1.55709   1.55938   1.56598   1.57044
 Alpha virt. eigenvalues --    1.57222   1.57806   1.58847   1.60221   1.60701
 Alpha virt. eigenvalues --    1.62363   1.64716   1.68308   1.69526   1.70500
 Alpha virt. eigenvalues --    1.72023   1.73486   1.74338   1.75278   1.75496
 Alpha virt. eigenvalues --    1.77097   1.77450   1.78302   1.78604   1.79509
 Alpha virt. eigenvalues --    1.80307   1.81038   1.81284   1.82668   1.82811
 Alpha virt. eigenvalues --    1.83722   1.84259   1.84426   1.84844   1.85594
 Alpha virt. eigenvalues --    1.86979   1.87141   1.87462   1.87890   1.88733
 Alpha virt. eigenvalues --    1.89050   1.89314   1.89842   1.90409   1.90653
 Alpha virt. eigenvalues --    1.91790   1.92052   1.92815   1.93579   1.93893
 Alpha virt. eigenvalues --    1.94678   1.95111   1.95696   1.96368   1.96913
 Alpha virt. eigenvalues --    1.97295   1.97776   1.98105   1.98347   1.98976
 Alpha virt. eigenvalues --    1.99529   2.00133   2.00275   2.01280   2.02289
 Alpha virt. eigenvalues --    2.02511   2.03660   2.03716   2.04003   2.04747
 Alpha virt. eigenvalues --    2.04805   2.05407   2.05679   2.06309   2.07697
 Alpha virt. eigenvalues --    2.07997   2.09598   2.09923   2.10339   2.10587
 Alpha virt. eigenvalues --    2.12190   2.13374   2.14500   2.15284   2.15799
 Alpha virt. eigenvalues --    2.16810   2.17260   2.17633   2.18103   2.18575
 Alpha virt. eigenvalues --    2.18982   2.19350   2.19846   2.20430   2.20671
 Alpha virt. eigenvalues --    2.21452   2.21814   2.22075   2.22694   2.23836
 Alpha virt. eigenvalues --    2.24196   2.24479   2.25156   2.25989   2.27044
 Alpha virt. eigenvalues --    2.27481   2.28166   2.29205   2.29395   2.30469
 Alpha virt. eigenvalues --    2.30950   2.31795   2.32424   2.33057   2.33428
 Alpha virt. eigenvalues --    2.33637   2.33964   2.34434   2.34766   2.35032
 Alpha virt. eigenvalues --    2.35316   2.35764   2.36519   2.36783   2.37684
 Alpha virt. eigenvalues --    2.38014   2.38580   2.38819   2.40232   2.40998
 Alpha virt. eigenvalues --    2.41923   2.42720   2.43908   2.44875   2.46184
 Alpha virt. eigenvalues --    2.46890   2.47169   2.49166   2.49566   2.52012
 Alpha virt. eigenvalues --    2.54111   2.55457   2.56710   2.57179   2.59438
 Alpha virt. eigenvalues --    2.60165   2.61100   2.62752   2.63141   2.63938
 Alpha virt. eigenvalues --    2.63996   2.64562   2.65272   2.65731   2.66646
 Alpha virt. eigenvalues --    2.66711   2.67507   2.68390   2.68532   2.68815
 Alpha virt. eigenvalues --    2.69157   2.69409   2.69726   2.71026   2.71920
 Alpha virt. eigenvalues --    2.72305   2.72726   2.74234   2.74549   2.75850
 Alpha virt. eigenvalues --    2.76299   2.77297   2.77774   2.78597   2.78908
 Alpha virt. eigenvalues --    2.79182   2.80768   2.81187   2.81549   2.83989
 Alpha virt. eigenvalues --    2.84472   2.85182   2.85902   2.86135   2.86954
 Alpha virt. eigenvalues --    2.87468   2.87620   2.88536   2.89405   2.91703
 Alpha virt. eigenvalues --    2.93855   2.93993   2.96142   2.97113   2.99898
 Alpha virt. eigenvalues --    3.01435   3.03831   3.04057   3.05837   3.08492
 Alpha virt. eigenvalues --    3.11625   3.14422   3.16836   3.20093   3.21620
 Alpha virt. eigenvalues --    3.31833   3.35841   3.40991   3.42058   3.43218
 Alpha virt. eigenvalues --    3.45483   3.50676   3.53336   3.55536   3.88001
 Alpha virt. eigenvalues --    3.94053   4.08850   4.10262   4.11098   4.11948
 Alpha virt. eigenvalues --    4.12329   4.13029   4.13149   4.13248   4.14047
 Alpha virt. eigenvalues --    4.14446   4.15125   4.15605   4.16513   4.16751
 Alpha virt. eigenvalues --    4.17328   4.19049   4.21999   4.25049   4.25894
 Alpha virt. eigenvalues --    4.27909   4.30993   4.32355   4.32620   4.36085
 Alpha virt. eigenvalues --    4.36653   4.40078   4.41904   4.42553   4.43992
 Alpha virt. eigenvalues --    4.45791   4.46360   4.48682   4.51581   4.56588
 Alpha virt. eigenvalues --    4.62048   4.68700   4.70779   4.76674   4.76783
 Alpha virt. eigenvalues --    4.80060   4.93046   4.98633
          Condensed to atoms (all electrons):
 Mulliken charges:
               1
     1  C   -0.260461
     2  C    0.057893
     3  C   -0.025826
     4  C    0.229409
     5  H    0.180625
     6  O   -0.616999
     7  C    0.229579
     8  C   -0.019659
     9  C    0.055760
    10  C   -0.261125
    11  O   -0.616946
    12  H    0.180734
    13  C    0.067026
    14  C    0.094755
    15  C   -0.216188
    16  C   -0.214207
    17  H    0.181102
    18  H    0.179390
    19  C    0.094419
    20  C    0.070104
    21  C   -0.214356
    22  C   -0.216613
    23  H    0.179002
    24  H    0.180339
    25  C    0.088087
    26  C    0.020758
    27  C   -0.220343
    28  C   -0.175204
    29  C   -0.168478
    30  C   -0.218337
    31  H    0.209905
    32  H    0.177131
    33  H    0.174155
    34  H    0.176438
    35  C    0.015761
    36  C    0.089696
    37  C   -0.218698
    38  C   -0.167649
    39  C   -0.173716
    40  C   -0.194090
    41  H    0.175045
    42  H    0.172961
    43  H    0.174363
    44  H    0.200501
    45  C   -0.170715
    46  C   -0.174977
    47  C   -0.172985
    48  C    0.022333
    49  C   -0.171496
    50  C   -0.173336
    51  H    0.169893
    52  H    0.172284
    53  H    0.173238
    54  H    0.174931
    55  H    0.176893
    56  C   -0.170741
    57  C   -0.173240
    58  C   -0.171818
    59  C    0.023248
    60  C   -0.173069
    61  C   -0.174969
    62  H    0.169674
    63  H    0.176672
    64  H    0.174770
    65  H    0.172995
    66  H    0.172091
    67  P    1.273197
    68  O   -0.684415
    69  O   -0.580451
    70  H    0.483951
 Sum of Mulliken charges =  -0.00000
 Mulliken charges with hydrogens summed into heavy atoms:
               1
     1  C   -0.079837
     2  C    0.057893
     3  C   -0.025826
     4  C    0.229409
     6  O   -0.616999
     7  C    0.229579
     8  C   -0.019659
     9  C    0.055760
    10  C   -0.080391
    11  O   -0.616946
    13  C    0.067026
    14  C    0.094755
    15  C   -0.035086
    16  C   -0.034817
    19  C    0.094419
    20  C    0.070104
    21  C   -0.035354
    22  C   -0.036274
    25  C    0.088087
    26  C    0.020758
    27  C   -0.010437
    28  C    0.001927
    29  C    0.005677
    30  C   -0.041899
    35  C    0.015761
    36  C    0.089696
    37  C   -0.043653
    38  C    0.005312
    39  C    0.000648
    40  C    0.006411
    45  C   -0.000821
    46  C   -0.002693
    47  C    0.000253
    48  C    0.022333
    49  C    0.003434
    50  C    0.003557
    56  C   -0.001067
    57  C    0.003432
    58  C    0.002952
    59  C    0.023248
    60  C   -0.000075
    61  C   -0.002878
    67  P    1.273197
    68  O   -0.200464
    69  O   -0.580451
 Electronic spatial extent (au):  <R**2>=          22909.9280
 Charge=             -0.0000 electrons
 Dipole moment (field-independent basis, Debye):
    X=              1.3268    Y=              2.8621    Z=              1.2858  Tot=              3.4066
 Quadrupole moment (field-independent basis, Debye-Ang):
   XX=           -219.0936   YY=           -235.4294   ZZ=           -263.4925
   XY=             -7.2466   XZ=             -0.0249   YZ=             -6.9703
 Traceless Quadrupole moment (field-independent basis, Debye-Ang):
   XX=             20.2449   YY=              3.9091   ZZ=            -24.1540
   XY=             -7.2466   XZ=             -0.0249   YZ=             -6.9703
 Octapole moment (field-independent basis, Debye-Ang**2):
  XXX=              1.0574  YYY=             14.1263  ZZZ=              1.1121  XYY=             31.8877
  XXY=            -69.3201  XXZ=              1.2501  XZZ=              5.3214  YZZ=             -0.7079
  YYZ=             37.6391  XYZ=             31.6712
 Hexadecapole moment (field-independent basis, Debye-Ang**3):
 XXXX=         -15024.2801 YYYY=          -9976.1288 ZZZZ=          -3443.7925 XXXY=            -24.1018
 XXXZ=            373.0292 YYYX=           -146.7228 YYYZ=           -180.2005 ZZZX=            -84.1012
 ZZZY=             -1.2227 XXYY=          -4236.6845 XXZZ=          -3386.6120 YYZZ=          -2327.2742
 XXYZ=              5.5798 YYXZ=           -269.1188 ZZXY=            -18.4983
 N-N= 5.576585682411D+03 E-N=-1.623652832936D+04  KE= 2.163721704308D+03
 D1PCM: PCM CHGder 1st derivatives, ID1Alg=3 FixD1E=F DoIter=F DoCFld=F I1PDM=0.
 Calling FoFJK, ICntrl=      2127 FMM=T ISym2X=0 I1Cent= 0 IOpClX= 0 NMat=1 NMatS=1 NMatT=0.
 ***** Axes restored to original set *****
 -------------------------------------------------------------------
 Center     Atomic                   Forces (Hartrees/Bohr)
 Number     Number              X              Y              Z
 -------------------------------------------------------------------
      1        6           0.011944262   -0.006185019    0.002958075
      2        6          -0.017844518    0.005141081   -0.006089762
      3        6           0.015381439    0.005211853    0.016143623
      4        6          -0.040381625   -0.005597232   -0.032641365
      5        1          -0.004045282   -0.000785745   -0.001397878
      6        8           0.009692931   -0.018025304    0.009065892
      7        6           0.012131698   -0.019281753   -0.049659655
      8        6          -0.001450242    0.006197863    0.021891236
      9        6           0.011013797   -0.010322520   -0.012079945
     10        6          -0.008674310    0.008882789    0.005890407
     11        8          -0.004527979    0.022775542    0.004557036
     12        1           0.002094048   -0.000928186   -0.003742792
     13        6           0.009031703   -0.015733034    0.000934795
     14        6           0.016113078   -0.014700102   -0.000073265
     15        6          -0.003081407    0.037908694    0.013177377
     16        6          -0.018146229   -0.029070222   -0.020261319
     17        1          -0.002555801   -0.002197464   -0.002296754
     18        1          -0.002369473    0.003390202    0.000283678
     19        6          -0.014486724    0.016211444    0.002467340
     20        6          -0.010261457    0.015376922   -0.001509200
     21        6          -0.003789576    0.010773009   -0.038000815
     22        6           0.017011874   -0.026397562    0.025173287
     23        1           0.002443841   -0.003412331    0.000381072
     24        1           0.000130958    0.000311245   -0.004206684
     25        6           0.017249765    0.002292002    0.010090542
     26        6           0.015470242    0.015932651    0.014049552
     27        6          -0.007385794    0.011034182    0.001431807
     28        6           0.000982188   -0.019185683   -0.007156385
     29        6          -0.019748468    0.008239181   -0.005798261
     30        6           0.014801728   -0.005807896    0.004278275
     31        1           0.000740085   -0.007708266   -0.002220062
     32        1           0.003331197   -0.000988972    0.000932468
     33        1          -0.000444359    0.003529688    0.001383622
     34        1          -0.004004010    0.001440864   -0.001441945
     35        6           0.000416587   -0.003134032    0.026487673
     36        6          -0.006817706    0.006521166    0.018099525
     37        6          -0.008890652    0.010804234    0.008802551
     38        6           0.011828957   -0.014257034   -0.011682597
     39        6          -0.008356808    0.012977407   -0.013861359
     40        6           0.008128183   -0.010632833    0.002221389
     41        1           0.002359876   -0.002931562   -0.002737451
     42        1           0.001690320   -0.002661713    0.002400258
     43        1          -0.001917905    0.002187680    0.002263506
     44        1          -0.003518655    0.005040633   -0.004785922
     45        6          -0.000134385   -0.000784416   -0.000715914
     46        6           0.001761040    0.000936305    0.007269768
     47        6          -0.000515599   -0.003052517    0.002296951
     48        6           0.005091094    0.000397120    0.000293331
     49        6           0.000857321   -0.001463671   -0.003711822
     50        6           0.000266460    0.006552356   -0.002504989
     51        1          -0.001206294   -0.003363441   -0.001759655
     52        1          -0.001188595    0.000209753   -0.003568049
     53        1           0.001429758    0.004570744   -0.001441897
     54        1           0.001599834    0.001352308    0.003667827
     55        1          -0.000283422   -0.002753470    0.001924903
     56        6          -0.000503577    0.000253194   -0.000954871
     57        6          -0.000521978   -0.006748847    0.001904606
     58        6          -0.003133638   -0.000389451   -0.002567983
     59        6          -0.003667122    0.000734460    0.003550932
     60        6           0.001201208    0.003593133   -0.000494184
     61        6           0.003267211    0.003102919    0.006084325
     62        1          -0.000746834    0.001759576   -0.003530061
     63        1           0.000890656    0.003238074   -0.000341293
     64        1           0.001229658    0.001016795    0.003936186
     65        1          -0.001177251   -0.004270363    0.002276518
     66        1          -0.001208058   -0.002153570   -0.002793889
     67       15           0.019671783    0.014737861    0.047920424
     68        8          -0.004962722   -0.008603483   -0.009620243
     69        8          -0.009847555   -0.000319268   -0.020468693
     70        1           0.000541232   -0.000787968   -0.000373802
 -------------------------------------------------------------------
 Cartesian Forces:  Max     0.049659655 RMS     0.011206251

 GradGradGradGradGradGradGradGradGradGradGradGradGradGradGradGradGradGrad
 Berny optimization.
 FormGI is forming the generalized inverse of G from B-inverse, IUseBI=4.
 Internal  Forces:  Max     0.024367717 RMS     0.005301373
 Search for a local minimum.
 Step number   1 out of a maximum of   50
 All quantities printed in internal units (Hartrees-Bohrs-Radians)
 Mixed Optimization -- RFO/linear search
 Second derivative matrix not updated -- first step.
 ITU=  0
     Eigenvalues ---    0.00817   0.00818   0.01235   0.01533   0.01594
     Eigenvalues ---    0.01607   0.01623   0.01633   0.01654   0.01658
     Eigenvalues ---    0.01693   0.01693   0.01705   0.01707   0.01759
     Eigenvalues ---    0.01770   0.01792   0.01797   0.01852   0.01857
     Eigenvalues ---    0.01867   0.01871   0.01899   0.01901   0.01941
     Eigenvalues ---    0.01989   0.01990   0.02029   0.02044   0.02045
     Eigenvalues ---    0.02067   0.02074   0.02094   0.02095   0.02111
     Eigenvalues ---    0.02115   0.02116   0.02120   0.02125   0.02129
     Eigenvalues ---    0.02129   0.02132   0.02139   0.02139   0.02166
     Eigenvalues ---    0.02166   0.02186   0.02186   0.02188   0.02188
     Eigenvalues ---    0.02188   0.02188   0.02189   0.02189   0.02198
     Eigenvalues ---    0.02205   0.02225   0.02227   0.02236   0.02238
     Eigenvalues ---    0.02268   0.02271   0.03320   0.03508   0.06734
     Eigenvalues ---    0.11269   0.14092   0.14848   0.15994   0.15994
     Eigenvalues ---    0.15995   0.15995   0.15996   0.15998   0.15998
     Eigenvalues ---    0.15999   0.16000   0.16000   0.16000   0.16000
     Eigenvalues ---    0.16000   0.16000   0.16000   0.16000   0.16000
     Eigenvalues ---    0.16000   0.16000   0.16000   0.16000   0.16000
     Eigenvalues ---    0.16000   0.16000   0.16000   0.17997   0.18058
     Eigenvalues ---    0.21999   0.21999   0.22000   0.22000   0.22000
     Eigenvalues ---    0.22000   0.22397   0.22398   0.22691   0.22693
     Eigenvalues ---    0.23364   0.23469   0.23470   0.23492   0.23575
     Eigenvalues ---    0.23952   0.24351   0.24359   0.24637   0.24642
     Eigenvalues ---    0.24920   0.24933   0.24947   0.24964   0.24970
     Eigenvalues ---    0.24985   0.24986   0.24988   0.24989   0.24999
     Eigenvalues ---    0.25000   0.30092   0.32787   0.32794   0.35854
     Eigenvalues ---    0.35862   0.35881   0.35899   0.35908   0.35915
     Eigenvalues ---    0.35919   0.35920   0.35922   0.35927   0.35928
     Eigenvalues ---    0.35929   0.35931   0.35936   0.35939   0.35939
     Eigenvalues ---    0.35940   0.35949   0.35954   0.35959   0.35969
[...]
 00008553,0.00594564,-0.00007302,0.00003161,-0.00005448,0.01386449,-0.0
 0214251,-0.02926368,-0.00143268,-0.00078011,0.00650215,0.00032934,0.00
 000114,-0.00036407,-0.00004511,0.00015498,0.00041700,0.00012237,-0.000
 23419,-0.00025344,0.01186615,-0.01996033,-0.01809461,0.00004411,-0.000
 06076,-0.00004228,-0.00095374,-0.00066478,-0.00065064,0.00038186,0.000
 15159,0.00002301,0.00005260,-0.00004174,0.00008965,-0.00022071,0.00008
 498,-0.00000905,-0.00010430,0.00005453,-0.00004415,-0.00002573,0.00009
 097,-0.00001458,0.00025858,-0.00019881,0.00020014,0.00007933,-0.000295
 53,-0.00209934,0.00010301,-0.00011691,-0.00013002,-0.00002963,0.000046
 53,0.00004132,0.00002382,-0.00003390,0.00003605,0.00007631,-0.00006799
 ,-0.00002802,0.00017778,-0.00006070,-0.00005482,-0.00007803,-0.0007161
 7,-0.00012994,0.00038579,0.00046815,0.00021956,-0.00019354,-0.00014454
 ,-0.00012601,-0.00021532,0.00028430,0.00018211,0.00011286,0.00016915,0
 .00019898,-0.00045579,-0.00077385,-0.00033989,0.00013746,0.00012445,-0
 .00002058,-0.00001411,0.00011181,0.00000796,-0.00003331,0.00007722,0.0
 0000040,-0.00014732,0.00024714,-0.00046947,-0.00007220,0.00001326,0.00
 013193,-0.00007771,0.00007169,0.00009667,0.00007361,-0.00008790,0.0001
 6539,0.00009492,-0.00004863,-0.00015561,0.00011176,-0.00039912,0.00047
 396,0.00002289,-0.00002396,0.00002558,0.00002125,-0.00003201,0.0000307
 3,0.00000080,-0.00010430,0.00017308,0.00007308,-0.00015221,-0.00066979
 ,-0.00003197,-0.00004711,-0.00003983,-0.00001319,-0.00002288,0.0000229
 0,-0.00004366,-0.00018126,-0.00004676,-0.00008260,0.00031725,0.0000594
 8,-0.00012378,-0.00008565,-0.00005918,-0.00003259,0.00004801,-0.000015
 97,-0.00000229,-0.00002956,-0.00002563,-0.00000836,-0.00001710,-0.0000
 4250,0.00002694,0.00000217,0.00005766,0.00009518,0.00008165,-0.0000420
 2,0.00001261,-0.00004965,-0.00000826,-0.00001341,-0.00001063,-0.000045
 93,0.00000902,-0.00009535,-0.00001086,0.00006764,0.00013197,-0.0000228
 7,0.00008938,-0.00018031,0.00006356,-0.00001589,0.00010478,-0.00007959
 ,0.00000618,0.00002197,-0.00002451,-0.00001523,0.00000476,-0.00003876,
 -0.00000856,0.00002642,-0.00000005,-0.00004516,-0.00009752,0.00009501,
 0.00001212,0.00000699,0.00002790,-0.00001646,-0.00001505,-0.00003874,0
 .11089700,-0.05557086,-0.13185562,-0.03629317,0.30886143,0.35957120,-0
 .00021871,-0.00006465,-0.00025232,0.00013661,0.00009267,0.00020279,-0.
 00047499,-0.00019859,-0.00021611,0.00586180,0.00050172,0.00127510,-0.0
 0005172,0.00000513,0.00000184,-0.00674143,0.00014608,-0.00709228,-0.00
 458005,0.00375667,0.00665257,0.00016809,-0.00035462,-0.00159073,-0.000
 03403,0.00023772,0.00020669,0.00020449,-0.00026136,-0.00043274,-0.0036
 5632,-0.00739132,-0.01271837,0.00002454,-0.00007494,-0.00002618,-0.000
 60086,-0.00024033,-0.00042373,0.00013649,0.00003590,0.00017408,0.00008
 796,-0.00000621,0.00002080,-0.00005420,0.00001694,-0.00005998,-0.00006
 417,0.00001741,0.00000112,-0.00001659,0.00003486,0.00002643,0.00005584
 ,-0.00009611,-0.00003877,0.00037718,-0.00034952,-0.00137158,0.00016445
 ,-0.00010284,-0.00007622,0.00004345,0.00007133,0.00003562,-0.00000125,
 -0.00005591,0.00001700,0.00002526,-0.00007200,-0.00003004,0.00018403,-
 0.00000750,0.00002030,-0.00000077,-0.00043089,-0.00013480,0.00014490,0
 .00092895,-0.00031213,-0.00014366,-0.00008870,-0.00011007,-0.00002141,
 0.00010511,0.00003297,0.00010711,0.00000604,0.00004542,-0.00066959,-0.
 00025664,-0.00009032,0.00004266,0.00012461,0.00007388,-0.00001040,0.00
 003505,0.00003048,-0.00001614,0.00002601,0.00002494,0.00025666,0.00029
 238,0.00008377,0.00010430,-0.00015921,0.00004387,0.00003573,0.00004864
 ,0.00000201,0.00006905,-0.00004479,0.00021703,0.00033049,-0.00010782,0
 .00014710,-0.00004080,0.00057712,0.00011823,0.00000116,-0.00005215,0.0
 0000314,0.00000259,-0.00005334,0.00001904,-0.00008594,-0.00004562,0.00
 004292,-0.00018941,0.00027008,-0.00054198,-0.00001118,-0.00003535,-0.0
 0003737,-0.00000432,-0.00001602,0.00000408,-0.00000512,-0.00012764,-0.
 00002357,-0.00004225,0.00019801,0.00006715,-0.00000882,-0.00008270,-0.
 00000385,-0.00000647,0.00004574,-0.00004258,-0.00001472,-0.00002225,-0
 .00002023,-0.00001797,-0.00001032,-0.00003302,-0.00000323,0.00001059,0
 .00003829,0.00000453,0.00008774,-0.00000170,-0.00000455,-0.00002588,0.
 00000779,0.00000183,-0.00001745,-0.00003786,0.00004893,-0.00003022,0.0
 0001193,0.00007618,0.00001056,-0.00011383,0.00012088,-0.00015392,0.000
 01446,0.00001362,0.00005787,-0.00006131,0.00000755,0.00002920,-0.00001
 622,-0.00001886,0.00000649,-0.00001346,-0.00002561,0.00002144,-0.00000
 802,-0.00011739,-0.00003373,0.00005757,-0.00000645,0.00001981,0.000030
 60,-0.00001882,-0.00000305,-0.00001667,-0.57267735,-0.00123693,-0.2168
 6945,-0.02475666,0.00634754,-0.00515516,0.60637254,0.00003103,0.000183
 54,0.00018624,0.00011345,0.00048731,0.00007277,0.00175977,-0.00085364,
 0.00064098,-0.00548439,0.00116125,-0.00052371,-0.00000078,0.00003299,0
 .00002108,0.01574456,0.00404632,0.01294034,-0.00394706,0.00487387,0.00
 826302,0.00106955,-0.00091531,-0.00123830,-0.00002905,0.00022242,-0.00
 010705,-0.00005850,0.00003190,-0.00045787,-0.02098540,-0.00613617,-0.0
 1514418,0.00000428,-0.00000961,-0.00005950,0.00061867,0.00003979,0.000
 48413,-0.00005948,-0.00010352,-0.00020229,0.00014872,0.00007789,0.0001
 1305,-0.00014044,0.00003575,-0.00003170,0.00004018,-0.00000447,0.00001
 206,0.00004528,-0.00002371,0.00001127,-0.00012266,0.00001753,0.0003458
 5,0.00051921,-0.00023945,-0.00054227,-0.00008390,0.00006120,0.00006219
 ,0.00002992,0.00000403,-0.00013964,0.00005316,-0.00006686,-0.00001271,
 0.00004543,-0.00003637,-0.00005711,0.00003918,0.00002059,-0.00003921,-
 0.00020757,-0.00032148,-0.00025579,-0.00044241,0.00030825,0.00072617,0
 .00021921,-0.00005848,0.00006410,0.00002134,0.00005134,0.00001785,0.00
 010719,-0.00008277,-0.00000354,-0.00008565,0.00104299,-0.00084517,0.00
 001743,0.00012328,0.00001755,0.00003159,-0.00005527,-0.00002530,0.0000
 4253,-0.00002348,0.00000925,-0.00008694,-0.00001386,0.00033374,-0.0002
 5487,0.00024029,0.00005261,0.00012172,-0.00015249,0.00027035,0.0002274
 4,-0.00011806,-0.00013098,-0.00015170,-0.00009068,-0.00062279,-0.00003
 728,0.00033748,0.00073920,0.00005002,-0.00006094,-0.00000114,0.0000768
 0,-0.00007426,0.00005550,-0.00002425,0.00000271,0.00005634,0.00084689,
 0.00071841,-0.00085344,0.00000106,0.00006266,-0.00000306,-0.00002486,-
 0.00002614,-0.00002010,0.00001736,0.00009481,0.00008395,0.00007959,-0.
 00019159,-0.00010779,0.00002119,-0.00004274,0.00020645,-0.00004744,0.0
 0006619,0.00000379,0.00000560,0.00000231,-0.00001147,0.00000842,0.0000
 0916,0.00000125,0.00000697,0.00000597,-0.00004669,0.00006814,0.0000389
 1,-0.00004440,0.00002223,0.00002966,0.00000839,-0.00001536,0.00005591,
 -0.00006216,-0.00003946,0.00002466,-0.00000919,-0.00008307,-0.00010953
 ,-0.00017529,0.00018609,-0.00019071,0.00020376,-0.00007394,0.00008479,
 -0.00016185,0.00001376,0.00001049,0.00003454,0.00000151,0.00001097,-0.
 00001463,-0.00000423,0.00003351,-0.00004148,0.00004073,-0.00000527,0.0
 0001239,0.00003907,0.00004080,0.00004166,-0.00000513,-0.00000104,-0.00
 002911,-0.00228255,-0.05950663,-0.00690020,0.01353779,0.00982924,0.000
 41362,0.00201815,0.04334575,-0.00037433,0.00003886,-0.00026957,0.00028
 235,-0.00022656,0.00021108,-0.00147465,0.00007160,-0.00062858,0.008979
 32,0.00338646,0.00358842,-0.00005890,0.00002408,-0.00004464,-0.0333993
 7,0.00596105,-0.01767797,-0.00092028,0.00244094,0.00405669,0.00020089,
 0.00027464,-0.00023188,-0.00003595,-0.00004106,0.00046063,0.00016143,-
 0.00018883,-0.00020718,-0.00945747,-0.00310129,0.00237044,0.00004074,-
 0.00004544,-0.00001385,-0.00195956,-0.00094470,-0.00183917,-0.00021773
 ,0.00046810,0.00031219,-0.00004134,-0.00013328,-0.00004409,-0.00012833
 ,0.00006308,-0.00001792,-0.00011086,0.00007972,-0.00002063,-0.00001335
 ,0.00006406,0.00000701,-0.00017417,0.00002778,0.00006041,0.00012793,0.
 00027711,-0.00056461,0.00013441,-0.00012476,-0.00016177,-0.00004829,0.
 00003730,0.00021215,0.00000340,-0.00001844,0.00003351,0.00003816,-0.00
 003024,-0.00001065,0.00002269,0.00014556,0.00004456,-0.00005450,-0.000
 41546,-0.00023573,0.00035096,0.00023943,0.00014545,-0.00028939,0.00013
 877,0.00011935,0.00007979,0.00016132,0.00014324,0.00004353,-0.00004385
 ,0.00002289,-0.00005008,-0.00075896,-0.00039718,0.00009531,0.00012485,
 -0.00001055,-0.00000974,0.00007010,0.00000746,-0.00001941,0.00004864,0
 .00000592,0.00023097,0.00045959,-0.00038623,-0.00009450,-0.00001380,0.
 00006110,-0.00011134,0.00012871,0.00007264,0.00007801,-0.00011995,0.00
 019981,0.00013485,0.00005897,0.00008438,0.00023669,0.00028124,0.000104
 23,0.00000893,-0.00001091,0.00002591,-0.00001313,-0.00002234,0.0000157
 9,-0.00005488,-0.00011924,0.00016037,-0.00038135,-0.00021240,-0.000397
 15,-0.00002314,-0.00004053,-0.00003117,-0.00000180,-0.00001529,0.00001
 364,-0.00003569,-0.00015704,-0.00004037,-0.00012465,0.00027662,0.00004
 819,-0.00007795,-0.00007076,-0.00005067,-0.00001701,0.00003709,-0.0000
 2045,-0.00000574,-0.00002413,-0.00001979,-0.00000916,-0.00001443,-0.00
 003479,0.00001476,0.00000370,0.00004844,0.00005455,0.00007293,-0.00001
 525,0.00000440,-0.00003978,-0.00000376,-0.00000827,-0.00001725,-0.0000
 2869,0.00001388,-0.00008262,-0.00000510,0.00006053,0.00011513,-0.00000
 083,0.00003818,-0.00010297,0.00003708,-0.00000366,0.00007089,-0.000040
 57,0.00000568,0.00002007,-0.00002458,-0.00001365,0.00000256,-0.0000297
 9,-0.00000656,0.00001762,0.00000408,-0.00003953,-0.00008273,0.00005448
 ,0.00000303,0.00000281,0.00001817,-0.00001353,-0.00001223,-0.00002672,
 -0.21928596,-0.00634321,-0.15649138,0.01894036,-0.00473899,0.00965018,
 0.24167821,-0.00036792,0.15679847,-0.00003782,-0.00001590,-0.00001430,
 0.00000296,-0.00002290,0.00000766,-0.00003701,0.00010263,-0.00005562,0
 .00033292,-0.00002015,-0.00027055,-0.00000006,0.00000172,-0.00000743,-
 0.00240430,-0.00050958,0.00069009,0.00055373,0.00056858,-0.00049436,-0
 .00008669,0.00006989,0.00006108,-0.00001444,-0.00003781,0.00001258,-0.
 00000393,0.00002159,0.00002182,-0.00226925,0.00311117,0.00355601,0.000
 00437,0.00000608,0.00000236,-0.00003612,-0.00017366,-0.00020280,0.0000
 2757,-0.00003870,0.00001071,-0.00002566,0.00000645,0.00001092,-0.00007
 257,0.00000121,0.00001110,-0.00000228,0.00000774,-0.00001055,-0.000001
 19,0.00001425,-0.00001569,-0.00007736,0.00001033,-0.00002680,0.0000176
 8,0.00006999,0.00027934,-0.00001434,0.00000805,0.00000916,-0.00000886,
 -0.00001259,0.00001319,0.00000290,0.00000410,-0.00000248,-0.00000434,0
 .00001025,0.00000104,-0.00017012,0.00018898,0.00003980,-0.00003215,0.0
 0005293,0.00009317,0.00031570,-0.00004619,-0.00039264,-0.00002888,0.00
 021449,0.00006869,0.00010534,-0.00005442,0.00003876,-0.00016277,-0.000
 00950,-0.00004116,-0.00025024,-0.00010658,0.00042663,-0.00005661,-0.00
 010214,-0.00000845,0.00000150,0.00001614,-0.00000493,-0.00000876,0.000
 01278,-0.00002486,0.00003444,-0.00000817,0.00004821,-0.00000408,0.0000
 0926,-0.00001072,-0.00000005,-0.00001009,0.00000099,-0.00000910,0.0000
 0446,-0.00002375,-0.00002161,-0.00000533,-0.00002705,-0.00008727,-0.00
 006817,-0.00002996,0.00000261,0.00000376,-0.00000182,0.00000551,0.0000
 0472,-0.00000018,0.00001725,0.00001582,-0.00001069,0.00008018,0.000024
 22,0.00003353,-0.00000281,0.00000033,0.00000064,-0.00000080,0.00000007
 ,-0.00000109,-0.00000578,0.00000347,-0.00000027,-0.00001274,0.00000648
 ,-0.00000587,-0.00000123,0.00000101,0.00000452,-0.00000350,-0.00000080
 ,0.00000317,0.00000214,0.00000051,-0.00000010,0.00000232,-0.00000046,0
 .00000008,0.00000306,-0.00000076,-0.00000093,0.00000718,0.00000033,0.0
 0000018,0.00000249,-0.00000034,-0.00000160,-0.00000258,0.00000011,0.00
 000108,-0.00000460,-0.00000274,-0.00000073,-0.00000124,0.00000795,0.00
 000658,-0.00001019,0.00001192,0.00000057,-0.00000235,-0.00000056,0.000
 00504,-0.00000100,-0.00000044,-0.00000078,0.00000159,-0.00000057,-0.00
 000108,0.00000364,-0.00000083,0.00000079,0.00000629,-0.00000294,-0.000
 00546,0.00000180,-0.00000212,-0.00000204,0.00000165,-0.00000071,-0.000
 00043,0.00417488,0.02259098,0.02364508,-0.07238699,-0.12425079,-0.1033
 8312,0.00020132,-0.00331384,-0.00290477,0.07245066,0.00013029,-0.00000
 399,0.00008901,0.00000204,-0.00003313,-0.00003634,0.00011389,-0.000165
 31,-0.00000234,-0.00170425,0.00012420,-0.00067654,-0.00000362,-0.00001
 216,-0.00000728,-0.00023617,-0.00134568,0.00437883,0.00015935,-0.00049
 101,-0.00014784,-0.00006505,0.00001591,0.00004352,0.00001218,-0.000003
 74,-0.00004942,-0.00000215,0.00000277,0.00003130,0.00142820,0.00085389
 ,-0.00187388,-0.00000556,0.00000346,0.00000675,0.00018751,0.00035096,0
 .00030082,-0.00008140,-0.00006129,-0.00006018,-0.00011610,0.00002115,-
 0.00006053,0.00016917,-0.00008640,0.00001407,0.00000308,-0.00002939,-0
 .00001123,-0.00002930,0.00000213,-0.00000475,0.00003528,-0.00003007,0.
 00003111,-0.00003842,0.00000574,-0.00011771,0.00001641,-0.00001267,-0.
 00001090,-0.00000397,0.00001036,-0.00000102,-0.00000892,0.00000885,0.0
 0000370,-0.00000106,-0.00000198,0.00000927,0.00003972,0.00009219,0.000
 14235,0.00062419,0.00043338,0.00031676,0.00013349,0.00038078,-0.000426
 77,-0.00009980,-0.00019934,-0.00063479,0.00012935,-0.00028983,-0.00016
 294,-0.00018424,-0.00001628,-0.00003456,-0.00035830,0.00020381,0.00050
 556,-0.00009481,-0.00008673,0.00006671,-0.00002060,0.00002026,0.000029
 73,-0.00002778,0.00000488,-0.00001746,-0.00002539,0.00003338,-0.000067
 24,-0.00001263,0.00000981,0.00000065,-0.00001938,0.00002076,0.00001391
 ,0.00001598,-0.00002079,0.00002877,-0.00001011,0.00004529,0.00000479,0
 .00013186,-0.00006887,0.00004965,-0.00001016,0.00000923,0.00000727,-0.
 00001040,0.00000922,-0.00000888,0.00000371,-0.00004004,0.00003295,-0.0
 0008949,-0.00012763,-0.00002849,0.00000036,-0.00001148,-0.00000048,-0.
 00000127,0.00000181,0.00000797,0.00000797,-0.00000858,-0.00000827,0.00
 004217,-0.00000367,0.00002242,-0.00001915,0.00000501,-0.00004092,0.000
 00955,-0.00001056,-0.00000073,-0.00000071,0.00000052,0.00000229,-0.000
 00156,-0.00000027,0.00000223,-0.00000089,-0.00000121,0.00000469,-0.000
 00524,-0.00000542,0.00000704,-0.00000338,-0.00000634,-0.00000269,0.000
 00485,-0.00000968,0.00001095,0.00000858,0.00001289,0.00000201,0.000002
 70,-0.00000866,0.00001692,-0.00001312,0.00002061,-0.00003503,0.0000120
 3,-0.00001515,0.00001977,-0.00000241,-0.00000249,-0.00000247,0.0000002
 1,-0.00000031,0.00000538,-0.00000168,-0.00000675,0.00000765,-0.0000095
 3,0.00001677,-0.00001148,-0.00000555,-0.00000466,-0.00000512,0.0000003
 6,0.00000081,0.00000499,-0.00197553,-0.01081082,-0.01293676,-0.0958874
 3,-0.26347702,-0.22852992,-0.00387303,0.00164763,0.00298999,0.10163506
 ,0.27314093,0.00003352,0.00009442,0.00005479,-0.00000715,-0.00002124,-
 0.00003085,0.00018155,-0.00000024,0.00012930,-0.00088240,-0.00019284,-
 0.00062738,0.00002617,0.00000881,0.00001787,0.00164724,0.00109013,0.00
 103559,0.00048945,-0.00049234,0.00007512,-0.00002473,0.00007044,0.0001
 5831,0.00000211,-0.00002381,-0.00007923,-0.00002509,0.00004726,0.00005
 353,0.00059666,0.00194006,0.00208238,-0.00001337,0.00001160,0.00000587
 ,0.00014124,-0.00015708,-0.00014864,-0.00011047,-0.00000864,-0.0000033
 3,0.00003559,0.00000793,0.00000829,-0.00003641,0.00001662,-0.00001817,
 0.00003228,0.00000413,0.00002216,0.00003883,-0.00003411,0.00001507,0.0
 0003439,-0.00002692,0.00000959,-0.00004575,-0.00001455,0.00001572,-0.0
 0002230,0.00002858,0.00002562,0.00001036,-0.00000832,-0.00005557,-0.00
 000643,0.00000711,-0.00000533,-0.00000792,0.00000473,0.00000712,-0.000
 19886,0.00016602,0.00002921,-0.00034106,-0.00028697,-0.00020738,-0.000
 45404,-0.00031946,0.00042969,0.00012775,0.00042006,0.00045939,0.000237
 06,0.00001035,-0.00000663,0.00006284,-0.00021975,-0.00016210,0.0006791
 5,0.00031389,-0.00066817,-0.00007785,-0.00004293,0.00002895,0.00002536
 ,-0.00010007,-0.00001585,0.00002823,-0.00004217,0.00001869,0.00001081,
 0.00001581,0.00006425,0.00002372,-0.00001850,-0.00001190,0.00001623,-0
 .00001214,-0.00003090,-0.00001917,0.00001758,-0.00003874,-0.00002398,0
 .00002661,0.00010004,-0.00001235,-0.00004596,-0.00006880,-0.00000515,0
 .00000535,-0.00000463,-0.00001019,0.00001489,-0.00000810,0.00000439,0.
 00003097,-0.00004257,0.00003215,-0.00012139,0.00013417,0.00000943,0.00
 002062,0.00001302,0.00000675,0.00000629,-0.00001305,0.00000538,0.00006
 114,0.00001711,-0.00000677,-0.00008503,-0.00003449,0.00003535,0.000026
 86,0.00003249,0.00000336,-0.00001168,0.00001192,0.00000224,0.00000992,
 0.00000791,0.00000444,0.00000489,0.00001369,-0.00000741,-0.00000138,-0
 .00001925,-0.00001413,-0.00002475,0.00000421,-0.00000177,0.00001699,0.
 00000152,0.00000069,0.00001038,0.00000609,-0.00000859,0.00002036,-0.00
 000010,-0.00001985,-0.00002714,0.00000628,-0.00001369,0.00003565,-0.00
 000199,-0.00000209,-0.00002376,0.00001207,-0.00000339,-0.00000820,0.00
 000805,0.00000479,-0.00000182,0.00000894,0.00000359,-0.00000452,-0.000
 00461,0.00002087,0.00001800,-0.00001089,0.00000111,-0.00000072,-0.0000
 0652,0.00000505,0.00000458,0.00000837,-0.00110701,-0.01910240,-0.01800
 234,-0.07653466,-0.22269498,-0.19877650,-0.00345658,0.00278360,0.00082
 488,0.07888047,0.23680319,0.21314671\\0.00000269,0.00000220,0.00000430
 ,0.00000376,0.00000001,-0.00000253,-0.00000682,0.00001199,0.00000059,0
 .00000374,-0.00000696,-0.00000567,-0.00000080,-0.00000051,-0.00000198,
 -0.00000968,0.00000755,0.00000357,-0.00000097,0.00000273,0.00000154,0.
 00000665,-0.00001047,-0.00000348,-0.00000249,-0.00000537,-0.00000163,-
 0.00000100,0.00000078,0.00000612,-0.00000793,-0.00000146,-0.00000382,0
 .00000165,-0.00000017,-0.00000027,0.00000553,-0.00000520,-0.00000059,-
 0.00000434,-0.00000450,-0.00000528,0.00000516,0.00000625,0.00000487,0.
 00000036,-0.00000744,-0.00000573,-0.00000115,0.00000210,-0.00000143,-0
 .00000153,0.00000101,-0.00000326,0.00000057,0.00000100,-0.00000601,-0.
 00000419,0.00000334,0.00000106,-0.00000503,0.00000396,-0.00000560,-0.0
 0000004,-0.00000151,0.00001093,-0.00000033,-0.00000220,-0.00000042,0.0
 0000192,-0.00000181,0.00000079,0.00000154,0.00000699,0.00000239,0.0000
 0637,0.00000087,0.00000255,-0.00000505,0.00000209,-0.00000169,0.000001
 90,-0.00000506,-0.00000354,-0.00000493,0.00000191,-0.00000268,0.000004
 79,-0.00000359,-0.00000101,0.00000157,-0.00000245,-0.00000144,0.000001
 68,0.00000020,-0.00000077,-0.00000031,0.00000208,-0.00000062,0.0000001
 1,0.00000198,-0.00000163,-0.00000587,0.00000295,0.00000615,0.00000237,
 -0.00000526,0.00000749,-0.00000502,0.00000446,0.00000116,0.00000100,-0
 .00000171,-0.00000150,-0.00000317,0.00000304,-0.00000247,0.00000298,-0
 .00000206,-0.00000161,-0.00000060,-0.00000110,0.00000183,-0.00000027,-
 0.00000096,0.00000197,-0.00000227,0.00000153,0.00000132,-0.00000046,0.
 00000191,0.00000138,-0.00000060,-0.00000103,-0.00000038,0.00000135,-0.
 00000065,0.00000178,0.00000364,0.00000019,-0.00000226,0.00000064,-0.00
 000595,0.00000978,-0.00000302,0.00000598,-0.00000468,-0.00000105,0.000
 00114,-0.00000321,0.00000018,-0.00000156,-0.00000013,0.00000038,0.0000
 0130,-0.00000155,-0.00000077,0.00000077,-0.00000147,0.00000118,-0.0000
 0150,0.00000229,0.00000001,-0.00000048,0.00000206,0.00000132,0.0000001
 5,-0.00000089,-0.00000022,-0.00000361,-0.00000224,-0.00000108,-0.00000
 731,-0.00000167,0.00000689,0.00001030,0.00000723,-0.00000268,-0.000001
 33,-0.00000068,0.00000083,-0.00000034,0.00000275,0.00000012,-0.0000000
 8,-0.00000098,0.00000150,0.00000045,0.00000059,0.00000113,0.00000154,0
 .00000133,-0.00000018,-0.00000189,-0.00000058,0.00000047,-0.00000280,0
 .00000013,0.00001053,0.00001024,0.00001122,-0.00000335,-0.00000253,-0.
 00000542,-0.00000217,-0.00000515,-0.00000663,0.00000287,0.00000101,0.0
 0000026\\\@
 The archive entry for this job was punched.


 THERE'S A SUCKER BORN EVERY MINUTE

              -- PHINEAS TAYLOR (P.T.) BARNUM
 Job cpu time:       0 days 11 hours 16 minutes  4.6 seconds.
 Elapsed time:       0 days  0 hours 57 minutes 28.8 seconds.
 File lengths (MBytes):  RWF=   4316 Int=      0 D2E=      0 Chk=     67 Scr=      1
 Normal termination of Gaussian 16 at Mon Dec 11 14:41:21 2023.
