Unloading slurm/anatra/current
  ERROR: No such file or directory on
    '/cm/local/modulefiles/slurm/anatra/current'
environment: line 0: unalias: gv: not found
environment: line 0: unalias: sl: not found
 Entering Gaussian System, Link 0=g16
 Initial command:
 /apps/gaussian/g16/C.01/g16/l1.exe "/local/jobs/1150341/Gau-2906318.inp" -scrdir="/local/jobs/1150341/"
 Entering Link 1 = /apps/gaussian/g16/C.01/g16/l1.exe PID=   2906321.
  
 Copyright (c) 1988-2019, Gaussian, Inc.  All Rights Reserved.
  
 This is part of the Gaussian(R) 16 program.  It is based on
 the Gaussian(R) 09 system (copyright 2009, Gaussian, Inc.),
 the Gaussian(R) 03 system (copyright 2003, Gaussian, Inc.),
 the Gaussian(R) 98 system (copyright 1998, Gaussian, Inc.),
 the Gaussian(R) 94 system (copyright 1995, Gaussian, Inc.),
 the Gaussian 92(TM) system (copyright 1992, Gaussian, Inc.),
 the Gaussian 90(TM) system (copyright 1990, Gaussian, Inc.),
 the Gaussian 88(TM) system (copyright 1988, Gaussian, Inc.),
 the Gaussian 86(TM) system (copyright 1986, Carnegie Mellon
 University), and the Gaussian 82(TM) system (copyright 1983,
 Carnegie Mellon University). Gaussian is a federally registered
 trademark of Gaussian, Inc.
  
 This software contains proprietary and confidential information,
 including trade secrets, belonging to Gaussian, Inc.
  
 This software is provided under written license and may be
 used, copied, transmitted, or stored only in accord with that
 written license.
  
 The following legend is applicable only to US Government
 contracts under FAR:
  
                    RESTRICTED RIGHTS LEGEND
  
 Use, reproduction and disclosure by the US Government is
 subject to restrictions as set forth in subparagraphs (a)
 and (c) of the Commercial Computer Software - Restricted
 Rights clause in FAR 52.227-19.
  
 Gaussian, Inc.
 340 Quinnipiac St., Bldg. 40, Wallingford CT 06492
  
  
 ---------------------------------------------------------------
 Warning -- This program may not be used in any manner that
 competes with the business of Gaussian, Inc. or will provide
 assistance to any competitor of Gaussian, Inc.  The licensee
 of this program is prohibited from giving any competitor of
 Gaussian, Inc. access to this program.  By using this program,
 the user acknowledges that Gaussian, Inc. is engaged in the
 business of creating and licensing software in the field of
 computational chemistry and represents and warrants to the
 licensee that it is not a competitor of Gaussian, Inc. and that
 it will not use this program in any manner prohibited above.
 ---------------------------------------------------------------
  

 Cite this work as:
 Gaussian 16, Revision C.01,
 M. J. Frisch, G. W. Trucks, H. B. Schlegel, G. E. Scuseria, 
 M. A. Robb, J. R. Cheeseman, G. Scalmani, V. Barone, 
 G. A. Petersson, H. Nakatsuji, X. Li, M. Caricato, A. V. Marenich, 
 J. Bloino, B. G. Janesko, R. Gomperts, B. Mennucci, H. P. Hratchian, 
 J. V. Ortiz, A. F. Izmaylov, J. L. Sonnenberg, D. Williams-Young, 
 F. Ding, F. Lipparini, F. Egidi, J. Goings, B. Peng, A. Petrone, 
 T. Henderson, D. Ranasinghe, V. G. Zakrzewski, J. Gao, N. Rega, 
 G. Zheng, W. Liang, M. Hada, M. Ehara, K. Toyota, R. Fukuda, 
 J. Hasegawa, M. Ishida, T. Nakajima, Y. Honda, O. Kitao, H. Nakai, 
 T. Vreven, K. Throssell, J. A. Montgomery, Jr., J. E. Peralta, 
 F. Ogliaro, M. J. Bearpark, J. J. Heyd, E. N. Brothers, K. N. Kudin, 
 V. N. Staroverov, T. A. Keith, R. Kobayashi, J. Normand, 
 K. Raghavachari, A. P. Rendell, J. C. Burant, S. S. Iyengar, 
 J. Tomasi, M. Cossi, J. M. Millam, M. Klene, C. Adamo, R. Cammi, 
 J. W. Ochterski, R. L. Martin, K. Morokuma, O. Farkas, 
 J. B. Foresman, and D. J. Fox, Gaussian, Inc., Wallingford CT, 2019.
 
 ******************************************
 Gaussian 16:  ES64L-G16RevC.01  3-Jul-2019
                14-Dec-2023 
 ******************************************
 %chk=nakano_OPLS3e_1_opt_hess.chk
 %nprocshared=12
 Will use up to   12 processors via shared memory.
 %mem=48GB
 ----------------------------------------------------------------------
 # m062x 6-31g(d) scrf=(iefpcm,solvent=benzene) opt=(calcfc,maxcycles=5
 0,maxstep=10) freq=noraman
 ----------------------------------------------------------------------
 1/6=50,8=10,10=4,18=20,19=15,26=3,38=1/1,3;
 2/9=110,12=2,17=6,18=5,40=1/2;
 3/5=1,6=6,7=1,11=2,25=1,30=1,70=2201,71=2,72=12,74=-55,140=1/1,2,3;
 4//1;
 5/5=2,38=5,53=12/2;
 8/6=4,10=90,11=11/1;
 11/6=1,8=1,9=11,15=111,16=1/1,2,10;
 10/6=1,13=1/2;
 6/7=2,8=2,9=2,10=2,28=1/1;
 7/10=1,25=1/1,2,3,16;
 1/6=50,8=10,10=4,18=20,19=15,26=3/3(2);
 2/9=110/2;
 99//99;
 2/9=110/2;
 3/5=1,6=6,7=1,11=2,25=1,30=1,70=2205,71=1,72=12,74=-55/1,2,3;
 4/5=5,16=3,69=1/1;
 5/5=2,38=5,53=12/2;
 7//1,2,3,16;
 1/6=50,8=10,18=20,19=15,26=3/3(-5);
 2/9=110/2;
 6/7=2,8=2,9=2,10=2,19=2,28=1/1;
 99/9=1/99;
 ----------
 Structure1
 ----------
 Symbolic Z-matrix:
 Charge =  0 Multiplicity = 1
 C                     0.6592    6.9414   -2.1306 
 C                    -0.0184    5.7733   -1.7049 
 C                    -1.3514    5.8445   -1.2614 
 C                    -2.0155    7.0678   -1.2547 
 C                     0.7821    4.4618   -1.6714 
 H                    -3.0403    7.1154   -0.9156 
 C                    -1.3631    8.2632   -1.609 
 C                     0.0002    8.2163   -2.0286 
 C                     0.6456    9.4576   -2.313 
 C                    -0.0404    10.6656  -2.225 
 C                    -1.3753    10.6903  -1.845 
 C                    -2.0381    9.5079   -1.5341 
 H                     1.6856    9.4681   -2.6039 
 H                     0.4698    11.5906  -2.4529 
 H                    -1.8968    11.6346  -1.7798 
 H                    -3.0718    9.5344   -1.2208 
 C                     4.7505    6.7357   -3.545 
 C                     2.0832    6.8614   -2.6398 
 C                     3.1001    6.312    -1.8267 
 C                     4.4261    6.2468   -2.2835 
 H                     5.7738    6.6879   -3.8887 
 C                     2.6585    5.6447   -0.5214 
 C                     3.7648    7.2462   -4.4112 
 C                     2.4059    7.2913   -3.9745 
 C                     1.4278    7.7481   -4.9082 
 C                     1.7898    8.1759   -6.1823 
 C                     3.1198    8.1563   -6.5797 
 C                     4.1043    7.6943   -5.7129 
 H                     0.3849    7.7655   -4.6281 
 H                     1.0301    8.5242   -6.8676 
 H                     3.3876    8.4908   -7.5718 
 H                     5.1355    7.6639   -6.0342 
 H                     3.4905    5.5347    0.1702 
 H                     2.0102    6.3461    0.0067 
 N                     1.8997    4.396    -0.7094 
 H                     1.1874    4.3057   -2.6734 
 H                     0.1016    3.6231   -1.5333 
 N                     1.9519    2.0169   -0.6449 
 C                     2.4682    3.1208   -0.3904 
 N                     3.6998    3.1089    0.2559 
 H                     1.0607    2.1422   -1.0963 
 H                     4.4087    3.6519   -0.2086 
 H                     4.0282    2.1665    0.3738 
 C                    -3.4888    2.3936    0.1743 
 C                    -3.9457    3.106    -0.941 
 C                    -3.2553    4.2231   -1.4049 
 C                    -2.0906    4.6515   -0.7641 
 C                    -1.6386    3.9529    0.3585 
 C                    -2.3264    2.8335    0.8181 
 H                    -4.8318    2.7822   -1.4664 
 H                    -3.618     4.7507   -2.2751 
 H                    -0.7437    4.2768    0.8718 
 H                    -1.9547    2.3137    1.6889 
 C                     7.5014    4.3768    0.0666 
 C                     7.0601    3.7982   -1.1294 
 C                     6.0724    4.4122   -1.8945 
 C                     5.5023    5.6161   -1.4766 
 C                     5.9485    6.2076   -0.2934 
 C                     6.935     5.5913    0.4719 
 H                     7.4723    2.857    -1.4634 
 H                     5.7347    3.9436   -2.8087 
 H                     5.5249    7.1467    0.0337 
 H                     7.2696    6.071     1.3801 
 C                    -5.5974   -1.0679    1.5844 
 C                    -4.2055   -1.0528    1.5982 
 C                    -3.5239    0.0724    1.1408 
 C                    -4.223     1.1901    0.6651 
 C                    -5.624     1.1545    0.6587 
 C                    -6.3105    0.0324    1.1165 
 H                    -6.1278   -1.9399    1.9395 
 H                    -3.6552   -1.9099    1.9584 
 H                    -2.4434    0.0673    1.1435 
 H                    -6.1876    2.0074    0.3104 
 H                    -7.3907    0.0176    1.111 
 C                     10.523    2.4657    2.4399 
 C                     10.6188   2.4444    1.0514 
 C                     9.6369    3.0652    0.2831 
 C                     8.5532    3.7131    0.8918 
 C                     8.4758    3.724     2.2912 
 C                     9.4543    3.1033    3.0638 
 H                     11.2834   1.9838    3.0378 
 H                     11.452    1.9513    0.5717 
 H                     9.7296    3.0531   -0.7929 
 H                     7.6446    4.2034    2.7871 
 H                     9.3821    3.1139    4.1418 
 

 GradGradGradGradGradGradGradGradGradGradGradGradGradGradGradGradGradGrad
 Berny optimization.
 Initialization pass.
                           ----------------------------
                           !    Initial Parameters    !
                           ! (Angstroms and Degrees)  !
 --------------------------                            --------------------------
 ! Name  Definition              Value          Derivative Info.                !
 --------------------------------------------------------------------------------
 ! R1    R(1,2)                  1.4159         calculate D2E/DX2 analytically  !
 ! R2    R(1,8)                  1.4388         calculate D2E/DX2 analytically  !
 ! R3    R(1,18)                 1.5144         calculate D2E/DX2 analytically  !
 ! R4    R(2,3)                  1.4066         calculate D2E/DX2 analytically  !
 ! R5    R(2,5)                  1.5369         calculate D2E/DX2 analytically  !
 ! R6    R(3,4)                  1.392          calculate D2E/DX2 analytically  !
 ! R7    R(3,47)                 1.489          calculate D2E/DX2 analytically  !
 ! R8    R(4,6)                  1.0805         calculate D2E/DX2 analytically  !
 ! R9    R(4,7)                  1.4072         calculate D2E/DX2 analytically  !
 ! R10   R(5,35)                 1.4761         calculate D2E/DX2 analytically  !
 ! R11   R(5,36)                 1.0921         calculate D2E/DX2 analytically  !
 ! R12   R(5,37)                 1.0888         calculate D2E/DX2 analytically  !
 ! R13   R(7,8)                  1.4272         calculate D2E/DX2 analytically  !
 ! R14   R(7,12)                 1.4179         calculate D2E/DX2 analytically  !
 ! R15   R(8,9)                  1.4277         calculate D2E/DX2 analytically  !
 ! R16   R(9,10)                 1.392          calculate D2E/DX2 analytically  !
 ! R17   R(9,13)                 1.08           calculate D2E/DX2 analytically  !
 ! R18   R(10,11)                1.3882         calculate D2E/DX2 analytically  !
 ! R19   R(10,14)                1.0807         calculate D2E/DX2 analytically  !
 ! R20   R(11,12)                1.3907         calculate D2E/DX2 analytically  !
 ! R21   R(11,15)                1.0807         calculate D2E/DX2 analytically  !
 ! R22   R(12,16)                1.0805         calculate D2E/DX2 analytically  !
 ! R23   R(17,20)                1.3913         calculate D2E/DX2 analytically  !
 ! R24   R(17,21)                1.0805         calculate D2E/DX2 analytically  !
 ! R25   R(17,23)                1.408          calculate D2E/DX2 analytically  !
 ! R26   R(18,19)                1.4132         calculate D2E/DX2 analytically  !
 ! R27   R(18,24)                1.4389         calculate D2E/DX2 analytically  !
 ! R28   R(19,20)                1.404          calculate D2E/DX2 analytically  !
 ! R29   R(19,22)                1.531          calculate D2E/DX2 analytically  !
 ! R30   R(20,57)                1.4856         calculate D2E/DX2 analytically  !
 ! R31   R(22,33)                1.0875         calculate D2E/DX2 analytically  !
 ! R32   R(22,34)                1.0914         calculate D2E/DX2 analytically  !
 ! R33   R(22,35)                1.4732         calculate D2E/DX2 analytically  !
 ! R34   R(23,24)                1.4281         calculate D2E/DX2 analytically  !
 ! R35   R(23,28)                1.4179         calculate D2E/DX2 analytically  !
 ! R36   R(24,25)                1.4273         calculate D2E/DX2 analytically  !
 ! R37   R(25,26)                1.3919         calculate D2E/DX2 analytically  !
 ! R38   R(25,29)                1.08           calculate D2E/DX2 analytically  !
 ! R39   R(26,27)                1.3882         calculate D2E/DX2 analytically  !
 ! R40   R(26,30)                1.0808         calculate D2E/DX2 analytically  !
 ! R41   R(27,28)                1.3907         calculate D2E/DX2 analytically  !
 ! R42   R(27,31)                1.0807         calculate D2E/DX2 analytically  !
 ! R43   R(28,32)                1.0805         calculate D2E/DX2 analytically  !
 ! R44   R(35,39)                1.4322         calculate D2E/DX2 analytically  !
 ! R45   R(38,39)                1.245          calculate D2E/DX2 analytically  !
 ! R46   R(38,41)                1.0068         calculate D2E/DX2 analytically  !
 ! R47   R(39,40)                1.3909         calculate D2E/DX2 analytically  !
 ! R48   R(40,42)                1.0066         calculate D2E/DX2 analytically  !
 ! R49   R(40,43)                1.0049         calculate D2E/DX2 analytically  !
 ! R50   R(44,45)                1.4001         calculate D2E/DX2 analytically  !
 ! R51   R(44,49)                1.3997         calculate D2E/DX2 analytically  !
 ! R52   R(44,67)                1.4928         calculate D2E/DX2 analytically  !
 ! R53   R(45,46)                1.3928         calculate D2E/DX2 analytically  !
 ! R54   R(45,50)                1.0798         calculate D2E/DX2 analytically  !
 ! R55   R(46,47)                1.3967         calculate D2E/DX2 analytically  !
 ! R56   R(46,51)                1.0804         calculate D2E/DX2 analytically  !
 ! R57   R(47,48)                1.3973         calculate D2E/DX2 analytically  !
 ! R58   R(48,49)                1.3919         calculate D2E/DX2 analytically  !
 ! R59   R(48,52)                1.0813         calculate D2E/DX2 analytically  !
 ! R60   R(49,53)                1.0801         calculate D2E/DX2 analytically  !
 ! R61   R(54,55)                1.4            calculate D2E/DX2 analytically  !
 ! R62   R(54,59)                1.4            calculate D2E/DX2 analytically  !
 ! R63   R(54,78)                1.4926         calculate D2E/DX2 analytically  !
 ! R64   R(55,56)                1.3921         calculate D2E/DX2 analytically  !
 ! R65   R(55,60)                1.0804         calculate D2E/DX2 analytically  !
 ! R66   R(56,57)                1.3961         calculate D2E/DX2 analytically  !
 ! R67   R(56,61)                1.0814         calculate D2E/DX2 analytically  !
 ! R68   R(57,58)                1.396          calculate D2E/DX2 analytically  !
 ! R69   R(58,59)                1.3924         calculate D2E/DX2 analytically  !
 ! R70   R(58,62)                1.0809         calculate D2E/DX2 analytically  !
 ! R71   R(59,63)                1.0802         calculate D2E/DX2 analytically  !
 ! R72   R(64,65)                1.3921         calculate D2E/DX2 analytically  !
 ! R73   R(64,69)                1.3922         calculate D2E/DX2 analytically  !
 ! R74   R(64,70)                1.0806         calculate D2E/DX2 analytically  !
 ! R75   R(65,66)                1.3928         calculate D2E/DX2 analytically  !
 ! R76   R(65,71)                1.0804         calculate D2E/DX2 analytically  !
 ! R77   R(66,67)                1.4015         calculate D2E/DX2 analytically  !
 ! R78   R(66,72)                1.0805         calculate D2E/DX2 analytically  !
 ! R79   R(67,68)                1.4015         calculate D2E/DX2 analytically  !
 ! R80   R(68,69)                1.3928         calculate D2E/DX2 analytically  !
 ! R81   R(68,73)                1.08           calculate D2E/DX2 analytically  !
 ! R82   R(69,74)                1.0803         calculate D2E/DX2 analytically  !
 ! R83   R(75,76)                1.392          calculate D2E/DX2 analytically  !
 ! R84   R(75,80)                1.3921         calculate D2E/DX2 analytically  !
 ! R85   R(75,81)                1.0807         calculate D2E/DX2 analytically  !
 ! R86   R(76,77)                1.3928         calculate D2E/DX2 analytically  !
 ! R87   R(76,82)                1.0805         calculate D2E/DX2 analytically  !
 ! R88   R(77,78)                1.4017         calculate D2E/DX2 analytically  !
 ! R89   R(77,83)                1.0801         calculate D2E/DX2 analytically  !
 ! R90   R(78,79)                1.4016         calculate D2E/DX2 analytically  !
 ! R91   R(79,80)                1.3927         calculate D2E/DX2 analytically  !
 ! R92   R(79,84)                1.0801         calculate D2E/DX2 analytically  !
 ! R93   R(80,85)                1.0805         calculate D2E/DX2 analytically  !
 ! A1    A(2,1,8)              119.374          calculate D2E/DX2 analytically  !
 ! A2    A(2,1,18)             120.4973         calculate D2E/DX2 analytically  !
 ! A3    A(8,1,18)             120.088          calculate D2E/DX2 analytically  !
 ! A4    A(1,2,3)              120.4336         calculate D2E/DX2 analytically  !
 ! A5    A(1,2,5)              117.4705         calculate D2E/DX2 analytically  !
 ! A6    A(3,2,5)              121.9999         calculate D2E/DX2 analytically  !
 ! A7    A(2,3,4)              119.8758         calculate D2E/DX2 analytically  !
 ! A8    A(2,3,47)             122.3584         calculate D2E/DX2 analytically  !
 ! A9    A(4,3,47)             117.7548         calculate D2E/DX2 analytically  !
 ! A10   A(3,4,6)              119.5204         calculate D2E/DX2 analytically  !
 ! A11   A(3,4,7)              121.6123         calculate D2E/DX2 analytically  !
 ! A12   A(6,4,7)              118.7717         calculate D2E/DX2 analytically  !
 ! A13   A(2,5,35)             116.5268         calculate D2E/DX2 analytically  !
 ! A14   A(2,5,36)             107.1746         calculate D2E/DX2 analytically  !
 ! A15   A(2,5,37)             109.5454         calculate D2E/DX2 analytically  !
 ! A16   A(35,5,36)            108.0955         calculate D2E/DX2 analytically  !
 ! A17   A(35,5,37)            110.867          calculate D2E/DX2 analytically  !
 ! A18   A(36,5,37)            103.7812         calculate D2E/DX2 analytically  !
 ! A19   A(4,7,8)              119.2736         calculate D2E/DX2 analytically  !
 ! A20   A(4,7,12)             120.7781         calculate D2E/DX2 analytically  !
 ! A21   A(8,7,12)             119.9416         calculate D2E/DX2 analytically  !
 ! A22   A(1,8,7)              119.1758         calculate D2E/DX2 analytically  !
 ! A23   A(1,8,9)              123.3155         calculate D2E/DX2 analytically  !
 ! A24   A(7,8,9)              117.5049         calculate D2E/DX2 analytically  !
 ! A25   A(8,9,10)             121.2758         calculate D2E/DX2 analytically  !
 ! A26   A(8,9,13)             119.8311         calculate D2E/DX2 analytically  !
 ! A27   A(10,9,13)            118.893          calculate D2E/DX2 analytically  !
 ! A28   A(9,10,11)            120.442          calculate D2E/DX2 analytically  !
 ! A29   A(9,10,14)            119.7894         calculate D2E/DX2 analytically  !
 ! A30   A(11,10,14)           119.7686         calculate D2E/DX2 analytically  !
 ! A31   A(10,11,12)           120.2904         calculate D2E/DX2 analytically  !
 ! A32   A(10,11,15)           119.7428         calculate D2E/DX2 analytically  !
 ! A33   A(12,11,15)           119.9629         calculate D2E/DX2 analytically  !
 ! A34   A(7,12,11)            120.5081         calculate D2E/DX2 analytically  !
 ! A35   A(7,12,16)            119.4914         calculate D2E/DX2 analytically  !
 ! A36   A(11,12,16)           119.9961         calculate D2E/DX2 analytically  !
 ! A37   A(20,17,21)           119.5831         calculate D2E/DX2 analytically  !
 ! A38   A(20,17,23)           121.4654         calculate D2E/DX2 analytically  !
 ! A39   A(21,17,23)           118.9036         calculate D2E/DX2 analytically  !
 ! A40   A(1,18,19)            120.2451         calculate D2E/DX2 analytically  !
 ! A41   A(1,18,24)            120.4635         calculate D2E/DX2 analytically  !
 ! A42   A(19,18,24)           119.2411         calculate D2E/DX2 analytically  !
 ! A43   A(18,19,20)           120.6948         calculate D2E/DX2 analytically  !
 ! A44   A(18,19,22)           116.8996         calculate D2E/DX2 analytically  !
 ! A45   A(20,19,22)           121.9752         calculate D2E/DX2 analytically  !
 ! A46   A(17,20,19)           119.9277         calculate D2E/DX2 analytically  !
 ! A47   A(17,20,57)           118.2131         calculate D2E/DX2 analytically  !
 ! A48   A(19,20,57)           121.8144         calculate D2E/DX2 analytically  !
 ! A49   A(19,22,33)           111.445          calculate D2E/DX2 analytically  !
 ! A50   A(19,22,34)           107.6835         calculate D2E/DX2 analytically  !
 ! A51   A(19,22,35)           114.1537         calculate D2E/DX2 analytically  !
 ! A52   A(33,22,34)           102.2241         calculate D2E/DX2 analytically  !
 ! A53   A(33,22,35)           112.922          calculate D2E/DX2 analytically  !
 ! A54   A(34,22,35)           107.4887         calculate D2E/DX2 analytically  !
 ! A55   A(17,23,24)           119.3067         calculate D2E/DX2 analytically  !
 ! A56   A(17,23,28)           120.7791         calculate D2E/DX2 analytically  !
 ! A57   A(24,23,28)           119.9072         calculate D2E/DX2 analytically  !
 ! A58   A(18,24,23)           119.1852         calculate D2E/DX2 analytically  !
 ! A59   A(18,24,25)           123.281          calculate D2E/DX2 analytically  !
 ! A60   A(23,24,25)           117.5266         calculate D2E/DX2 analytically  !
 ! A61   A(24,25,26)           121.2621         calculate D2E/DX2 analytically  !
 ! A62   A(24,25,29)           119.8176         calculate D2E/DX2 analytically  !
 ! A63   A(26,25,29)           118.9203         calculate D2E/DX2 analytically  !
 ! A64   A(25,26,27)           120.4549         calculate D2E/DX2 analytically  !
 ! A65   A(25,26,30)           119.7786         calculate D2E/DX2 analytically  !
 ! A66   A(27,26,30)           119.7664         calculate D2E/DX2 analytically  !
 ! A67   A(26,27,28)           120.2974         calculate D2E/DX2 analytically  !
 ! A68   A(26,27,31)           119.725          calculate D2E/DX2 analytically  !
 ! A69   A(28,27,31)           119.9734         calculate D2E/DX2 analytically  !
 ! A70   A(23,28,27)           120.5099         calculate D2E/DX2 analytically  !
 ! A71   A(23,28,32)           119.5116         calculate D2E/DX2 analytically  !
 ! A72   A(27,28,32)           119.9745         calculate D2E/DX2 analytically  !
 ! A73   A(5,35,22)            115.8082         calculate D2E/DX2 analytically  !
 ! A74   A(5,35,39)            119.0392         calculate D2E/DX2 analytically  !
 ! A75   A(22,35,39)           121.4548         calculate D2E/DX2 analytically  !
 ! A76   A(39,38,41)           110.3887         calculate D2E/DX2 analytically  !
 ! A77   A(35,39,38)           125.4055         calculate D2E/DX2 analytically  !
 ! A78   A(35,39,40)           117.5548         calculate D2E/DX2 analytically  !
 ! A79   A(38,39,40)           117.0396         calculate D2E/DX2 analytically  !
 ! A80   A(39,40,42)           113.8641         calculate D2E/DX2 analytically  !
 ! A81   A(39,40,43)           110.6033         calculate D2E/DX2 analytically  !
 ! A82   A(42,40,43)           109.2621         calculate D2E/DX2 analytically  !
 ! A83   A(45,44,49)           118.5225         calculate D2E/DX2 analytically  !
 ! A84   A(45,44,67)           120.7731         calculate D2E/DX2 analytically  !
 ! A85   A(49,44,67)           120.7043         calculate D2E/DX2 analytically  !
 ! A86   A(44,45,46)           120.7765         calculate D2E/DX2 analytically  !
 ! A87   A(44,45,50)           120.1857         calculate D2E/DX2 analytically  !
 ! A88   A(46,45,50)           119.0267         calculate D2E/DX2 analytically  !
 ! A89   A(45,46,47)           120.4363         calculate D2E/DX2 analytically  !
 ! A90   A(45,46,51)           119.5756         calculate D2E/DX2 analytically  !
 ! A91   A(47,46,51)           119.9821         calculate D2E/DX2 analytically  !
 ! A92   A(3,47,46)            120.4328         calculate D2E/DX2 analytically  !
 ! A93   A(3,47,48)            120.5514         calculate D2E/DX2 analytically  !
 ! A94   A(46,47,48)           119.012          calculate D2E/DX2 analytically  !
 ! A95   A(47,48,49)           120.4978         calculate D2E/DX2 analytically  !
 ! A96   A(47,48,52)           119.9547         calculate D2E/DX2 analytically  !
 ! A97   A(49,48,52)           119.5456         calculate D2E/DX2 analytically  !
 ! A98   A(44,49,48)           120.7471         calculate D2E/DX2 analytically  !
 ! A99   A(44,49,53)           120.3554         calculate D2E/DX2 analytically  !
 ! A100  A(48,49,53)           118.894          calculate D2E/DX2 analytically  !
 ! A101  A(55,54,59)           118.5752         calculate D2E/DX2 analytically  !
 ! A102  A(55,54,78)           120.7088         calculate D2E/DX2 analytically  !
 ! A103  A(59,54,78)           120.7161         calculate D2E/DX2 analytically  !
 ! A104  A(54,55,56)           120.723          calculate D2E/DX2 analytically  !
 ! A105  A(54,55,60)           120.2563         calculate D2E/DX2 analytically  !
 ! A106  A(56,55,60)           119.0132         calculate D2E/DX2 analytically  !
 ! A107  A(55,56,57)           120.3688         calculate D2E/DX2 analytically  !
 ! A108  A(55,56,61)           119.6747         calculate D2E/DX2 analytically  !
 ! A109  A(57,56,61)           119.9484         calculate D2E/DX2 analytically  !
 ! A110  A(20,57,56)           119.9559         calculate D2E/DX2 analytically  !
 ! A111  A(20,57,58)           120.7966         calculate D2E/DX2 analytically  !
 ! A112  A(56,57,58)           119.2458         calculate D2E/DX2 analytically  !
 ! A113  A(57,58,59)           120.3149         calculate D2E/DX2 analytically  !
 ! A114  A(57,58,62)           119.9563         calculate D2E/DX2 analytically  !
 ! A115  A(59,58,62)           119.7285         calculate D2E/DX2 analytically  !
 ! A116  A(54,59,58)           120.763          calculate D2E/DX2 analytically  !
 ! A117  A(54,59,63)           120.2187         calculate D2E/DX2 analytically  !
 ! A118  A(58,59,63)           119.013          calculate D2E/DX2 analytically  !
 ! A119  A(65,64,69)           120.4595         calculate D2E/DX2 analytically  !
 ! A120  A(65,64,70)           119.7527         calculate D2E/DX2 analytically  !
 ! A121  A(69,64,70)           119.7877         calculate D2E/DX2 analytically  !
 ! A122  A(64,65,66)           119.6587         calculate D2E/DX2 analytically  !
 ! A123  A(64,65,71)           120.2655         calculate D2E/DX2 analytically  !
 ! A124  A(66,65,71)           120.0755         calculate D2E/DX2 analytically  !
 ! A125  A(65,66,67)           120.7722         calculate D2E/DX2 analytically  !
 ! A126  A(65,66,72)           118.9952         calculate D2E/DX2 analytically  !
 ! A127  A(67,66,72)           120.2263         calculate D2E/DX2 analytically  !
 ! A128  A(44,67,66)           120.6112         calculate D2E/DX2 analytically  !
 ! A129  A(44,67,68)           120.7074         calculate D2E/DX2 analytically  !
 ! A130  A(66,67,68)           118.6814         calculate D2E/DX2 analytically  !
 ! A131  A(67,68,69)           120.7759         calculate D2E/DX2 analytically  !
 ! A132  A(67,68,73)           120.2047         calculate D2E/DX2 analytically  !
 ! A133  A(69,68,73)           119.0132         calculate D2E/DX2 analytically  !
 ! A134  A(64,69,68)           119.6522         calculate D2E/DX2 analytically  !
 ! A135  A(64,69,74)           120.2023         calculate D2E/DX2 analytically  !
 ! A136  A(68,69,74)           120.1452         calculate D2E/DX2 analytically  !
 ! A137  A(76,75,80)           120.4579         calculate D2E/DX2 analytically  !
 ! A138  A(76,75,81)           119.777          calculate D2E/DX2 analytically  !
 ! A139  A(80,75,81)           119.7651         calculate D2E/DX2 analytically  !
 ! A140  A(75,76,77)           119.6645         calculate D2E/DX2 analytically  !
 ! A141  A(75,76,82)           120.1928         calculate D2E/DX2 analytically  !
 ! A142  A(77,76,82)           120.1425         calculate D2E/DX2 analytically  !
 ! A143  A(76,77,78)           120.7666         calculate D2E/DX2 analytically  !
 ! A144  A(76,77,83)           118.951          calculate D2E/DX2 analytically  !
 ! A145  A(78,77,83)           120.2765         calculate D2E/DX2 analytically  !
 ! A146  A(54,78,77)           120.6824         calculate D2E/DX2 analytically  !
 ! A147  A(54,78,79)           120.6399         calculate D2E/DX2 analytically  !
 ! A148  A(77,78,79)           118.6776         calculate D2E/DX2 analytically  !
 ! A149  A(78,79,80)           120.7716         calculate D2E/DX2 analytically  !
 ! A150  A(78,79,84)           120.2885         calculate D2E/DX2 analytically  !
 ! A151  A(80,79,84)           118.9335         calculate D2E/DX2 analytically  !
 ! A152  A(75,80,79)           119.6617         calculate D2E/DX2 analytically  !
 ! A153  A(75,80,85)           120.1951         calculate D2E/DX2 analytically  !
 ! A154  A(79,80,85)           120.1429         calculate D2E/DX2 analytically  !
 ! D1    D(8,1,2,3)              3.8001         calculate D2E/DX2 analytically  !
 ! D2    D(8,1,2,5)           -172.7074         calculate D2E/DX2 analytically  !
 ! D3    D(18,1,2,3)          -178.519          calculate D2E/DX2 analytically  !
 ! D4    D(18,1,2,5)             4.9735         calculate D2E/DX2 analytically  !
 ! D5    D(2,1,8,7)             -5.3674         calculate D2E/DX2 analytically  !
 ! D6    D(2,1,8,9)            173.9018         calculate D2E/DX2 analytically  !
 ! D7    D(18,1,8,7)           176.9419         calculate D2E/DX2 analytically  !
 ! D8    D(18,1,8,9)            -3.7888         calculate D2E/DX2 analytically  !
 ! D9    D(2,1,18,19)          -57.0397         calculate D2E/DX2 analytically  !
 ! D10   D(2,1,18,24)          120.3611         calculate D2E/DX2 analytically  !
 ! D11   D(8,1,18,19)          120.6247         calculate D2E/DX2 analytically  !
 ! D12   D(8,1,18,24)          -61.9745         calculate D2E/DX2 analytically  !
 ! D13   D(1,2,3,4)              0.7425         calculate D2E/DX2 analytically  !
 ! D14   D(1,2,3,47)          -178.0229         calculate D2E/DX2 analytically  !
 ! D15   D(5,2,3,4)            177.0884         calculate D2E/DX2 analytically  !
 ! D16   D(5,2,3,47)            -1.6771         calculate D2E/DX2 analytically  !
 ! D17   D(1,2,5,35)            64.9884         calculate D2E/DX2 analytically  !
 ! D18   D(1,2,5,36)           -56.1847         calculate D2E/DX2 analytically  !
 ! D19   D(1,2,5,37)          -168.1658         calculate D2E/DX2 analytically  !
 ! D20   D(3,2,5,35)          -111.4607         calculate D2E/DX2 analytically  !
 ! D21   D(3,2,5,36)           127.3662         calculate D2E/DX2 analytically  !
 ! D22   D(3,2,5,37)            15.3851         calculate D2E/DX2 analytically  !
 ! D23   D(2,3,4,6)            179.8212         calculate D2E/DX2 analytically  !
 ! D24   D(2,3,4,7)             -3.7778         calculate D2E/DX2 analytically  !
 ! D25   D(47,3,4,6)            -1.3572         calculate D2E/DX2 analytically  !
 ! D26   D(47,3,4,7)           175.0438         calculate D2E/DX2 analytically  !
 ! D27   D(2,3,47,46)         -119.5291         calculate D2E/DX2 analytically  !
 ! D28   D(2,3,47,48)           61.1867         calculate D2E/DX2 analytically  !
 ! D29   D(4,3,47,46)           61.6805         calculate D2E/DX2 analytically  !
 ! D30   D(4,3,47,48)         -117.6036         calculate D2E/DX2 analytically  !
 ! D31   D(3,4,7,8)              2.1254         calculate D2E/DX2 analytically  !
 ! D32   D(3,4,7,12)          -176.9336         calculate D2E/DX2 analytically  !
 ! D33   D(6,4,7,8)            178.5527         calculate D2E/DX2 analytically  !
 ! D34   D(6,4,7,12)            -0.5064         calculate D2E/DX2 analytically  !
 ! D35   D(2,5,35,22)          -36.5963         calculate D2E/DX2 analytically  !
 ! D36   D(2,5,35,39)          164.7372         calculate D2E/DX2 analytically  !
 ! D37   D(36,5,35,22)          84.0883         calculate D2E/DX2 analytically  !
 ! D38   D(36,5,35,39)         -74.5783         calculate D2E/DX2 analytically  !
 ! D39   D(37,5,35,22)        -162.785          calculate D2E/DX2 analytically  !
 ! D40   D(37,5,35,39)          38.5484         calculate D2E/DX2 analytically  !
 ! D41   D(4,7,8,1)              2.465          calculate D2E/DX2 analytically  !
 ! D42   D(4,7,8,9)           -176.8465         calculate D2E/DX2 analytically  !
 ! D43   D(12,7,8,1)          -178.4679         calculate D2E/DX2 analytically  !
 ! D44   D(12,7,8,9)             2.2206         calculate D2E/DX2 analytically  !
 ! D45   D(4,7,12,11)          177.9547         calculate D2E/DX2 analytically  !
 ! D46   D(4,7,12,16)           -1.2851         calculate D2E/DX2 analytically  !
 ! D47   D(8,7,12,11)           -1.0982         calculate D2E/DX2 analytically  !
 ! D48   D(8,7,12,16)          179.6621         calculate D2E/DX2 analytically  !
 ! D49   D(1,8,9,10)           178.7566         calculate D2E/DX2 analytically  !
 ! D50   D(1,8,9,13)            -1.1658         calculate D2E/DX2 analytically  !
 ! D51   D(7,8,9,10)            -1.9627         calculate D2E/DX2 analytically  !
 ! D52   D(7,8,9,13)           178.1149         calculate D2E/DX2 analytically  !
 ! D53   D(8,9,10,11)            0.5309         calculate D2E/DX2 analytically  !
 ! D54   D(8,9,10,14)         -179.5396         calculate D2E/DX2 analytically  !
 ! D55   D(13,9,10,11)        -179.546          calculate D2E/DX2 analytically  !
 ! D56   D(13,9,10,14)           0.3835         calculate D2E/DX2 analytically  !
 ! D57   D(9,10,11,12)           0.6856         calculate D2E/DX2 analytically  !
 ! D58   D(9,10,11,15)         179.963          calculate D2E/DX2 analytically  !
 ! D59   D(14,10,11,12)       -179.244          calculate D2E/DX2 analytically  !
 ! D60   D(14,10,11,15)          0.0334         calculate D2E/DX2 analytically  !
 ! D61   D(10,11,12,7)          -0.3956         calculate D2E/DX2 analytically  !
 ! D62   D(10,11,12,16)        178.8403         calculate D2E/DX2 analytically  !
 ! D63   D(15,11,12,7)        -179.6714         calculate D2E/DX2 analytically  !
 ! D64   D(15,11,12,16)         -0.4355         calculate D2E/DX2 analytically  !
 ! D65   D(21,17,20,19)        179.6491         calculate D2E/DX2 analytically  !
 ! D66   D(21,17,20,57)         -2.7433         calculate D2E/DX2 analytically  !
 ! D67   D(23,17,20,19)         -2.8978         calculate D2E/DX2 analytically  !
 ! D68   D(23,17,20,57)        174.7097         calculate D2E/DX2 analytically  !
 ! D69   D(20,17,23,24)          1.4285         calculate D2E/DX2 analytically  !
 ! D70   D(20,17,23,28)       -177.6095         calculate D2E/DX2 analytically  !
 ! D71   D(21,17,23,24)        178.8984         calculate D2E/DX2 analytically  !
 ! D72   D(21,17,23,28)         -0.1396         calculate D2E/DX2 analytically  !
 ! D73   D(1,18,19,20)        -179.2879         calculate D2E/DX2 analytically  !
 ! D74   D(1,18,19,22)           8.0941         calculate D2E/DX2 analytically  !
 ! D75   D(24,18,19,20)          3.2796         calculate D2E/DX2 analytically  !
 ! D76   D(24,18,19,22)       -169.3384         calculate D2E/DX2 analytically  !
 ! D77   D(1,18,24,23)         177.9039         calculate D2E/DX2 analytically  !
 ! D78   D(1,18,24,25)          -3.0976         calculate D2E/DX2 analytically  !
 ! D79   D(19,18,24,23)         -4.6693         calculate D2E/DX2 analytically  !
 ! D80   D(19,18,24,25)        174.3291         calculate D2E/DX2 analytically  !
 ! D81   D(18,19,20,17)          0.4864         calculate D2E/DX2 analytically  !
 ! D82   D(18,19,20,57)       -177.0326         calculate D2E/DX2 analytically  !
 ! D83   D(22,19,20,17)        172.7234         calculate D2E/DX2 analytically  !
 ! D84   D(22,19,20,57)         -4.7955         calculate D2E/DX2 analytically  !
 ! D85   D(18,19,22,33)       -162.2071         calculate D2E/DX2 analytically  !
 ! D86   D(18,19,22,34)        -50.8609         calculate D2E/DX2 analytically  !
 ! D87   D(18,19,22,35)         68.3917         calculate D2E/DX2 analytically  !
 ! D88   D(20,19,22,33)         25.2766         calculate D2E/DX2 analytically  !
 ! D89   D(20,19,22,34)        136.6227         calculate D2E/DX2 analytically  !
 ! D90   D(20,19,22,35)       -104.1247         calculate D2E/DX2 analytically  !
 ! D91   D(17,20,57,56)        -66.8901         calculate D2E/DX2 analytically  !
 ! D92   D(17,20,57,58)        113.5988         calculate D2E/DX2 analytically  !
 ! D93   D(19,20,57,56)        110.6699         calculate D2E/DX2 analytically  !
 ! D94   D(19,20,57,58)        -68.8413         calculate D2E/DX2 analytically  !
 ! D95   D(19,22,35,5)         -49.377          calculate D2E/DX2 analytically  !
 ! D96   D(19,22,35,39)        108.7314         calculate D2E/DX2 analytically  !
 ! D97   D(33,22,35,5)        -178.0353         calculate D2E/DX2 analytically  !
 ! D98   D(33,22,35,39)        -19.9269         calculate D2E/DX2 analytically  !
 ! D99   D(34,22,35,5)          69.9856         calculate D2E/DX2 analytically  !
 ! D100  D(34,22,35,39)       -131.906          calculate D2E/DX2 analytically  !
 ! D101  D(17,23,24,18)          2.3664         calculate D2E/DX2 analytically  !
 ! D102  D(17,23,24,25)       -176.6894         calculate D2E/DX2 analytically  !
 ! D103  D(28,23,24,18)       -178.5871         calculate D2E/DX2 analytically  !
 ! D104  D(28,23,24,25)          2.3571         calculate D2E/DX2 analytically  !
 ! D105  D(17,23,28,27)        177.8659         calculate D2E/DX2 analytically  !
 ! D106  D(17,23,28,32)         -1.4015         calculate D2E/DX2 analytically  !
 ! D107  D(24,23,28,27)         -1.1664         calculate D2E/DX2 analytically  !
 ! D108  D(24,23,28,32)        179.5662         calculate D2E/DX2 analytically  !
 ! D109  D(18,24,25,26)        178.8997         calculate D2E/DX2 analytically  !
 ! D110  D(18,24,25,29)         -1.0758         calculate D2E/DX2 analytically  !
 ! D111  D(23,24,25,26)         -2.0863         calculate D2E/DX2 analytically  !
 ! D112  D(23,24,25,29)        177.9382         calculate D2E/DX2 analytically  !
 ! D113  D(24,25,26,27)          0.5703         calculate D2E/DX2 analytically  !
 ! D114  D(24,25,26,30)       -179.5323         calculate D2E/DX2 analytically  !
 ! D115  D(29,25,26,27)       -179.454          calculate D2E/DX2 analytically  !
 ! D116  D(29,25,26,30)          0.4434         calculate D2E/DX2 analytically  !
 ! D117  D(25,26,27,28)          0.7198         calculate D2E/DX2 analytically  !
 ! D118  D(25,26,27,31)        179.9782         calculate D2E/DX2 analytically  !
 ! D119  D(30,26,27,28)       -179.1775         calculate D2E/DX2 analytically  !
 ! D120  D(30,26,27,31)          0.0808         calculate D2E/DX2 analytically  !
 ! D121  D(26,27,28,23)         -0.4142         calculate D2E/DX2 analytically  !
 ! D122  D(26,27,28,32)        178.8498         calculate D2E/DX2 analytically  !
 ! D123  D(31,27,28,23)       -179.6707         calculate D2E/DX2 analytically  !
 ! D124  D(31,27,28,32)         -0.4067         calculate D2E/DX2 analytically  !
 ! D125  D(5,35,39,38)         -14.8136         calculate D2E/DX2 analytically  !
 ! D126  D(5,35,39,40)         165.1055         calculate D2E/DX2 analytically  !
 ! D127  D(22,35,39,38)       -172.2365         calculate D2E/DX2 analytically  !
 ! D128  D(22,35,39,40)          7.6826         calculate D2E/DX2 analytically  !
 ! D129  D(41,38,39,35)         -1.0481         calculate D2E/DX2 analytically  !
 ! D130  D(41,38,39,40)        179.0323         calculate D2E/DX2 analytically  !
 ! D131  D(35,39,40,42)        -52.7538         calculate D2E/DX2 analytically  !
 ! D132  D(35,39,40,43)       -176.2368         calculate D2E/DX2 analytically  !
 ! D133  D(38,39,40,42)        127.1723         calculate D2E/DX2 analytically  !
 ! D134  D(38,39,40,43)          3.6892         calculate D2E/DX2 analytically  !
 ! D135  D(49,44,45,46)          0.365          calculate D2E/DX2 analytically  !
 ! D136  D(49,44,45,50)        179.1417         calculate D2E/DX2 analytically  !
 ! D137  D(67,44,45,46)       -179.5257         calculate D2E/DX2 analytically  !
 ! D138  D(67,44,45,50)         -0.749          calculate D2E/DX2 analytically  !
 ! D139  D(45,44,49,48)         -0.1092         calculate D2E/DX2 analytically  !
 ! D140  D(45,44,49,53)        179.2037         calculate D2E/DX2 analytically  !
 ! D141  D(67,44,49,48)        179.7816         calculate D2E/DX2 analytically  !
 ! D142  D(67,44,49,53)         -0.9055         calculate D2E/DX2 analytically  !
 ! D143  D(45,44,67,66)        141.4641         calculate D2E/DX2 analytically  !
 ! D144  D(45,44,67,68)        -38.4897         calculate D2E/DX2 analytically  !
 ! D145  D(49,44,67,66)        -38.4242         calculate D2E/DX2 analytically  !
 ! D146  D(49,44,67,68)        141.622          calculate D2E/DX2 analytically  !
 ! D147  D(44,45,46,47)          0.0931         calculate D2E/DX2 analytically  !
 ! D148  D(44,45,46,51)        179.1974         calculate D2E/DX2 analytically  !
 ! D149  D(50,45,46,47)       -178.6976         calculate D2E/DX2 analytically  !
 ! D150  D(50,45,46,51)          0.4067         calculate D2E/DX2 analytically  !
 ! D151  D(45,46,47,3)         179.9036         calculate D2E/DX2 analytically  !
 ! D152  D(45,46,47,48)         -0.8013         calculate D2E/DX2 analytically  !
 ! D153  D(51,46,47,3)           0.803          calculate D2E/DX2 analytically  !
 ! D154  D(51,46,47,48)       -179.9019         calculate D2E/DX2 analytically  !
 ! D155  D(3,47,48,49)        -179.6491         calculate D2E/DX2 analytically  !
 ! D156  D(3,47,48,52)          -0.1419         calculate D2E/DX2 analytically  !
 ! D157  D(46,47,48,49)          1.0567         calculate D2E/DX2 analytically  !
 ! D158  D(46,47,48,52)       -179.4361         calculate D2E/DX2 analytically  !
 ! D159  D(47,48,49,44)         -0.6073         calculate D2E/DX2 analytically  !
 ! D160  D(47,48,49,53)       -179.9301         calculate D2E/DX2 analytically  !
 ! D161  D(52,48,49,44)        179.8835         calculate D2E/DX2 analytically  !
 ! D162  D(52,48,49,53)          0.5607         calculate D2E/DX2 analytically  !
 ! D163  D(59,54,55,56)         -0.459          calculate D2E/DX2 analytically  !
 ! D164  D(59,54,55,60)       -179.4514         calculate D2E/DX2 analytically  !
 ! D165  D(78,54,55,56)        179.5439         calculate D2E/DX2 analytically  !
 ! D166  D(78,54,55,60)          0.5516         calculate D2E/DX2 analytically  !
 ! D167  D(55,54,59,58)          0.3588         calculate D2E/DX2 analytically  !
 ! D168  D(55,54,59,63)       -178.7904         calculate D2E/DX2 analytically  !
 ! D169  D(78,54,59,58)       -179.6441         calculate D2E/DX2 analytically  !
 ! D170  D(78,54,59,63)          1.2066         calculate D2E/DX2 analytically  !
 ! D171  D(55,54,78,77)         38.4707         calculate D2E/DX2 analytically  !
 ! D172  D(55,54,78,79)       -141.449          calculate D2E/DX2 analytically  !
 ! D173  D(59,54,78,77)       -141.5263         calculate D2E/DX2 analytically  !
 ! D174  D(59,54,78,79)         38.554          calculate D2E/DX2 analytically  !
 ! D175  D(54,55,56,57)         -0.2104         calculate D2E/DX2 analytically  !
 ! D176  D(54,55,56,61)       -179.1752         calculate D2E/DX2 analytically  !
 ! D177  D(60,55,56,57)        178.7943         calculate D2E/DX2 analytically  !
 ! D178  D(60,55,56,61)         -0.1705         calculate D2E/DX2 analytically  !
 ! D179  D(55,56,57,20)       -178.5404         calculate D2E/DX2 analytically  !
 ! D180  D(55,56,57,58)          0.9783         calculate D2E/DX2 analytically  !
 ! D181  D(61,56,57,20)          0.4216         calculate D2E/DX2 analytically  !
 ! D182  D(61,56,57,58)        179.9403         calculate D2E/DX2 analytically  !
 ! D183  D(20,57,58,59)        178.437          calculate D2E/DX2 analytically  !
 ! D184  D(20,57,58,62)         -1.3442         calculate D2E/DX2 analytically  !
 ! D185  D(56,57,58,59)         -1.0776         calculate D2E/DX2 analytically  !
 ! D186  D(56,57,58,62)        179.1412         calculate D2E/DX2 analytically  !
 ! D187  D(57,58,59,54)          0.4115         calculate D2E/DX2 analytically  !
 ! D188  D(57,58,59,63)        179.5709         calculate D2E/DX2 analytically  !
 ! D189  D(62,58,59,54)       -179.8068         calculate D2E/DX2 analytically  !
 ! D190  D(62,58,59,63)         -0.6474         calculate D2E/DX2 analytically  !
 ! D191  D(69,64,65,66)          0.0321         calculate D2E/DX2 analytically  !
 ! D192  D(69,64,65,71)       -179.7616         calculate D2E/DX2 analytically  !
 ! D193  D(70,64,65,66)       -179.9629         calculate D2E/DX2 analytically  !
 ! D194  D(70,64,65,71)          0.2434         calculate D2E/DX2 analytically  !
 ! D195  D(65,64,69,68)          0.0448         calculate D2E/DX2 analytically  !
 ! D196  D(65,64,69,74)       -179.7774         calculate D2E/DX2 analytically  !
 ! D197  D(70,64,69,68)       -179.9602         calculate D2E/DX2 analytically  !
 ! D198  D(70,64,69,74)          0.2175         calculate D2E/DX2 analytically  !
 ! D199  D(64,65,66,67)         -0.0662         calculate D2E/DX2 analytically  !
 ! D200  D(64,65,66,72)       -179.1603         calculate D2E/DX2 analytically  !
 ! D201  D(71,65,66,67)        179.728          calculate D2E/DX2 analytically  !
 ! D202  D(71,65,66,72)          0.6338         calculate D2E/DX2 analytically  !
 ! D203  D(65,66,67,44)       -179.932          calculate D2E/DX2 analytically  !
 ! D204  D(65,66,67,68)          0.0227         calculate D2E/DX2 analytically  !
 ! D205  D(72,66,67,44)         -0.849          calculate D2E/DX2 analytically  !
 ! D206  D(72,66,67,68)        179.1058         calculate D2E/DX2 analytically  !
 ! D207  D(44,67,68,69)       -179.99           calculate D2E/DX2 analytically  !
 ! D208  D(44,67,68,73)         -0.9042         calculate D2E/DX2 analytically  !
 ! D209  D(66,67,68,69)          0.0553         calculate D2E/DX2 analytically  !
 ! D210  D(66,67,68,73)        179.1411         calculate D2E/DX2 analytically  !
 ! D211  D(67,68,69,64)         -0.089          calculate D2E/DX2 analytically  !
 ! D212  D(67,68,69,74)        179.7333         calculate D2E/DX2 analytically  !
 ! D213  D(73,68,69,64)       -179.1856         calculate D2E/DX2 analytically  !
 ! D214  D(73,68,69,74)          0.6367         calculate D2E/DX2 analytically  !
 ! D215  D(80,75,76,77)         -0.0448         calculate D2E/DX2 analytically  !
 ! D216  D(80,75,76,82)        179.7814         calculate D2E/DX2 analytically  !
 ! D217  D(81,75,76,77)        179.9446         calculate D2E/DX2 analytically  !
 ! D218  D(81,75,76,82)         -0.2292         calculate D2E/DX2 analytically  !
 ! D219  D(76,75,80,79)         -0.0305         calculate D2E/DX2 analytically  !
 ! D220  D(76,75,80,85)        179.7592         calculate D2E/DX2 analytically  !
 ! D221  D(81,75,80,79)        179.9801         calculate D2E/DX2 analytically  !
 ! D222  D(81,75,80,85)         -0.2302         calculate D2E/DX2 analytically  !
 ! D223  D(75,76,77,78)          0.074          calculate D2E/DX2 analytically  !
 ! D224  D(75,76,77,83)        179.1886         calculate D2E/DX2 analytically  !
 ! D225  D(82,76,77,78)       -179.7523         calculate D2E/DX2 analytically  !
 ! D226  D(82,76,77,83)         -0.6378         calculate D2E/DX2 analytically  !
 ! D227  D(76,77,78,54)       -179.9486         calculate D2E/DX2 analytically  !
 ! D228  D(76,77,78,79)         -0.0274         calculate D2E/DX2 analytically  !
 ! D229  D(83,77,78,54)          0.9486         calculate D2E/DX2 analytically  !
 ! D230  D(83,77,78,79)       -179.1302         calculate D2E/DX2 analytically  !
 ! D231  D(54,78,79,80)        179.8723         calculate D2E/DX2 analytically  !
 ! D232  D(54,78,79,84)          0.8003         calculate D2E/DX2 analytically  !
 ! D233  D(77,78,79,80)         -0.049          calculate D2E/DX2 analytically  !
 ! D234  D(77,78,79,84)       -179.121          calculate D2E/DX2 analytically  !
 ! D235  D(78,79,80,75)          0.0779         calculate D2E/DX2 analytically  !
 ! D236  D(78,79,80,85)       -179.7119         calculate D2E/DX2 analytically  !
 ! D237  D(84,79,80,75)        179.1623         calculate D2E/DX2 analytically  !
 ! D238  D(84,79,80,85)         -0.6275         calculate D2E/DX2 analytically  !
 --------------------------------------------------------------------------------
 Trust Radius=1.00D-01 FncErr=1.00D-07 GrdErr=1.00D-06 EigMax=2.50D+02 EigMin=1.00D-04
 Number of steps in this run=     50 maximum allowed number of steps=    510.
 GradGradGradGradGradGradGradGradGradGradGradGradGradGradGradGradGradGrad

 Stoichiometry    C47H35N3
 Framework group  C1[X(C47H35N3)]
 Deg. of freedom   249
 Full point group                 C1      NOp   1
 Largest Abelian subgroup         C1      NOp   1
 Largest concise Abelian subgroup C1      NOp   1
                         Standard orientation:                         
 ---------------------------------------------------------------------
 Center     Atomic      Atomic             Coordinates (Angstroms)
 Number     Number       Type             X           Y           Z
 ---------------------------------------------------------------------
      1          6           0       -0.783080    2.421419    0.316332
      2          6           0       -1.630036    1.317658    0.053280
      3          6           0       -2.947166    1.296737    0.546617
      4          6           0       -3.428039    2.373984    1.285424
      5          6           0       -1.027700    0.128201   -0.711141
      6          1           0       -4.441631    2.353149    1.659144
      7          6           0       -2.603458    3.462723    1.624317
      8          6           0       -1.253309    3.485931    1.162354
      9          6           0       -0.430388    4.573270    1.585135
     10          6           0       -0.936702    5.594804    2.383709
     11          6           0       -2.261188    5.572318    2.798678
     12          6           0       -3.093347    4.520113    2.432061
     13          1           0        0.605686    4.612059    1.282844
     14          1           0       -0.294218    6.410340    2.683678
     15          1           0       -2.642313    6.370981    3.418997
     16          1           0       -4.118287    4.497899    2.773233
     17          6           0        3.262387    2.526232   -1.234407
     18          6           0        0.624083    2.460653   -0.242072
     19          6           0        1.535308    1.420925    0.050659
     20          6           0        2.846634    1.455176   -0.449786
     21          1           0        4.274555    2.549707   -1.611928
     22          6           0        0.977045    0.195104    0.778541
     23          6           0        2.377448    3.560391   -1.594845
     24          6           0        1.031063    3.525452   -1.120106
     25          6           0        0.147207    4.553227   -1.566891
     26          6           0        0.591598    5.576860   -2.398805
     27          6           0        1.912306    5.613997   -2.824904
     28          6           0        2.803036    4.619102   -2.436559
     29          1           0       -0.887507    4.543632   -1.257578
     30          1           0       -0.096609    6.347220   -2.716626
     31          1           0        2.244611    6.414017   -3.470978
     32          1           0        3.825095    4.643004   -2.786351
     33          1           0        1.771005   -0.394365    1.231077
     34          1           0        0.426529    0.550104    1.651496
     35          7           0        0.049978   -0.615660   -0.029903
     36          1           0       -0.629869    0.516976   -1.650941
     37          1           0       -1.824503   -0.544152   -1.025170
     38          7           0       -0.242491   -2.594133   -1.321068
     39          6           0        0.422502   -1.907447   -0.523461
     40          7           0        1.626828   -2.443197   -0.079325
     41          1           0       -1.097452   -2.120772   -1.563288
     42          1           0        2.415412   -1.829936   -0.202586
     43          1           0        1.813647   -3.319139   -0.535055
     44          6           0       -5.586888   -2.047506   -0.074942
     45          6           0       -5.914742   -0.776358   -0.561625
     46          6           0       -5.061735    0.305926   -0.359615
     47          6           0       -3.860038    0.140097    0.332556
     48          6           0       -3.535183   -1.123332    0.833351
     49          6           0       -4.385866   -2.205385    0.626332
     50          1           0       -6.827953   -0.626984   -1.118221
     51          1           0       -5.327753    1.275557   -0.754850
     52          1           0       -2.613018   -1.266903    1.379459
     53          1           0       -4.109832   -3.170178    1.025863
     54          6           0        5.574405   -1.797018    0.228331
     55          6           0        5.077486   -1.532209   -1.053421
     56          6           0        4.203534   -0.470940   -1.272149
     57          6           0        3.804932    0.345154   -0.211896
     58          6           0        4.308805    0.097462    1.066263
     59          6           0        5.181235   -0.965635    1.283939
     60          1           0        5.356107   -2.161752   -1.886108
     61          1           0        3.819530   -0.289892   -2.266709
     62          1           0        4.018736    0.730687    1.892839
     63          1           0        5.563887   -1.133851    2.280020
     64          6           0       -8.199149   -5.389583   -0.725457
     65          6           0       -6.820132   -5.565437   -0.797500
     66          6           0       -5.974789   -4.479111   -0.584992
     67          6           0       -6.496200   -3.209648   -0.300604
     68          6           0       -7.887318   -3.053485   -0.233421
     69          6           0       -8.737070   -4.136882   -0.443528
     70          1           0       -8.856434   -6.231530   -0.889485
     71          1           0       -6.406153   -6.538154   -1.020296
     72          1           0       -4.906559   -4.624762   -0.656995
     73          1           0       -8.315290   -2.089210   -0.002315
     74          1           0       -9.807817   -4.005869   -0.385066
     75          6           0        8.242676   -5.088842    0.905934
     76          6           0        8.361180   -4.331140   -0.255706
     77          6           0        7.494008   -3.263277   -0.473620
     78          6           0        6.503454   -2.941099    0.464303
     79          6           0        6.401445   -3.715825    1.627842
     80          6           0        7.265184   -4.785605    1.849577
     81          1           0        8.914008   -5.918395    1.076447
     82          1           0        9.123717   -4.568112   -0.983623
     83          1           0        7.604741   -2.674913   -1.372553
     84          1           0        5.638600   -3.499442    2.361245
     85          1           0        7.174479   -5.378979    2.747959
 ---------------------------------------------------------------------
 Rotational constants (GHZ):           0.0625826           0.0354681           0.0249232
 Standard basis: 6-31G(d) (6D, 7F)
 There are   820 symmetry adapted cartesian basis functions of A   symmetry.
 There are   820 symmetry adapted basis functions of A   symmetry.
   820 basis functions,  1540 primitive gaussians,   820 cartesian basis functions
   169 alpha electrons      169 beta electrons
       nuclear repulsion energy      5689.7985345132 Hartrees.
 NAtoms=   85 NActive=   85 NUniq=   85 SFac= 1.00D+00 NAtFMM=   60 NAOKFM=T Big=T
 Integral buffers will be    131072 words long.
 Raffenetti 2 integral format.
 Two-electron integral symmetry is turned on.
 Force inversion solution in PCM.
 ------------------------------------------------------------------------------
 Polarizable Continuum Model (PCM)
 =================================
 Model                : PCM.
 Atomic radii         : UFF (Universal Force Field).
 Polarization charges : Total charges.
 Charge compensation  : None.
 Solution method      : Matrix inversion.
 Cavity type          : Scaled VdW (van der Waals Surface) (Alpha=1.100).
 Cavity algorithm     : GePol (No added spheres)
                        Default sphere list used, NSphG=   85.
                        Lebedev-Laikov grids with approx.  5.0 points / Ang**2.
                        Smoothing algorithm: York/Karplus (Gamma=1.0000).
                        Polarization charges: spherical gaussians, with
                                              point-specific exponents (IZeta= 3).
                        Self-potential: point-specific (ISelfS= 7).
                        Self-field    : sphere-specific E.n sum rule (ISelfD= 2).
 1st derivatives      : Analytical E(r).r(x)/FMM algorithm (CHGder, D1EAlg=3).
                        Cavity 1st derivative terms included.
 2nd derivatives      : Analytical E(r).r(xy)/FMM algorithm (CHGder, D2EAlg=3).
                        Cavity 2nd derivative terms included.
 Solvent              : Benzene, Eps=   2.270600 Eps(inf)=   2.253301
 ------------------------------------------------------------------------------
 One-electron integrals computed using PRISM.
 NBasis=   820 RedAO= T EigKep=  2.01D-04  NBF=   820
 NBsUse=   820 1.00D-06 EigRej= -1.00D+00 NBFU=   820
 ExpMin= 1.61D-01 ExpMax= 4.17D+03 ExpMxC= 6.27D+02 IAcc=3 IRadAn=         5 AccDes= 0.00D+00
 Harris functional with IExCor= 1009 and IRadAn=       5 diagonalized for initial guess.
 HarFok:  IExCor= 1009 AccDes= 0.00D+00 IRadAn=         5 IDoV= 1 UseB2=F ITyADJ=14
 ICtDFT=  3500011 ScaDFX=  1.000000  1.000000  1.000000  1.000000
 FoFCou: FMM=F IPFlag=           0 FMFlag=      100000 FMFlg1=        2001
         NFxFlg=           0 DoJE=T BraDBF=F KetDBF=T FulRan=T
         wScrn=  0.000000 ICntrl=       500 IOpCl=  0 I1Cent=   200000004 NGrid=           0
         NMat0=    1 NMatS0=      1 NMatT0=    0 NMatD0=    1 NMtDS0=    0 NMtDT0=    0
 Petite list used in FoFCou.
 Requested convergence on RMS density matrix=1.00D-08 within 128 cycles.
 Requested convergence on MAX density matrix=1.00D-06.
 Requested convergence on             energy=1.00D-06.
 No special actions if energy rises.
 Inv3:  Mode=1 IEnd=    99532800.
 Iteration    1 A*A^-1 deviation from unit magnitude is 3.33D-15 for   4074.
 Iteration    1 A*A^-1 deviation from orthogonality  is 3.00D-15 for   5222     83.
 Iteration    1 A^-1*A deviation from unit magnitude is 3.33D-15 for   4074.
 Iteration    1 A^-1*A deviation from orthogonality  is 2.15D-15 for   2399    861.
 Error on total polarization charges =  0.00962
 SCF Done:  E(RM062X) =  -1975.56733277     A.U. after   13 cycles
            NFock= 13  Conv=0.78D-08     -V/T= 2.0088
 DoSCS=F DFT=T ScalE2(SS,OS)=  1.000000  1.000000
 Range of M.O.s used for correlation:     1   820
 NBasis=   820 NAE=   169 NBE=   169 NFC=     0 NFV=     0
 NROrb=    820 NOA=   169 NOB=   169 NVA=   651 NVB=   651
 Symmetrizing basis deriv contribution to polar:
 IMax=3 JMax=2 DiffMx= 0.00D+00
 G2DrvN: will do    86 centers at a time, making    1 passes.
 Calling FoFCou, ICntrl=  3107 FMM=T I1Cent=   0 AccDes= 0.00D+00.
 NEqPCM:  Using equilibrium solvation (IEInf=0, Eps=   2.2706, EpsInf=   2.2533)
 G2PCM: DoFxE=T DoFxN=T DoGrad=T DoDP/DQ/DG/TGxP=FFFF NFrqRd=   0 IEInf=0 SqF1=F DoCFld=F IF1Alg=4.
 End of G2Drv F.D. properties file   721 does not exist.
 End of G2Drv F.D. properties file   722 does not exist.
 End of G2Drv F.D. properties file   788 does not exist.
          IDoAtm=11111111111111111111111111111111111111111111111111
          IDoAtm=11111111111111111111111111111111111
 NEqPCM:  Using equilibrium solvation (IEInf=0, Eps=   2.2706, EpsInf=   2.2533)
          Differentiating once with respect to nuclear coordinates.
 CalDSu exits because no D1Ps are significant.
          There are   258 degrees of freedom in the 1st order CPHF.  IDoFFX=6 NUNeed=     0.
    252 vectors produced by pass  0 Test12= 1.10D-13 1.00D-09 XBig12= 9.98D-02 9.96D-02.
 AX will form    72 AO Fock derivatives at one time.
    252 vectors produced by pass  1 Test12= 1.10D-13 1.00D-09 XBig12= 1.82D-02 1.82D-02.
    252 vectors produced by pass  2 Test12= 1.10D-13 1.00D-09 XBig12= 3.50D-04 2.86D-03.
    252 vectors produced by pass  3 Test12= 1.10D-13 1.00D-09 XBig12= 2.91D-06 1.96D-04.
    252 vectors produced by pass  4 Test12= 1.10D-13 1.00D-09 XBig12= 1.52D-08 6.95D-06.
    252 vectors produced by pass  5 Test12= 1.10D-13 1.00D-09 XBig12= 5.59D-11 4.45D-07.
    164 vectors produced by pass  6 Test12= 1.10D-13 1.00D-09 XBig12= 1.92D-13 2.46D-08.
     13 vectors produced by pass  7 Test12= 1.10D-13 1.00D-09 XBig12= 1.74D-15 1.78D-09.
     10 vectors produced by pass  8 Test12= 1.10D-13 1.00D-09 XBig12= 4.31D-15 3.06D-09.
      6 vectors produced by pass  9 Test12= 1.10D-13 1.00D-09 XBig12= 1.77D-15 1.74D-09.
      1 vectors produced by pass 10 Test12= 1.10D-13 1.00D-09 XBig12= 1.42D-15 1.59D-09.
 InvSVY:  IOpt=1 It=  1 EMax= 5.00D-16
 Solved reduced A of dimension  1706 with   258 vectors.
 End of Minotr F.D. properties file   721 does not exist.
 End of Minotr F.D. properties file   722 does not exist.
 End of Minotr F.D. properties file   788 does not exist.

 **********************************************************************

            Population analysis using the SCF Density.

 **********************************************************************

 Orbital symmetries:
       Occupied  (A) (A) (A) (A) (A) (A) (A) (A) (A) (A) (A) (A)
                 (A) (A) (A) (A) (A) (A) (A) (A) (A) (A) (A) (A)
                 (A) (A) (A) (A) (A) (A) (A) (A) (A) (A) (A) (A)
                 (A) (A) (A) (A) (A) (A) (A) (A) (A) (A) (A) (A)
                 (A) (A) (A) (A) (A) (A) (A) (A) (A) (A) (A) (A)
                 (A) (A) (A) (A) (A) (A) (A) (A) (A) (A) (A) (A)
                 (A) (A) (A) (A) (A) (A) (A) (A) (A) (A) (A) (A)
                 (A) (A) (A) (A) (A) (A) (A) (A) (A) (A) (A) (A)
                 (A) (A) (A) (A) (A) (A) (A) (A) (A) (A) (A) (A)
                 (A) (A) (A) (A) (A) (A) (A) (A) (A) (A) (A) (A)
                 (A) (A) (A) (A) (A) (A) (A) (A) (A) (A) (A) (A)
                 (A) (A) (A) (A) (A) (A) (A) (A) (A) (A) (A) (A)
                 (A) (A) (A) (A) (A) (A) (A) (A) (A) (A) (A) (A)
                 (A) (A) (A) (A) (A) (A) (A) (A) (A) (A) (A) (A)
                 (A)
       Virtual   (A) (A) (A) (A) (A) (A) (A) (A) (A) (A) (A) (A)
                 (A) (A) (A) (A) (A) (A) (A) (A) (A) (A) (A) (A)
                 (A) (A) (A) (A) (A) (A) (A) (A) (A) (A) (A) (A)
                 (A) (A) (A) (A) (A) (A) (A) (A) (A) (A) (A) (A)
                 (A) (A) (A) (A) (A) (A) (A) (A) (A) (A) (A) (A)
                 (A) (A) (A) (A) (A) (A) (A) (A) (A) (A) (A) (A)
                 (A) (A) (A) (A) (A) (A) (A) (A) (A) (A) (A) (A)
                 (A) (A) (A) (A) (A) (A) (A) (A) (A) (A) (A) (A)
                 (A) (A) (A) (A) (A) (A) (A) (A) (A) (A) (A) (A)
                 (A) (A) (A) (A) (A) (A) (A) (A) (A) (A) (A) (A)
                 (A) (A) (A) (A) (A) (A) (A) (A) (A) (A) (A) (A)
                 (A) (A) (A) (A) (A) (A) (A) (A) (A) (A) (A) (A)
                 (A) (A) (A) (A) (A) (A) (A) (A) (A) (A) (A) (A)
                 (A) (A) (A) (A) (A) (A) (A) (A) (A) (A) (A) (A)
                 (A) (A) (A) (A) (A) (A) (A) (A) (A) (A) (A) (A)
                 (A) (A) (A) (A) (A) (A) (A) (A) (A) (A) (A) (A)
                 (A) (A) (A) (A) (A) (A) (A) (A) (A) (A) (A) (A)
                 (A) (A) (A) (A) (A) (A) (A) (A) (A) (A) (A) (A)
                 (A) (A) (A) (A) (A) (A) (A) (A) (A) (A) (A) (A)
                 (A) (A) (A) (A) (A) (A) (A) (A) (A) (A) (A) (A)
                 (A) (A) (A) (A) (A) (A) (A) (A) (A) (A) (A) (A)
                 (A) (A) (A) (A) (A) (A) (A) (A) (A) (A) (A) (A)
                 (A) (A) (A) (A) (A) (A) (A) (A) (A) (A) (A) (A)
                 (A) (A) (A) (A) (A) (A) (A) (A) (A) (A) (A) (A)
                 (A) (A) (A) (A) (A) (A) (A) (A) (A) (A) (A) (A)
                 (A) (A) (A) (A) (A) (A) (A) (A) (A) (A) (A) (A)
                 (A) (A) (A) (A) (A) (A) (A) (A) (A) (A) (A) (A)
                 (A) (A) (A) (A) (A) (A) (A) (A) (A) (A) (A) (A)
                 (A) (A) (A) (A) (A) (A) (A) (A) (A) (A) (A) (A)
                 (A) (A) (A) (A) (A) (A) (A) (A) (A) (A) (A) (A)
                 (A) (A) (A) (A) (A) (A) (A) (A) (A) (A) (A) (A)
                 (A) (A) (A) (A) (A) (A) (A) (A) (A) (A) (A) (A)
                 (A) (A) (A) (A) (A) (A) (A) (A) (A) (A) (A) (A)
                 (A) (A) (A) (A) (A) (A) (A) (A) (A) (A) (A) (A)
                 (A) (A) (A) (A) (A) (A) (A) (A) (A) (A) (A) (A)
                 (A) (A) (A) (A) (A) (A) (A) (A) (A) (A) (A) (A)
                 (A) (A) (A) (A) (A) (A) (A) (A) (A) (A) (A) (A)
                 (A) (A) (A) (A) (A) (A) (A) (A) (A) (A) (A) (A)
                 (A) (A) (A) (A) (A) (A) (A) (A) (A) (A) (A) (A)
                 (A) (A) (A) (A) (A) (A) (A) (A) (A) (A) (A) (A)
                 (A) (A) (A) (A) (A) (A) (A) (A) (A) (A) (A) (A)
                 (A) (A) (A) (A) (A) (A) (A) (A) (A) (A) (A) (A)
                 (A) (A) (A) (A) (A) (A) (A) (A) (A) (A) (A) (A)
                 (A) (A) (A) (A) (A) (A) (A) (A) (A) (A) (A) (A)
                 (A) (A) (A) (A) (A) (A) (A) (A) (A) (A) (A) (A)
                 (A) (A) (A) (A) (A) (A) (A) (A) (A) (A) (A) (A)
                 (A) (A) (A) (A) (A) (A) (A) (A) (A) (A) (A) (A)
                 (A) (A) (A) (A) (A) (A) (A) (A) (A) (A) (A) (A)
                 (A) (A) (A) (A) (A) (A) (A) (A) (A) (A) (A) (A)
                 (A) (A) (A) (A) (A) (A) (A) (A) (A) (A) (A) (A)
                 (A) (A) (A) (A) (A) (A) (A) (A) (A) (A) (A) (A)
                 (A) (A) (A) (A) (A) (A) (A) (A) (A) (A) (A) (A)
                 (A) (A) (A) (A) (A) (A) (A) (A) (A) (A) (A) (A)
                 (A) (A) (A) (A) (A) (A) (A) (A) (A) (A) (A) (A)
                 (A) (A) (A)
 The electronic state is 1-A.
 Alpha  occ. eigenvalues --  -14.77829 -14.74511 -14.69813 -10.63415 -10.58543
 Alpha  occ. eigenvalues --  -10.58091 -10.57661 -10.57541 -10.57465 -10.57031
 Alpha  occ. eigenvalues --  -10.56973 -10.56919 -10.56879 -10.56872 -10.56803
 Alpha  occ. eigenvalues --  -10.56780 -10.56539 -10.56459 -10.56414 -10.56259
 Alpha  occ. eigenvalues --  -10.56222 -10.56101 -10.56093 -10.56085 -10.56016
 Alpha  occ. eigenvalues --  -10.56007 -10.55881 -10.55746 -10.55711 -10.55677
 Alpha  occ. eigenvalues --  -10.55582 -10.55563 -10.55426 -10.55419 -10.55408
 Alpha  occ. eigenvalues --  -10.55378 -10.55375 -10.55347 -10.55337 -10.55286
 Alpha  occ. eigenvalues --  -10.55266 -10.55257 -10.55248 -10.55165 -10.55132
 Alpha  occ. eigenvalues --  -10.55024 -10.54959 -10.54939 -10.54883 -10.54784
 Alpha  occ. eigenvalues --   -1.08252  -1.00947  -0.98918  -0.98589  -0.97859
 Alpha  occ. eigenvalues --   -0.97323  -0.95921  -0.95441  -0.94376  -0.93153
 Alpha  occ. eigenvalues --   -0.93062  -0.90432  -0.88213  -0.87650  -0.86795
 Alpha  occ. eigenvalues --   -0.85417  -0.85142  -0.85092  -0.84645  -0.84250
 Alpha  occ. eigenvalues --   -0.83783  -0.83323  -0.83038  -0.80442  -0.79926
 Alpha  occ. eigenvalues --   -0.77744  -0.76473  -0.73122  -0.72453  -0.71056
 Alpha  occ. eigenvalues --   -0.70660  -0.70154  -0.69523  -0.69033  -0.68126
 Alpha  occ. eigenvalues --   -0.67973  -0.67774  -0.67359  -0.66048  -0.65623
 Alpha  occ. eigenvalues --   -0.64706  -0.63765  -0.62120  -0.61374  -0.60668
 Alpha  occ. eigenvalues --   -0.59635  -0.58897  -0.58579  -0.57972  -0.57115
 Alpha  occ. eigenvalues --   -0.55911  -0.55458  -0.55362  -0.54858  -0.53910
 Alpha  occ. eigenvalues --   -0.53715  -0.53175  -0.52973  -0.52535  -0.51966
 Alpha  occ. eigenvalues --   -0.51737  -0.51605  -0.51164  -0.50952  -0.50728
 Alpha  occ. eigenvalues --   -0.50634  -0.50164  -0.49778  -0.49724  -0.49081
 Alpha  occ. eigenvalues --   -0.48740  -0.48523  -0.48442  -0.48377  -0.48186
 Alpha  occ. eigenvalues --   -0.47305  -0.46617  -0.46362  -0.46164  -0.45906
 Alpha  occ. eigenvalues --   -0.44937  -0.44687  -0.44297  -0.44072  -0.43796
 Alpha  occ. eigenvalues --   -0.43204  -0.43011  -0.42803  -0.42748  -0.42251
 Alpha  occ. eigenvalues --   -0.41772  -0.41180  -0.40708  -0.40114  -0.39997
 Alpha  occ. eigenvalues --   -0.39840  -0.39583  -0.38946  -0.38859  -0.38821
 Alpha  occ. eigenvalues --   -0.37942  -0.37614  -0.34752  -0.33999  -0.33480
 Alpha  occ. eigenvalues --   -0.33348  -0.32929  -0.31631  -0.30686  -0.30682
 Alpha  occ. eigenvalues --   -0.30318  -0.30223  -0.29992  -0.29720  -0.27787
 Alpha  occ. eigenvalues --   -0.27484  -0.26753  -0.26267  -0.25238
 Alpha virt. eigenvalues --   -0.03224  -0.01985  -0.00358  -0.00056   0.01604
 Alpha virt. eigenvalues --    0.02031   0.02494   0.02867   0.03075   0.03477
 Alpha virt. eigenvalues --    0.05513   0.06053   0.06535   0.07423   0.11296
 Alpha virt. eigenvalues --    0.12802   0.13502   0.13937   0.14282   0.14423
 Alpha virt. eigenvalues --    0.14618   0.14815   0.14998   0.15376   0.16501
 Alpha virt. eigenvalues --    0.16646   0.17108   0.17304   0.17652   0.18055
 Alpha virt. eigenvalues --    0.18259   0.18958   0.19323   0.20080   0.20304
 Alpha virt. eigenvalues --    0.20503   0.20572   0.20719   0.21034   0.21415
 Alpha virt. eigenvalues --    0.21633   0.21927   0.22094   0.22271   0.22438
 Alpha virt. eigenvalues --    0.22582   0.22699   0.23065   0.23191   0.23591
 Alpha virt. eigenvalues --    0.23973   0.24197   0.24326   0.24482   0.24712
 Alpha virt. eigenvalues --    0.25195   0.25351   0.26418   0.26685   0.27734
 Alpha virt. eigenvalues --    0.28036   0.28757   0.29102   0.29717   0.29888
 Alpha virt. eigenvalues --    0.30068   0.30393   0.30942   0.31334   0.32374
 Alpha virt. eigenvalues --    0.33500   0.33878   0.33913   0.34148   0.34314
 Alpha virt. eigenvalues --    0.34540   0.34671   0.34920   0.35194   0.35578
 Alpha virt. eigenvalues --    0.36350   0.36793   0.36960   0.37492   0.37765
 Alpha virt. eigenvalues --    0.37991   0.38688   0.38859   0.39684   0.40338
 Alpha virt. eigenvalues --    0.40701   0.41312   0.41702   0.41992   0.42699
 Alpha virt. eigenvalues --    0.42938   0.43220   0.44666   0.47049   0.48569
 Alpha virt. eigenvalues --    0.50222   0.50561   0.52018   0.52409   0.53104
 Alpha virt. eigenvalues --    0.53265   0.53690   0.54257   0.54852   0.55066
 Alpha virt. eigenvalues --    0.55247   0.55410   0.56074   0.56396   0.56745
 Alpha virt. eigenvalues --    0.57064   0.57505   0.58060   0.58432   0.58643
 Alpha virt. eigenvalues --    0.58771   0.58916   0.59033   0.59060   0.59278
 Alpha virt. eigenvalues --    0.59576   0.59643   0.59813   0.60172   0.60481
 Alpha virt. eigenvalues --    0.60560   0.60821   0.61096   0.61311   0.61472
 Alpha virt. eigenvalues --    0.61715   0.61886   0.62127   0.62300   0.62701
 Alpha virt. eigenvalues --    0.62972   0.63099   0.63345   0.63670   0.63798
 Alpha virt. eigenvalues --    0.64231   0.64316   0.64591   0.64664   0.64669
 Alpha virt. eigenvalues --    0.65003   0.65109   0.65445   0.65656   0.65695
 Alpha virt. eigenvalues --    0.65758   0.66080   0.66132   0.66181   0.66403
 Alpha virt. eigenvalues --    0.66589   0.66695   0.66803   0.66923   0.67217
 Alpha virt. eigenvalues --    0.67383   0.67566   0.68017   0.68153   0.68502
 Alpha virt. eigenvalues --    0.69023   0.69260   0.69482   0.69800   0.70002
 Alpha virt. eigenvalues --    0.70351   0.70667   0.71414   0.72086   0.72319
 Alpha virt. eigenvalues --    0.72573   0.72608   0.73175   0.73471   0.74127
 Alpha virt. eigenvalues --    0.74416   0.74492   0.74882   0.75282   0.76289
 Alpha virt. eigenvalues --    0.77045   0.77948   0.78152   0.78795   0.79308
 Alpha virt. eigenvalues --    0.80006   0.80681   0.81072   0.82392   0.82909
 Alpha virt. eigenvalues --    0.83580   0.84268   0.84741   0.85307   0.85930
 Alpha virt. eigenvalues --    0.86143   0.86473   0.86834   0.87003   0.87680
 Alpha virt. eigenvalues --    0.87983   0.88431   0.88503   0.88682   0.89257
 Alpha virt. eigenvalues --    0.89482   0.89975   0.90236   0.90718   0.90863
 Alpha virt. eigenvalues --    0.91038   0.91168   0.91331   0.91348   0.91393
 Alpha virt. eigenvalues --    0.91571   0.91946   0.92053   0.92211   0.92441
 Alpha virt. eigenvalues --    0.92529   0.92713   0.92768   0.93031   0.93265
 Alpha virt. eigenvalues --    0.93509   0.94482   0.95039   0.95402   0.95910
 Alpha virt. eigenvalues --    0.96346   0.96997   0.97189   0.97528   0.97608
 Alpha virt. eigenvalues --    0.98099   0.98340   0.98731   0.98958   0.99146
 Alpha virt. eigenvalues --    0.99386   0.99825   1.00157   1.00432   1.00705
 Alpha virt. eigenvalues --    1.01232   1.01448   1.01657   1.01901   1.02539
 Alpha virt. eigenvalues --    1.03005   1.03121   1.03246   1.04212   1.04991
 Alpha virt. eigenvalues --    1.05619   1.06071   1.06302   1.06746   1.07077
 Alpha virt. eigenvalues --    1.07396   1.08035   1.09097   1.09339   1.09861
 Alpha virt. eigenvalues --    1.10463   1.11065   1.11418   1.11938   1.12183
 Alpha virt. eigenvalues --    1.12610   1.13243   1.13711   1.14801   1.15422
 Alpha virt. eigenvalues --    1.15812   1.16045   1.16571   1.16913   1.17251
 Alpha virt. eigenvalues --    1.17913   1.18915   1.19088   1.19802   1.21145
 Alpha virt. eigenvalues --    1.21520   1.21737   1.22246   1.22328   1.22590
 Alpha virt. eigenvalues --    1.23626   1.23913   1.24245   1.25380   1.25759
 Alpha virt. eigenvalues --    1.25933   1.26616   1.26983   1.27850   1.28949
 Alpha virt. eigenvalues --    1.29009   1.30674   1.31204   1.31515   1.31822
 Alpha virt. eigenvalues --    1.32338   1.32772   1.33192   1.33467   1.34407
 Alpha virt. eigenvalues --    1.34809   1.36151   1.36392   1.36916   1.37953
 Alpha virt. eigenvalues --    1.39986   1.40501   1.40610   1.42816   1.43753
 Alpha virt. eigenvalues --    1.44541   1.45163   1.45615   1.45781   1.46028
 Alpha virt. eigenvalues --    1.46248   1.46343   1.46913   1.47405   1.47883
 Alpha virt. eigenvalues --    1.47970   1.48461   1.49065   1.49957   1.50024
 Alpha virt. eigenvalues --    1.50624   1.50961   1.51394   1.51926   1.52375
 Alpha virt. eigenvalues --    1.52803   1.53173   1.53392   1.53641   1.53858
 Alpha virt. eigenvalues --    1.54127   1.54317   1.54507   1.54866   1.54952
 Alpha virt. eigenvalues --    1.55103   1.55294   1.55419   1.55543   1.56162
 Alpha virt. eigenvalues --    1.56289   1.56633   1.56762   1.58567   1.59080
 Alpha virt. eigenvalues --    1.60584   1.61415   1.62935   1.63513   1.65469
 Alpha virt. eigenvalues --    1.66808   1.67162   1.70426   1.72458   1.74306
 Alpha virt. eigenvalues --    1.75863   1.76359   1.76833   1.77166   1.78684
 Alpha virt. eigenvalues --    1.78841   1.79659   1.80113   1.80298   1.80624
 Alpha virt. eigenvalues --    1.81523   1.82201   1.82890   1.83267   1.83649
 Alpha virt. eigenvalues --    1.84286   1.84542   1.84701   1.84787   1.85370
 Alpha virt. eigenvalues --    1.86193   1.86707   1.86933   1.87256   1.88090
 Alpha virt. eigenvalues --    1.88784   1.89204   1.89682   1.89814   1.90154
 Alpha virt. eigenvalues --    1.91499   1.91527   1.92345   1.92838   1.93462
 Alpha virt. eigenvalues --    1.93579   1.94256   1.94794   1.95199   1.95373
 Alpha virt. eigenvalues --    1.96103   1.97461   1.98086   1.98334   1.98407
 Alpha virt. eigenvalues --    1.98615   1.98716   1.99616   2.00600   2.01972
 Alpha virt. eigenvalues --    2.03132   2.03598   2.03769   2.03883   2.04335
 Alpha virt. eigenvalues --    2.04493   2.05254   2.05329   2.05645   2.07042
 Alpha virt. eigenvalues --    2.07220   2.08106   2.08762   2.09148   2.09419
 Alpha virt. eigenvalues --    2.10238   2.10486   2.10551   2.10875   2.11166
 Alpha virt. eigenvalues --    2.12665   2.13073   2.14116   2.14675   2.15095
 Alpha virt. eigenvalues --    2.15622   2.15975   2.16288   2.16526   2.16836
 Alpha virt. eigenvalues --    2.17360   2.17863   2.18722   2.18925   2.19112
 Alpha virt. eigenvalues --    2.19834   2.20004   2.20129   2.20324   2.21397
 Alpha virt. eigenvalues --    2.22425   2.23412   2.23797   2.24524   2.24839
 Alpha virt. eigenvalues --    2.25894   2.26220   2.27187   2.28026   2.28945
 Alpha virt. eigenvalues --    2.29414   2.29641   2.30147   2.30381   2.31268
 Alpha virt. eigenvalues --    2.31744   2.32629   2.32768   2.33206   2.33253
 Alpha virt. eigenvalues --    2.33630   2.33839   2.34081   2.34186   2.34422
 Alpha virt. eigenvalues --    2.34873   2.35038   2.36413   2.36880   2.37228
 Alpha virt. eigenvalues --    2.37521   2.37686   2.38964   2.39175   2.39561
 Alpha virt. eigenvalues --    2.40428   2.41055   2.42988   2.43853   2.44242
 Alpha virt. eigenvalues --    2.45043   2.45318   2.45749   2.46424   2.48012
 Alpha virt. eigenvalues --    2.49198   2.49664   2.50888   2.54092   2.54400
 Alpha virt. eigenvalues --    2.56165   2.56870   2.58752   2.59623   2.59889
 Alpha virt. eigenvalues --    2.61372   2.61662   2.61814   2.62002   2.62479
 Alpha virt. eigenvalues --    2.64040   2.64381   2.64579   2.64672   2.64899
 Alpha virt. eigenvalues --    2.65320   2.66394   2.66733   2.66914   2.67534
 Alpha virt. eigenvalues --    2.68226   2.68519   2.68869   2.69210   2.69660
 Alpha virt. eigenvalues --    2.70410   2.70894   2.71649   2.72126   2.72354
 Alpha virt. eigenvalues --    2.72803   2.73701   2.76221   2.76693   2.77064
 Alpha virt. eigenvalues --    2.77333   2.77587   2.77696   2.78127   2.78526
 Alpha virt. eigenvalues --    2.79284   2.79485   2.79815   2.80378   2.81038
 Alpha virt. eigenvalues --    2.82182   2.83199   2.83499   2.84509   2.85489
 Alpha virt. eigenvalues --    2.86394   2.87141   2.87754   2.88182   2.89885
 Alpha virt. eigenvalues --    2.90731   2.93460   2.94278   2.97675   2.99156
 Alpha virt. eigenvalues --    2.99697   2.99781   3.02177   3.04517   3.05919
 Alpha virt. eigenvalues --    3.07515   3.08020   3.10398   3.14546   3.15874
 Alpha virt. eigenvalues --    3.18540   3.21197   3.22401   3.34524   3.36987
 Alpha virt. eigenvalues --    3.39320   3.40636   3.45279   3.46839   3.48600
 Alpha virt. eigenvalues --    3.50916   3.93517   4.01546   4.09092   4.11525
 Alpha virt. eigenvalues --    4.11725   4.11859   4.11984   4.13551   4.14136
 Alpha virt. eigenvalues --    4.14378   4.14765   4.14806   4.15143   4.15688
 Alpha virt. eigenvalues --    4.16655   4.16867   4.17426   4.17867   4.19493
[...]
 00000069,0.00000034,0.00000010,0.00002168,0.00000885,0.00000574,-0.000
 06515,0.00001517,-0.00001752,0.00008586,0.00000808,0.00008169,0.000002
 37,-0.00000061,-0.00000097,0.00000003,-0.00000316,-0.00001870,0.000000
 30,-0.00001199,-0.00001097,-0.00000049,-0.00000047,0.00000020,0.000000
 47,-0.00000013,-0.00000004,0.00000026,-0.00000039,-0.00000008,0.000000
 75,0.00000097,-0.00000060,-0.00000079,-0.00000142,-0.00000122,0.000000
 99,-0.00000052,-0.00000052,0.00000002,0.00000018,0.00000026,0.00000004
 ,0.00000011,0.00000034,-0.00000092,0.00000137,0.00000107,-0.00000075,-
 0.00000005,0.00000079,-0.00046382,-0.00152539,-0.00073212,0.00012140,0
 .00009395,-0.00006203,0.00007365,-0.00004633,-0.00009295,-0.00008914,0
 .00003879,0.00009688,-0.00004730,-0.00018404,-0.00038804,0.00023541,0.
 00069659,0.00019598,-0.00003037,-0.00001980,-0.00003657,-0.00001669,-0
 .00002547,0.00002129,0.00006545,0.00002170,0.00000305,0.00014195,-0.00
 009339,-0.00047722,0.00000010,-0.00000006,-0.00000017,0.00000019,0.000
 00003,-0.00000027,-0.00000082,-0.00000001,-0.00000006,0.00000019,-0.00
 000028,0.00000019,-0.00000003,0.00000027,-0.00000038,0.,-0.00000007,-0
 .00000014,0.00000008,0.00000017,0.00000010,-0.00000010,-0.00000008,0.0
 0000027,0.00000016,0.00000004,0.00000017,0.00000006,-0.00000010,0.0000
 0027,0.00000027,0.00000009,0.00000008,0.00040840,0.00427085,-0.0028330
 9,0.00022494,-0.00033459,-0.00063534,0.00266031,0.00186708,0.00094609,
 -0.00133593,0.00249443,0.00046937,-0.25831100,0.09287593,0.10083707,-0
 .01270537,0.00649964,0.01059517,-0.00074889,0.00033536,0.00056611,-0.0
 0031749,-0.00047436,-0.00000555,0.00001420,0.00020941,0.00001225,0.270
 23400,0.00000706,-0.00000123,-0.00000482,-0.00000305,0.00000255,0.0000
 0299,0.00000335,0.00000107,-0.00000226,-0.00000206,-0.00000219,0.00000
 057,-0.00001561,-0.00000541,-0.00001140,-0.00000048,0.00000051,0.00000
 031,0.00000059,0.00000116,0.00000020,-0.00000493,-0.00000053,0.0000022
 0,0.00000352,-0.00000044,-0.00000211,-0.00000050,-0.00000081,-0.000000
 50,0.00000018,-0.00000194,-0.00000037,-0.00000191,-0.00000034,0.000000
 36,-0.00000059,-0.00000055,0.00000130,0.00000040,-0.00000108,0.0000007
 6,0.00000004,0.,0.00000031,-0.00000033,0.00000018,0.00000025,-0.000020
 14,0.00000234,-0.00000769,-0.00000025,-0.00000190,0.00000210,-0.000000
 53,-0.00000365,-0.00000938,0.00004106,-0.00000323,-0.00001626,-0.00000
 164,-0.00000225,0.00000358,0.00001951,0.00002229,0.00001261,0.00000388
 ,0.00000337,0.00000159,-0.00000313,0.00000285,-0.00000095,0.00000175,-
 0.00000105,-0.00000030,-0.00000072,0.00000015,-0.00000138,-0.00000073,
 -0.00000046,-0.00000106,-0.00000388,-0.00000003,-0.00000166,-0.0000012
 4,0.00000080,-0.00000065,-0.00000054,0.00000080,-0.00000047,0.00000001
 ,0.00000077,-0.00000050,0.00000008,0.00000044,0.00000150,0.00000809,0.
 00002008,-0.00000821,-0.00000161,-0.00000733,-0.00000022,0.00003724,-0
 .00007598,0.00002818,0.00000314,0.00000018,0.00000699,-0.00000353,-0.0
 0000028,-0.00000158,0.00003076,-0.00001871,0.00002982,-0.00013458,0.00
 007727,-0.00005718,0.00012636,-0.00001545,0.00011426,0.00000843,-0.000
 00054,-0.00000478,0.00001770,0.00003704,-0.00004091,-0.00005882,-0.000
 02633,-0.00008799,-0.00000103,-0.00000190,0.00000108,0.00000065,-0.000
 00100,0.00000138,0.00000071,-0.00000216,0.00000110,0.00000163,0.000006
 04,-0.00000155,-0.00000248,-0.00000437,0.00000056,-0.00000056,0.000002
 39,-0.00000433,0.00000015,0.00000004,0.00000035,0.00000109,-0.00000019
 ,0.00000099,-0.00000086,0.00000459,-0.00000083,-0.00000217,-0.00000172
 ,0.00000156,-0.00073339,-0.00322100,0.00013963,-0.00046524,0.00024261,
 -0.00074237,0.00034668,-0.00030630,-0.00012553,-0.00005939,0.00024125,
 0.00026083,-0.00024276,-0.00007025,-0.00045147,0.00016874,-0.00029275,
 0.00133728,-0.00004875,-0.00004236,-0.00001328,-0.00002414,0.00000916,
 -0.00002389,-0.00002617,-0.00002601,0.00003526,0.00033111,-0.00126025,
 0.00084391,-0.00000024,-0.00000136,0.00000087,0.00000054,0.00000141,0.
 00000056,-0.00000335,-0.00000097,0.00000222,0.00000188,0.00000186,-0.0
 0000109,0.00000009,-0.00000020,0.00000051,0.00000030,-0.00000009,0.000
 00019,-0.00000006,0.00000021,-0.00000042,-0.00000081,-0.00000171,-0.00
 000030,0.00000010,0.00000066,-0.00000214,0.00000057,-0.00000065,-0.000
 00009,0.00000062,-0.00000017,-0.00000030,0.00412792,0.00466261,0.00357
 501,-0.00040092,-0.00029265,0.00022172,0.00214668,0.00492164,0.0016564
 2,-0.00289992,0.00478314,0.00044186,0.09230272,-0.07741070,-0.03757068
 ,0.01218577,-0.00166623,-0.00713908,0.00064266,-0.00013236,-0.00036002
 ,-0.00046547,-0.00092912,-0.00023370,-0.00008540,0.00034277,0.00009252
 ,-0.10466541,0.07343086,-0.00000812,-0.00000100,0.00000816,0.00000100,
 0.00000553,0.00000504,-0.00000473,-0.00000829,0.00000226,0.00000490,0.
 00000242,-0.00000240,-0.00001950,0.00000394,-0.00001698,0.00000206,-0.
 00000090,-0.00000019,0.00000113,-0.00000199,-0.00000108,0.00000686,0.0
 0000758,-0.00000332,-0.00000041,-0.00000276,-0.00000035,0.00000138,0.,
 -0.00000049,0.00000011,-0.00000097,-0.00000003,-0.00000155,-0.00000024
 ,0.00000034,0.00000079,0.00000427,0.00000025,-0.00000056,-0.00000108,0
 .00000044,0.00000124,-0.00000155,0.00000005,0.00000200,-0.00000002,-0.
 00000030,0.00003601,-0.00002277,0.00000397,-0.00000254,-0.00000379,-0.
 00000311,0.00001357,-0.00001051,0.00002924,-0.00004403,0.00006341,-0.0
 0002041,0.00000311,0.00000543,-0.00001092,-0.00002513,0.00001111,-0.00
 000886,-0.00000714,0.00000827,0.00000042,0.00001003,-0.00000567,0.0000
 0250,-0.00001071,-0.00000091,0.00000392,0.00000377,-0.00000391,0.00000
 722,0.00000278,-0.00000188,0.00000268,0.00001724,-0.00000339,-0.000001
 26,0.00000277,0.00000016,0.00000065,0.00000156,-0.00000097,0.00000238,
 0.00000036,-0.00000145,0.00000385,-0.00000265,0.00000155,-0.00000068,-
 0.00002238,0.00000604,0.00000700,0.00000941,-0.00000487,0.00000183,0.0
 0006135,-0.00002856,0.00002376,0.00000270,-0.00000377,0.00000494,0.000
 00038,0.00000271,0.00000130,0.00009023,0.00006698,0.00001630,-0.000217
 52,-0.00000949,-0.00006698,0.00021027,0.00001879,0.00013806,0.00000639
 ,-0.00000625,0.00000264,-0.00005560,-0.00003257,-0.00007476,-0.0000450
 1,-0.00004101,-0.00003963,-0.00000179,-0.00000201,0.00000072,0.0000015
 6,0.00000092,-0.00000103,0.00000039,0.00000151,-0.00000124,0.00000129,
 -0.00000206,-0.00000123,-0.00000083,-0.00000229,-0.00000628,0.00000413
 ,-0.00000227,0.00000086,0.00000081,0.00000087,0.00000067,-0.00000065,-
 0.00000036,0.00000047,-0.00000322,0.00000279,0.00000643,-0.00000200,0.
 00000049,0.00000178,0.00103372,-0.00138971,0.00136342,-0.00039805,-0.0
 0003362,-0.00056333,0.00038660,-0.00031440,0.00014298,-0.00003247,0.00
 033766,0.00036191,-0.00052139,0.00017353,-0.00019704,-0.00009360,-0.00
 017381,-0.00020361,0.00003518,0.00005377,0.00007366,0.00000902,0.00001
 517,-0.00000208,0.00002255,-0.00000607,-0.00001573,0.00009300,0.001023
 16,-0.00033807,0.00000057,0.00000083,-0.00000082,0.00000112,-0.0000009
 6,-0.00000069,-0.00000096,0.00000165,-0.00000068,-0.00000094,-0.000003
 54,0.00000180,0.00000050,0.00000203,-0.00000173,-0.00000027,0.00000034
 ,-0.00000005,0.00000057,0.00000069,0.00000002,-0.00000039,0.00000055,0
 .00000041,0.00000033,-0.00000094,0.00000077,-0.00000040,-0.00000029,0.
 00000064,0.00000086,0.00000025,0.00000008,-0.00214686,0.00293912,-0.00
 147063,-0.00066309,0.00047544,-0.00099561,0.00026515,0.00217254,-0.005
 56534,0.02606402,-0.01143152,-0.00800216,0.09985767,-0.03809446,-0.107
 12472,-0.01648122,0.00694096,0.01187493,-0.00085713,0.00043764,0.00045
 860,-0.00001860,-0.00025618,0.00012377,0.00147484,-0.00066995,-0.00051
 251,-0.10808207,0.03878452,0.10991212,0.00000339,0.00000035,-0.0000026
 2,-0.00000119,0.00000042,0.00000128,0.00000146,0.00000083,-0.00000084,
 -0.00000118,-0.00000087,0.00000112,-0.00000496,-0.00000007,-0.00000575
 ,-0.00000051,0.00000030,-0.00000026,0.00000009,0.00000084,-0.00000016,
 -0.00000243,-0.00000084,0.00000098,0.00000154,0.00000008,-0.00000002,0
 .00000004,-0.00000009,0.00000029,-0.00000011,-0.00000021,0.00000025,-0
 .00000080,-0.00000014,0.00000067,-0.00000033,-0.00000061,-0.00000034,-
 0.00000008,-0.00000028,-0.00000010,-0.00000006,-0.00000008,-0.00000019
 ,-0.00000027,0.00000019,-0.00000026,-0.00001146,0.00000644,-0.00000276
 ,-0.00000258,0.00000091,0.00000146,0.00000075,0.00000410,-0.00001175,0
 .00001413,-0.00000807,0.00001738,-0.00000077,-0.00000100,0.00000306,0.
 00000668,0.00000648,-0.00000190,0.00000257,-0.00000417,0.00000113,-0.0
 0000293,0.00000145,-0.00000030,0.00000141,0.00000012,-0.00000040,-0.00
 000172,0.00000058,-0.00000104,0.00000017,0.,0.00000004,-0.00000300,0.0
 0000085,-0.00000110,-0.00000083,0.00000030,-0.00000061,-0.00000014,0.0
 0000021,-0.00000022,-0.00000015,0.00000035,-0.00000038,0.00000014,-0.0
 0000005,0.00000042,0.00000492,0.00000299,-0.00000662,-0.00000392,-0.00
 000099,-0.00000047,0.00000686,-0.00002218,0.00001247,0.00000102,0.0000
 0018,0.00000297,-0.00000075,-0.00000026,-0.00000025,0.00000056,-0.0000
 1080,0.00001187,-0.00002131,0.00002531,-0.00001626,0.00001311,-0.00000
 070,0.00003250,0.00000228,-0.00000026,-0.00000288,0.00001446,0.0000093
 8,-0.00000899,-0.00000538,-0.00000192,-0.00002317,-0.00000055,-0.00000
 141,0.00000080,0.00000029,-0.00000024,0.00000055,0.00000023,-0.0000008
 5,0.00000057,0.00000096,0.00000279,-0.00000057,-0.00000243,-0.00000164
 ,0.00000092,-0.00000041,0.00000216,-0.00000176,0.00000031,0.00000003,0
 .00000017,0.00000058,-0.00000028,0.00000044,0.00000020,0.00000132,-0.0
 0000189,-0.00000098,-0.00000150,0.00000021,0.00061575,-0.00009202,-0.0
 0093668,-0.00022379,0.00017192,-0.00005482,-0.00001321,-0.00009857,-0.
 00004701,-0.00000516,0.00001002,-0.00000149,-0.00000562,0.00001450,0.0
 0001862,-0.00004833,-0.00010828,0.00000388,0.00001870,-0.00002078,-0.0
 0001293,-0.00001910,0.00001614,-0.00002087,-0.00000839,0.00001065,-0.0
 0000626,0.00003997,0.00001618,0.00003369,-0.00000010,-0.00000066,0.000
 00058,0.00000039,0.00000061,0.00000049,-0.00000116,-0.00000011,0.00000
 133,0.00000068,0.00000045,-0.00000036,0.00000021,0.00000025,0.00000032
 ,-0.00000009,0.00000010,0.00000029,-0.00000001,0.00000018,-0.00000038,
 -0.00000048,-0.00000086,-0.00000036,0.00000013,0.00000011,-0.00000140,
 0.00000006,-0.00000039,-0.00000020,0.00000040,-0.00000014,-0.00000028,
 0.00091065,-0.00364200,0.02666206,-0.00269842,0.00498284,0.00202727,-0
 .00121875,0.00048222,-0.00030438,-0.00117147,0.00504498,-0.00177824,0.
 00785110,0.00185506,-0.02195004,-0.06403337,0.00433608,0.04913613,-0.0
 0004689,-0.00201587,-0.00083224,-0.00007364,-0.00012263,0.00143489,-0.
 00011196,-0.00059438,-0.00007605,-0.00017589,-0.00218447,0.00002618,0.
 06041086,-0.00000209,-0.00000073,0.00000168,-0.00000016,0.00000100,0.0
 0000020,0.00000007,-0.00000084,-0.00000044,0.00000078,-0.00000019,-0.0
 0000083,-0.00000421,0.00000097,-0.00000042,0.00000046,0.00000003,0.000
 00031,0.00000039,-0.00000013,0.00000002,0.00000122,0.00000224,-0.00000
 034,0.00000026,-0.00000103,-0.00000113,0.00000005,-0.00000017,-0.00000
 068,0.00000005,-0.00000086,-0.00000047,-0.00000068,-0.00000030,-0.0000
 0030,0.00000014,0.00000133,0.00000098,0.00000008,-0.00000062,0.0000006
 8,0.00000048,-0.00000036,0.00000037,0.00000049,0.,0.00000030,0.0000117
 7,-0.00000825,-0.00000036,0.00000151,-0.00000085,0.00000049,-0.0000019
 2,-0.00000216,0.00000538,-0.00001889,-0.00000536,-0.00000266,0.0000005
 1,0.00000196,-0.00000180,-0.00000074,0.00000517,0.00000146,-0.00000239
 ,0.00000417,0.00000112,0.00000214,-0.00000072,-0.00000030,-0.00000179,
 -0.00000105,0.00000098,0.00000131,-0.00000110,0.00000096,-0.00000008,-
 0.00000089,0.00000014,0.00000367,-0.00000178,0.00000013,0.00000070,0.0
 0000033,0.00000044,0.00000035,0.00000018,0.00000052,0.00000020,0.00000
 009,0.00000091,-0.00000038,0.00000107,0.00000010,-0.00000319,0.0000017
 9,0.00000569,0.00000405,-0.00000226,0.00000040,0.00001048,-0.00001590,
 0.00000170,0.00000067,-0.00000037,0.00000029,-0.00000051,0.00000025,0.
 00000004,0.00000685,-0.00000616,0.00000027,-0.00001886,0.00001729,-0.0
 0000878,0.00001371,-0.00000650,-0.00000248,0.00000064,0.00000037,0.000
 00194,-0.00000880,-0.00000129,0.00000441,-0.00000539,0.00000390,-0.000
 00166,0.00000026,0.00000019,0.00000010,0.00000002,-0.00000042,0.000000
 01,0.00000017,-0.00000043,-0.00000031,0.00000034,0.00000025,-0.0000003
 0,0.00000103,-0.00000086,-0.00000076,-0.00000007,-0.00000061,-0.000001
 28,-0.00000012,0.00000030,0.00000015,-0.00000011,0.00000002,0.00000038
 ,-0.00000087,0.00000121,0.00000153,-0.00000042,0.00000057,0.00000083,-
 0.00028624,0.00031200,0.00058282,0.00014347,-0.00021267,0.00015471,0.0
 0005868,0.00003425,0.00003257,-0.00000127,0.00000590,-0.00000215,0.000
 02941,0.00000417,-0.00000219,0.00000505,-0.00005792,0.00002553,-0.0000
 1119,-0.00002941,0.00000107,0.00002267,-0.00000545,0.00001361,0.000011
 83,-0.00000969,0.00000691,0.00002171,-0.00002520,0.00004222,0.00000002
 ,-0.00000062,0.00000014,-0.00000017,0.00000100,-0.00000021,-0.00000133
 ,-0.00000071,0.00000036,0.00000064,0.00000074,-0.00000038,0.00000001,-
 0.00000019,-0.00000011,0.00000009,-0.00000017,-0.00000008,-0.00000014,
 0.00000012,0.00000003,-0.00000023,-0.00000068,0.00000016,0.00000014,0.
 00000066,-0.00000028,0.00000034,-0.00000028,0.00000024,0.00000033,0.,0
 .00000003,0.00181593,0.00486992,-0.01270977,0.00503317,0.00443247,0.00
 032628,0.00027145,-0.00060682,-0.00012642,0.00502124,0.00443245,0.0020
 9629,-0.00341127,0.00217555,0.01517152,0.00393796,-0.04607921,0.030391
 92,-0.00213593,-0.00289174,-0.00039124,0.00013738,0.00019791,-0.000668
 39,-0.00056788,-0.00087714,-0.00017073,-0.00201848,-0.00298691,-0.0009
 8960,-0.00807060,0.03733516,0.00000965,0.00000082,-0.00000779,-0.00000
 245,-0.00000157,-0.00000018,0.00000390,0.00000515,-0.00000206,-0.00000
 408,-0.00000253,0.00000199,0.00000303,-0.00000301,-0.00000083,-0.00000
 151,0.00000072,0.00000011,-0.00000039,0.00000185,0.00000061,-0.0000074
 1,-0.00000523,0.00000315,0.00000224,0.00000167,0.00000002,-0.00000093,
 -0.00000020,0.00000054,0.00000002,-0.00000017,0.00000010,-0.00000001,0
 .00000006,0.00000026,-0.00000086,-0.00000323,-0.00000046,0.00000043,0.
 00000024,-0.00000030,-0.00000084,0.00000095,-0.00000010,-0.00000143,0.
 00000012,0.00000012,-0.00003327,0.00002030,-0.00000689,-0.00000334,0.0
 0000289,0.00000205,-0.00000363,0.00000595,-0.00002828,0.00005143,-0.00
 001404,0.00003263,-0.00000204,-0.00000323,0.00000926,0.00001783,0.0000
 0776,0.00000327,0.00000557,-0.00001245,0.00000021,-0.00000882,0.000004
 51,-0.00000007,0.00000647,0.00000128,-0.00000294,-0.00000370,0.0000024
 3,-0.00000400,-0.00000121,0.00000150,-0.00000085,-0.00001081,0.0000031
 0,-0.00000198,-0.00000262,0.00000019,-0.00000107,-0.00000142,0.0000007
 0,-0.00000175,-0.00000004,0.00000087,-0.00000248,0.00000107,-0.0000015
 9,0.00000133,0.00001068,0.00000398,-0.00001310,-0.00000837,-0.00000083
 ,0.00000018,-0.00001222,-0.00001938,0.00000738,0.00000022,0.00000200,0
 .00000208,-0.00000126,-0.00000155,-0.00000077,-0.00002582,-0.00003460,
 0.00000921,0.00003510,0.00003765,0.00000326,-0.00002896,-0.00000764,0.
 00000940,0.00000172,0.00000298,-0.00000512,0.00003521,0.00002569,-0.00
 000642,-0.00000069,0.00000492,-0.00002099,0.00000051,0.00000036,-0.000
 00006,-0.00000051,-0.00000092,0.00000137,-0.00000003,-0.00000169,0.000
 00129,-0.00000005,0.00000409,-0.00000003,-0.00000141,-0.00000076,0.000
 00356,-0.00000230,0.00000221,-0.00000195,-0.00000031,-0.00000048,-0.00
 000030,0.00000101,0.,0.00000012,0.00000132,0.00000030,-0.00000399,0.00
 000020,-0.00000111,-0.00000031,0.00062086,-0.00029205,-0.00053058,-0.0
 0022047,0.00022321,-0.00006894,-0.00002281,-0.00005830,-0.00004141,-0.
 00002524,0.00000153,-0.00001440,-0.00001365,-0.00000672,0.00002233,-0.
 00008614,-0.00000965,-0.00009334,0.00002838,-0.00000354,0.00000450,-0.
 00002612,0.00001336,-0.00002752,-0.00002166,0.00002185,-0.00000851,0.0
 0003128,-0.00001620,0.00000895,-0.00000037,-0.00000101,0.00000086,-0.0
 0000051,0.00000130,0.00000071,-0.00000074,-0.00000132,0.00000140,0.000
 00135,0.00000271,-0.00000145,-0.00000018,-0.00000124,0.00000127,0.0000
 0031,-0.00000020,0.00000016,-0.00000039,-0.00000033,-0.00000024,-0.000
 00012,-0.00000105,-0.00000047,-0.00000023,0.00000078,-0.00000147,0.000
 00047,-0.00000015,-0.00000048,-0.00000025,-0.00000022,-0.00000021,-0.0
 0019213,0.00227421,-0.00786788,0.00273260,-0.00028518,0.00118697,-0.00
 030421,-0.00004903,0.00071318,-0.00235149,0.00262834,0.00047231,0.0050
 3567,0.00049002,-0.01298574,0.04892780,0.03030987,-0.33720138,-0.00025
 616,-0.00076699,0.00053088,-0.00005080,0.00014096,-0.00051261,-0.00007
 622,-0.00017503,-0.00013637,-0.00042418,-0.00067649,0.00066107,-0.0533
 1949,-0.03379448,0.35590997\\-0.00000136,-0.00000041,0.00000152,0.0000
 0448,0.00000028,-0.00000187,-0.00000192,0.00000115,-0.00000016,0.00000
 106,-0.00000176,0.00000025,0.00000361,0.00000075,0.00000148,-0.0000003
 4,-0.00000011,0.00000007,-0.00000009,0.00000026,0.00000006,0.00000101,
 0.00000044,-0.00000029,-0.00000098,0.00000061,-0.00000009,0.00000120,-
 0.00000185,-0.00000025,-0.00000128,-0.00000173,0.00000047,0.00000111,0
 .00000152,-0.00000068,0.00000037,-0.00000015,-0.00000017,0.00000024,0.
 00000015,-0.00000020,-0.00000025,0.00000019,-0.00000004,-0.00000028,-0
 .00000007,0.,0.,-0.00000037,0.00000158,0.00000036,0.00000111,0.0000008
 8,-0.00000190,0.00000110,-0.00000074,-0.00000038,-0.00000063,-0.000002
 07,0.00000045,-0.00000034,0.00000007,-0.00000125,-0.00000070,-0.000001
 77,-0.00000023,-0.00000017,-0.00000023,-0.00000053,0.00000008,0.000000
 35,0.00000076,0.00000025,-0.00000109,-0.00000054,-0.00000063,0.0000020
 5,0.00000191,-0.00000085,0.00000130,-0.00000154,0.00000095,-0.00000118
 ,-0.00000021,0.00000009,0.00000019,-0.00000013,0.00000012,-0.00000006,
 0.00000035,0.00000003,-0.00000020,0.00000040,-0.00000007,0.,-0.0000006
 3,-0.00000001,-0.00000020,0.00000031,0.00000016,0.00000054,0.00000215,
 0.00000026,-0.00000285,-0.00000069,-0.00000219,0.00000003,-0.00000290,
 0.00000102,0.00000311,-0.00000164,-0.00000014,0.00000082,-0.00000310,0
 .00000374,0.00000143,0.00000169,0.00000012,-0.00000091,0.00000147,-0.0
 0000150,-0.00000084,0.00000242,0.00000049,-0.00000167,-0.00000033,-0.0
 0000029,-0.00000026,-0.00000009,-0.00000044,0.00000019,0.00000040,-0.0
 0000013,-0.00000020,0.00000041,-0.00000014,-0.00000043,0.00000004,0.00
 000005,-0.00000014,0.00000027,-0.00000092,-0.00000060,0.,0.00000002,-0
 .00000098,-0.00000055,0.00000027,-0.00000003,-0.00000011,0.00000027,-0
 .00000027,0.00000015,-0.00000005,-0.00000050,-0.00000006,-0.00000019,0
 .00000020,0.00000094,-0.00000080,0.00000036,-0.00000159,-0.00000106,0.
 00000082,-0.00000183,-0.00000175,0.00000052,0.00000060,0.00000239,0.00
 000148,0.00000113,-0.00000093,0.00000067,-0.00000118,0.00000105,-0.000
 00004,0.00000041,0.00000005,0.00000025,0.00000026,0.00000046,-0.000000
 38,-0.00000121,0.00000042,0.00000003,-0.00000014,0.00000019,0.00000095
 ,-0.00000005,-0.00000023,-0.00000061,-0.00000008,0.00000033,-0.0000001
 7,-0.00000068,-0.00000025,-0.00000064,0.00000040,0.00000053,0.00000016
 ,-0.00000005,-0.00000026,0.00000012,0.00000043,0.00000034,0.00000025,-
 0.00000022,-0.00000031,-0.00000009,-0.00000006,-0.00000030,-0.00000017
 ,0.00000028,0.00000002,-0.00000027,0.00000004,0.00000030,-0.00000019,-
 0.00000028,0.00000009,-0.00000009,-0.00000016,-0.00000037,0.00000081,-
 0.00000119,0.,-0.00000081,0.00000060,0.00000045,0.00000056,-0.00000047
 ,0.00000030,-0.00000049,0.00000114,0.00000011,0.00000128,-0.00000034,-
 0.00000004,-0.00000039,0.00000009,-0.00000018,0.00000048,0.00000042,-0
 .00000002,-0.00000011,0.00000002,-0.00000019,-0.00000079,-0.00000042,-
 0.00000003,0.00000011,-0.00000010,0.00000009,0.00000077\\\@
 The archive entry for this job was punched.


 MAN IS THE MEASURE OF ALL THINGS.
  -- PROTAGORAS (5TH CENTURY B.C.)
 Job cpu time:       0 days 12 hours 53 minutes 22.0 seconds.
 Elapsed time:       0 days  1 hours  5 minutes  6.2 seconds.
 File lengths (MBytes):  RWF=   6546 Int=      0 D2E=      0 Chk=     96 Scr=      1
 Normal termination of Gaussian 16 at Thu Dec 14 21:47:48 2023.
