Unloading slurm/anatra/current
  ERROR: No such file or directory on
    '/cm/local/modulefiles/slurm/anatra/current'
environment: line 0: unalias: gv: not found
environment: line 0: unalias: sl: not found
 Entering Gaussian System, Link 0=g16
 Initial command:
 /apps/gaussian/g16/C.01/g16/l1.exe "/local/jobs/1150349/Gau-285129.inp" -scrdir="/local/jobs/1150349/"
 Entering Link 1 = /apps/gaussian/g16/C.01/g16/l1.exe PID=    285132.
  
 Copyright (c) 1988-2019, Gaussian, Inc.  All Rights Reserved.
  
 This is part of the Gaussian(R) 16 program.  It is based on
 the Gaussian(R) 09 system (copyright 2009, Gaussian, Inc.),
 the Gaussian(R) 03 system (copyright 2003, Gaussian, Inc.),
 the Gaussian(R) 98 system (copyright 1998, Gaussian, Inc.),
 the Gaussian(R) 94 system (copyright 1995, Gaussian, Inc.),
 the Gaussian 92(TM) system (copyright 1992, Gaussian, Inc.),
 the Gaussian 90(TM) system (copyright 1990, Gaussian, Inc.),
 the Gaussian 88(TM) system (copyright 1988, Gaussian, Inc.),
 the Gaussian 86(TM) system (copyright 1986, Carnegie Mellon
 University), and the Gaussian 82(TM) system (copyright 1983,
 Carnegie Mellon University). Gaussian is a federally registered
 trademark of Gaussian, Inc.
  
 This software contains proprietary and confidential information,
 including trade secrets, belonging to Gaussian, Inc.
  
 This software is provided under written license and may be
 used, copied, transmitted, or stored only in accord with that
 written license.
  
 The following legend is applicable only to US Government
 contracts under FAR:
  
                    RESTRICTED RIGHTS LEGEND
  
 Use, reproduction and disclosure by the US Government is
 subject to restrictions as set forth in subparagraphs (a)
 and (c) of the Commercial Computer Software - Restricted
 Rights clause in FAR 52.227-19.
  
 Gaussian, Inc.
 340 Quinnipiac St., Bldg. 40, Wallingford CT 06492
  
  
 ---------------------------------------------------------------
 Warning -- This program may not be used in any manner that
 competes with the business of Gaussian, Inc. or will provide
 assistance to any competitor of Gaussian, Inc.  The licensee
 of this program is prohibited from giving any competitor of
 Gaussian, Inc. access to this program.  By using this program,
 the user acknowledges that Gaussian, Inc. is engaged in the
 business of creating and licensing software in the field of
 computational chemistry and represents and warrants to the
 licensee that it is not a competitor of Gaussian, Inc. and that
 it will not use this program in any manner prohibited above.
 ---------------------------------------------------------------
  

 Cite this work as:
 Gaussian 16, Revision C.01,
 M. J. Frisch, G. W. Trucks, H. B. Schlegel, G. E. Scuseria, 
 M. A. Robb, J. R. Cheeseman, G. Scalmani, V. Barone, 
 G. A. Petersson, H. Nakatsuji, X. Li, M. Caricato, A. V. Marenich, 
 J. Bloino, B. G. Janesko, R. Gomperts, B. Mennucci, H. P. Hratchian, 
 J. V. Ortiz, A. F. Izmaylov, J. L. Sonnenberg, D. Williams-Young, 
 F. Ding, F. Lipparini, F. Egidi, J. Goings, B. Peng, A. Petrone, 
 T. Henderson, D. Ranasinghe, V. G. Zakrzewski, J. Gao, N. Rega, 
 G. Zheng, W. Liang, M. Hada, M. Ehara, K. Toyota, R. Fukuda, 
 J. Hasegawa, M. Ishida, T. Nakajima, Y. Honda, O. Kitao, H. Nakai, 
 T. Vreven, K. Throssell, J. A. Montgomery, Jr., J. E. Peralta, 
 F. Ogliaro, M. J. Bearpark, J. J. Heyd, E. N. Brothers, K. N. Kudin, 
 V. N. Staroverov, T. A. Keith, R. Kobayashi, J. Normand, 
 K. Raghavachari, A. P. Rendell, J. C. Burant, S. S. Iyengar, 
 J. Tomasi, M. Cossi, J. M. Millam, M. Klene, C. Adamo, R. Cammi, 
 J. W. Ochterski, R. L. Martin, K. Morokuma, O. Farkas, 
 J. B. Foresman, and D. J. Fox, Gaussian, Inc., Wallingford CT, 2019.
 
 ******************************************
 Gaussian 16:  ES64L-G16RevC.01  3-Jul-2019
                14-Dec-2023 
 ******************************************
 %chk=urea_cinchrona_OPLS3e_5000_steps_1_opt_hess.chk
 %nprocshared=12
 Will use up to   12 processors via shared memory.
 %mem=48GB
 ----------------------------------------------------------------------
 # m062x 6-31g(d) scrf=(iefpcm,solvent=benzene) opt=(calcfc,maxcycles=5
 0,maxstep=10) freq=noraman
 ----------------------------------------------------------------------
 1/6=50,8=10,10=4,18=20,19=15,26=3,38=1/1,3;
 2/9=110,12=2,17=6,18=5,40=1/2;
 3/5=1,6=6,7=1,11=2,25=1,30=1,70=2201,71=2,72=12,74=-55,140=1/1,2,3;
 4//1;
 5/5=2,38=5,53=12/2;
 8/6=4,10=90,11=11/1;
 11/6=1,8=1,9=11,15=111,16=1/1,2,10;
 10/6=1,13=1/2;
 6/7=2,8=2,9=2,10=2,28=1/1;
 7/10=1,25=1/1,2,3,16;
 1/6=50,8=10,10=4,18=20,19=15,26=3/3(2);
 2/9=110/2;
 99//99;
 2/9=110/2;
 3/5=1,6=6,7=1,11=2,25=1,30=1,70=2205,71=1,72=12,74=-55/1,2,3;
 4/5=5,16=3,69=1/1;
 5/5=2,38=5,53=12/2;
 7//1,2,3,16;
 1/6=50,8=10,18=20,19=15,26=3/3(-5);
 2/9=110/2;
 6/7=2,8=2,9=2,10=2,19=2,28=1/1;
 99/9=1/99;
 -------------
 Molecule Name
 -------------
 Symbolic Z-matrix:
 Charge =  1 Multiplicity = 1
 C                     0.6092    1.5319   -0.5341 
 N                    -0.6025    0.9598   -0.4625 
 C                    -1.9202    1.5603   -0.7289 
 C                    -2.3173    2.764     0.2043 
 H                    -1.8795    1.9176   -1.7587 
 C                    -2.9738    0.44     -0.7093 
 H                    -1.9719    2.5369    1.2145 
 C                    -3.8287    3.1663    0.2837 
 N                    -1.5109    4.0414   -0.1812 
 C                    -3.2307   -0.358     0.4616 
 C                    -3.7265    0.1911   -1.8626 
 C                    -4.0485    4.7013    0.1568 
 H                    -4.2686    2.7754    1.2029 
 H                    -4.3947    2.6649   -0.5026 
 C                    -2.0503    4.7206   -1.4736 
 C                    -1.6243    5.0694    0.9815 
 C                    -2.5392   -0.2237    1.697 
 C                    -4.2506   -1.3585    0.3716 
 C                    -4.6939   -0.8074   -1.8491 
 H                    -3.5676    0.7562   -2.7705 
 C                    -3.5367    5.1144   -1.2499 
 H                    -5.1015    4.968     0.291 
 C                    -3.1366    5.4145    1.2079 
 H                    -1.9181    4.0297   -2.3078 
 H                    -1.4154    5.589    -1.6698 
 H                    -1.1396    4.6268    1.8564 
 H                    -1.0332    5.943     0.6932 
 C                    -2.8307   -1.0301    2.79 
 H                    -1.7504    0.497     1.8127 
 C                    -4.5396   -2.1686    1.494 
 N                    -4.965    -1.5702   -0.7666 
 H                    -5.2815   -1.0211   -2.7319 
 H                    -4.1569    4.6578   -2.0245 
 H                    -3.657     6.1907   -1.3935 
 H                    -3.2459    6.4934    1.0663 
 C                    -3.5821    5.1484    2.6625 
 C                    -3.8341   -1.9978    2.6829 
 O                    -2.0772   -0.7996    3.9204 
 H                    -5.3098   -2.9244    1.4153 
 H                    -3.0111    5.7544    3.3685 
 H                    -4.6337    5.3995    2.8112 
 H                    -3.4493    4.1067    2.9569 
 H                    -4.0756   -2.6359    3.5186 
 C                    -2.2267   -1.6619    5.0452 
 H                    -1.5193   -1.368     5.821 
 H                    -3.2283   -1.5955    5.4728 
 H                    -2.0148   -2.7012    4.7877 
 N                     1.6772    0.7203   -0.4535 
 O                     0.7649    2.7349   -0.7059 
 H                    -0.5904   -0.048    -0.5153 
 H                     2.5496    1.1728   -0.6802 
 C                     1.7315   -0.666    -0.2229 
 C                     1.003    -1.2913    0.799 
 C                     2.5937   -1.4246   -1.0171 
 C                     1.1057   -2.6729    1.0024 
 H                     0.3665   -0.7097    1.4522 
 C                     2.7078   -2.807    -0.8282 
 H                     3.1728   -0.9469   -1.797 
 C                     1.9572   -3.4238    0.181 
 H                     2.0409   -4.4937    0.3297 
 C                     3.6455   -3.6234   -1.7183 
 C                     0.3004   -3.3403    2.1175 
 F                     3.9612   -4.7934   -1.1617 
 F                     3.0358   -3.855    -2.8795 
 F                     4.7723   -2.9497   -1.9513 
 F                    -0.9709   -3.4355    1.7325 
 F                     0.7494   -4.5649    2.3944 
 F                     0.361    -2.6117    3.2321 
 H                    -0.5344    3.7464   -0.3234 
 

 GradGradGradGradGradGradGradGradGradGradGradGradGradGradGradGradGradGrad
 Berny optimization.
 Initialization pass.
                           ----------------------------
                           !    Initial Parameters    !
                           ! (Angstroms and Degrees)  !
 --------------------------                            --------------------------
 ! Name  Definition              Value          Derivative Info.                !
 --------------------------------------------------------------------------------
 ! R1    R(1,2)                  1.3419         calculate D2E/DX2 analytically  !
 ! R2    R(1,48)                 1.3438         calculate D2E/DX2 analytically  !
 ! R3    R(1,49)                 1.2251         calculate D2E/DX2 analytically  !
 ! R4    R(2,3)                  1.4724         calculate D2E/DX2 analytically  !
 ! R5    R(2,50)                 1.0093         calculate D2E/DX2 analytically  !
 ! R6    R(3,4)                  1.574          calculate D2E/DX2 analytically  !
 ! R7    R(3,5)                  1.0908         calculate D2E/DX2 analytically  !
 ! R8    R(3,6)                  1.538          calculate D2E/DX2 analytically  !
 ! R9    R(4,7)                  1.0915         calculate D2E/DX2 analytically  !
 ! R10   R(4,8)                  1.566          calculate D2E/DX2 analytically  !
 ! R11   R(4,9)                  1.5591         calculate D2E/DX2 analytically  !
 ! R12   R(6,10)                 1.4401         calculate D2E/DX2 analytically  !
 ! R13   R(6,11)                 1.3995         calculate D2E/DX2 analytically  !
 ! R14   R(8,12)                 1.5558         calculate D2E/DX2 analytically  !
 ! R15   R(8,13)                 1.0914         calculate D2E/DX2 analytically  !
 ! R16   R(8,14)                 1.0909         calculate D2E/DX2 analytically  !
 ! R17   R(9,15)                 1.5565         calculate D2E/DX2 analytically  !
 ! R18   R(9,16)                 1.5561         calculate D2E/DX2 analytically  !
 ! R19   R(9,69)                 1.03           calculate D2E/DX2 analytically  !
 ! R20   R(10,17)                1.4221         calculate D2E/DX2 analytically  !
 ! R21   R(10,18)                1.4315         calculate D2E/DX2 analytically  !
 ! R22   R(11,19)                1.3903         calculate D2E/DX2 analytically  !
 ! R23   R(11,20)                1.0811         calculate D2E/DX2 analytically  !
 ! R24   R(12,21)                1.5529         calculate D2E/DX2 analytically  !
 ! R25   R(12,22)                1.0945         calculate D2E/DX2 analytically  !
 ! R26   R(12,23)                1.5637         calculate D2E/DX2 analytically  !
 ! R27   R(15,21)                1.5539         calculate D2E/DX2 analytically  !
 ! R28   R(15,24)                1.0912         calculate D2E/DX2 analytically  !
 ! R29   R(15,25)                1.0935         calculate D2E/DX2 analytically  !
 ! R30   R(16,23)                1.5676         calculate D2E/DX2 analytically  !
 ! R31   R(16,26)                1.0937         calculate D2E/DX2 analytically  !
 ! R32   R(16,27)                1.0935         calculate D2E/DX2 analytically  !
 ! R33   R(17,28)                1.3892         calculate D2E/DX2 analytically  !
 ! R34   R(17,29)                1.0747         calculate D2E/DX2 analytically  !
 ! R35   R(18,30)                1.4141         calculate D2E/DX2 analytically  !
 ! R36   R(18,31)                1.3604         calculate D2E/DX2 analytically  !
 ! R37   R(19,31)                1.3517         calculate D2E/DX2 analytically  !
 ! R38   R(19,32)                1.0818         calculate D2E/DX2 analytically  !
 ! R39   R(21,33)                1.0923         calculate D2E/DX2 analytically  !
 ! R40   R(21,34)                1.0925         calculate D2E/DX2 analytically  !
 ! R41   R(23,35)                1.0936         calculate D2E/DX2 analytically  !
 ! R42   R(23,36)                1.5444         calculate D2E/DX2 analytically  !
 ! R43   R(28,37)                1.3981         calculate D2E/DX2 analytically  !
 ! R44   R(28,38)                1.3779         calculate D2E/DX2 analytically  !
 ! R45   R(30,37)                1.393          calculate D2E/DX2 analytically  !
 ! R46   R(30,39)                1.082          calculate D2E/DX2 analytically  !
 ! R47   R(36,40)                1.0917         calculate D2E/DX2 analytically  !
 ! R48   R(36,41)                1.0913         calculate D2E/DX2 analytically  !
 ! R49   R(36,42)                1.0906         calculate D2E/DX2 analytically  !
 ! R50   R(37,43)                1.0788         calculate D2E/DX2 analytically  !
 ! R51   R(38,44)                1.4252         calculate D2E/DX2 analytically  !
 ! R52   R(44,45)                1.0903         calculate D2E/DX2 analytically  !
 ! R53   R(44,46)                1.0911         calculate D2E/DX2 analytically  !
 ! R54   R(44,47)                1.0915         calculate D2E/DX2 analytically  !
 ! R55   R(48,51)                1.0086         calculate D2E/DX2 analytically  !
 ! R56   R(48,52)                1.4064         calculate D2E/DX2 analytically  !
 ! R57   R(52,53)                1.4021         calculate D2E/DX2 analytically  !
 ! R58   R(52,54)                1.3963         calculate D2E/DX2 analytically  !
 ! R59   R(53,55)                1.4003         calculate D2E/DX2 analytically  !
 ! R60   R(53,56)                1.0817         calculate D2E/DX2 analytically  !
 ! R61   R(54,57)                1.3999         calculate D2E/DX2 analytically  !
 ! R62   R(54,58)                1.0825         calculate D2E/DX2 analytically  !
 ! R63   R(55,59)                1.4013         calculate D2E/DX2 analytically  !
 ! R64   R(55,62)                1.5288         calculate D2E/DX2 analytically  !
 ! R65   R(57,59)                1.4008         calculate D2E/DX2 analytically  !
 ! R66   R(57,61)                1.5291         calculate D2E/DX2 analytically  !
 ! R67   R(59,60)                1.0834         calculate D2E/DX2 analytically  !
 ! R68   R(61,63)                1.3336         calculate D2E/DX2 analytically  !
 ! R69   R(61,64)                1.3318         calculate D2E/DX2 analytically  !
 ! R70   R(61,65)                1.3334         calculate D2E/DX2 analytically  !
 ! R71   R(62,66)                1.3317         calculate D2E/DX2 analytically  !
 ! R72   R(62,67)                1.3334         calculate D2E/DX2 analytically  !
 ! R73   R(62,68)                1.333          calculate D2E/DX2 analytically  !
 ! A1    A(2,1,48)             117.1913         calculate D2E/DX2 analytically  !
 ! A2    A(2,1,49)             122.7435         calculate D2E/DX2 analytically  !
 ! A3    A(48,1,49)            120.0297         calculate D2E/DX2 analytically  !
 ! A4    A(1,2,3)              128.6521         calculate D2E/DX2 analytically  !
 ! A5    A(1,2,50)             114.3375         calculate D2E/DX2 analytically  !
 ! A6    A(3,2,50)             114.1118         calculate D2E/DX2 analytically  !
 ! A7    A(2,3,4)              115.4935         calculate D2E/DX2 analytically  !
 ! A8    A(2,3,5)              105.7248         calculate D2E/DX2 analytically  !
 ! A9    A(2,3,6)              108.2817         calculate D2E/DX2 analytically  !
 ! A10   A(4,3,5)              108.5815         calculate D2E/DX2 analytically  !
 ! A11   A(4,3,6)              112.1269         calculate D2E/DX2 analytically  !
 ! A12   A(5,3,6)              106.0328         calculate D2E/DX2 analytically  !
 ! A13   A(3,4,7)              108.0457         calculate D2E/DX2 analytically  !
 ! A14   A(3,4,8)              118.0344         calculate D2E/DX2 analytically  !
 ! A15   A(3,4,9)              110.4564         calculate D2E/DX2 analytically  !
 ! A16   A(7,4,8)              108.1755         calculate D2E/DX2 analytically  !
 ! A17   A(7,4,9)              103.6296         calculate D2E/DX2 analytically  !
 ! A18   A(8,4,9)              107.5325         calculate D2E/DX2 analytically  !
 ! A19   A(3,6,10)             122.4255         calculate D2E/DX2 analytically  !
 ! A20   A(3,6,11)             119.1749         calculate D2E/DX2 analytically  !
 ! A21   A(10,6,11)            118.3949         calculate D2E/DX2 analytically  !
 ! A22   A(4,8,12)             112.6846         calculate D2E/DX2 analytically  !
 ! A23   A(4,8,13)             109.8572         calculate D2E/DX2 analytically  !
 ! A24   A(4,8,14)             110.2504         calculate D2E/DX2 analytically  !
 ! A25   A(12,8,13)            111.414          calculate D2E/DX2 analytically  !
 ! A26   A(12,8,14)            108.7465         calculate D2E/DX2 analytically  !
 ! A27   A(13,8,14)            103.492          calculate D2E/DX2 analytically  !
 ! A28   A(4,9,15)             112.5572         calculate D2E/DX2 analytically  !
 ! A29   A(4,9,16)             108.5921         calculate D2E/DX2 analytically  !
 ! A30   A(4,9,69)             106.8493         calculate D2E/DX2 analytically  !
 ! A31   A(15,9,16)            107.8716         calculate D2E/DX2 analytically  !
 ! A32   A(15,9,69)            109.8109         calculate D2E/DX2 analytically  !
 ! A33   A(16,9,69)            111.1902         calculate D2E/DX2 analytically  !
 ! A34   A(6,10,17)            124.559          calculate D2E/DX2 analytically  !
 ! A35   A(6,10,18)            117.5981         calculate D2E/DX2 analytically  !
 ! A36   A(17,10,18)           117.8426         calculate D2E/DX2 analytically  !
 ! A37   A(6,11,19)            119.6005         calculate D2E/DX2 analytically  !
 ! A38   A(6,11,20)            121.3336         calculate D2E/DX2 analytically  !
 ! A39   A(19,11,20)           119.0647         calculate D2E/DX2 analytically  !
 ! A40   A(8,12,21)            106.8451         calculate D2E/DX2 analytically  !
 ! A41   A(8,12,22)            111.489          calculate D2E/DX2 analytically  !
 ! A42   A(8,12,23)            108.2271         calculate D2E/DX2 analytically  !
 ! A43   A(21,12,22)           111.3051         calculate D2E/DX2 analytically  !
 ! A44   A(21,12,23)           107.1808         calculate D2E/DX2 analytically  !
 ! A45   A(22,12,23)           111.5619         calculate D2E/DX2 analytically  !
 ! A46   A(9,15,21)            108.8179         calculate D2E/DX2 analytically  !
 ! A47   A(9,15,24)            108.4517         calculate D2E/DX2 analytically  !
 ! A48   A(9,15,25)            107.1167         calculate D2E/DX2 analytically  !
 ! A49   A(21,15,24)           112.7314         calculate D2E/DX2 analytically  !
 ! A50   A(21,15,25)           112.3322         calculate D2E/DX2 analytically  !
 ! A51   A(24,15,25)           107.1765         calculate D2E/DX2 analytically  !
 ! A52   A(9,16,23)            108.8834         calculate D2E/DX2 analytically  !
 ! A53   A(9,16,26)            107.3408         calculate D2E/DX2 analytically  !
 ! A54   A(9,16,27)            106.9412         calculate D2E/DX2 analytically  !
 ! A55   A(23,16,26)           113.6456         calculate D2E/DX2 analytically  !
 ! A56   A(23,16,27)           112.5628         calculate D2E/DX2 analytically  !
 ! A57   A(26,16,27)           107.1358         calculate D2E/DX2 analytically  !
 ! A58   A(10,17,28)           121.778          calculate D2E/DX2 analytically  !
 ! A59   A(10,17,29)           120.9132         calculate D2E/DX2 analytically  !
 ! A60   A(28,17,29)           117.2951         calculate D2E/DX2 analytically  !
 ! A61   A(10,18,30)           119.7422         calculate D2E/DX2 analytically  !
 ! A62   A(10,18,31)           122.3777         calculate D2E/DX2 analytically  !
 ! A63   A(30,18,31)           117.88           calculate D2E/DX2 analytically  !
 ! A64   A(11,19,31)           123.5455         calculate D2E/DX2 analytically  !
 ! A65   A(11,19,32)           120.7894         calculate D2E/DX2 analytically  !
 ! A66   A(31,19,32)           115.6647         calculate D2E/DX2 analytically  !
 ! A67   A(12,21,15)           112.2264         calculate D2E/DX2 analytically  !
 ! A68   A(12,21,33)           110.1241         calculate D2E/DX2 analytically  !
 ! A69   A(12,21,34)           110.1734         calculate D2E/DX2 analytically  !
 ! A70   A(15,21,33)           109.5791         calculate D2E/DX2 analytically  !
 ! A71   A(15,21,34)           109.6389         calculate D2E/DX2 analytically  !
 ! A72   A(33,21,34)           104.838          calculate D2E/DX2 analytically  !
 ! A73   A(12,23,16)           111.4147         calculate D2E/DX2 analytically  !
 ! A74   A(12,23,35)           107.7369         calculate D2E/DX2 analytically  !
 ! A75   A(12,23,36)           112.725          calculate D2E/DX2 analytically  !
 ! A76   A(16,23,35)           107.1513         calculate D2E/DX2 analytically  !
 ! A77   A(16,23,36)           112.1097         calculate D2E/DX2 analytically  !
 ! A78   A(35,23,36)           105.2541         calculate D2E/DX2 analytically  !
 ! A79   A(17,28,37)           119.4784         calculate D2E/DX2 analytically  !
 ! A80   A(17,28,38)           115.696          calculate D2E/DX2 analytically  !
 ! A81   A(37,28,38)           124.8253         calculate D2E/DX2 analytically  !
 ! A82   A(18,30,37)           120.2452         calculate D2E/DX2 analytically  !
 ! A83   A(18,30,39)           119.2054         calculate D2E/DX2 analytically  !
 ! A84   A(37,30,39)           120.5485         calculate D2E/DX2 analytically  !
 ! A85   A(18,31,19)           118.4823         calculate D2E/DX2 analytically  !
 ! A86   A(23,36,40)           111.2595         calculate D2E/DX2 analytically  !
 ! A87   A(23,36,41)           111.509          calculate D2E/DX2 analytically  !
 ! A88   A(23,36,42)           112.5626         calculate D2E/DX2 analytically  !
 ! A89   A(40,36,41)           106.7483         calculate D2E/DX2 analytically  !
 ! A90   A(40,36,42)           106.975          calculate D2E/DX2 analytically  !
 ! A91   A(41,36,42)           107.4765         calculate D2E/DX2 analytically  !
 ! A92   A(28,37,30)           120.9127         calculate D2E/DX2 analytically  !
 ! A93   A(28,37,43)           120.7104         calculate D2E/DX2 analytically  !
 ! A94   A(30,37,43)           118.3754         calculate D2E/DX2 analytically  !
 ! A95   A(28,38,44)           119.2675         calculate D2E/DX2 analytically  !
 ! A96   A(38,44,45)           109.2954         calculate D2E/DX2 analytically  !
 ! A97   A(38,44,46)           111.6407         calculate D2E/DX2 analytically  !
 ! A98   A(38,44,47)           111.6886         calculate D2E/DX2 analytically  !
 ! A99   A(45,44,46)           107.4787         calculate D2E/DX2 analytically  !
 ! A100  A(45,44,47)           107.3728         calculate D2E/DX2 analytically  !
 ! A101  A(46,44,47)           109.1851         calculate D2E/DX2 analytically  !
 ! A102  A(1,48,51)            113.766          calculate D2E/DX2 analytically  !
 ! A103  A(1,48,52)            129.4827         calculate D2E/DX2 analytically  !
 ! A104  A(51,48,52)           116.468          calculate D2E/DX2 analytically  !
 ! A105  A(48,52,53)           122.6176         calculate D2E/DX2 analytically  !
 ! A106  A(48,52,54)           117.7823         calculate D2E/DX2 analytically  !
 ! A107  A(53,52,54)           119.5435         calculate D2E/DX2 analytically  !
 ! A108  A(52,53,55)           120.5159         calculate D2E/DX2 analytically  !
 ! A109  A(52,53,56)           120.4012         calculate D2E/DX2 analytically  !
 ! A110  A(55,53,56)           119.0747         calculate D2E/DX2 analytically  !
 ! A111  A(52,54,57)           120.6693         calculate D2E/DX2 analytically  !
 ! A112  A(52,54,58)           120.0252         calculate D2E/DX2 analytically  !
 ! A113  A(57,54,58)           119.3006         calculate D2E/DX2 analytically  !
 ! A114  A(53,55,59)           119.2186         calculate D2E/DX2 analytically  !
 ! A115  A(53,55,62)           119.87           calculate D2E/DX2 analytically  !
 ! A116  A(59,55,62)           120.9099         calculate D2E/DX2 analytically  !
 ! A117  A(54,57,59)           119.2319         calculate D2E/DX2 analytically  !
 ! A118  A(54,57,61)           119.9124         calculate D2E/DX2 analytically  !
 ! A119  A(59,57,61)           120.8557         calculate D2E/DX2 analytically  !
 ! A120  A(55,59,57)           120.7937         calculate D2E/DX2 analytically  !
 ! A121  A(55,59,60)           119.7139         calculate D2E/DX2 analytically  !
 ! A122  A(57,59,60)           119.4918         calculate D2E/DX2 analytically  !
 ! A123  A(57,61,63)           111.7556         calculate D2E/DX2 analytically  !
 ! A124  A(57,61,64)           108.6415         calculate D2E/DX2 analytically  !
 ! A125  A(57,61,65)           110.4995         calculate D2E/DX2 analytically  !
 ! A126  A(63,61,64)           108.6457         calculate D2E/DX2 analytically  !
 ! A127  A(63,61,65)           108.4316         calculate D2E/DX2 analytically  !
 ! A128  A(64,61,65)           108.8068         calculate D2E/DX2 analytically  !
 ! A129  A(55,62,66)           108.8555         calculate D2E/DX2 analytically  !
 ! A130  A(55,62,67)           112.0254         calculate D2E/DX2 analytically  !
 ! A131  A(55,62,68)           110.3236         calculate D2E/DX2 analytically  !
 ! A132  A(66,62,67)           108.4115         calculate D2E/DX2 analytically  !
 ! A133  A(66,62,68)           108.9175         calculate D2E/DX2 analytically  !
 ! A134  A(67,62,68)           108.2428         calculate D2E/DX2 analytically  !
 ! D1    D(48,1,2,3)          -169.5032         calculate D2E/DX2 analytically  !
 ! D2    D(48,1,2,50)          -10.1346         calculate D2E/DX2 analytically  !
 ! D3    D(49,1,2,3)             8.3272         calculate D2E/DX2 analytically  !
 ! D4    D(49,1,2,50)          167.6958         calculate D2E/DX2 analytically  !
 ! D5    D(2,1,48,51)          169.406          calculate D2E/DX2 analytically  !
 ! D6    D(2,1,48,52)           -4.1807         calculate D2E/DX2 analytically  !
 ! D7    D(49,1,48,51)          -8.4862         calculate D2E/DX2 analytically  !
 ! D8    D(49,1,48,52)         177.9271         calculate D2E/DX2 analytically  !
 ! D9    D(1,2,3,4)            -61.5864         calculate D2E/DX2 analytically  !
 ! D10   D(1,2,3,5)             58.4803         calculate D2E/DX2 analytically  !
 ! D11   D(1,2,3,6)            171.7584         calculate D2E/DX2 analytically  !
 ! D12   D(50,2,3,4)           139.0069         calculate D2E/DX2 analytically  !
 ! D13   D(50,2,3,5)          -100.9265         calculate D2E/DX2 analytically  !
 ! D14   D(50,2,3,6)            12.3516         calculate D2E/DX2 analytically  !
 ! D15   D(2,3,4,7)            -38.8013         calculate D2E/DX2 analytically  !
 ! D16   D(2,3,4,8)           -161.8369         calculate D2E/DX2 analytically  !
 ! D17   D(2,3,4,9)             73.9074         calculate D2E/DX2 analytically  !
 ! D18   D(5,3,4,7)           -157.2952         calculate D2E/DX2 analytically  !
 ! D19   D(5,3,4,8)             79.6692         calculate D2E/DX2 analytically  !
 ! D20   D(5,3,4,9)            -44.5865         calculate D2E/DX2 analytically  !
 ! D21   D(6,3,4,7)             85.8819         calculate D2E/DX2 analytically  !
 ! D22   D(6,3,4,8)            -37.1537         calculate D2E/DX2 analytically  !
 ! D23   D(6,3,4,9)           -161.4094         calculate D2E/DX2 analytically  !
 ! D24   D(2,3,6,10)            61.5629         calculate D2E/DX2 analytically  !
 ! D25   D(2,3,6,11)          -119.2408         calculate D2E/DX2 analytically  !
 ! D26   D(4,3,6,10)           -67.0204         calculate D2E/DX2 analytically  !
 ! D27   D(4,3,6,11)           112.1758         calculate D2E/DX2 analytically  !
 ! D28   D(5,3,6,10)           174.6363         calculate D2E/DX2 analytically  !
 ! D29   D(5,3,6,11)            -6.1674         calculate D2E/DX2 analytically  !
 ! D30   D(3,4,8,12)          -133.4941         calculate D2E/DX2 analytically  !
 ! D31   D(3,4,8,13)           101.6376         calculate D2E/DX2 analytically  !
 ! D32   D(3,4,8,14)           -11.7931         calculate D2E/DX2 analytically  !
 ! D33   D(7,4,8,12)           103.5357         calculate D2E/DX2 analytically  !
 ! D34   D(7,4,8,13)           -21.3326         calculate D2E/DX2 analytically  !
 ! D35   D(7,4,8,14)          -134.7634         calculate D2E/DX2 analytically  !
 ! D36   D(9,4,8,12)            -7.7994         calculate D2E/DX2 analytically  !
 ! D37   D(9,4,8,13)          -132.6677         calculate D2E/DX2 analytically  !
 ! D38   D(9,4,8,14)           113.9015         calculate D2E/DX2 analytically  !
 ! D39   D(3,4,9,15)            76.2798         calculate D2E/DX2 analytically  !
 ! D40   D(3,4,9,16)          -164.3577         calculate D2E/DX2 analytically  !
 ! D41   D(3,4,9,69)           -44.3345         calculate D2E/DX2 analytically  !
 ! D42   D(7,4,9,15)          -168.2112         calculate D2E/DX2 analytically  !
 ! D43   D(7,4,9,16)           -48.8487         calculate D2E/DX2 analytically  !
 ! D44   D(7,4,9,69)            71.1745         calculate D2E/DX2 analytically  !
 ! D45   D(8,4,9,15)           -53.8049         calculate D2E/DX2 analytically  !
 ! D46   D(8,4,9,16)            65.5576         calculate D2E/DX2 analytically  !
 ! D47   D(8,4,9,69)          -174.4192         calculate D2E/DX2 analytically  !
 ! D48   D(3,6,10,17)           -1.2594         calculate D2E/DX2 analytically  !
 ! D49   D(3,6,10,18)          178.9635         calculate D2E/DX2 analytically  !
 ! D50   D(11,6,10,17)         179.5383         calculate D2E/DX2 analytically  !
 ! D51   D(11,6,10,18)          -0.2388         calculate D2E/DX2 analytically  !
 ! D52   D(3,6,11,19)         -179.131          calculate D2E/DX2 analytically  !
 ! D53   D(3,6,11,20)            1.2737         calculate D2E/DX2 analytically  !
 ! D54   D(10,6,11,19)           0.0978         calculate D2E/DX2 analytically  !
 ! D55   D(10,6,11,20)        -179.4975         calculate D2E/DX2 analytically  !
 ! D56   D(4,8,12,21)           62.5231         calculate D2E/DX2 analytically  !
 ! D57   D(4,8,12,22)         -175.6617         calculate D2E/DX2 analytically  !
 ! D58   D(4,8,12,23)          -52.6049         calculate D2E/DX2 analytically  !
 ! D59   D(13,8,12,21)        -173.4636         calculate D2E/DX2 analytically  !
 ! D60   D(13,8,12,22)         -51.6483         calculate D2E/DX2 analytically  !
 ! D61   D(13,8,12,23)          71.4084         calculate D2E/DX2 analytically  !
 ! D62   D(14,8,12,21)         -60.026          calculate D2E/DX2 analytically  !
 ! D63   D(14,8,12,22)          61.7892         calculate D2E/DX2 analytically  !
 ! D64   D(14,8,12,23)        -175.154          calculate D2E/DX2 analytically  !
 ! D65   D(4,9,15,21)           59.2862         calculate D2E/DX2 analytically  !
 ! D66   D(4,9,15,24)          -63.6742         calculate D2E/DX2 analytically  !
 ! D67   D(4,9,15,25)         -179.0467         calculate D2E/DX2 analytically  !
 ! D68   D(16,9,15,21)         -60.4946         calculate D2E/DX2 analytically  !
 ! D69   D(16,9,15,24)         176.5451         calculate D2E/DX2 analytically  !
 ! D70   D(16,9,15,25)          61.1725         calculate D2E/DX2 analytically  !
 ! D71   D(69,9,15,21)         178.184          calculate D2E/DX2 analytically  !
 ! D72   D(69,9,15,24)          55.2236         calculate D2E/DX2 analytically  !
 ! D73   D(69,9,15,25)         -60.149          calculate D2E/DX2 analytically  !
 ! D74   D(4,9,16,23)          -59.3255         calculate D2E/DX2 analytically  !
 ! D75   D(4,9,16,26)           64.102          calculate D2E/DX2 analytically  !
 ! D76   D(4,9,16,27)          178.7966         calculate D2E/DX2 analytically  !
 ! D77   D(15,9,16,23)          62.9311         calculate D2E/DX2 analytically  !
 ! D78   D(15,9,16,26)        -173.6414         calculate D2E/DX2 analytically  !
 ! D79   D(15,9,16,27)         -58.9468         calculate D2E/DX2 analytically  !
 ! D80   D(69,9,16,23)        -176.6095         calculate D2E/DX2 analytically  !
 ! D81   D(69,9,16,26)         -53.182          calculate D2E/DX2 analytically  !
 ! D82   D(69,9,16,27)          61.5126         calculate D2E/DX2 analytically  !
 ! D83   D(6,10,17,28)        -179.7062         calculate D2E/DX2 analytically  !
 ! D84   D(6,10,17,29)          -1.0891         calculate D2E/DX2 analytically  !
 ! D85   D(18,10,17,28)          0.0704         calculate D2E/DX2 analytically  !
 ! D86   D(18,10,17,29)        178.6875         calculate D2E/DX2 analytically  !
 ! D87   D(6,10,18,30)         179.9533         calculate D2E/DX2 analytically  !
 ! D88   D(6,10,18,31)           0.09           calculate D2E/DX2 analytically  !
 ! D89   D(17,10,18,30)          0.161          calculate D2E/DX2 analytically  !
 ! D90   D(17,10,18,31)       -179.7024         calculate D2E/DX2 analytically  !
 ! D91   D(6,11,19,31)           0.217          calculate D2E/DX2 analytically  !
 ! D92   D(6,11,19,32)        -179.5306         calculate D2E/DX2 analytically  !
 ! D93   D(20,11,19,31)        179.8215         calculate D2E/DX2 analytically  !
 ! D94   D(20,11,19,32)          0.074          calculate D2E/DX2 analytically  !
 ! D95   D(8,12,21,15)         -56.9603         calculate D2E/DX2 analytically  !
 ! D96   D(8,12,21,33)          65.4023         calculate D2E/DX2 analytically  !
 ! D97   D(8,12,21,34)        -179.4351         calculate D2E/DX2 analytically  !
 ! D98   D(22,12,21,15)       -178.8915         calculate D2E/DX2 analytically  !
 ! D99   D(22,12,21,33)        -56.5289         calculate D2E/DX2 analytically  !
 ! D100  D(22,12,21,34)         58.6337         calculate D2E/DX2 analytically  !
 ! D101  D(23,12,21,15)         58.8685         calculate D2E/DX2 analytically  !
 ! D102  D(23,12,21,33)       -178.7688         calculate D2E/DX2 analytically  !
 ! D103  D(23,12,21,34)        -63.6062         calculate D2E/DX2 analytically  !
 ! D104  D(8,12,23,16)          58.9634         calculate D2E/DX2 analytically  !
 ! D105  D(8,12,23,35)         176.2226         calculate D2E/DX2 analytically  !
 ! D106  D(8,12,23,36)         -68.0913         calculate D2E/DX2 analytically  !
 ! D107  D(21,12,23,16)        -55.9445         calculate D2E/DX2 analytically  !
 ! D108  D(21,12,23,35)         61.3147         calculate D2E/DX2 analytically  !
 ! D109  D(21,12,23,36)        177.0008         calculate D2E/DX2 analytically  !
 ! D110  D(22,12,23,16)       -178.0241         calculate D2E/DX2 analytically  !
 ! D111  D(22,12,23,35)        -60.7649         calculate D2E/DX2 analytically  !
 ! D112  D(22,12,23,36)         54.9212         calculate D2E/DX2 analytically  !
 ! D113  D(9,15,21,12)          -1.0502         calculate D2E/DX2 analytically  !
 ! D114  D(9,15,21,33)        -123.7215         calculate D2E/DX2 analytically  !
 ! D115  D(9,15,21,34)         121.7269         calculate D2E/DX2 analytically  !
 ! D116  D(24,15,21,12)        119.3015         calculate D2E/DX2 analytically  !
 ! D117  D(24,15,21,33)         -3.3699         calculate D2E/DX2 analytically  !
 ! D118  D(24,15,21,34)       -117.9214         calculate D2E/DX2 analytically  !
 ! D119  D(25,15,21,12)       -119.4837         calculate D2E/DX2 analytically  !
 ! D120  D(25,15,21,33)        117.845          calculate D2E/DX2 analytically  !
 ! D121  D(25,15,21,34)          3.2935         calculate D2E/DX2 analytically  !
 ! D122  D(9,16,23,12)          -3.4731         calculate D2E/DX2 analytically  !
 ! D123  D(9,16,23,35)        -121.0867         calculate D2E/DX2 analytically  !
 ! D124  D(9,16,23,36)         123.9158         calculate D2E/DX2 analytically  !
 ! D125  D(26,16,23,12)       -123.0534         calculate D2E/DX2 analytically  !
 ! D126  D(26,16,23,35)        119.333          calculate D2E/DX2 analytically  !
 ! D127  D(26,16,23,36)          4.3355         calculate D2E/DX2 analytically  !
 ! D128  D(27,16,23,12)        114.9261         calculate D2E/DX2 analytically  !
 ! D129  D(27,16,23,35)         -2.6875         calculate D2E/DX2 analytically  !
 ! D130  D(27,16,23,36)       -117.685          calculate D2E/DX2 analytically  !
 ! D131  D(10,17,28,37)         -0.3221         calculate D2E/DX2 analytically  !
 ! D132  D(10,17,28,38)        179.5067         calculate D2E/DX2 analytically  !
 ! D133  D(29,17,28,37)       -178.9869         calculate D2E/DX2 analytically  !
 ! D134  D(29,17,28,38)          0.8418         calculate D2E/DX2 analytically  !
 ! D135  D(10,18,30,37)         -0.1407         calculate D2E/DX2 analytically  !
 ! D136  D(10,18,30,39)       -179.7909         calculate D2E/DX2 analytically  !
 ! D137  D(31,18,30,37)        179.7287         calculate D2E/DX2 analytically  !
 ! D138  D(31,18,30,39)          0.0785         calculate D2E/DX2 analytically  !
 ! D139  D(10,18,31,19)          0.2083         calculate D2E/DX2 analytically  !
 ! D140  D(30,18,31,19)       -179.6575         calculate D2E/DX2 analytically  !
 ! D141  D(11,19,31,18)         -0.3698         calculate D2E/DX2 analytically  !
 ! D142  D(32,19,31,18)        179.3895         calculate D2E/DX2 analytically  !
 ! D143  D(12,23,36,40)       -172.8382         calculate D2E/DX2 analytically  !
 ! D144  D(12,23,36,41)        -53.7808         calculate D2E/DX2 analytically  !
 ! D145  D(12,23,36,42)         67.1026         calculate D2E/DX2 analytically  !
 ! D146  D(16,23,36,40)         60.477          calculate D2E/DX2 analytically  !
 ! D147  D(16,23,36,41)        179.5344         calculate D2E/DX2 analytically  !
 ! D148  D(16,23,36,42)        -59.5822         calculate D2E/DX2 analytically  !
 ! D149  D(35,23,36,40)        -55.6725         calculate D2E/DX2 analytically  !
 ! D150  D(35,23,36,41)         63.3849         calculate D2E/DX2 analytically  !
 ! D151  D(35,23,36,42)       -175.7317         calculate D2E/DX2 analytically  !
 ! D152  D(17,28,37,30)          0.3441         calculate D2E/DX2 analytically  !
 ! D153  D(17,28,37,43)        179.891          calculate D2E/DX2 analytically  !
 ! D154  D(38,28,37,30)       -179.4679         calculate D2E/DX2 analytically  !
 ! D155  D(38,28,37,43)          0.079          calculate D2E/DX2 analytically  !
 ! D156  D(17,28,38,44)       -174.3135         calculate D2E/DX2 analytically  !
 ! D157  D(37,28,38,44)          5.5049         calculate D2E/DX2 analytically  !
 ! D158  D(18,30,37,28)         -0.1141         calculate D2E/DX2 analytically  !
 ! D159  D(18,30,37,43)       -179.6714         calculate D2E/DX2 analytically  !
 ! D160  D(39,30,37,28)        179.5313         calculate D2E/DX2 analytically  !
 ! D161  D(39,30,37,43)         -0.026          calculate D2E/DX2 analytically  !
 ! D162  D(28,38,44,45)        176.8507         calculate D2E/DX2 analytically  !
 ! D163  D(28,38,44,46)        -64.3814         calculate D2E/DX2 analytically  !
 ! D164  D(28,38,44,47)         58.1846         calculate D2E/DX2 analytically  !
 ! D165  D(1,48,52,53)         -47.0903         calculate D2E/DX2 analytically  !
 ! D166  D(1,48,52,54)         135.6625         calculate D2E/DX2 analytically  !
 ! D167  D(51,48,52,53)        139.4671         calculate D2E/DX2 analytically  !
 ! D168  D(51,48,52,54)        -37.7801         calculate D2E/DX2 analytically  !
 ! D169  D(48,52,53,55)       -179.0207         calculate D2E/DX2 analytically  !
 ! D170  D(48,52,53,56)         -0.0706         calculate D2E/DX2 analytically  !
 ! D171  D(54,52,53,55)         -1.8202         calculate D2E/DX2 analytically  !
 ! D172  D(54,52,53,56)        177.1299         calculate D2E/DX2 analytically  !
 ! D173  D(48,52,54,57)        179.2024         calculate D2E/DX2 analytically  !
 ! D174  D(48,52,54,58)         -1.6045         calculate D2E/DX2 analytically  !
 ! D175  D(53,52,54,57)          1.8675         calculate D2E/DX2 analytically  !
 ! D176  D(53,52,54,58)       -178.9394         calculate D2E/DX2 analytically  !
 ! D177  D(52,53,55,59)          0.6742         calculate D2E/DX2 analytically  !
 ! D178  D(52,53,55,62)       -179.7565         calculate D2E/DX2 analytically  !
 ! D179  D(56,53,55,59)       -178.2897         calculate D2E/DX2 analytically  !
 ! D180  D(56,53,55,62)          1.2796         calculate D2E/DX2 analytically  !
 ! D181  D(52,54,57,59)         -0.7673         calculate D2E/DX2 analytically  !
 ! D182  D(52,54,57,61)        179.3072         calculate D2E/DX2 analytically  !
 ! D183  D(58,54,57,59)       -179.9661         calculate D2E/DX2 analytically  !
 ! D184  D(58,54,57,61)          0.1083         calculate D2E/DX2 analytically  !
 ! D185  D(53,55,59,57)          0.4417         calculate D2E/DX2 analytically  !
 ! D186  D(53,55,59,60)       -179.8465         calculate D2E/DX2 analytically  !
 ! D187  D(62,55,59,57)       -179.1229         calculate D2E/DX2 analytically  !
 ! D188  D(62,55,59,60)          0.5888         calculate D2E/DX2 analytically  !
 ! D189  D(53,55,62,66)         75.7188         calculate D2E/DX2 analytically  !
 ! D190  D(53,55,62,67)       -164.4015         calculate D2E/DX2 analytically  !
 ! D191  D(53,55,62,68)        -43.7416         calculate D2E/DX2 analytically  !
 ! D192  D(59,55,62,66)       -104.7193         calculate D2E/DX2 analytically  !
 ! D193  D(59,55,62,67)         15.1603         calculate D2E/DX2 analytically  !
 ! D194  D(59,55,62,68)        135.8202         calculate D2E/DX2 analytically  !
 ! D195  D(54,57,59,55)         -0.3983         calculate D2E/DX2 analytically  !
 ! D196  D(54,57,59,60)        179.8893         calculate D2E/DX2 analytically  !
 ! D197  D(61,57,59,55)        179.5265         calculate D2E/DX2 analytically  !
 ! D198  D(61,57,59,60)         -0.1859         calculate D2E/DX2 analytically  !
 ! D199  D(54,57,61,63)        160.1391         calculate D2E/DX2 analytically  !
 ! D200  D(54,57,61,64)        -79.9985         calculate D2E/DX2 analytically  !
 ! D201  D(54,57,61,65)         39.2996         calculate D2E/DX2 analytically  !
 ! D202  D(59,57,61,63)        -19.7852         calculate D2E/DX2 analytically  !
 ! D203  D(59,57,61,64)        100.0771         calculate D2E/DX2 analytically  !
 ! D204  D(59,57,61,65)       -140.6248         calculate D2E/DX2 analytically  !
 --------------------------------------------------------------------------------
 Trust Radius=1.00D-01 FncErr=1.00D-07 GrdErr=1.00D-06 EigMax=2.50D+02 EigMin=1.00D-04
 Number of steps in this run=     50 maximum allowed number of steps=    414.
 GradGradGradGradGradGradGradGradGradGradGradGradGradGradGradGradGradGrad

 Stoichiometry    C28H29F6N4O2(1+)
 Framework group  C1[X(C28H29F6N4O2)]
 Deg. of freedom   201
 Full point group                 C1      NOp   1
 Largest Abelian subgroup         C1      NOp   1
 Largest concise Abelian subgroup C1      NOp   1
                         Standard orientation:                         
 ---------------------------------------------------------------------
 Center     Atomic      Atomic             Coordinates (Angstroms)
 Number     Number       Type             X           Y           Z
 ---------------------------------------------------------------------
      1          6           0       -0.264081   -2.348001   -0.639503
      2          7           0       -0.573913   -1.292560    0.129061
      3          6           0       -1.843605   -0.993283    0.811863
      4          6           0       -3.091529   -0.807591   -0.129225
      5          1           0       -2.030202   -1.840146    1.473537
      6          6           0       -1.623593    0.221784    1.728780
      7          1           0       -2.765713   -0.267970   -1.020311
      8          6           0       -4.349200   -0.077233    0.451569
      9          7           0       -3.563815   -2.185089   -0.686080
     10          6           0       -1.236098    1.512368    1.220794
     11          6           0       -1.820980    0.080960    3.107118
     12          6           0       -5.676637   -0.824106    0.134185
     13          1           0       -4.376917    0.953821    0.094632
     14          1           0       -4.257403    0.030279    1.533253
     15          6           0       -4.344835   -3.020020    0.370073
     16          6           0       -4.513363   -1.933195   -1.892903
     17          6           0       -0.992528    1.799607   -0.150551
     18          6           0       -1.081605    2.577502    2.164679
     19          6           0       -1.642225    1.178167    3.942121
     20          1           0       -2.104528   -0.868114    3.540395
     21          6           0       -5.589777   -2.210688    0.827901
     22          1           0       -6.547404   -0.259394    0.481767
     23          6           0       -5.736509   -1.081623   -1.406960
     24          1           0       -3.668461   -3.254945    1.193504
     25          1           0       -4.616395   -3.966782   -0.104909
     26          1           0       -3.923869   -1.447340   -2.675667
     27          1           0       -4.810155   -2.913844   -2.274919
     28          6           0       -0.614857    3.066740   -0.576746
     29          1           0       -1.073542    1.031940   -0.898297
     30          6           0       -0.701413    3.863276    1.715453
     31          7           0       -1.285270    2.404124    3.498525
     32          1           0       -1.782310    1.089159    5.011107
     33          1           0       -5.567390   -2.087294    1.912986
     34          1           0       -6.495978   -2.788092    0.630625
     35          1           0       -6.638044   -1.665621   -1.612391
     36          6           0       -5.900196    0.219136   -2.223277
     37          6           0       -0.474631    4.094525    0.360654
     38          8           0       -0.401100    3.202488   -1.931212
     39          1           0       -0.583847    4.661123    2.436738
     40          1           0       -6.065366    0.004628   -3.280830
     41          1           0       -6.758853    0.800103   -1.882380
     42          1           0       -5.023123    0.864499   -2.162483
     43          1           0       -0.180602    5.085527    0.051863
     44          6           0        0.106310    4.434702   -2.436454
     45          1           0        0.265090    4.345249   -3.511370
     46          1           0       -0.595231    5.254781   -2.275943
     47          1           0        1.066674    4.690740   -1.985346
     48          7           0        1.027689   -2.505425   -0.974706
     49          8           0       -1.096110   -3.171292   -1.001284
     50          1           0        0.224442   -0.808541    0.512403
     51          1           0        1.230488   -3.394796   -1.404967
     52          6           0        2.129440   -1.674186   -0.704265
     53          6           0        2.099007   -0.287748   -0.911283
     54          6           0        3.309225   -2.279198   -0.266447
     55          6           0        3.228907    0.495708   -0.646215
     56          1           0        1.206825    0.189066   -1.294325
     57          6           0        4.447773   -1.511014    0.004352
     58          1           0        3.346427   -3.351176   -0.120581
     59          6           0        4.397811   -0.123834   -0.184226
     60          1           0        5.275960    0.474960    0.025781
     61          6           0        5.725849   -2.189796    0.498160
     62          6           0        3.177604    2.006935   -0.871913
     63          9           0        6.799558   -1.423257    0.303391
     64          9           0        5.604225   -2.428739    1.802718
     65          9           0        5.914148   -3.347897   -0.135232
     66          9           0        2.488014    2.567094    0.120145
     67          9           0        4.394994    2.550268   -0.897811
     68          9           0        2.573126    2.282184   -2.027641
     69          1           0       -2.717900   -2.694977   -0.978039
 ---------------------------------------------------------------------
 Rotational constants (GHZ):           0.1202745           0.0586212           0.0489751
 Standard basis: 6-31G(d) (6D, 7F)
 There are   658 symmetry adapted cartesian basis functions of A   symmetry.
 There are   658 symmetry adapted basis functions of A   symmetry.
   658 basis functions,  1236 primitive gaussians,   658 cartesian basis functions
   147 alpha electrons      147 beta electrons
       nuclear repulsion energy      4952.7861369517 Hartrees.
 NAtoms=   69 NActive=   69 NUniq=   69 SFac= 1.00D+00 NAtFMM=   60 NAOKFM=T Big=T
 Integral buffers will be    131072 words long.
 Raffenetti 2 integral format.
 Two-electron integral symmetry is turned on.
 Force inversion solution in PCM.
 ------------------------------------------------------------------------------
 Polarizable Continuum Model (PCM)
 =================================
 Model                : PCM.
 Atomic radii         : UFF (Universal Force Field).
 Polarization charges : Total charges.
 Charge compensation  : None.
 Solution method      : Matrix inversion.
 Cavity type          : Scaled VdW (van der Waals Surface) (Alpha=1.100).
 Cavity algorithm     : GePol (No added spheres)
                        Default sphere list used, NSphG=   69.
                        Lebedev-Laikov grids with approx.  5.0 points / Ang**2.
                        Smoothing algorithm: York/Karplus (Gamma=1.0000).
                        Polarization charges: spherical gaussians, with
                                              point-specific exponents (IZeta= 3).
                        Self-potential: point-specific (ISelfS= 7).
                        Self-field    : sphere-specific E.n sum rule (ISelfD= 2).
 1st derivatives      : Analytical E(r).r(x)/FMM algorithm (CHGder, D1EAlg=3).
                        Cavity 1st derivative terms included.
 2nd derivatives      : Analytical E(r).r(xy)/FMM algorithm (CHGder, D2EAlg=3).
                        Cavity 2nd derivative terms included.
 Solvent              : Benzene, Eps=   2.270600 Eps(inf)=   2.253301
 ------------------------------------------------------------------------------
 One-electron integrals computed using PRISM.
 NBasis=   658 RedAO= T EigKep=  3.34D-04  NBF=   658
 NBsUse=   658 1.00D-06 EigRej= -1.00D+00 NBFU=   658
 ExpMin= 1.61D-01 ExpMax= 7.00D+03 ExpMxC= 1.05D+03 IAcc=3 IRadAn=         5 AccDes= 0.00D+00
 Harris functional with IExCor= 1009 and IRadAn=       5 diagonalized for initial guess.
 HarFok:  IExCor= 1009 AccDes= 0.00D+00 IRadAn=         5 IDoV= 1 UseB2=F ITyADJ=14
 ICtDFT=  3500011 ScaDFX=  1.000000  1.000000  1.000000  1.000000
 FoFCou: FMM=F IPFlag=           0 FMFlag=      100000 FMFlg1=        2001
         NFxFlg=           0 DoJE=T BraDBF=F KetDBF=T FulRan=T
         wScrn=  0.000000 ICntrl=       500 IOpCl=  0 I1Cent=   200000004 NGrid=           0
         NMat0=    1 NMatS0=      1 NMatT0=    0 NMatD0=    1 NMtDS0=    0 NMtDT0=    0
 Petite list used in FoFCou.
 Requested convergence on RMS density matrix=1.00D-08 within 128 cycles.
 Requested convergence on MAX density matrix=1.00D-06.
 Requested convergence on             energy=1.00D-06.
 No special actions if energy rises.
 Inv3:  Mode=1 IEnd=    64088652.
 Iteration    1 A*A^-1 deviation from unit magnitude is 3.33D-15 for   3635.
 Iteration    1 A*A^-1 deviation from orthogonality  is 2.43D-15 for   2294    633.
 Iteration    1 A^-1*A deviation from unit magnitude is 3.33D-15 for   1634.
 Iteration    1 A^-1*A deviation from orthogonality  is 2.15D-14 for   3822   3781.
 Error on total polarization charges =  0.03438
 SCF Done:  E(RM062X) =  -2052.03223602     A.U. after   13 cycles
            NFock= 13  Conv=0.66D-08     -V/T= 2.0083
 DoSCS=F DFT=T ScalE2(SS,OS)=  1.000000  1.000000
 Range of M.O.s used for correlation:     1   658
 NBasis=   658 NAE=   147 NBE=   147 NFC=     0 NFV=     0
 NROrb=    658 NOA=   147 NOB=   147 NVA=   511 NVB=   511

 **** Warning!!: The largest alpha MO coefficient is  0.10312510D+02

 Symmetrizing basis deriv contribution to polar:
 IMax=3 JMax=2 DiffMx= 0.00D+00
 G2DrvN: will do    70 centers at a time, making    1 passes.
 Calling FoFCou, ICntrl=  3107 FMM=T I1Cent=   0 AccDes= 0.00D+00.
 NEqPCM:  Using equilibrium solvation (IEInf=0, Eps=   2.2706, EpsInf=   2.2533)
 G2PCM: DoFxE=T DoFxN=T DoGrad=T DoDP/DQ/DG/TGxP=FFFF NFrqRd=   0 IEInf=0 SqF1=F DoCFld=F IF1Alg=4.
 End of G2Drv F.D. properties file   721 does not exist.
 End of G2Drv F.D. properties file   722 does not exist.
 End of G2Drv F.D. properties file   788 does not exist.
          IDoAtm=11111111111111111111111111111111111111111111111111
          IDoAtm=1111111111111111111
 NEqPCM:  Using equilibrium solvation (IEInf=0, Eps=   2.2706, EpsInf=   2.2533)
          Differentiating once with respect to nuclear coordinates.
 CalDSu exits because no D1Ps are significant.
          There are   210 degrees of freedom in the 1st order CPHF.  IDoFFX=6 NUNeed=     0.
    204 vectors produced by pass  0 Test12= 7.51D-14 1.00D-09 XBig12= 1.42D-01 1.04D-01.
 AX will form    72 AO Fock derivatives at one time.
    204 vectors produced by pass  1 Test12= 7.51D-14 1.00D-09 XBig12= 3.40D-02 4.29D-02.
    204 vectors produced by pass  2 Test12= 7.51D-14 1.00D-09 XBig12= 5.81D-04 3.53D-03.
    204 vectors produced by pass  3 Test12= 7.51D-14 1.00D-09 XBig12= 4.90D-06 3.24D-04.
    204 vectors produced by pass  4 Test12= 7.51D-14 1.00D-09 XBig12= 2.67D-08 1.01D-05.
    204 vectors produced by pass  5 Test12= 7.51D-14 1.00D-09 XBig12= 1.02D-10 7.71D-07.
    133 vectors produced by pass  6 Test12= 7.51D-14 1.00D-09 XBig12= 3.16D-13 4.40D-08.
      3 vectors produced by pass  7 Test12= 7.51D-14 1.00D-09 XBig12= 1.03D-15 1.93D-09.
      2 vectors produced by pass  8 Test12= 7.51D-14 1.00D-09 XBig12= 9.86D-16 1.60D-09.
 InvSVY:  IOpt=1 It=  1 EMax= 5.27D-16
 Solved reduced A of dimension  1362 with   210 vectors.
 End of Minotr F.D. properties file   721 does not exist.
 End of Minotr F.D. properties file   722 does not exist.
 End of Minotr F.D. properties file   788 does not exist.

 **********************************************************************

            Population analysis using the SCF Density.

 **********************************************************************

 Orbital symmetries:
       Occupied  (A) (A) (A) (A) (A) (A) (A) (A) (A) (A) (A) (A)
                 (A) (A) (A) (A) (A) (A) (A) (A) (A) (A) (A) (A)
                 (A) (A) (A) (A) (A) (A) (A) (A) (A) (A) (A) (A)
                 (A) (A) (A) (A) (A) (A) (A) (A) (A) (A) (A) (A)
                 (A) (A) (A) (A) (A) (A) (A) (A) (A) (A) (A) (A)
                 (A) (A) (A) (A) (A) (A) (A) (A) (A) (A) (A) (A)
                 (A) (A) (A) (A) (A) (A) (A) (A) (A) (A) (A) (A)
                 (A) (A) (A) (A) (A) (A) (A) (A) (A) (A) (A) (A)
                 (A) (A) (A) (A) (A) (A) (A) (A) (A) (A) (A) (A)
                 (A) (A) (A) (A) (A) (A) (A) (A) (A) (A) (A) (A)
                 (A) (A) (A) (A) (A) (A) (A) (A) (A) (A) (A) (A)
                 (A) (A) (A) (A) (A) (A) (A) (A) (A) (A) (A) (A)
                 (A) (A) (A)
       Virtual   (A) (A) (A) (A) (A) (A) (A) (A) (A) (A) (A) (A)
                 (A) (A) (A) (A) (A) (A) (A) (A) (A) (A) (A) (A)
                 (A) (A) (A) (A) (A) (A) (A) (A) (A) (A) (A) (A)
                 (A) (A) (A) (A) (A) (A) (A) (A) (A) (A) (A) (A)
                 (A) (A) (A) (A) (A) (A) (A) (A) (A) (A) (A) (A)
                 (A) (A) (A) (A) (A) (A) (A) (A) (A) (A) (A) (A)
                 (A) (A) (A) (A) (A) (A) (A) (A) (A) (A) (A) (A)
                 (A) (A) (A) (A) (A) (A) (A) (A) (A) (A) (A) (A)
                 (A) (A) (A) (A) (A) (A) (A) (A) (A) (A) (A) (A)
                 (A) (A) (A) (A) (A) (A) (A) (A) (A) (A) (A) (A)
                 (A) (A) (A) (A) (A) (A) (A) (A) (A) (A) (A) (A)
                 (A) (A) (A) (A) (A) (A) (A) (A) (A) (A) (A) (A)
                 (A) (A) (A) (A) (A) (A) (A) (A) (A) (A) (A) (A)
                 (A) (A) (A) (A) (A) (A) (A) (A) (A) (A) (A) (A)
                 (A) (A) (A) (A) (A) (A) (A) (A) (A) (A) (A) (A)
                 (A) (A) (A) (A) (A) (A) (A) (A) (A) (A) (A) (A)
                 (A) (A) (A) (A) (A) (A) (A) (A) (A) (A) (A) (A)
                 (A) (A) (A) (A) (A) (A) (A) (A) (A) (A) (A) (A)
                 (A) (A) (A) (A) (A) (A) (A) (A) (A) (A) (A) (A)
                 (A) (A) (A) (A) (A) (A) (A) (A) (A) (A) (A) (A)
                 (A) (A) (A) (A) (A) (A) (A) (A) (A) (A) (A) (A)
                 (A) (A) (A) (A) (A) (A) (A) (A) (A) (A) (A) (A)
                 (A) (A) (A) (A) (A) (A) (A) (A) (A) (A) (A) (A)
                 (A) (A) (A) (A) (A) (A) (A) (A) (A) (A) (A) (A)
                 (A) (A) (A) (A) (A) (A) (A) (A) (A) (A) (A) (A)
                 (A) (A) (A) (A) (A) (A) (A) (A) (A) (A) (A) (A)
                 (A) (A) (A) (A) (A) (A) (A) (A) (A) (A) (A) (A)
                 (A) (A) (A) (A) (A) (A) (A) (A) (A) (A) (A) (A)
                 (A) (A) (A) (A) (A) (A) (A) (A) (A) (A) (A) (A)
                 (A) (A) (A) (A) (A) (A) (A) (A) (A) (A) (A) (A)
                 (A) (A) (A) (A) (A) (A) (A) (A) (A) (A) (A) (A)
                 (A) (A) (A) (A) (A) (A) (A) (A) (A) (A) (A) (A)
                 (A) (A) (A) (A) (A) (A) (A) (A) (A) (A) (A) (A)
                 (A) (A) (A) (A) (A) (A) (A) (A) (A) (A) (A) (A)
                 (A) (A) (A) (A) (A) (A) (A) (A) (A) (A) (A) (A)
                 (A) (A) (A) (A) (A) (A) (A) (A) (A) (A) (A) (A)
                 (A) (A) (A) (A) (A) (A) (A) (A) (A) (A) (A) (A)
                 (A) (A) (A) (A) (A) (A) (A) (A) (A) (A) (A) (A)
                 (A) (A) (A) (A) (A) (A) (A) (A) (A) (A) (A) (A)
                 (A) (A) (A) (A) (A) (A) (A) (A) (A) (A) (A) (A)
                 (A) (A) (A) (A) (A) (A) (A) (A) (A) (A) (A) (A)
                 (A) (A) (A) (A) (A) (A) (A) (A) (A) (A) (A) (A)
                 (A) (A) (A) (A) (A) (A) (A)
 The electronic state is 1-A.
 Alpha  occ. eigenvalues --  -25.32724 -25.32712 -25.32440 -25.32370 -25.32351
 Alpha  occ. eigenvalues --  -25.31931 -19.71385 -19.67677 -14.92667 -14.85612
 Alpha  occ. eigenvalues --  -14.85422 -14.80748 -10.84486 -10.84222 -10.75198
 Alpha  occ. eigenvalues --  -10.68870 -10.68735 -10.67077 -10.66998 -10.66899
 Alpha  occ. eigenvalues --  -10.66570 -10.64161 -10.63550 -10.63391 -10.63256
 Alpha  occ. eigenvalues --  -10.63120 -10.63117 -10.62856 -10.62631 -10.62595
 Alpha  occ. eigenvalues --  -10.62534 -10.62349 -10.62332 -10.61864 -10.61528
 Alpha  occ. eigenvalues --  -10.61522 -10.60366 -10.60264 -10.60057 -10.58736
 Alpha  occ. eigenvalues --   -1.49985  -1.49643  -1.40681  -1.40543  -1.40398
 Alpha  occ. eigenvalues --   -1.40213  -1.25455  -1.22279  -1.16002  -1.13176
 Alpha  occ. eigenvalues --   -1.10215  -1.09066  -1.02997  -0.99719  -0.98606
 Alpha  occ. eigenvalues --   -0.97998  -0.94734  -0.94049  -0.93746  -0.92170
 Alpha  occ. eigenvalues --   -0.90043  -0.89252  -0.87285  -0.84918  -0.84607
 Alpha  occ. eigenvalues --   -0.84317  -0.82670  -0.81106  -0.79522  -0.78567
 Alpha  occ. eigenvalues --   -0.77618  -0.77236  -0.75816  -0.75235  -0.74348
 Alpha  occ. eigenvalues --   -0.73041  -0.72959  -0.72344  -0.72311  -0.72015
 Alpha  occ. eigenvalues --   -0.71689  -0.70030  -0.69275  -0.67278  -0.65954
 Alpha  occ. eigenvalues --   -0.65725  -0.65142  -0.64525  -0.64198  -0.63503
 Alpha  occ. eigenvalues --   -0.62900  -0.62654  -0.61877  -0.60550  -0.60086
 Alpha  occ. eigenvalues --   -0.59915  -0.59628  -0.59495  -0.58889  -0.58425
 Alpha  occ. eigenvalues --   -0.57744  -0.57634  -0.57045  -0.56334  -0.56266
 Alpha  occ. eigenvalues --   -0.56212  -0.55930  -0.55706  -0.55599  -0.55472
 Alpha  occ. eigenvalues --   -0.55151  -0.54888  -0.54002  -0.53806  -0.53683
 Alpha  occ. eigenvalues --   -0.53273  -0.53073  -0.52720  -0.52399  -0.52103
 Alpha  occ. eigenvalues --   -0.51871  -0.51749  -0.51500  -0.51260  -0.50745
 Alpha  occ. eigenvalues --   -0.49236  -0.48726  -0.48350  -0.47993  -0.47261
 Alpha  occ. eigenvalues --   -0.46685  -0.46332  -0.45856  -0.45296  -0.43731
 Alpha  occ. eigenvalues --   -0.42981  -0.42919  -0.42479  -0.41788  -0.41496
 Alpha  occ. eigenvalues --   -0.40551  -0.39088  -0.37660  -0.36716  -0.34586
 Alpha  occ. eigenvalues --   -0.34303  -0.30849
 Alpha virt. eigenvalues --   -0.08001  -0.05317  -0.04328  -0.02660   0.00258
 Alpha virt. eigenvalues --    0.02382   0.03777   0.05732   0.05922   0.07406
 Alpha virt. eigenvalues --    0.07976   0.08525   0.08828   0.09075   0.09787
 Alpha virt. eigenvalues --    0.10318   0.10779   0.11128   0.11696   0.11892
 Alpha virt. eigenvalues --    0.11946   0.12313   0.12718   0.12953   0.13514
 Alpha virt. eigenvalues --    0.13800   0.14676   0.15111   0.15428   0.15647
 Alpha virt. eigenvalues --    0.16279   0.16471   0.16954   0.17172   0.17473
 Alpha virt. eigenvalues --    0.17680   0.18294   0.18409   0.18467   0.19018
 Alpha virt. eigenvalues --    0.19411   0.19694   0.20597   0.20867   0.21090
 Alpha virt. eigenvalues --    0.21732   0.22168   0.22696   0.22931   0.23271
 Alpha virt. eigenvalues --    0.23303   0.24265   0.24805   0.25016   0.25316
 Alpha virt. eigenvalues --    0.25702   0.26501   0.26995   0.27253   0.27559
 Alpha virt. eigenvalues --    0.27982   0.28346   0.28519   0.29048   0.29682
 Alpha virt. eigenvalues --    0.30511   0.30952   0.31681   0.33486   0.33699
 Alpha virt. eigenvalues --    0.35558   0.36259   0.36465   0.38522   0.40414
 Alpha virt. eigenvalues --    0.42572   0.43914   0.44753   0.45151   0.45778
 Alpha virt. eigenvalues --    0.46478   0.46894   0.47142   0.47942   0.48321
 Alpha virt. eigenvalues --    0.48722   0.48921   0.49483   0.50181   0.51303
 Alpha virt. eigenvalues --    0.51541   0.52019   0.52141   0.52553   0.52845
 Alpha virt. eigenvalues --    0.53124   0.53459   0.53521   0.54625   0.54891
 Alpha virt. eigenvalues --    0.55451   0.55787   0.56510   0.57122   0.57454
 Alpha virt. eigenvalues --    0.58094   0.58534   0.58859   0.59111   0.59380
 Alpha virt. eigenvalues --    0.59452   0.59825   0.60639   0.60913   0.61299
 Alpha virt. eigenvalues --    0.61714   0.61799   0.62318   0.62947   0.63095
 Alpha virt. eigenvalues --    0.63813   0.63955   0.64069   0.64869   0.65464
 Alpha virt. eigenvalues --    0.65622   0.66580   0.66951   0.67728   0.67878
 Alpha virt. eigenvalues --    0.68594   0.69266   0.70171   0.70834   0.71416
 Alpha virt. eigenvalues --    0.71714   0.73142   0.73474   0.74733   0.75233
 Alpha virt. eigenvalues --    0.76317   0.76933   0.78075   0.78348   0.78902
 Alpha virt. eigenvalues --    0.79512   0.79935   0.80972   0.82060   0.82217
 Alpha virt. eigenvalues --    0.83037   0.83404   0.83621   0.84198   0.84533
 Alpha virt. eigenvalues --    0.84678   0.85122   0.85230   0.85742   0.86492
 Alpha virt. eigenvalues --    0.86880   0.87034   0.87628   0.88126   0.88669
 Alpha virt. eigenvalues --    0.88786   0.89219   0.89482   0.90093   0.90600
 Alpha virt. eigenvalues --    0.90786   0.91079   0.91338   0.92082   0.92522
 Alpha virt. eigenvalues --    0.92824   0.93132   0.93601   0.94333   0.95099
 Alpha virt. eigenvalues --    0.95260   0.95862   0.96370   0.96586   0.97163
 Alpha virt. eigenvalues --    0.97588   0.97948   0.98097   0.98536   0.98995
 Alpha virt. eigenvalues --    0.99771   1.00621   1.01750   1.02013   1.02758
 Alpha virt. eigenvalues --    1.04049   1.04219   1.05558   1.06174   1.07016
 Alpha virt. eigenvalues --    1.07627   1.08109   1.09292   1.09477   1.10117
 Alpha virt. eigenvalues --    1.10866   1.11405   1.12124   1.12880   1.13130
 Alpha virt. eigenvalues --    1.13410   1.13788   1.14593   1.14894   1.15778
 Alpha virt. eigenvalues --    1.16289   1.16968   1.17879   1.18456   1.19551
 Alpha virt. eigenvalues --    1.20081   1.20424   1.21894   1.22446   1.23451
 Alpha virt. eigenvalues --    1.23896   1.24747   1.25803   1.25931   1.26577
 Alpha virt. eigenvalues --    1.27154   1.28711   1.30987   1.31657   1.32287
 Alpha virt. eigenvalues --    1.33288   1.35540   1.35856   1.36518   1.37257
 Alpha virt. eigenvalues --    1.37775   1.37999   1.38624   1.38857   1.39048
 Alpha virt. eigenvalues --    1.39432   1.39842   1.40919   1.41580   1.41623
 Alpha virt. eigenvalues --    1.41836   1.42150   1.42747   1.43365   1.44164
 Alpha virt. eigenvalues --    1.44475   1.45088   1.45547   1.46346   1.46680
 Alpha virt. eigenvalues --    1.46769   1.47516   1.47802   1.48176   1.49052
 Alpha virt. eigenvalues --    1.49081   1.50015   1.50427   1.51477   1.52793
 Alpha virt. eigenvalues --    1.53471   1.54342   1.55156   1.56296   1.57643
 Alpha virt. eigenvalues --    1.59172   1.59448   1.59993   1.62847   1.63307
 Alpha virt. eigenvalues --    1.64923   1.65778   1.66529   1.66734   1.67211
 Alpha virt. eigenvalues --    1.68125   1.68333   1.68883   1.69210   1.69719
 Alpha virt. eigenvalues --    1.70399   1.70946   1.71305   1.72309   1.73529
 Alpha virt. eigenvalues --    1.74793   1.74870   1.76511   1.77120   1.77511
 Alpha virt. eigenvalues --    1.78118   1.78827   1.79461   1.80699   1.80983
 Alpha virt. eigenvalues --    1.81455   1.82280   1.82661   1.83820   1.83935
 Alpha virt. eigenvalues --    1.84643   1.85675   1.86048   1.86595   1.86861
 Alpha virt. eigenvalues --    1.87526   1.88031   1.88093   1.88180   1.88385
 Alpha virt. eigenvalues --    1.88775   1.89416   1.90106   1.90272   1.91462
 Alpha virt. eigenvalues --    1.91898   1.92216   1.92987   1.93481   1.94300
 Alpha virt. eigenvalues --    1.95293   1.95929   1.96626   1.98483   1.98775
 Alpha virt. eigenvalues --    1.99346   1.99750   2.00107   2.00557   2.01222
 Alpha virt. eigenvalues --    2.01638   2.02258   2.02651   2.02818   2.03093
 Alpha virt. eigenvalues --    2.03728   2.03866   2.04718   2.05347   2.05694
 Alpha virt. eigenvalues --    2.05844   2.07414   2.07914   2.08794   2.09350
 Alpha virt. eigenvalues --    2.09553   2.09641   2.10131   2.10551   2.11117
 Alpha virt. eigenvalues --    2.12034   2.12367   2.12616   2.13389   2.13661
 Alpha virt. eigenvalues --    2.13752   2.14882   2.15057   2.15287   2.15984
 Alpha virt. eigenvalues --    2.16809   2.17190   2.18311   2.18419   2.19501
 Alpha virt. eigenvalues --    2.19979   2.20100   2.21063   2.21639   2.22858
 Alpha virt. eigenvalues --    2.24201   2.24290   2.25562   2.27016   2.27720
 Alpha virt. eigenvalues --    2.28192   2.28720   2.29745   2.31193   2.31978
 Alpha virt. eigenvalues --    2.32127   2.32806   2.33465   2.34453   2.35051
 Alpha virt. eigenvalues --    2.35653   2.36946   2.37068   2.38251   2.39800
 Alpha virt. eigenvalues --    2.40859   2.42039   2.42607   2.43078   2.43635
 Alpha virt. eigenvalues --    2.44445   2.45318   2.47645   2.48413   2.49076
 Alpha virt. eigenvalues --    2.50702   2.51754   2.52751   2.53404   2.53869
 Alpha virt. eigenvalues --    2.55235   2.56004   2.56301   2.58708   2.58935
 Alpha virt. eigenvalues --    2.60024   2.60532   2.61078   2.61481   2.61911
 Alpha virt. eigenvalues --    2.63284   2.65229   2.65379   2.66424   2.66967
 Alpha virt. eigenvalues --    2.67326   2.68100   2.69430   2.69829   2.71225
 Alpha virt. eigenvalues --    2.71963   2.73904   2.75758   2.75879   2.76689
 Alpha virt. eigenvalues --    2.77713   2.77923   2.78922   2.79152   2.80047
 Alpha virt. eigenvalues --    2.80373   2.82679   2.83156   2.84292   2.86680
 Alpha virt. eigenvalues --    2.89855   2.91165   2.93371   2.94509   2.98571
 Alpha virt. eigenvalues --    2.99330   3.01034   3.03877   3.05190   3.05399
 Alpha virt. eigenvalues --    3.07706   3.07943   3.10100   3.11095   3.13448
 Alpha virt. eigenvalues --    3.15197   3.18276   3.24090   3.35701   3.37191
 Alpha virt. eigenvalues --    3.41781   3.99292   3.99949   4.03513   4.05378
 Alpha virt. eigenvalues --    4.05438   4.06195   4.07445   4.09656   4.11206
 Alpha virt. eigenvalues --    4.12674   4.15539   4.16954   4.19028   4.21388
 Alpha virt. eigenvalues --    4.24186   4.24932   4.26111   4.27948   4.29853
 Alpha virt. eigenvalues --    4.32458   4.36376   4.37970   4.40796   4.43095
 Alpha virt. eigenvalues --    4.45355   4.46374   4.47255   4.50227   4.51869
 Alpha virt. eigenvalues --    4.53857   4.58047   4.58601   4.65864   4.67126
 Alpha virt. eigenvalues --    4.78102   4.78690   4.80901   4.81944   5.51145
 Alpha virt. eigenvalues --    5.61574
          Condensed to atoms (all electrons):
 Mulliken charges:
               1
     1  C    0.831178
     2  N   -0.692687
     3  C   -0.026442
     4  C   -0.002491
     5  H    0.204206
     6  C    0.026423
     7  H    0.215084
     8  C   -0.334209
     9  N   -0.611470
    10  C    0.107498
    11  C   -0.222448
    12  C   -0.146984
    13  H    0.212861
    14  H    0.193090
    15  C   -0.199720
    16  C   -0.193372
    17  C   -0.299125
    18  C    0.213810
    19  C    0.018546
    20  H    0.193978
    21  C   -0.334163
    22  H    0.207341
    23  C   -0.149331
    24  H    0.228711
    25  H    0.235408
    26  H    0.227302
    27  H    0.231023
    28  C    0.395891
    29  H    0.169947
    30  C   -0.155229
    31  N   -0.509393
    32  H    0.201236
    33  H    0.198141
    34  H    0.202331
    35  H    0.191941
    36  C   -0.502059
    37  C   -0.220076
    38  O   -0.551077
    39  H    0.210265
    40  H    0.187245
    41  H    0.189432
    42  H    0.168213
    43  H    0.199309
    44  C   -0.259469
    45  H    0.205555
    46  H    0.178361
    47  H    0.179252
    48  N   -0.751443
    49  O   -0.610010
    50  H    0.387127
    51  H    0.398790
    52  C    0.269121
    53  C   -0.198288
    54  C   -0.192021
    55  C   -0.072535
    56  H    0.209413
    57  C   -0.076502
    58  H    0.216158
    59  C   -0.201623
    60  H    0.224617
    61  C    0.851557
    62  C    0.852838
    63  F   -0.266539
    64  F   -0.261123
    65  F   -0.267744
    66  F   -0.260908
    67  F   -0.266717
    68  F   -0.265891
    69  H    0.467893
 Sum of Mulliken charges =   1.00000
 Mulliken charges with hydrogens summed into heavy atoms:
               1
     1  C    0.831178
     2  N   -0.305560
     3  C    0.177764
     4  C    0.212593
     6  C    0.026423
     8  C    0.071743
     9  N   -0.143577
    10  C    0.107498
    11  C   -0.028470
    12  C    0.060357
    15  C    0.264400
    16  C    0.264953
    17  C   -0.129178
    18  C    0.213810
    19  C    0.219782
    21  C    0.066309
    23  C    0.042610
    28  C    0.395891
    30  C    0.055035
    31  N   -0.509393
    36  C    0.042831
    37  C   -0.020767
    38  O   -0.551077
    44  C    0.303698
    48  N   -0.352653
    49  O   -0.610010
    52  C    0.269121
    53  C    0.011125
    54  C    0.024137
    55  C   -0.072535
    57  C   -0.076502
    59  C    0.022994
    61  C    0.851557
    62  C    0.852838
    63  F   -0.266539
    64  F   -0.261123
    65  F   -0.267744
    66  F   -0.260908
    67  F   -0.266717
    68  F   -0.265891
 APT charges:
               1
     1  C   -0.205827
     2  N   -0.384384
     3  C   -0.658101
     4  C    0.252705
     5  H    0.523443
     6  C   -0.492070
     7  H    0.207383
     8  C   -0.611501
     9  N   -0.151561
    10  C   -0.374897
    11  C   -0.365185
    12  C   -0.834433
    13  H    0.398606
    14  H    0.397928
    15  C   -1.011369
    16  C   -0.917215
    17  C   -0.624274
    18  C   -0.360036
    19  C   -0.553478
    20  H    0.644408
    21  C   -1.819383
    22  H    1.014534
    23  C   -1.476289
    24  H    0.209573
    25  H    0.984255
    26  H    0.161284
    27  H    0.973422
    28  C    0.254649
    29  H    0.181291
    30  C   -0.424748
    31  N   -0.045252
    32  H    1.027008
    33  H    0.480603
    34  H    1.160900
    35  H    1.110505
    36  C   -1.385097
    37  C   -0.624098
    38  O   -0.306993
    39  H    0.999994
    40  H    0.783119
    41  H    0.936952
    42  H   -0.223383
    43  H    0.919954
    44  C   -1.745027
    45  H    0.771156
    46  H    0.778872
    47  H    0.428191
    48  N   -1.047723
    49  O    0.085529
    50  H    0.330464
    51  H    1.051976
    52  C   -0.302132
    53  C   -0.609860
    54  C   -0.626542
    55  C   -0.393203
    56  H    0.128376
    57  C    0.077754
    58  H    0.730444
    59  C   -0.706346
    60  H    0.908042
    61  C    0.137104
    62  C    0.150674
    63  F    0.455918
    64  F   -0.100533
    65  F    0.276008
    66  F   -0.292645
    67  F    0.506758
    68  F   -0.124382
    69  H    0.358184
 Sum of APT charges =   1.00000
 APT charges with hydrogens summed into heavy atoms:
               1
     1  C   -0.205827
     2  N   -0.053920
     3  C   -0.134658
     4  C    0.460088
     6  C   -0.492070
     8  C    0.185032
     9  N    0.206623
    10  C   -0.374897
    11  C    0.279223
    12  C    0.180101
    15  C    0.182458
    16  C    0.217491
    17  C   -0.442983
    18  C   -0.360036
    19  C    0.473530
    21  C   -0.177879
    23  C   -0.365784
    28  C    0.254649
    30  C    0.575246
    31  N   -0.045252
    36  C    0.111590
    37  C    0.295856
    38  O   -0.306993
    44  C    0.233192
    48  N    0.004253
    49  O    0.085529
    52  C   -0.302132
    53  C   -0.481484
    54  C    0.103902
    55  C   -0.393203
    57  C    0.077754
    59  C    0.201697
    61  C    0.137104
    62  C    0.150674
    63  F    0.455918
    64  F   -0.100533
    65  F    0.276008
    66  F   -0.292645
    67  F    0.506758
    68  F   -0.124382
 Electronic spatial extent (au):  <R**2>=          22129.7854
 Charge=              1.0000 electrons
 Dipole moment (field-independent basis, Debye):
    X=            -14.0867    Y=             -5.4784    Z=             -2.5384  Tot=             15.3262
 Quadrupole moment (field-independent basis, Debye-Ang):
   XX=           -149.0701   YY=           -186.3736   ZZ=           -213.2243
   XY=             27.4792   XZ=              2.2659   YZ=             -8.4417
 Traceless Quadrupole moment (field-independent basis, Debye-Ang):
   XX=             33.8192   YY=             -3.4843   ZZ=            -30.3350
   XY=             27.4792   XZ=              2.2659   YZ=             -8.4417
 Octapole moment (field-independent basis, Debye-Ang**2):
  XXX=           -282.7967  YYY=             50.6865  ZZZ=            -31.3216  XYY=             -2.3918
  XXY=           -133.7983  XXZ=            -57.9140  XZZ=             -3.3603  YZZ=            -26.5177
  YYZ=            -64.6797  XYZ=              9.3736
 Hexadecapole moment (field-independent basis, Debye-Ang**3):
 XXXX=         -14949.8772 YYYY=          -6137.2280 ZZZZ=          -3111.6198 XXXY=            761.1079
 XXXZ=            255.6881 YYYX=            121.0169 YYYZ=           -268.4961 ZZZX=             23.5732
 ZZZY=           -243.4073 XXYY=          -3697.5488 XXZZ=          -3198.3914 YYZZ=          -1656.9101
 XXYZ=             49.4842 YYXZ=             16.6972 ZZXY=             93.2301
 N-N= 4.952786136952D+03 E-N=-1.467358901606D+04  KE= 2.035158056851D+03
  Exact polarizability:       0.000       0.000       0.000       0.000       0.000       0.000
 Approx polarizability:     349.517      44.274     444.322      -5.960     -21.336     398.008
 D2PCM: PCM CHGder 2nd derivatives, FixD1E=F FixD2E=F DoIter=F DoCFld=F I1PDM=0
 Calling FoFJK, ICntrl=    100127 FMM=F ISym2X=0 I1Cent= 0 IOpClX= 0 NMat=1 NMatS=1 NMatT=0.
 ***** Axes restored to original set *****
 -------------------------------------------------------------------
 Center     Atomic                   Forces (Hartrees/Bohr)
 Number     Number              X              Y              Z
 -------------------------------------------------------------------
      1        6          -0.011024482    0.009635341   -0.007015546
      2        7          -0.020503541   -0.016914108    0.014154270
      3        6          -0.004105925    0.002128447   -0.002995193
      4        6           0.007472458    0.013643682   -0.001612216
      5        1          -0.004493077    0.005570667   -0.003749160
      6        6          -0.006985081   -0.001126527   -0.005770865
      7        1           0.002876119   -0.000114755    0.000017908
      8        6          -0.003868107   -0.001788976   -0.007993071
      9        7          -0.034535930    0.017824561    0.005198850
     10        6           0.005674470    0.004502803    0.003194655
     11        6           0.021345966    0.011657842    0.021142875
     12        6           0.039189088   -0.009029053   -0.002284704
     13        1           0.004180518    0.000285749    0.003806855
     14        1           0.000760537   -0.000408268   -0.005816955
     15        6          -0.001268971   -0.008963215    0.019791554
     16        6          -0.008698592   -0.013381986   -0.017313163
     17        6          -0.004104109   -0.004349273   -0.000220350
     18        6          -0.002453988    0.003650835   -0.014295837
     19        6          -0.015787660   -0.032002334    0.035271872
     20        1           0.002005650    0.002991028   -0.001775447
     21        6          -0.004735730    0.001558425    0.000136497
     22        1           0.003146332   -0.000970071    0.000590351
     23        6          -0.007405854    0.002156955    0.009247298
     24        1           0.000404966   -0.002464839    0.003020229
     25        1           0.000631849   -0.002219361    0.004175490
     26        1          -0.003017247   -0.002806412   -0.000644448
     27        1          -0.001540379   -0.002109247   -0.002935277
     28        6           0.019639466    0.015567753    0.005484964
     29        1           0.005378378    0.005194760    0.000754753
     30        6           0.015135509    0.006386214    0.019389437
     31        7           0.005094937    0.016990307   -0.026750611
     32        1          -0.001691016   -0.000317905   -0.002399393
     33        1          -0.000035747   -0.003669566    0.000299051
     34        1           0.001956039    0.001739748    0.002679403
     35        1           0.000493309    0.001153204   -0.004086458
     36        6           0.003942148   -0.001212021   -0.004217132
     37        6          -0.019947017   -0.014574513   -0.013489853
     38        8          -0.006699945   -0.003665942   -0.009625307
     39        1          -0.001199614   -0.000309599   -0.001604983
     40        1           0.002387947    0.001344691   -0.000533223
     41        1          -0.001873180    0.000698775   -0.002847555
     42        1           0.000788806   -0.003945984   -0.000549661
     43        1          -0.000028261   -0.002091218    0.003859610
     44        6          -0.003737246   -0.003848290   -0.002074411
     45        1           0.002531179    0.006201723   -0.005326819
     46        1          -0.003789156    0.000848457   -0.001019444
     47        1          -0.000128319   -0.001955957   -0.003736807
     48        7           0.017060821   -0.013292202    0.005149071
     49        8           0.004413568    0.025100427   -0.001637315
     50        1          -0.005148779   -0.004684613    0.001218274
     51        1           0.002422333    0.004122866   -0.000196448
     52        6          -0.000002953   -0.012567937    0.001049643
     53        6          -0.000623198   -0.005306002    0.001492456
[...]
 00015628,0.00000104,0.00040839,-0.00015694,0.00001945,-0.00004516,-0.0
 0003079,-0.00004806,-0.00006375,0.00005526,-0.00002028,-0.00001220,0.0
 0006876,0.00001933,0.00001924,-0.00001644,-0.00001865,0.00003357,0.000
 04852,0.00001304,-0.00019119,0.00012814,0.00008826,-0.00000839,-0.0000
 3313,0.00005462,-0.00003884,-0.00002417,0.00000681,-0.00002885,-0.0000
 2350,0.00000335,-0.00000111,-0.00000660,-0.00000177,0.00000013,-0.0000
 0537,0.00000273,0.00003807,-0.00004334,0.00005128,-0.00001287,-0.00005
 527,-0.00007613,-0.00016079,0.00004118,0.00025137,0.00003449,-0.000018
 22,0.00003626,0.00005300,0.00002314,0.00002776,0.00001058,-0.00000167,
 0.00000506,0.00001167,-0.00000192,-0.00000153,-0.00001055,0.00001647,0
 .00000460,0.00001897,0.00000423,-0.00001582,0.00001038,-0.00000687,0.0
 0001395,0.00000175,0.00000349,-0.00000446,-0.00000114,-0.00000488,-0.0
 0001388,-0.00000005,0.00000960,0.00000794,-0.00005249,-0.00022829,-0.0
 0059190,0.00006437,-0.00009050,-0.00007821,-0.00000205,0.00002496,0.00
 002723,-0.00006578,-0.00002161,-0.00001470,-0.00000627,-0.00000650,-0.
 00001063,-0.00000905,-0.00000104,0.00000116,-0.00000261,0.00001103,0.0
 0000266,-0.00000814,0.00000930,0.00000803,-0.00000699,-0.00000782,0.00
 000020,0.00004879,0.00016255,0.00000270,0.00019828,-0.00010056,0.00070
 452,0.00000184,-0.00000216,-0.00001188,0.00000681,0.00000694,0.0000034
 1,-0.00000947,0.00000298,0.00000207,-0.00000014,0.00001084,-0.00001408
 ,0.00000738,-0.00002015,-0.00001119,-0.00007217,0.00026483,-0.00041982
 ,-0.00003521,0.00014486,0.00012944,0.00002018,-0.00006354,0.00007551,-
 0.00013271,-0.00000247,-0.00023686,-0.00027794,0.00152951,-0.00090229,
 -0.00038141,0.00117251,-0.00023134,0.00029547,-0.00015487,0.00017726,-
 0.00024773,0.00014374,-0.00007044,0.00009276,0.00079002,0.00053798,0.0
 0375581,-0.00156604,-0.00647370,-0.00001525,0.00061500,-0.00047270,-0.
 01345000,0.03822551,-0.01226601,-0.00035220,0.00001362,0.00000263,0.00
 006755,0.00053783,0.00042466,-0.00001821,0.00003694,-0.00003554,-0.000
 20800,0.00090531,-0.00168886,0.00037595,0.00080739,-0.00172849,-0.0011
 6238,0.00138964,0.00094258,-0.03120366,0.08765765,-0.13132804,0.000423
 90,-0.00060461,-0.00004220,0.00007237,-0.00045147,-0.00047485,0.000497
 94,-0.00017775,-0.00036636,-0.02692614,0.01199613,0.00144882,0.0574795
 0,-0.11293070,0.13377567,-0.00112769,0.00047075,-0.00003727,0.00065602
 ,0.00005634,-0.00013563,-0.00030456,0.00000496,0.00003463,0.00002282,-
 0.00006451,0.00004578,0.00004822,-0.00001323,0.00000426,-0.00006311,-0
 .00013222,0.00007511,-0.00002019,-0.00002419,0.00000023,-0.00001023,-0
 .00000374,-0.00000181,0.00009170,0.00001121,-0.00003432,0.00023297,0.0
 0016816,0.00017380,-0.00008677,-0.00004908,-0.00011714,0.00002067,-0.0
 0001952,-0.00000609,0.00002672,-0.00002025,-0.00001215,0.00000679,-0.0
 0001441,0.00000828,0.00000125,0.00000799,-0.00000400,0.00000076,0.0000
 1058,-0.00000894,-0.00008242,0.00014607,-0.00037957,-0.00012831,-0.000
 09112,-0.00018432,0.00005670,0.00012967,-0.00012770,-0.00000295,0.0000
 1333,-0.00002593,-0.00000398,0.00000806,0.00000322,0.00000294,0.000000
 29,0.00000071,-0.00001143,0.00000931,0.00001128,-0.00000682,-0.0000061
 5,0.00000240,-0.00000038,0.00000878,-0.00000136,-0.00000699,-0.0000041
 5,0.00000749,-0.00000082,0.00000852,-0.00000143,0.00180335,-0.00009834
 ,0.00217787,-0.00000739,-0.00004035,0.00007939,0.00008626,-0.00000746,
 0.00030698,0.00006652,0.00003113,0.00012665,-0.00000040,0.00000974,-0.
 00001807,0.00000207,-0.00000401,0.00000016,0.00000455,0.00000464,-0.00
 000295,0.00000626,0.00000719,-0.00000423,0.00000864,-0.00002243,-0.000
 00886,-0.00032192,-0.00016370,-0.00040977,-0.00607934,0.00161708,-0.00
 039267,-0.00000707,-0.00000343,-0.00002648,-0.00000073,0.00000467,0.00
 000345,0.00000444,-0.00000153,-0.00000227,-0.00001064,0.00001214,0.000
 00205,0.00010652,0.00003053,-0.00000732,-0.00031754,-0.00029633,-0.000
 62537,-0.00041428,-0.00003822,0.00015809,-0.00020026,0.00034852,-0.000
 06145,0.00018211,0.00043796,0.00010719,0.00056871,-0.00062659,0.000276
 92,0.00028921,-0.00039008,0.00007755,-0.00023929,0.00000660,0.00003091
 ,0.00003491,-0.00002623,-0.00004677,-0.00020358,0.00056748,-0.00064321
 ,-0.00046043,0.00024438,0.00081808,-0.00020412,0.00032085,0.00036395,0
 .00739595,0.01181220,0.01694272,0.00010187,-0.00028463,0.00043567,-0.0
 0116451,-0.00039305,0.00020754,0.00004118,-0.00001048,0.00001068,0.000
 85095,-0.00160763,0.00111827,0.00043830,0.00006025,-0.00007209,0.00016
 477,-0.00079461,-0.00065211,-0.07520005,0.00399201,0.01000148,-0.00011
 183,0.00020103,0.00008321,0.00005932,0.00021902,0.00029473,-0.00026468
 ,0.00012863,0.00030506,-0.01716085,-0.04156717,-0.04392255,0.00661927,
 0.02360227,0.01006807,0.08438551,0.00027335,-0.00016173,-0.00020949,-0
 .00009926,0.00003501,0.00023094,0.00001563,-0.00001379,-0.00003964,-0.
 00002645,0.00000714,-0.00008849,-0.00000111,-0.00000407,0.00000857,-0.
 00001408,-0.00002679,0.00009477,-0.00000372,0.00001883,0.00000282,0.00
 000076,0.00000996,0.00001683,0.00000108,0.00000234,0.00006424,-0.00008
 900,0.00000434,-0.00029982,-0.00000443,0.00000381,-0.00000569,-0.00001
 263,-0.00000786,-0.00000851,-0.00001260,-0.00000035,-0.00000657,0.0000
 0987,-0.00000529,0.00000990,-0.00002272,0.00001670,-0.00003388,-0.0000
 3175,0.00000778,-0.00006941,-0.00020045,-0.00024381,0.00066154,0.00011
 675,0.00006075,0.00009367,0.00001702,-0.00001426,0.00004444,0.00000559
 ,-0.00001035,0.00000428,0.00000488,0.00000559,0.00000688,0.00000464,0.
 00000147,0.00000063,0.00000699,0.00000557,-0.00000623,0.00000420,0.000
 00396,0.00000695,-0.00000093,-0.00000579,-0.00000041,0.00001481,0.0000
 0716,0.00000198,0.00000170,-0.00000194,0.00001060,-0.00112364,-0.00050
 079,-0.00256527,-0.00003374,0.00013402,-0.00014680,0.00002748,0.000094
 53,0.00006904,0.00000652,0.00006193,0.00002185,0.00000704,-0.00000452,
 0.00000701,0.00000413,0.00000043,0.00000805,-0.00000305,0.00000031,-0.
 00000320,0.00000140,-0.00000845,0.00001127,-0.00000484,0.00002150,0.00
 001062,0.00010863,0.00034131,0.00035150,0.00432645,-0.00015314,0.00085
 036,0.00005665,-0.00001084,0.00002163,0.00000365,0.00002910,0.00001079
 ,0.00001117,-0.00001209,0.00000583,-0.00001755,-0.00003170,-0.00002007
 ,0.00007222,-0.00006792,-0.00007686,-0.00119708,-0.00139875,0.00038228
 ,-0.00014862,0.00016112,0.00055827,0.00018294,0.00025302,0.00014174,0.
 00011623,0.00022661,-0.00009092,-0.00009597,0.00047693,0.00001526,-0.0
 0004859,0.00016607,0.00006924,0.00001312,-0.00013704,-0.00013699,-0.00
 002650,-0.00000851,-0.00007990,0.00075047,0.00098867,-0.00034580,0.001
 27191,-0.00295808,0.00196073,-0.00039687,0.00051967,0.00017617,-0.0006
 6036,0.00114848,-0.00713182,-0.00124546,0.00119092,0.00048360,-0.00013
 822,-0.00031321,0.00046588,-0.00014935,0.00013297,0.00000150,0.0006209
 0,0.00080711,-0.00109287,-0.00060665,0.00031828,0.00055573,-0.00021847
 ,-0.00012107,0.00022770,0.00520521,-0.17198473,-0.11460769,0.00005414,
 0.00010293,-0.00011489,0.00001674,0.00002623,-0.00004726,0.00023791,0.
 00007462,-0.00015061,-0.02990528,-0.01863651,-0.03077763,0.02093030,-0
 .07223378,-0.02849895,0.00200745,0.26163788,0.00176355,-0.00159108,0.0
 0011149,-0.00090046,0.00017981,0.00016298,0.00051325,-0.00016195,-0.00
 003196,-0.00007175,-0.00000821,-0.00012436,-0.00008319,0.00005594,-0.0
 0001545,0.00000185,0.00009720,0.00004884,0.00002266,0.00000352,-0.0000
 1808,0.00003720,0.00005663,0.00002459,-0.00020580,0.00011965,0.0001453
 7,-0.00014262,-0.00010524,-0.00020064,0.00000352,0.00000823,0.00005171
 ,-0.00004621,-0.00002415,-0.00000197,-0.00002017,0.00000050,-0.0000033
 1,0.00000494,-0.00000384,0.00000813,0.00001744,-0.00002905,0.00002063,
 -0.00003658,-0.00005154,-0.00012843,-0.00011118,-0.00015687,0.00089643
 ,0.00016488,0.00004330,0.00018774,0.00003565,-0.00004798,0.00011507,0.
 00001583,-0.00001518,0.00001688,0.00001740,0.00000020,0.00000409,-0.00
 000751,0.00001768,0.00000456,0.00002887,0.00000587,-0.00002569,0.00001
 620,-0.00000127,0.00001870,0.00000031,-0.00000413,-0.00000459,0.000012
 76,0.00000061,-0.00001520,0.00000083,0.00000514,0.00001643,-0.00118417
 ,-0.00058912,-0.00295372,0.00011413,-0.00002733,-0.00017521,-0.0000401
 5,0.00008041,-0.00006415,-0.00009002,0.00002056,-0.00004909,0.00000041
 ,-0.00001399,0.00000206,-0.00000572,0.00000055,0.00000821,-0.00000663,
 0.00000982,0.00000067,-0.00000870,-0.00000038,0.00001862,-0.00001521,0
 .00001540,0.00001280,0.00029725,0.00042249,0.00038906,0.00219102,0.000
 27979,0.00212639,0.00004901,-0.00000920,0.00001380,0.00001148,0.000031
 60,0.00001100,-0.00000212,-0.00000582,0.00000744,-0.00000923,-0.000021
 62,-0.00003253,0.00000140,-0.00010364,-0.00007210,-0.00056686,-0.00038
 067,-0.00079872,-0.00000058,0.00055697,0.00066303,0.00038800,-0.000210
 36,0.00042141,-0.00027461,-0.00031304,-0.00052132,-0.00098070,0.001752
 50,-0.00042462,-0.00043686,0.00133580,-0.00019217,0.00038165,-0.000237
 91,0.00011941,-0.00018189,0.00002655,0.00000130,0.00082068,-0.00185082
 ,0.00057256,0.00087120,-0.00187581,-0.00071383,-0.00001649,0.00025196,
 -0.00057935,0.00581325,-0.03551321,-0.03457514,-0.00018932,0.00100929,
 -0.00188890,0.00229755,-0.00159664,-0.00058125,-0.00008957,0.00006204,
 -0.00004499,0.00045758,0.00622102,-0.00588737,-0.00064277,-0.00005805,
 0.00009277,-0.00118873,0.00209777,0.00121641,0.01131961,-0.10691992,-0
 .21850450,0.00047287,-0.00060795,-0.00012411,0.00002242,-0.00056751,-0
 .00066937,0.00104265,-0.00023209,-0.00081017,-0.03055466,-0.02856736,-
 0.01448302,0.00497552,-0.01161895,0.01864124,0.00356330,0.17904416,0.2
 5872524,0.00795684,0.03096835,-0.01175358,-0.00850037,-0.00630757,0.00
 265514,0.00610505,-0.00216362,-0.00085047,-0.01658600,-0.00604583,0.00
 554499,-0.00039631,-0.00015115,-0.00056518,-0.00101511,0.00070836,0.00
 054141,0.00043427,0.00054146,-0.00035124,0.00029724,-0.00045340,0.0006
 2951,-0.29683056,0.06275161,0.06256308,0.00022497,0.00005970,0.0001431
 6,0.00002418,0.00022150,-0.00003146,-0.00053439,-0.00028934,-0.0001843
 1,0.00017664,0.00016742,-0.00016214,0.00013947,-0.00010050,0.00006462,
 -0.00894590,0.00553162,-0.00532758,0.01271896,0.00313062,0.00335834,-0
 .00032107,0.00032683,0.00014814,0.00000953,-0.00005921,-0.00007258,0.0
 0009411,-0.00018015,-0.00005119,0.00000655,-0.00003795,-0.00000569,0.0
 0085873,0.00010452,0.00029640,0.00024793,0.00012081,-0.00006927,-0.000
 99797,-0.00249642,-0.00256907,0.00027844,-0.00036300,0.00077927,0.0011
 3725,-0.00080765,0.00097160,0.00036518,-0.00016186,-0.00108767,0.00000
 363,-0.00056494,-0.00010292,0.00011932,-0.00001035,0.00010757,0.000220
 65,-0.00022266,-0.00017174,-0.00000990,-0.00000238,0.00005092,-0.00002
 084,0.00012451,0.00003050,0.00002808,0.00001181,-0.00000213,0.00051887
 ,-0.00014225,0.00008827,0.00010492,-0.00018087,-0.00019639,0.00112912,
 -0.00028227,-0.00051954,0.00068019,-0.00055271,0.00024814,-0.00004322,
 -0.00002462,-0.00003866,-0.00018821,0.00007011,-0.00011628,0.00001302,
 -0.00000380,-0.00000878,-0.00007141,-0.00001535,-0.00006744,0.00017930
 ,0.00021282,-0.00032177,-0.00007640,0.00008521,0.00008034,0.00001675,-
 0.00001758,-0.00001428,0.00005188,-0.00007023,0.00000997,0.00001132,-0
 .00000987,-0.00001990,-0.00002549,0.00000675,0.00000589,0.00002161,0.0
 0003440,-0.00001208,0.00446685,-0.00937980,0.00386897,-0.00666072,-0.0
 2560303,0.00206358,-0.00101195,0.00024631,-0.00064438,-0.00106047,-0.0
 0018248,-0.00044171,0.00059516,0.00346164,-0.00048440,-0.00011042,-0.0
 0078112,0.00015577,0.00018447,-0.00083791,0.00031739,-0.00018437,-0.00
 007477,0.00005241,0.00012210,0.00007871,-0.00015996,0.00016238,-0.0000
 1213,-0.00008127,-0.00007975,0.00010875,0.00006206,-0.00000737,-0.0003
 3913,0.00013225,0.00000536,0.00002696,-0.00000627,-0.00047651,0.000728
 97,0.00058634,0.00076488,0.00029996,-0.00098117,0.00019850,-0.00034346
 ,-0.00003409,0.00000193,-0.00025071,-0.00028260,0.00018841,-0.00012225
 ,-0.00016190,-0.00044016,-0.00011628,0.00019944,-0.00008744,-0.0002348
 6,0.00030981,-0.00016266,0.00002939,0.00036235,0.30398092,0.00142944,-
 0.02713160,0.00564035,0.00530282,0.00307308,-0.00124096,-0.00446054,0.
 00122372,-0.00011002,-0.03001864,0.01106859,0.00625252,0.00009296,-0.0
 0039787,-0.00058482,0.00022022,-0.00029574,-0.00028229,0.00018811,-0.0
 0018996,0.00040629,-0.00227046,-0.00613281,0.00274768,0.05883871,-0.07
 401290,-0.01522809,0.00015553,0.00022705,0.00010537,0.00018268,0.00006
 651,-0.00008120,0.00009002,-0.00055169,-0.00001008,-0.00191984,0.00035
 834,-0.00018838,-0.00047985,0.00005551,-0.00006009,0.01606017,-0.00638
 915,0.00046238,0.01556818,-0.00630170,-0.00714554,0.00021001,-0.000245
 38,-0.00021788,-0.00005510,0.00002343,-0.00011708,-0.00008577,0.000045
 14,0.00002510,-0.00004921,0.00000451,0.00000017,0.00060638,-0.00058548
 ,0.00222649,-0.00013534,-0.00007515,0.00003787,-0.00081033,-0.00116201
 ,-0.00159621,-0.00079238,0.00049891,-0.00068412,0.00012435,-0.00033792
 ,-0.00024288,0.00007539,0.00103796,0.00089943,0.00018506,-0.00039534,0
 .00038430,0.00005052,0.00004380,0.00013728,-0.00018485,0.00015194,0.00
 018972,0.00003976,0.00000455,0.00003994,0.00012618,0.00001184,0.000048
 47,0.00002388,0.00003184,0.00001451,0.00012024,-0.00016199,-0.00019811
 ,0.00012266,-0.00002615,-0.00004046,0.00029717,0.00006672,-0.00007516,
 0.00007105,-0.00001406,-0.00002533,-0.00002090,-0.00001320,-0.00003070
 ,0.00001332,-0.00003421,-0.00017046,-0.00000355,0.00001666,-0.00000301
 ,0.00004542,0.00002856,0.00002907,-0.00006138,0.00000603,0.00002540,-0
 .00003400,0.00002137,-0.00008947,-0.00000915,0.00001819,0.00000035,-0.
 00004491,-0.00001715,0.00008764,-0.00001277,0.00000944,0.00000186,0.00
 002685,0.00000682,-0.00001058,-0.00000934,-0.00001078,0.00000517,-0.00
 406551,0.00668469,-0.00280059,-0.00569586,0.01426681,0.00110482,0.0006
 5988,-0.00028077,0.00066369,0.00088810,0.00020638,0.00036700,-0.000380
 71,-0.00252674,0.00050320,0.00005159,0.00060044,-0.00016488,-0.0001238
 7,0.00061372,-0.00026393,0.00011860,-0.00000924,-0.00005348,-0.0000318
 5,-0.00005331,0.00017625,-0.00014147,0.00004581,0.00005604,0.00007184,
 -0.00007744,-0.00004171,-0.00001597,0.00026318,-0.00006614,0.00000267,
 -0.00001788,0.00000968,0.00044923,-0.00055864,-0.00046998,-0.00045691,
 -0.00024043,0.00079223,-0.00016923,0.00027196,0.00002665,-0.00002377,0
 .00019160,0.00021488,-0.00018126,0.00008222,0.00014215,0.00026180,0.00
 008409,-0.00016363,0.00003846,0.00020286,-0.00025380,0.00009907,-0.000
 02789,-0.00029104,-0.05016361,0.08666029,-0.00504271,-0.00976347,0.002
 95414,0.00270501,0.00221250,-0.00138555,-0.00186933,-0.00015821,0.0019
 5445,0.00658427,0.00208771,-0.00079362,-0.00029254,-0.00032500,-0.0005
 4817,0.00029902,-0.00022972,-0.00060773,0.00046872,-0.00005550,-0.0004
 0196,-0.00036944,-0.00024448,0.00023165,0.06359692,-0.01630467,-0.0774
 3294,0.00006669,0.00010752,0.00009505,0.00001007,-0.00006568,0.0000237
 5,0.00022514,0.00014413,-0.00074237,-0.00010354,-0.00005623,0.00007044
 ,-0.00014078,0.00015294,-0.00010110,-0.02826958,0.00802348,0.01075176,
 0.02425715,-0.00709707,-0.00874102,0.00019159,-0.00007511,-0.00008945,
 -0.00004558,0.00002000,-0.00004885,-0.00005825,0.00004481,-0.00000857,
 -0.00003182,0.00000964,-0.00002078,-0.00176103,0.00192499,-0.00553978,
 -0.00008897,-0.00003453,-0.00001594,-0.00154199,-0.00315998,-0.0028707
 4,-0.00047087,-0.00056140,-0.00046749,0.00033552,0.00050285,0.00070825
 ,0.00039730,0.00037800,0.00002232,-0.00031639,0.00034265,0.00074654,0.
 00000675,0.00000611,0.00004906,-0.00008291,0.00010512,0.00005606,0.000
 01306,0.00000198,0.00000172,0.00004818,-0.00001022,-0.00000601,-0.0000
 0106,0.00000596,0.00000375,-0.00137119,0.00078959,0.00048497,-0.000476
 26,0.00028439,0.00004444,0.00071326,0.00004737,-0.00033037,0.00041324,
 -0.00013911,-0.00003389,-0.00000422,-0.00000627,-0.00000303,-0.0000027
 3,-0.00004918,-0.00006550,-0.00000307,0.00000686,-0.00000294,0.0000262
 4,-0.00002812,0.00001918,-0.00003202,0.00011932,-0.00010633,0.00000549
 ,0.00010327,-0.00006345,-0.00000894,0.00000507,0.00000229,-0.00001387,
 0.00001994,0.00001255,-0.00000530,0.00000687,-0.00000145,0.00000801,0.
 ,-0.00000237,-0.00000585,-0.00001237,0.00000234,-0.00115492,0.00446556
 ,-0.00150940,0.00137197,0.00761284,-0.00742979,0.00037253,-0.00006097,
 0.00005740,0.00043375,-0.00006110,0.00017338,-0.00045674,-0.00094724,0
 .00041902,-0.00002001,0.00026042,-0.00000770,-0.00006275,0.00036433,-0
 .00016924,0.00005944,0.00000707,-0.00006493,-0.00001283,0.00001918,0.0
 0005678,-0.00005755,0.00001452,0.00005454,0.00003262,-0.00004044,-0.00
 001897,0.00000275,0.00010464,-0.00003692,0.00000319,-0.00000857,0.0000
 0129,0.00018243,-0.00023050,-0.00015152,-0.00021411,-0.00002980,0.0004
 0277,-0.00007526,0.00012355,-0.00000200,-0.00001284,0.00007523,0.00007
 216,-0.00006467,0.00003897,0.00004299,0.00011515,0.00002538,-0.0000836
 4,0.00002633,0.00006570,-0.00011376,0.00004666,-0.00005363,-0.00016176
 ,-0.05847653,0.00917813,0.09066597\\-0.00000020,-0.00000203,0.00000052
 ,0.00000305,0.00000421,0.00000086,0.00000219,-0.00000143,0.00000003,0.
 00000043,-0.00000196,0.00000427,0.00000149,-0.00000036,0.00000151,0.00
 000167,0.00000138,-0.00000107,0.00000173,0.00000354,-0.00000344,-0.000
 00032,0.00000337,-0.00000146,0.00000795,-0.00000049,-0.00000446,-0.000
 00004,-0.00000102,-0.00000203,-0.00000259,0.00000047,-0.00000254,0.000
 00022,0.00000032,-0.00000209,-0.00000243,-0.00000140,0.00000122,-0.000
 00047,0.00000368,0.00000206,-0.00000228,-0.00000050,-0.00000069,0.0000
 0366,0.00000120,0.00000527,-0.00000116,-0.00000237,0.00000048,0.000000
 28,0.00000065,0.00000081,0.00000212,0.00000431,-0.00000457,0.00000119,
 0.00000066,0.00000042,0.00000220,0.00000252,0.00000006,0.00000041,0.00
 000109,0.00000050,0.00000097,-0.00000111,0.00000297,0.00000011,0.00000
 047,-0.00000213,0.00000238,0.00000333,0.00000202,0.00000038,-0.0000029
 0,0.00000116,0.00000054,-0.00000067,0.00000167,-0.00000098,-0.00000202
 ,-0.00000129,0.00000061,0.00000029,0.00000072,-0.00000303,0.,-0.000003
 46,-0.00000081,-0.00000045,0.00000136,0.00000048,0.00000163,-0.0000006
 7,0.00000098,-0.00000025,0.00000209,0.00000155,0.00000005,0.00000112,0
 .00000072,-0.00000059,-0.00000027,0.00000082,0.00000007,0.00000196,0.0
 0000282,0.00000033,-0.00000003,-0.00000049,0.00000079,0.00000118,-0.00
 000086,0.00000050,-0.00000156,-0.00000018,-0.00000207,0.00000013,0.000
 00033,-0.00000081,0.00000061,-0.00000017,0.00000035,0.00000011,-0.0000
 0118,0.00000064,-0.00000204,0.00000136,-0.00000027,-0.00000056,-0.0000
 0111,-0.00000187,-0.00000034,-0.00000096,-0.00000124,-0.00000113,-0.00
 000186,-0.00000128,-0.00000021,-0.00000060,0.00000087,0.00000129,-0.00
 000129,-0.00000092,0.00000165,-0.00000262,0.00000212,-0.00000107,-0.00
 000095,-0.00000028,0.00000149,-0.00000293,0.00000036,-0.00000204,0.000
 00180,-0.00000088,0.00000051,0.00000028,0.00000093,-0.00000005,-0.0000
 0340,-0.00000136,0.00000055,0.00000020,-0.00000270,-0.00000059,0.00000
 068,-0.00000054,-0.00000058,0.00000038,-0.00000015,0.00000022,-0.00000
 097,-0.00000090,-0.00000100,-0.00000225,-0.00000123,-0.00000075,0.0000
 0064,-0.00000208,-0.00000159,-0.00000351,-0.00000087,0.00000361,-0.000
 00018,-0.00000024,-0.00000039,-0.00000089,0.00000059,0.00000032,-0.000
 00108,-0.00000028,0.00000006,0.00000228,0.00000208,-0.00000260,-0.0000
 0063,-0.00000141,-0.00000163,-0.00000248,-0.00000201,0.00000076,-0.000
 00401,0.00000012,0.00000273\\\@
 The archive entry for this job was punched.


 WE MIGHT AS WELL ATTEMPT TO INTRODUCE A NEW PLANET 
 INTO THE SOLAR SYSTEM, OR TO ANNIHILATE ONE ALREADYIN EXISTENCE, 
 AS TO CREATE OR DESTROY A PARTICLE OF HYDROGEN.
 ALL THE CHANGES WE CAN PRODUCE CONSIST IN SEPARATING PARTICLES
 THAT ARE IN A STATE OF ... COMBINATION, AND JOINING 
 THOSE THAT WERE PREVIOUSLY AT A DISTANCE.

                                    -- JOHN DALTON, 1810
 Job cpu time:       0 days  8 hours 24 minutes  2.8 seconds.
 Elapsed time:       0 days  0 hours 42 minutes 18.2 seconds.
 File lengths (MBytes):  RWF=   3606 Int=      0 D2E=      0 Chk=     68 Scr=      1
 Normal termination of Gaussian 16 at Thu Dec 14 23:44:42 2023.
