Unloading slurm/anatra/current
  ERROR: No such file or directory on
    '/cm/local/modulefiles/slurm/anatra/current'
environment: line 0: unalias: gv: not found
environment: line 0: unalias: sl: not found
 Entering Gaussian System, Link 0=g16
 Initial command:
 /apps/gaussian/g16/C.01/g16/l1.exe "/local/jobs/1153155/Gau-1513647.inp" -scrdir="/local/jobs/1153155/"
 Entering Link 1 = /apps/gaussian/g16/C.01/g16/l1.exe PID=   1513648.
  
 Copyright (c) 1988-2019, Gaussian, Inc.  All Rights Reserved.
  
 This is part of the Gaussian(R) 16 program.  It is based on
 the Gaussian(R) 09 system (copyright 2009, Gaussian, Inc.),
 the Gaussian(R) 03 system (copyright 2003, Gaussian, Inc.),
 the Gaussian(R) 98 system (copyright 1998, Gaussian, Inc.),
 the Gaussian(R) 94 system (copyright 1995, Gaussian, Inc.),
 the Gaussian 92(TM) system (copyright 1992, Gaussian, Inc.),
 the Gaussian 90(TM) system (copyright 1990, Gaussian, Inc.),
 the Gaussian 88(TM) system (copyright 1988, Gaussian, Inc.),
 the Gaussian 86(TM) system (copyright 1986, Carnegie Mellon
 University), and the Gaussian 82(TM) system (copyright 1983,
 Carnegie Mellon University). Gaussian is a federally registered
 trademark of Gaussian, Inc.
  
 This software contains proprietary and confidential information,
 including trade secrets, belonging to Gaussian, Inc.
  
 This software is provided under written license and may be
 used, copied, transmitted, or stored only in accord with that
 written license.
  
 The following legend is applicable only to US Government
 contracts under FAR:
  
                    RESTRICTED RIGHTS LEGEND
  
 Use, reproduction and disclosure by the US Government is
 subject to restrictions as set forth in subparagraphs (a)
 and (c) of the Commercial Computer Software - Restricted
 Rights clause in FAR 52.227-19.
  
 Gaussian, Inc.
 340 Quinnipiac St., Bldg. 40, Wallingford CT 06492
  
  
 ---------------------------------------------------------------
 Warning -- This program may not be used in any manner that
 competes with the business of Gaussian, Inc. or will provide
 assistance to any competitor of Gaussian, Inc.  The licensee
 of this program is prohibited from giving any competitor of
 Gaussian, Inc. access to this program.  By using this program,
 the user acknowledges that Gaussian, Inc. is engaged in the
 business of creating and licensing software in the field of
 computational chemistry and represents and warrants to the
 licensee that it is not a competitor of Gaussian, Inc. and that
 it will not use this program in any manner prohibited above.
 ---------------------------------------------------------------
  

 Cite this work as:
 Gaussian 16, Revision C.01,
 M. J. Frisch, G. W. Trucks, H. B. Schlegel, G. E. Scuseria, 
 M. A. Robb, J. R. Cheeseman, G. Scalmani, V. Barone, 
 G. A. Petersson, H. Nakatsuji, X. Li, M. Caricato, A. V. Marenich, 
 J. Bloino, B. G. Janesko, R. Gomperts, B. Mennucci, H. P. Hratchian, 
 J. V. Ortiz, A. F. Izmaylov, J. L. Sonnenberg, D. Williams-Young, 
 F. Ding, F. Lipparini, F. Egidi, J. Goings, B. Peng, A. Petrone, 
 T. Henderson, D. Ranasinghe, V. G. Zakrzewski, J. Gao, N. Rega, 
 G. Zheng, W. Liang, M. Hada, M. Ehara, K. Toyota, R. Fukuda, 
 J. Hasegawa, M. Ishida, T. Nakajima, Y. Honda, O. Kitao, H. Nakai, 
 T. Vreven, K. Throssell, J. A. Montgomery, Jr., J. E. Peralta, 
 F. Ogliaro, M. J. Bearpark, J. J. Heyd, E. N. Brothers, K. N. Kudin, 
 V. N. Staroverov, T. A. Keith, R. Kobayashi, J. Normand, 
 K. Raghavachari, A. P. Rendell, J. C. Burant, S. S. Iyengar, 
 J. Tomasi, M. Cossi, J. M. Millam, M. Klene, C. Adamo, R. Cammi, 
 J. W. Ochterski, R. L. Martin, K. Morokuma, O. Farkas, 
 J. B. Foresman, and D. J. Fox, Gaussian, Inc., Wallingford CT, 2019.
 
 ******************************************
 Gaussian 16:  ES64L-G16RevC.01  3-Jul-2019
                30-Dec-2023 
 ******************************************
 %chk=BPA_TS_1_opt_dft_re5_freq.chk
 %nprocshared=12
 Will use up to   12 processors via shared memory.
 %mem=48GB
 -----------------------------------------------------------
 # wb97xd def2svp scrf=(iefpcm,solvent=toluene) freq=noraman
 -----------------------------------------------------------
 1/10=4,30=1,38=1/1,3;
 2/12=2,17=6,18=5,40=1/2;
 3/5=43,7=101,11=2,25=1,30=1,70=2201,71=2,72=13,74=-58,140=1/1,2,3;
 4//1;
 5/5=2,38=5,53=13,98=1/2;
 8/6=4,10=90,11=11/1;
 11/6=1,8=1,9=11,15=111,16=1/1,2,10;
 10/6=1/2;
 6/7=2,8=2,9=2,10=2,28=1/1;
 7/8=1,10=1,25=1/1,2,3,16;
 1/10=4,30=1/3;
 99//99;
 ------------------------
 BPA_TS_1_opt_dft_re5.out
 ------------------------
 Symbolic Z-matrix:
 Charge =  0 Multiplicity = 1
 C                    -1.09651   0.62406  -2.20737 
 C                    -0.8697    1.7756   -1.47405 
 C                     0.45096   3.80073  -0.76938 
 C                     2.89533   2.48828  -1.59424 
 O                    -1.66549   2.13079  -0.50192 
 H                     1.34083   4.40216  -0.99833 
 H                     0.48138   3.52509   0.29427 
 H                    -0.42625   4.4414   -0.93172 
 O                     3.68591   2.70916  -0.71363 
 O                     3.00708   2.97173  -2.82716 
 C                     4.15916   3.75776  -3.10341 
 H                     5.07263   3.1625   -2.96703 
 H                     4.06952   4.07646  -4.14703 
 H                     4.2012    4.63245  -2.43915 
 Si                   -3.23759   2.86381  -0.46706 
 C                    -3.18767   4.02282   0.988 
 H                    -4.03643   4.72236   0.93516 
 H                    -3.25987   3.47506   1.93874 
 H                    -2.25573   4.60666   0.99437 
 C                    -3.38301   3.77214  -2.09315 
 H                    -4.38471   4.21942  -2.19062 
 H                    -3.23316   3.09455  -2.94775 
 H                    -2.6442    4.5855   -2.16107 
 C                    -4.54638   1.51491  -0.25017 
 C                    -4.03653   0.48024   0.76424 
 H                    -4.78563  -0.316     0.91448 
 H                    -3.10449  -0.00156   0.4328 
 H                    -3.84242   0.92809   1.75258 
 C                    -5.83311   2.17261   0.28203 
 H                    -5.68829   2.62276   1.27617 
 H                    -6.62875   1.41439   0.37858 
 H                    -6.21261   2.95692  -0.39408 
 C                    -4.85507   0.83789  -1.59464 
 H                    -5.60529   0.04055  -1.45395 
 H                    -5.27007   1.54964  -2.32537 
 H                    -3.96693   0.3731   -2.04887 
 C                     1.63882   1.62861  -1.44944 
 C                     0.38864   2.56383  -1.65663 
 C                    -0.2684    0.2761   -3.27413 
 O                     1.67702   0.62093  -2.39486 
 H                     1.62681   1.2368   -0.42074 
 C                    -0.22955  -1.09282  -3.83489 
 H                    -1.8232   -0.10037  -1.83179 
 H                     0.44784   2.86147  -2.71823 
 C                     1.95791   3.03155   2.77571 
 C                     0.78068   3.65184   3.11076 
 C                    -0.44287   2.95742   2.96066 
 C                    -0.46696   1.66591   2.49208 
 H                     2.91064   3.55901   2.86244 
 H                     0.78251   4.67956   3.47975 
 H                    -1.37776   3.45914   3.21434 
 H                    -1.42025   1.1546    2.35883 
 C                     1.9672    1.68884   2.30782 
 C                     0.73913   0.97708   2.18023 
 C                     0.774    -0.38826   1.73472 
 C                     1.99156  -0.93807   1.36721 
 C                     3.22582  -0.22762   1.46591 
 C                     3.18494   1.05827   1.94989 
 O                     2.0144   -2.2121    0.88803 
 H                     4.11284   1.62457   2.04691 
 C                    -2.84171  -2.68496   1.27389 
 C                    -1.9807   -2.5474    0.21156 
 C                    -0.76278  -1.83147   0.41662 
 C                    -0.45632  -1.22355   1.62494 
 H                    -3.78416  -3.22005   1.13281 
 O                     0.0839   -1.69186  -0.63932 
 C                    -1.32187  -1.44576   2.74815 
 C                    -2.53356  -2.16941   2.558 
 C                    -3.41077  -2.37007   3.6592 
 C                    -3.09203  -1.90051   4.90891 
 C                    -1.86664  -1.22149   5.11177 
 C                    -1.00593  -1.00219   4.06365 
 H                    -4.34185  -2.91752   3.49233 
 H                    -3.77     -2.06393   5.74923 
 H                    -1.5983   -0.87634   6.11259 
 H                    -0.05987  -0.48979   4.24064 
 C                     6.98903  -1.90207   0.24722 
 C                     6.10704  -2.66272   1.01495 
 C                     4.87797  -2.1359    1.40339 
 C                     4.51295  -0.83396   1.0333 
 C                     5.40496  -0.07731   0.26074 
 C                     6.63316  -0.60794  -0.12898 
 H                     7.94984  -2.32043  -0.06124 
 H                     6.37628  -3.67839   1.31316 
 H                     4.1932   -2.74126   1.99812 
 H                     5.11817   0.9293   -0.05166 
 H                     7.3128   -0.00741  -0.73808 
 P                     1.55942  -2.47949  -0.67858 
 O                     1.42474  -3.94234  -0.8602 
 O                     2.37254  -1.60683  -1.6079 
 H                     1.98731  -0.29167  -2.00604 
 C                    -3.1635   -3.91923  -3.68432 
 C                    -1.97098  -4.37718  -3.12163 
 C                    -1.56609  -3.94289  -1.86056 
 C                    -2.36366  -3.04451  -1.13879 
 C                    -3.56732  -2.60177  -1.70324 
 C                    -3.96343  -3.02833  -2.97048 
 H                    -3.46926  -4.2587   -4.67661 
 H                    -1.33977  -5.07771  -3.67299 
 H                    -0.61527  -4.28351  -1.44333 
 H                    -4.1931   -1.90448  -1.14278 
 H                    -4.90023  -2.66318  -3.39802 
 H                     0.16629   1.06491  -3.88721 
 H                     0.7748   -1.5071   -3.64549 
 H                    -0.95882  -1.75795  -3.35731 
 H                    -0.37155  -1.07245  -4.92499 
 

 GradGradGradGradGradGradGradGradGradGradGradGradGradGradGradGradGradGrad
 Berny optimization.
 Initialization pass.
 Trust Radius=3.00D-01 FncErr=1.00D-07 GrdErr=1.00D-07 EigMax=2.50D+02 EigMin=1.00D-04
 Number of steps in this run=      2 maximum allowed number of steps=      2.
 GradGradGradGradGradGradGradGradGradGradGradGradGradGradGradGradGradGrad

 Stoichiometry    C47H49O8PSi
 Framework group  C1[X(C47H49O8PSi)]
 Deg. of freedom   312
 Full point group                 C1      NOp   1
 Largest Abelian subgroup         C1      NOp   1
 Largest concise Abelian subgroup C1      NOp   1
                         Standard orientation:                         
 ---------------------------------------------------------------------
 Center     Atomic      Atomic             Coordinates (Angstroms)
 Number     Number       Type             X           Y           Z
 ---------------------------------------------------------------------
      1          6           0       -1.096510    0.624060   -2.207370
      2          6           0       -0.869700    1.775600   -1.474050
      3          6           0        0.450960    3.800730   -0.769380
      4          6           0        2.895330    2.488280   -1.594240
      5          8           0       -1.665490    2.130790   -0.501920
      6          1           0        1.340830    4.402160   -0.998330
      7          1           0        0.481380    3.525090    0.294270
      8          1           0       -0.426250    4.441400   -0.931720
      9          8           0        3.685910    2.709161   -0.713630
     10          8           0        3.007080    2.971730   -2.827160
     11          6           0        4.159160    3.757761   -3.103410
     12          1           0        5.072630    3.162501   -2.967030
     13          1           0        4.069520    4.076461   -4.147030
     14          1           0        4.201200    4.632451   -2.439150
     15         14           0       -3.237590    2.863809   -0.467060
     16          6           0       -3.187670    4.022819    0.988000
     17          1           0       -4.036430    4.722359    0.935160
     18          1           0       -3.259870    3.475059    1.938740
     19          1           0       -2.255730    4.606659    0.994370
     20          6           0       -3.383010    3.772139   -2.093150
     21          1           0       -4.384710    4.219419   -2.190620
     22          1           0       -3.233160    3.094549   -2.947750
     23          1           0       -2.644200    4.585499   -2.161070
     24          6           0       -4.546380    1.514909   -0.250170
     25          6           0       -4.036530    0.480239    0.764240
     26          1           0       -4.785629   -0.316001    0.914480
     27          1           0       -3.104489   -0.001561    0.432800
     28          1           0       -3.842420    0.928089    1.752580
     29          6           0       -5.833110    2.172609    0.282030
     30          1           0       -5.688290    2.622759    1.276170
     31          1           0       -6.628750    1.414389    0.378580
     32          1           0       -6.212610    2.956919   -0.394080
     33          6           0       -4.855070    0.837889   -1.594640
     34          1           0       -5.605289    0.040549   -1.453950
     35          1           0       -5.270070    1.549639   -2.325370
     36          1           0       -3.966930    0.373099   -2.048870
     37          6           0        1.638820    1.628610   -1.449440
     38          6           0        0.388640    2.563830   -1.656630
     39          6           0       -0.268400    0.276100   -3.274130
     40          8           0        1.677020    0.620930   -2.394860
     41          1           0        1.626810    1.236800   -0.420740
     42          6           0       -0.229549   -1.092820   -3.834890
     43          1           0       -1.823199   -0.100370   -1.831790
     44          1           0        0.447840    2.861470   -2.718230
     45          6           0        1.957910    3.031550    2.775710
     46          6           0        0.780680    3.651840    3.110760
     47          6           0       -0.442870    2.957420    2.960660
     48          6           0       -0.466960    1.665910    2.492080
     49          1           0        2.910640    3.559010    2.862440
     50          1           0        0.782510    4.679560    3.479750
     51          1           0       -1.377760    3.459140    3.214340
     52          1           0       -1.420250    1.154600    2.358830
     53          6           0        1.967200    1.688840    2.307820
     54          6           0        0.739130    0.977080    2.180230
     55          6           0        0.774001   -0.388260    1.734720
     56          6           0        1.991561   -0.938070    1.367210
     57          6           0        3.225821   -0.227620    1.465910
     58          6           0        3.184940    1.058270    1.949890
     59          8           0        2.014401   -2.212100    0.888030
     60          1           0        4.112840    1.624571    2.046910
     61          6           0       -2.841709   -2.684961    1.273890
     62          6           0       -1.980699   -2.547400    0.211560
     63          6           0       -0.762779   -1.831470    0.416620
     64          6           0       -0.456319   -1.223550    1.624940
     65          1           0       -3.784159   -3.220051    1.132810
     66          8           0        0.083901   -1.691860   -0.639320
     67          6           0       -1.321869   -1.445760    2.748150
     68          6           0       -2.533559   -2.169411    2.558000
     69          6           0       -3.410769   -2.370071    3.659200
     70          6           0       -3.092029   -1.900511    4.908910
     71          6           0       -1.866639   -1.221490    5.111770
     72          6           0       -1.005929   -1.002190    4.063650
     73          1           0       -4.341849   -2.917521    3.492330
     74          1           0       -3.769999   -2.063931    5.749230
     75          1           0       -1.598299   -0.876340    6.112590
     76          1           0       -0.059869   -0.489790    4.240640
     77          6           0        6.989031   -1.902069    0.247220
     78          6           0        6.107041   -2.662719    1.014950
     79          6           0        4.877971   -2.135899    1.403390
     80          6           0        4.512951   -0.833959    1.033300
     81          6           0        5.404961   -0.077309    0.260740
     82          6           0        6.633161   -0.607939   -0.128980
     83          1           0        7.949841   -2.320429   -0.061240
     84          1           0        6.376281   -3.678389    1.313160
     85          1           0        4.193201   -2.741259    1.998120
     86          1           0        5.118170    0.929301   -0.051660
     87          1           0        7.312801   -0.007409   -0.738080
     88         15           0        1.559421   -2.479490   -0.678580
     89          8           0        1.424741   -3.942340   -0.860200
     90          8           0        2.372541   -1.606830   -1.607900
     91          1           0        1.987311   -0.291670   -2.006040
     92          6           0       -3.163499   -3.919231   -3.684320
     93          6           0       -1.970979   -4.377180   -3.121630
     94          6           0       -1.566089   -3.942890   -1.860560
     95          6           0       -2.363659   -3.044511   -1.138790
     96          6           0       -3.567319   -2.601771   -1.703240
     97          6           0       -3.963429   -3.028331   -2.970480
     98          1           0       -3.469259   -4.258701   -4.676610
     99          1           0       -1.339769   -5.077710   -3.672990
    100          1           0       -0.615269   -4.283510   -1.443330
    101          1           0       -4.193099   -1.904481   -1.142780
    102          1           0       -4.900229   -2.663181   -3.398020
    103          1           0        0.166290    1.064910   -3.887210
    104          1           0        0.774801   -1.507100   -3.645490
    105          1           0       -0.958819   -1.757950   -3.357310
    106          1           0       -0.371549   -1.072450   -4.924990
 ---------------------------------------------------------------------
 Rotational constants (GHZ):           0.0601884           0.0449357           0.0415249
 Standard basis: def2SVP (5D, 7F)
 There are  1108 symmetry adapted cartesian basis functions of A   symmetry.
 There are  1051 symmetry adapted basis functions of A   symmetry.
  1051 basis functions,  1792 primitive gaussians,  1108 cartesian basis functions
   212 alpha electrons      212 beta electrons
       nuclear repulsion energy      9635.4677982566 Hartrees.
 NAtoms=  106 NActive=  106 NUniq=  106 SFac= 1.00D+00 NAtFMM=   60 NAOKFM=T Big=T
 Integral buffers will be    131072 words long.
 Raffenetti 2 integral format.
 Two-electron integral symmetry is turned on.
 Nuclear repulsion after empirical dispersion term =     9635.3324985542 Hartrees.
 Force inversion solution in PCM.
 ------------------------------------------------------------------------------
 Polarizable Continuum Model (PCM)
 =================================
 Model                : PCM.
 Atomic radii         : UFF (Universal Force Field).
 Polarization charges : Total charges.
 Charge compensation  : None.
 Solution method      : Matrix inversion.
 Cavity type          : Scaled VdW (van der Waals Surface) (Alpha=1.100).
 Cavity algorithm     : GePol (No added spheres)
                        Default sphere list used, NSphG=  106.
                        Lebedev-Laikov grids with approx.  5.0 points / Ang**2.
                        Smoothing algorithm: York/Karplus (Gamma=1.0000).
                        Polarization charges: spherical gaussians, with
                                              point-specific exponents (IZeta= 3).
                        Self-potential: point-specific (ISelfS= 7).
                        Self-field    : sphere-specific E.n sum rule (ISelfD= 2).
 1st derivatives      : Analytical E(r).r(x)/FMM algorithm (CHGder, D1EAlg=3).
                        Cavity 1st derivative terms included.
 2nd derivatives      : Analytical E(r).r(xy)/FMM algorithm (CHGder, D2EAlg=3).
                        Cavity 2nd derivative terms included.
 Solvent              : Toluene, Eps=   2.374100 Eps(inf)=   2.238315
 ------------------------------------------------------------------------------
 One-electron integrals computed using PRISM.
   1 Symmetry operations used in ECPInt.
 ECPInt:  NShTT=  121771 NPrTT=  444119 LenC2=   97765 LenP2D=  220905.
 LDataN:  DoStor=T MaxTD1= 4 Len=   56
 NBasis=  1051 RedAO= T EigKep=  1.50D-04  NBF=  1051
 NBsUse=  1051 1.00D-06 EigRej= -1.00D+00 NBFU=  1051
 ExpMin= 7.80D-02 ExpMax= 8.00D+03 ExpMxC= 1.20D+03 IAcc=3 IRadAn=         5 AccDes= 0.00D+00
 Harris functional with IExCor= 4639 and IRadAn=       5 diagonalized for initial guess.
 HarFok:  IExCor= 4639 AccDes= 0.00D+00 IRadAn=         5 IDoV= 1 UseB2=F ITyADJ=14
 ICtDFT=  3500011 ScaDFX=  1.000000  1.000000  1.000000  1.000000
 FoFCou: FMM=F IPFlag=           0 FMFlag=      100000 FMFlg1=        2001
         NFxFlg=           0 DoJE=T BraDBF=F KetDBF=T FulRan=T
         wScrn=  0.000000 ICntrl=       500 IOpCl=  0 I1Cent=   200000004 NGrid=           0
         NMat0=    1 NMatS0=      1 NMatT0=    0 NMatD0=    1 NMtDS0=    0 NMtDT0=    0
 Petite list used in FoFCou.
 Requested convergence on RMS density matrix=1.00D-08 within 128 cycles.
 Requested convergence on MAX density matrix=1.00D-06.
 Requested convergence on             energy=1.00D-06.
 No special actions if energy rises.
 Inv3:  Mode=1 IEnd=   113799843.
 Iteration    1 A*A^-1 deviation from unit magnitude is 3.66D-15 for   4807.
 Iteration    1 A*A^-1 deviation from orthogonality  is 2.11D-15 for   6008   1951.
 Iteration    1 A^-1*A deviation from unit magnitude is 3.66D-15 for   4807.
 Iteration    1 A^-1*A deviation from orthogonality  is 1.95D-15 for   3875    402.
 Error on total polarization charges =  0.01099
 SCF Done:  E(RwB97XD) =  -3050.65534875     A.U. after   14 cycles
            NFock= 14  Conv=0.66D-08     -V/T= 2.0091
 DoSCS=F DFT=T ScalE2(SS,OS)=  1.000000  1.000000
 Range of M.O.s used for correlation:     1  1051
 NBasis=  1051 NAE=   212 NBE=   212 NFC=     0 NFV=     0
 NROrb=   1051 NOA=   212 NOB=   212 NVA=   839 NVB=   839

 **** Warning!!: The largest alpha MO coefficient is  0.10621160D+02

   1 Symmetry operations used in ECPInt.
 ECPInt:  NShTT=  121771 NPrTT=  444119 LenC2=   97765 LenP2D=  220905.
 LDataN:  DoStor=T MaxTD1= 5 Len=  102
 Number of processors reduced to   5 by ecpmxn.
 Symmetrizing basis deriv contribution to polar:
 IMax=3 JMax=2 DiffMx= 0.00D+00
 G2DrvN: will do   107 centers at a time, making    1 passes.
 Calling FoFCou, ICntrl=  3107 FMM=T I1Cent=   0 AccDes= 0.00D+00.
 NEqPCM:  Using equilibrium solvation (IEInf=0, Eps=   2.3741, EpsInf=   2.2383)
 G2PCM: DoFxE=T DoFxN=T DoGrad=T DoDP/DQ/DG/TGxP=FFFF NFrqRd=   0 IEInf=0 SqF1=F DoCFld=F IF1Alg=4.
 End of G2Drv F.D. properties file   721 does not exist.
 End of G2Drv F.D. properties file   722 does not exist.
 End of G2Drv F.D. properties file   788 does not exist.
          IDoAtm=11111111111111111111111111111111111111111111111111
          IDoAtm=11111111111111111111111111111111111111111111111111
          IDoAtm=111111
 NEqPCM:  Using equilibrium solvation (IEInf=0, Eps=   2.3741, EpsInf=   2.2383)
          Differentiating once with respect to electric field.
                with respect to dipole field.
          Differentiating once with respect to nuclear coordinates.
 CalDSu exits because no D1Ps are significant.
          There are   321 degrees of freedom in the 1st order CPHF.  IDoFFX=6 NUNeed=     3.
    321 vectors produced by pass  0 Test12= 1.78D-13 1.00D-09 XBig12= 3.22D+02 4.23D+00.
 AX will form    72 AO Fock derivatives at one time.
    318 vectors produced by pass  1 Test12= 1.78D-13 1.00D-09 XBig12= 3.40D+01 6.39D-01.
    318 vectors produced by pass  2 Test12= 1.78D-13 1.00D-09 XBig12= 9.32D-01 1.45D-01.
    318 vectors produced by pass  3 Test12= 1.78D-13 1.00D-09 XBig12= 1.41D-02 1.12D-02.
    318 vectors produced by pass  4 Test12= 1.78D-13 1.00D-09 XBig12= 1.30D-04 6.39D-04.
    318 vectors produced by pass  5 Test12= 1.78D-13 1.00D-09 XBig12= 9.21D-07 4.58D-05.
    272 vectors produced by pass  6 Test12= 1.78D-13 1.00D-09 XBig12= 5.66D-09 3.83D-06.
     77 vectors produced by pass  7 Test12= 1.78D-13 1.00D-09 XBig12= 2.82D-11 3.39D-07.
     21 vectors produced by pass  8 Test12= 1.78D-13 1.00D-09 XBig12= 1.42D-13 2.26D-08.
     15 vectors produced by pass  9 Test12= 1.78D-13 1.00D-09 XBig12= 8.01D-15 2.53D-09.
      8 vectors produced by pass 10 Test12= 1.78D-13 1.00D-09 XBig12= 5.78D-15 2.86D-09.
      6 vectors produced by pass 11 Test12= 1.78D-13 1.00D-09 XBig12= 3.65D-15 2.01D-09.
      4 vectors produced by pass 12 Test12= 1.78D-13 1.00D-09 XBig12= 2.88D-15 1.60D-09.
      4 vectors produced by pass 13 Test12= 1.78D-13 1.00D-09 XBig12= 2.32D-15 1.85D-09.
      4 vectors produced by pass 14 Test12= 1.78D-13 1.00D-09 XBig12= 2.33D-15 1.61D-09.
      4 vectors produced by pass 15 Test12= 1.78D-13 1.00D-09 XBig12= 2.32D-15 1.54D-09.
      1 vectors produced by pass 16 Test12= 1.78D-13 1.00D-09 XBig12= 1.15D-15 1.06D-09.
 InvSVY:  IOpt=1 It=  1 EMax= 1.42D-14
 Solved reduced A of dimension  2327 with   321 vectors.
 Isotropic polarizability for W=    0.000000      656.00 Bohr**3.
 End of Minotr F.D. properties file   721 does not exist.
 End of Minotr F.D. properties file   722 does not exist.
 End of Minotr F.D. properties file   788 does not exist.
 Hyperfine terms turned off by default for NAtoms > 100.

 **********************************************************************

            Population analysis using the SCF Density.

 **********************************************************************

 Orbital symmetries:
       Occupied  (A) (A) (A) (A) (A) (A) (A) (A) (A) (A) (A) (A)
                 (A) (A) (A) (A) (A) (A) (A) (A) (A) (A) (A) (A)
                 (A) (A) (A) (A) (A) (A) (A) (A) (A) (A) (A) (A)
                 (A) (A) (A) (A) (A) (A) (A) (A) (A) (A) (A) (A)
                 (A) (A) (A) (A) (A) (A) (A) (A) (A) (A) (A) (A)
                 (A) (A) (A) (A) (A) (A) (A) (A) (A) (A) (A) (A)
                 (A) (A) (A) (A) (A) (A) (A) (A) (A) (A) (A) (A)
                 (A) (A) (A) (A) (A) (A) (A) (A) (A) (A) (A) (A)
                 (A) (A) (A) (A) (A) (A) (A) (A) (A) (A) (A) (A)
                 (A) (A) (A) (A) (A) (A) (A) (A) (A) (A) (A) (A)
                 (A) (A) (A) (A) (A) (A) (A) (A) (A) (A) (A) (A)
                 (A) (A) (A) (A) (A) (A) (A) (A) (A) (A) (A) (A)
                 (A) (A) (A) (A) (A) (A) (A) (A) (A) (A) (A) (A)
                 (A) (A) (A) (A) (A) (A) (A) (A) (A) (A) (A) (A)
                 (A) (A) (A) (A) (A) (A) (A) (A) (A) (A) (A) (A)
                 (A) (A) (A) (A) (A) (A) (A) (A) (A) (A) (A) (A)
                 (A) (A) (A) (A) (A) (A) (A) (A) (A) (A) (A) (A)
                 (A) (A) (A) (A) (A) (A) (A) (A)
       Virtual   (A) (A) (A) (A) (A) (A) (A) (A) (A) (A) (A) (A)
                 (A) (A) (A) (A) (A) (A) (A) (A) (A) (A) (A) (A)
                 (A) (A) (A) (A) (A) (A) (A) (A) (A) (A) (A) (A)
                 (A) (A) (A) (A) (A) (A) (A) (A) (A) (A) (A) (A)
                 (A) (A) (A) (A) (A) (A) (A) (A) (A) (A) (A) (A)
                 (A) (A) (A) (A) (A) (A) (A) (A) (A) (A) (A) (A)
                 (A) (A) (A) (A) (A) (A) (A) (A) (A) (A) (A) (A)
                 (A) (A) (A) (A) (A) (A) (A) (A) (A) (A) (A) (A)
                 (A) (A) (A) (A) (A) (A) (A) (A) (A) (A) (A) (A)
                 (A) (A) (A) (A) (A) (A) (A) (A) (A) (A) (A) (A)
                 (A) (A) (A) (A) (A) (A) (A) (A) (A) (A) (A) (A)
                 (A) (A) (A) (A) (A) (A) (A) (A) (A) (A) (A) (A)
                 (A) (A) (A) (A) (A) (A) (A) (A) (A) (A) (A) (A)
                 (A) (A) (A) (A) (A) (A) (A) (A) (A) (A) (A) (A)
                 (A) (A) (A) (A) (A) (A) (A) (A) (A) (A) (A) (A)
                 (A) (A) (A) (A) (A) (A) (A) (A) (A) (A) (A) (A)
                 (A) (A) (A) (A) (A) (A) (A) (A) (A) (A) (A) (A)
                 (A) (A) (A) (A) (A) (A) (A) (A) (A) (A) (A) (A)
                 (A) (A) (A) (A) (A) (A) (A) (A) (A) (A) (A) (A)
                 (A) (A) (A) (A) (A) (A) (A) (A) (A) (A) (A) (A)
                 (A) (A) (A) (A) (A) (A) (A) (A) (A) (A) (A) (A)
                 (A) (A) (A) (A) (A) (A) (A) (A) (A) (A) (A) (A)
                 (A) (A) (A) (A) (A) (A) (A) (A) (A) (A) (A) (A)
                 (A) (A) (A) (A) (A) (A) (A) (A) (A) (A) (A) (A)
                 (A) (A) (A) (A) (A) (A) (A) (A) (A) (A) (A) (A)
                 (A) (A) (A) (A) (A) (A) (A) (A) (A) (A) (A) (A)
                 (A) (A) (A) (A) (A) (A) (A) (A) (A) (A) (A) (A)
                 (A) (A) (A) (A) (A) (A) (A) (A) (A) (A) (A) (A)
                 (A) (A) (A) (A) (A) (A) (A) (A) (A) (A) (A) (A)
                 (A) (A) (A) (A) (A) (A) (A) (A) (A) (A) (A) (A)
                 (A) (A) (A) (A) (A) (A) (A) (A) (A) (A) (A) (A)
                 (A) (A) (A) (A) (A) (A) (A) (A) (A) (A) (A) (A)
                 (A) (A) (A) (A) (A) (A) (A) (A) (A) (A) (A) (A)
                 (A) (A) (A) (A) (A) (A) (A) (A) (A) (A) (A) (A)
                 (A) (A) (A) (A) (A) (A) (A) (A) (A) (A) (A) (A)
                 (A) (A) (A) (A) (A) (A) (A) (A) (A) (A) (A) (A)
                 (A) (A) (A) (A) (A) (A) (A) (A) (A) (A) (A) (A)
                 (A) (A) (A) (A) (A) (A) (A) (A) (A) (A) (A) (A)
                 (A) (A) (A) (A) (A) (A) (A) (A) (A) (A) (A) (A)
                 (A) (A) (A) (A) (A) (A) (A) (A) (A) (A) (A) (A)
                 (A) (A) (A) (A) (A) (A) (A) (A) (A) (A) (A) (A)
                 (A) (A) (A) (A) (A) (A) (A) (A) (A) (A) (A) (A)
                 (A) (A) (A) (A) (A) (A) (A) (A) (A) (A) (A) (A)
                 (A) (A) (A) (A) (A) (A) (A) (A) (A) (A) (A) (A)
                 (A) (A) (A) (A) (A) (A) (A) (A) (A) (A) (A) (A)
                 (A) (A) (A) (A) (A) (A) (A) (A) (A) (A) (A) (A)
                 (A) (A) (A) (A) (A) (A) (A) (A) (A) (A) (A) (A)
                 (A) (A) (A) (A) (A) (A) (A) (A) (A) (A) (A) (A)
                 (A) (A) (A) (A) (A) (A) (A) (A) (A) (A) (A) (A)
                 (A) (A) (A) (A) (A) (A) (A) (A) (A) (A) (A) (A)
                 (A) (A) (A) (A) (A) (A) (A) (A) (A) (A) (A) (A)
                 (A) (A) (A) (A) (A) (A) (A) (A) (A) (A) (A) (A)
                 (A) (A) (A) (A) (A) (A) (A) (A) (A) (A) (A) (A)
                 (A) (A) (A) (A) (A) (A) (A) (A) (A) (A) (A) (A)
                 (A) (A) (A) (A) (A) (A) (A) (A) (A) (A) (A) (A)
                 (A) (A) (A) (A) (A) (A) (A) (A) (A) (A) (A) (A)
                 (A) (A) (A) (A) (A) (A) (A) (A) (A) (A) (A) (A)
                 (A) (A) (A) (A) (A) (A) (A) (A) (A) (A) (A) (A)
                 (A) (A) (A) (A) (A) (A) (A) (A) (A) (A) (A) (A)
                 (A) (A) (A) (A) (A) (A) (A) (A) (A) (A) (A) (A)
                 (A) (A) (A) (A) (A) (A) (A) (A) (A) (A) (A) (A)
                 (A) (A) (A) (A) (A) (A) (A) (A) (A) (A) (A) (A)
                 (A) (A) (A) (A) (A) (A) (A) (A) (A) (A) (A) (A)
                 (A) (A) (A) (A) (A) (A) (A) (A) (A) (A) (A) (A)
                 (A) (A) (A) (A) (A) (A) (A) (A) (A) (A) (A) (A)
                 (A) (A) (A) (A) (A) (A) (A) (A) (A) (A) (A) (A)
                 (A) (A) (A) (A) (A) (A) (A) (A) (A) (A) (A) (A)
                 (A) (A) (A) (A) (A) (A) (A) (A) (A) (A) (A) (A)
                 (A) (A) (A) (A) (A) (A) (A) (A) (A) (A) (A) (A)
                 (A) (A) (A) (A) (A) (A) (A) (A) (A) (A) (A)
 The electronic state is 1-A.
 Alpha  occ. eigenvalues --  -77.33514 -66.30558 -19.31737 -19.30697 -19.27872
 Alpha  occ. eigenvalues --  -19.27609 -19.27299 -19.26021 -19.20692 -19.18850
 Alpha  occ. eigenvalues --  -10.43749 -10.42716 -10.39028 -10.37811 -10.36710
 Alpha  occ. eigenvalues --  -10.36593 -10.36159 -10.34239 -10.32079 -10.31860
 Alpha  occ. eigenvalues --  -10.31581 -10.31555 -10.31526 -10.31379 -10.31228
 Alpha  occ. eigenvalues --  -10.31203 -10.31175 -10.31089 -10.31076 -10.30989
 Alpha  occ. eigenvalues --  -10.30890 -10.30740 -10.30729 -10.30725 -10.30618
 Alpha  occ. eigenvalues --  -10.30600 -10.30526 -10.30522 -10.30492 -10.30454
 Alpha  occ. eigenvalues --  -10.30449 -10.30368 -10.30362 -10.30318 -10.30317
 Alpha  occ. eigenvalues --  -10.30312 -10.30186 -10.30076 -10.29967 -10.29815
 Alpha  occ. eigenvalues --  -10.29592 -10.29299 -10.29269 -10.29242 -10.29149
 Alpha  occ. eigenvalues --  -10.29078 -10.29035  -6.76943  -5.43163  -4.92387
 Alpha  occ. eigenvalues --   -4.92219  -4.91973  -3.78309  -3.77802  -3.77747
 Alpha  occ. eigenvalues --   -1.22086  -1.18166  -1.17995  -1.13360  -1.13013
 Alpha  occ. eigenvalues --   -1.12381  -1.06007  -1.01334  -0.98271  -0.97241
 Alpha  occ. eigenvalues --   -0.95502  -0.94951  -0.94715  -0.92284  -0.91877
 Alpha  occ. eigenvalues --   -0.91645  -0.91190  -0.89795  -0.86092  -0.85589
 Alpha  occ. eigenvalues --   -0.85424  -0.85289  -0.84165  -0.83642  -0.83065
 Alpha  occ. eigenvalues --   -0.82727  -0.81970  -0.81677  -0.81086  -0.79693
 Alpha  occ. eigenvalues --   -0.79547  -0.78739  -0.78509  -0.78153  -0.75805
 Alpha  occ. eigenvalues --   -0.74823  -0.72951  -0.72599  -0.72329  -0.71136
 Alpha  occ. eigenvalues --   -0.70654  -0.69290  -0.68610  -0.68404  -0.67680
 Alpha  occ. eigenvalues --   -0.67306  -0.66925  -0.66630  -0.65961  -0.65153
 Alpha  occ. eigenvalues --   -0.64536  -0.63619  -0.62970  -0.62404  -0.62219
 Alpha  occ. eigenvalues --   -0.61664  -0.61539  -0.60633  -0.60332  -0.58283
 Alpha  occ. eigenvalues --   -0.58040  -0.57750  -0.57388  -0.56748  -0.56614
 Alpha  occ. eigenvalues --   -0.56496  -0.56047  -0.55247  -0.54586  -0.54248
 Alpha  occ. eigenvalues --   -0.54173  -0.53894  -0.53775  -0.53661  -0.53403
 Alpha  occ. eigenvalues --   -0.53096  -0.52753  -0.52650  -0.52434  -0.52239
 Alpha  occ. eigenvalues --   -0.51979  -0.51646  -0.51513  -0.51261  -0.51154
 Alpha  occ. eigenvalues --   -0.50798  -0.50730  -0.50523  -0.50203  -0.50138
 Alpha  occ. eigenvalues --   -0.49932  -0.49652  -0.49435  -0.49213  -0.49040
 Alpha  occ. eigenvalues --   -0.48853  -0.48362  -0.48177  -0.48109  -0.47806
 Alpha  occ. eigenvalues --   -0.47559  -0.47477  -0.47320  -0.47196  -0.47044
 Alpha  occ. eigenvalues --   -0.46218  -0.45747  -0.45630  -0.45248  -0.45185
 Alpha  occ. eigenvalues --   -0.44925  -0.44217  -0.44125  -0.43497  -0.43087
 Alpha  occ. eigenvalues --   -0.43006  -0.42871  -0.42663  -0.42501  -0.42356
 Alpha  occ. eigenvalues --   -0.42075  -0.42034  -0.41947  -0.41478  -0.40857
 Alpha  occ. eigenvalues --   -0.40549  -0.40346  -0.40001  -0.39427  -0.39261
 Alpha  occ. eigenvalues --   -0.38819  -0.37829  -0.37303  -0.36733  -0.36463
 Alpha  occ. eigenvalues --   -0.35895  -0.35319  -0.34473  -0.34118  -0.33916
 Alpha  occ. eigenvalues --   -0.33648  -0.33073  -0.32095  -0.30605  -0.29907
 Alpha  occ. eigenvalues --   -0.29266  -0.27917
 Alpha virt. eigenvalues --   -0.03561   0.00633   0.01606   0.03679   0.04272
 Alpha virt. eigenvalues --    0.05903   0.05953   0.06848   0.07176   0.07932
 Alpha virt. eigenvalues --    0.08571   0.09326   0.10079   0.10623   0.11926
 Alpha virt. eigenvalues --    0.12156   0.12997   0.13926   0.14030   0.14833
 Alpha virt. eigenvalues --    0.14914   0.15257   0.15415   0.15782   0.15909
 Alpha virt. eigenvalues --    0.16357   0.16477   0.16684   0.16992   0.17220
 Alpha virt. eigenvalues --    0.17485   0.17623   0.18070   0.18380   0.18643
 Alpha virt. eigenvalues --    0.18742   0.18922   0.19269   0.19470   0.19557
 Alpha virt. eigenvalues --    0.20045   0.20343   0.20650   0.20928   0.21248
 Alpha virt. eigenvalues --    0.21330   0.21552   0.21600   0.21911   0.22013
 Alpha virt. eigenvalues --    0.22630   0.22755   0.22931   0.23189   0.23516
 Alpha virt. eigenvalues --    0.23626   0.23638   0.24049   0.24268   0.24474
 Alpha virt. eigenvalues --    0.24870   0.25128   0.25287   0.25441   0.25582
 Alpha virt. eigenvalues --    0.25804   0.26118   0.26341   0.26712   0.27109
 Alpha virt. eigenvalues --    0.27181   0.27484   0.27756   0.28238   0.28552
 Alpha virt. eigenvalues --    0.28873   0.29562   0.29614   0.30001   0.30153
 Alpha virt. eigenvalues --    0.30593   0.31314   0.31965   0.32529   0.32678
 Alpha virt. eigenvalues --    0.33000   0.33456   0.33818   0.34102   0.34675
 Alpha virt. eigenvalues --    0.34971   0.35142   0.35764   0.35898   0.36289
 Alpha virt. eigenvalues --    0.36530   0.37074   0.37264   0.37509   0.37666
 Alpha virt. eigenvalues --    0.38004   0.38095   0.38455   0.38740   0.38998
 Alpha virt. eigenvalues --    0.39216   0.39496   0.39753   0.40266   0.40669
 Alpha virt. eigenvalues --    0.40788   0.41325   0.41922   0.42145   0.42433
 Alpha virt. eigenvalues --    0.42726   0.43070   0.43216   0.44160   0.44251
 Alpha virt. eigenvalues --    0.44516   0.45103   0.45420   0.45986   0.46238
 Alpha virt. eigenvalues --    0.46417   0.46811   0.46977   0.47427   0.47729
 Alpha virt. eigenvalues --    0.48230   0.48453   0.49021   0.49151   0.49639
 Alpha virt. eigenvalues --    0.49909   0.50097   0.50598   0.50921   0.50993
 Alpha virt. eigenvalues --    0.51389   0.51800   0.52018   0.52109   0.52401
 Alpha virt. eigenvalues --    0.52576   0.52962   0.53266   0.53662   0.53869
 Alpha virt. eigenvalues --    0.54080   0.54240   0.54579   0.54788   0.55088
 Alpha virt. eigenvalues --    0.55438   0.55662   0.55930   0.56069   0.56354
 Alpha virt. eigenvalues --    0.56757   0.56940   0.57181   0.57376   0.57896
 Alpha virt. eigenvalues --    0.58062   0.58312   0.58551   0.58712   0.59068
 Alpha virt. eigenvalues --    0.59283   0.59497   0.59890   0.60159   0.60466
 Alpha virt. eigenvalues --    0.60951   0.61271   0.61483   0.61982   0.62287
 Alpha virt. eigenvalues --    0.62754   0.62919   0.63078   0.63120   0.63704
 Alpha virt. eigenvalues --    0.64131   0.64302   0.64506   0.64692   0.65241
 Alpha virt. eigenvalues --    0.65590   0.65772   0.65896   0.66338   0.66500
 Alpha virt. eigenvalues --    0.66777   0.66928   0.67258   0.67740   0.67808
 Alpha virt. eigenvalues --    0.67987   0.68413   0.68724   0.69092   0.69163
 Alpha virt. eigenvalues --    0.69545   0.69714   0.69872   0.70203   0.70476
 Alpha virt. eigenvalues --    0.70573   0.71104   0.71371   0.71496   0.71638
 Alpha virt. eigenvalues --    0.71906   0.72158   0.72200   0.72503   0.72653
 Alpha virt. eigenvalues --    0.72827   0.72916   0.73386   0.73510   0.73903
 Alpha virt. eigenvalues --    0.73977   0.74222   0.74371   0.74589   0.74628
 Alpha virt. eigenvalues --    0.74840   0.75020   0.75183   0.75272   0.75543
 Alpha virt. eigenvalues --    0.75641   0.75764   0.76000   0.76288   0.76567
 Alpha virt. eigenvalues --    0.76681   0.76813   0.76943   0.77083   0.77340
 Alpha virt. eigenvalues --    0.77443   0.77803   0.78000   0.78009   0.78184
 Alpha virt. eigenvalues --    0.78497   0.78601   0.79064   0.79095   0.79338
 Alpha virt. eigenvalues --    0.79579   0.79811   0.79955   0.80100   0.80486
 Alpha virt. eigenvalues --    0.80598   0.80943   0.81097   0.81220   0.81442
 Alpha virt. eigenvalues --    0.81538   0.81726   0.82043   0.82540   0.82692
 Alpha virt. eigenvalues --    0.82867   0.83218   0.83364   0.83504   0.83895
 Alpha virt. eigenvalues --    0.84303   0.84534   0.84612   0.84821   0.85122
 Alpha virt. eigenvalues --    0.85287   0.85367   0.86165   0.86249   0.86452
 Alpha virt. eigenvalues --    0.86891   0.87062   0.87318   0.87681   0.87767
 Alpha virt. eigenvalues --    0.88475   0.88692   0.88786   0.89294   0.89387
 Alpha virt. eigenvalues --    0.89552   0.89910   0.90218   0.90379   0.90576
 Alpha virt. eigenvalues --    0.90769   0.91297   0.91647   0.92229   0.92548
 Alpha virt. eigenvalues --    0.93372   0.93754   0.94026   0.94182   0.94537
 Alpha virt. eigenvalues --    0.94697   0.95112   0.95419   0.95924   0.96790
 Alpha virt. eigenvalues --    0.97307   0.97613   0.97820   0.98375   0.99240
 Alpha virt. eigenvalues --    0.99475   0.99919   1.00357   1.01353   1.01854
 Alpha virt. eigenvalues --    1.02145   1.02449   1.02700   1.03217   1.03652
 Alpha virt. eigenvalues --    1.03891   1.04497   1.04797   1.05091   1.05467
 Alpha virt. eigenvalues --    1.06097   1.06649   1.07265   1.07818   1.08524
 Alpha virt. eigenvalues --    1.08606   1.09250   1.09903   1.10731   1.11720
 Alpha virt. eigenvalues --    1.12363   1.13106   1.13196   1.14012   1.14336
 Alpha virt. eigenvalues --    1.15103   1.16096   1.16351   1.16700   1.17983
 Alpha virt. eigenvalues --    1.18286   1.18707   1.18991   1.19982   1.20499
 Alpha virt. eigenvalues --    1.21022   1.21243   1.21786   1.22116   1.22938
 Alpha virt. eigenvalues --    1.23280   1.23975   1.24329   1.25034   1.25105
 Alpha virt. eigenvalues --    1.26045   1.26797   1.26933   1.27327   1.27612
 Alpha virt. eigenvalues --    1.28468   1.28519   1.28741   1.28969   1.29489
 Alpha virt. eigenvalues --    1.29922   1.30036   1.30601   1.31191   1.31906
 Alpha virt. eigenvalues --    1.32210   1.32824   1.33139   1.33296   1.33624
 Alpha virt. eigenvalues --    1.33781   1.33921   1.34558   1.34796   1.35153
 Alpha virt. eigenvalues --    1.35339   1.35706   1.35952   1.36095   1.36239
 Alpha virt. eigenvalues --    1.36394   1.36747   1.37457   1.37978   1.38160
 Alpha virt. eigenvalues --    1.38315   1.38631   1.38976   1.39560   1.39735
 Alpha virt. eigenvalues --    1.40081   1.40239   1.40798   1.41050   1.41493
 Alpha virt. eigenvalues --    1.42123   1.42204   1.42710   1.43033   1.43364
 Alpha virt. eigenvalues --    1.43922   1.44366   1.44947   1.46060   1.46832
 Alpha virt. eigenvalues --    1.47704   1.48522   1.48787   1.49457   1.49683
 Alpha virt. eigenvalues --    1.50220   1.50753   1.51074   1.52514   1.53659
 Alpha virt. eigenvalues --    1.53988   1.55851   1.56329   1.56813   1.57907
 Alpha virt. eigenvalues --    1.58306   1.58926   1.59026   1.59835   1.60353
 Alpha virt. eigenvalues --    1.60687   1.61250   1.61715   1.62277   1.62725
 Alpha virt. eigenvalues --    1.63058   1.63472   1.63752   1.64132   1.64433
 Alpha virt. eigenvalues --    1.64709   1.65470   1.65590   1.66151   1.66930
 Alpha virt. eigenvalues --    1.67623   1.68434   1.68791   1.68975   1.69316
 Alpha virt. eigenvalues --    1.70256   1.71138   1.71384   1.71541   1.72209
 Alpha virt. eigenvalues --    1.72824   1.73437   1.73772   1.74798   1.75262
 Alpha virt. eigenvalues --    1.75555   1.76307   1.77016   1.77131   1.77500
 Alpha virt. eigenvalues --    1.77698   1.78109   1.78618   1.78727   1.79259
 Alpha virt. eigenvalues --    1.79914   1.80249   1.80289   1.80433   1.80796
 Alpha virt. eigenvalues --    1.81229   1.81572   1.81628   1.81837   1.82088
 Alpha virt. eigenvalues --    1.82446   1.82600   1.82911   1.83145   1.83372
 Alpha virt. eigenvalues --    1.83961   1.83991   1.84291   1.84399   1.84778
 Alpha virt. eigenvalues --    1.84927   1.85136   1.85407   1.85643   1.86107
 Alpha virt. eigenvalues --    1.86228   1.86386   1.86514   1.86687   1.86799
 Alpha virt. eigenvalues --    1.87217   1.87327   1.87721   1.88002   1.88113
 Alpha virt. eigenvalues --    1.88355   1.88528   1.88658   1.88761   1.89051
 Alpha virt. eigenvalues --    1.89248   1.89369   1.89932   1.90005   1.90271
 Alpha virt. eigenvalues --    1.90581   1.90847   1.91125   1.91502   1.91676
 Alpha virt. eigenvalues --    1.92151   1.92269   1.92654   1.93020   1.93244
 Alpha virt. eigenvalues --    1.93683   1.93931   1.94674   1.94873   1.95171
 Alpha virt. eigenvalues --    1.95520   1.95847   1.96231   1.96764   1.97212
 Alpha virt. eigenvalues --    1.97533   1.98030   1.98258   1.98641   1.98713
 Alpha virt. eigenvalues --    1.99100   1.99401   1.99619   2.00110   2.00459
 Alpha virt. eigenvalues --    2.01111   2.02083   2.02117   2.02494   2.02959
 Alpha virt. eigenvalues --    2.03120   2.03328   2.03431   2.03929   2.04122
 Alpha virt. eigenvalues --    2.04488   2.04539   2.05021   2.05153   2.05317
 Alpha virt. eigenvalues --    2.05571   2.05696   2.06136   2.06564   2.07088
 Alpha virt. eigenvalues --    2.07328   2.07471   2.07769   2.08200   2.08409
 Alpha virt. eigenvalues --    2.08652   2.09002   2.09363   2.09412   2.09648
 Alpha virt. eigenvalues --    2.09970   2.10156   2.10824   2.11300   2.11460
 Alpha virt. eigenvalues --    2.12177   2.12921   2.13567   2.14098   2.14867
 Alpha virt. eigenvalues --    2.15560   2.15726   2.16527   2.17169   2.17348
 Alpha virt. eigenvalues --    2.18010   2.18851   2.19026   2.19517   2.20404
 Alpha virt. eigenvalues --    2.21433   2.21700   2.21758   2.22301   2.22890
 Alpha virt. eigenvalues --    2.23163   2.23580   2.23790   2.23854   2.24187
 Alpha virt. eigenvalues --    2.24400   2.24742   2.25195   2.25816   2.25894
 Alpha virt. eigenvalues --    2.26282   2.26495   2.26831   2.27447   2.27612
 Alpha virt. eigenvalues --    2.27881   2.28576   2.28760   2.29227   2.29929
 Alpha virt. eigenvalues --    2.30545   2.30916   2.31074   2.32014   2.32819
 Alpha virt. eigenvalues --    2.33469   2.33777   2.34562   2.34812   2.35398
 Alpha virt. eigenvalues --    2.35834   2.36358   2.37029   2.37490   2.38199
 Alpha virt. eigenvalues --    2.38390   2.38514   2.38803   2.39429   2.39862
 Alpha virt. eigenvalues --    2.39954   2.40452   2.40652   2.40848   2.41046
 Alpha virt. eigenvalues --    2.41592   2.42537   2.43203   2.44004   2.44625
 Alpha virt. eigenvalues --    2.44879   2.45251   2.45345   2.45617   2.46040
 Alpha virt. eigenvalues --    2.46390   2.46648   2.47111   2.47438   2.47925
 Alpha virt. eigenvalues --    2.47964   2.48547   2.49077   2.49692   2.50311
 Alpha virt. eigenvalues --    2.50810   2.51073   2.52459   2.52919   2.53754
 Alpha virt. eigenvalues --    2.53950   2.54205   2.54709   2.56163   2.56599
 Alpha virt. eigenvalues --    2.56763   2.56873   2.57105   2.60298   2.61321
 Alpha virt. eigenvalues --    2.61937   2.62458   2.62670   2.63086   2.63663
 Alpha virt. eigenvalues --    2.64061   2.64330   2.65395   2.66270   2.66701
 Alpha virt. eigenvalues --    2.67433   2.68635   2.69022   2.69458   2.69847
 Alpha virt. eigenvalues --    2.70498   2.70735   2.71157   2.71320   2.71447
 Alpha virt. eigenvalues --    2.71728   2.72197   2.72577   2.72685   2.72928
 Alpha virt. eigenvalues --    2.73857   2.74067   2.74219   2.74397   2.75088
 Alpha virt. eigenvalues --    2.75424   2.75631   2.76218   2.76378   2.76690
 Alpha virt. eigenvalues --    2.77714   2.78034   2.78053   2.78498   2.78613
 Alpha virt. eigenvalues --    2.79199   2.79767   2.80148   2.80468   2.80692
 Alpha virt. eigenvalues --    2.81624   2.82005   2.82826   2.83224   2.83316
 Alpha virt. eigenvalues --    2.83470   2.84069   2.84378   2.84805   2.85077
 Alpha virt. eigenvalues --    2.85635   2.87567   2.87763   2.88033   2.89117
 Alpha virt. eigenvalues --    2.89443   2.90842   2.92189   2.92847   2.93823
 Alpha virt. eigenvalues --    2.94301   2.94471   2.95193   2.95427   2.96380
 Alpha virt. eigenvalues --    2.96798   2.97121   2.97461   2.97907   2.98571
 Alpha virt. eigenvalues --    2.99151   2.99671   3.00169   3.00339   3.00566
 Alpha virt. eigenvalues --    3.00804   3.01142   3.01679   3.02260   3.02517
 Alpha virt. eigenvalues --    3.03194   3.03908   3.04114   3.04606   3.05221
 Alpha virt. eigenvalues --    3.05768   3.06084   3.07219   3.07339   3.07924
 Alpha virt. eigenvalues --    3.08301   3.08701   3.08760   3.08968   3.09308
 Alpha virt. eigenvalues --    3.12588   3.13167   3.14315   3.14583   3.15302
 Alpha virt. eigenvalues --    3.15780   3.16023   3.17151   3.17418   3.18399
 Alpha virt. eigenvalues --    3.19309   3.21206   3.22373   3.22498   3.22802
 Alpha virt. eigenvalues --    3.24445   3.25713   3.26974   3.27518   3.28058
 Alpha virt. eigenvalues --    3.30282   3.30710   3.31010   3.33535   3.33789
 Alpha virt. eigenvalues --    3.38823   3.39449   3.42685   3.43351   3.50104
 Alpha virt. eigenvalues --    3.50376   3.52662   3.56238   3.56605   3.64760
 Alpha virt. eigenvalues --    3.66626   3.67632   3.71095   3.72354   3.74853
 Alpha virt. eigenvalues --    3.76315   3.78177   3.78908   4.02212
          Condensed to atoms (all electrons):
 Mulliken charges:
               1
     1  C   -0.084333
     2  C    0.209713
     3  C    0.039879
     4  C    0.211775
     5  O   -0.429043
     6  H    0.055801
     7  H    0.064206
     8  H    0.047673
     9  O   -0.241359
    10  O   -0.328790
    11  C    0.128802
    12  H    0.064725
    13  H    0.063811
    14  H    0.055005
    15  Si   0.689219
    16  C   -0.273310
    17  H    0.080145
    18  H    0.081844
    19  H    0.076898
    20  C   -0.297321
    21  H    0.085661
    22  H    0.075993
    23  H    0.075544
    24  C   -0.524362
    25  C    0.026582
    26  H    0.035577
    27  H    0.044754
    28  H    0.049710
    29  C    0.010947
    30  H    0.040248
    31  H    0.037270
    32  H    0.040932
    33  C    0.021126
    34  H    0.042531
    35  H    0.036552
    36  H    0.023909
    37  C    0.222255
    38  C   -0.188376
    39  C    0.053587
    40  O   -0.361059
    41  H    0.042020
    42  C    0.003589
    43  H    0.051860
    44  H    0.073150
    45  C   -0.042898
    46  C   -0.023024
    47  C   -0.024638
    48  C   -0.015464
    49  H    0.018061
    50  H    0.023841
    51  H    0.015380
    52  H   -0.003582
    53  C    0.013046
    54  C    0.011432
    55  C    0.011330
    56  C    0.077716
    57  C    0.056680
    58  C   -0.063248
    59  O   -0.452538
    60  H    0.008341
    61  C   -0.093558
    62  C    0.039509
    63  C    0.128277
    64  C    0.022877
    65  H    0.005475
    66  O   -0.492478
    67  C    0.020612
    68  C    0.036908
    69  C   -0.046856
    70  C   -0.018251
    71  C   -0.018484
    72  C   -0.041209
    73  H    0.013545
    74  H    0.026438
    75  H    0.026884
    76  H    0.028983
    77  C   -0.020558
    78  C   -0.030274
    79  C   -0.012190
    80  C    0.012953
    81  C   -0.041885
    82  C   -0.025986
    83  H    0.023957
    84  H    0.026205
    85  H    0.026795
    86  H    0.014659
    87  H    0.018250
    88  P    1.124203
    89  O   -0.522348
    90  O   -0.603793
    91  H    0.261152
    92  C   -0.022984
    93  C   -0.036628
    94  C   -0.028239
    95  C   -0.000885
    96  C   -0.027540
    97  C   -0.030856
    98  H    0.027195
    99  H    0.032417
   100  H    0.033173
   101  H   -0.013924
   102  H    0.022086
   103  H    0.074536
   104  H    0.094785
   105  H    0.072406
   106  H    0.068868
 Sum of Mulliken charges =  -0.00000
 Mulliken charges with hydrogens summed into heavy atoms:
               1
     1  C   -0.032473
     2  C    0.209713
     3  C    0.207558
     4  C    0.211775
     5  O   -0.429043
     9  O   -0.241359
    10  O   -0.328790
    11  C    0.312343
    15  Si   0.689219
    16  C   -0.034423
    20  C   -0.060123
    24  C   -0.524362
    25  C    0.156623
    29  C    0.129397
    33  C    0.124119
    37  C    0.264275
    38  C   -0.115226
    39  C    0.128123
    40  O   -0.099907
    42  C    0.239648
    45  C   -0.024836
    46  C    0.000817
    47  C   -0.009258
    48  C   -0.019046
    53  C    0.013046
    54  C    0.011432
    55  C    0.011330
    56  C    0.077716
    57  C    0.056680
    58  C   -0.054907
    59  O   -0.452538
    61  C   -0.088084
    62  C    0.039509
    63  C    0.128277
    64  C    0.022877
    66  O   -0.492478
    67  C    0.020612
    68  C    0.036908
    69  C   -0.033311
    70  C    0.008187
    71  C    0.008400
    72  C   -0.012226
    77  C    0.003399
    78  C   -0.004069
    79  C    0.014605
    80  C    0.012953
    81  C   -0.027226
    82  C   -0.007736
    88  P    1.124203
    89  O   -0.522348
    90  O   -0.603793
    92  C    0.004212
    93  C   -0.004211
    94  C    0.004934
    95  C   -0.000885
    96  C   -0.041464
    97  C   -0.008770
 APT charges:
               1
     1  C   -0.781864
     2  C    1.225001
     3  C    0.031482
     4  C    1.303538
     5  O   -1.529454
     6  H    0.005475
     7  H    0.033949
     8  H    0.001410
     9  O   -0.859610
    10  O   -1.014851
    11  C    0.544782
    12  H   -0.008863
    13  H    0.005875
    14  H   -0.013588
    15  Si   2.054812
    16  C   -0.488113
    17  H    0.024250
    18  H    0.053958
    19  H    0.052578
    20  C   -0.498318
    21  H    0.048451
    22  H    0.044422
    23  H    0.034288
    24  C   -0.300941
    25  C    0.006712
    26  H   -0.023095
    27  H    0.002986
    28  H    0.000716
    29  C    0.050153
    30  H   -0.002345
    31  H   -0.027371
    32  H   -0.013170
    33  C    0.025736
    34  H   -0.023755
    35  H   -0.017464
    36  H   -0.001739
    37  C    0.297819
    38  C   -0.116521
    39  C    0.935510
    40  O   -0.970528
    41  H   -0.007508
    42  C   -0.185755
    43  H    0.097682
    44  H    0.035955
    45  C   -0.006761
    46  C   -0.080249
    47  C   -0.041244
    48  C   -0.046283
    49  H    0.042198
    50  H    0.029591
    51  H    0.040800
    52  H    0.053590
    53  C   -0.051834
    54  C   -0.008688
    55  C   -0.061360
    56  C    0.511001
    57  C    0.091331
    58  C   -0.047827
    59  O   -1.159875
    60  H    0.060050
    61  C   -0.034414
    62  C    0.032749
    63  C    0.526361
    64  C   -0.030351
    65  H    0.045732
    66  O   -1.234225
    67  C    0.026584
    68  C   -0.071695
    69  C    0.005756
    70  C   -0.085316
    71  C   -0.008828
    72  C   -0.061242
    73  H    0.034562
    74  H    0.026132
    75  H    0.031640
    76  H    0.054445
    77  C   -0.056663
    78  C   -0.031571
    79  C   -0.075665
    80  C    0.092262
    81  C   -0.110322
    82  C   -0.035781
    83  H    0.024223
    84  H    0.024452
    85  H    0.072667
    86  H    0.098048
    87  H    0.020974
    88  P    2.669100
    89  O   -1.049901
    90  O   -1.245168
    91  H    0.731859
    92  C   -0.050506
    93  C   -0.024460
    94  C   -0.138651
    95  C    0.098651
    96  C   -0.111595
    97  C   -0.052834
    98  H    0.029814
    99  H    0.034278
   100  H    0.169765
   101  H    0.061436
   102  H    0.028664
   103  H    0.016778
   104  H    0.124712
   105  H    0.050355
   106  H    0.020062
 Sum of APT charges =  -0.00000
 APT charges with hydrogens summed into heavy atoms:
               1
     1  C   -0.684182
     2  C    1.225001
     3  C    0.072316
     4  C    1.303538
     5  O   -1.529454
     9  O   -0.859610
    10  O   -1.014851
    11  C    0.528207
    15  Si   2.054812
    16  C   -0.357327
    20  C   -0.371157
    24  C   -0.300941
    25  C   -0.012681
    29  C    0.007267
    33  C   -0.017222
    37  C    0.290311
    38  C   -0.080567
    39  C    0.952288
    40  O   -0.238669
    42  C    0.009374
    45  C    0.035437
    46  C   -0.050658
    47  C   -0.000444
    48  C    0.007307
    53  C   -0.051834
    54  C   -0.008688
    55  C   -0.061360
    56  C    0.511001
    57  C    0.091331
    58  C    0.012223
    59  O   -1.159875
    61  C    0.011319
    62  C    0.032749
    63  C    0.526361
    64  C   -0.030351
    66  O   -1.234225
    67  C    0.026584
    68  C   -0.071695
    69  C    0.040318
    70  C   -0.059185
    71  C    0.022812
    72  C   -0.006797
    77  C   -0.032440
    78  C   -0.007119
    79  C   -0.002998
    80  C    0.092262
    81  C   -0.012274
    82  C   -0.014807
    88  P    2.669100
    89  O   -1.049901
    90  O   -1.245168
    92  C   -0.020692
    93  C    0.009818
    94  C    0.031114
    95  C    0.098651
    96  C   -0.050159
    97  C   -0.024171
 Electronic spatial extent (au):  <R**2>=          31765.6890
 Charge=             -0.0000 electrons
 Dipole moment (field-independent basis, Debye):
    X=             -8.6576    Y=             13.4055    Z=             -4.0341  Tot=             16.4601
 Quadrupole moment (field-independent basis, Debye-Ang):
   XX=           -323.5840   YY=           -344.8106   ZZ=           -320.7947
   XY=              8.9384   XZ=             -3.8356   YZ=            -12.6558
 Traceless Quadrupole moment (field-independent basis, Debye-Ang):
   XX=              6.1458   YY=            -15.0809   ZZ=              8.9351
   XY=              8.9384   XZ=             -3.8356   YZ=            -12.6558
 Octapole moment (field-independent basis, Debye-Ang**2):
  XXX=            -15.9980  YYY=            262.8984  ZZZ=           -130.5320  XYY=             -8.9095
  XXY=             78.8103  XXZ=            -67.0200  XZZ=            -23.1253  YZZ=             31.1075
  YYZ=            -50.0336  XYZ=            -43.0138
 Hexadecapole moment (field-independent basis, Debye-Ang**3):
 XXXX=         -19476.2383 YYYY=         -12591.2384 ZZZZ=          -9667.3265 XXXY=            -87.8082
 XXXZ=           -488.2369 YYYX=             48.5845 YYYZ=           -144.0389 ZZZX=           -295.0299
 ZZZY=            -38.9019 XXYY=          -5109.6664 XXZZ=          -4940.8164 YYZZ=          -3552.4332
 XXYZ=           -315.3473 YYXZ=            -83.2582 ZZXY=            276.8751
 N-N= 9.635332498554D+03 E-N=-2.639567281317D+04  KE= 3.023053727485D+03
  Exact polarizability:     725.216      -3.920     618.528     -49.498      82.773     624.271
 Approx polarizability:     683.062      -6.659     625.752     -46.015      77.467     629.030
   1 Symmetry operations used in ECPInt.
 ECPInt:  NShTT=  121771 NPrTT=  444119 LenC2=   97765 LenP2D=  220905.
 LDataN:  DoStor=T MaxTD1= 6 Len=  172
 D2PCM: PCM CHGder 2nd derivatives, FixD1E=F FixD2E=F DoIter=F DoCFld=F I1PDM=0
 Calling FoFJK, ICntrl=    100127 FMM=F ISym2X=0 I1Cent= 0 IOpClX= 0 NMat=1 NMatS=1 NMatT=0.
 Full mass-weighted force constant matrix:
 Low frequencies --- -163.7638   -5.3981   -4.5676   -0.0015   -0.0012   -0.0009
 Low frequencies ---    5.9372   23.9042   24.6328
 ******    1 imaginary frequencies (negative Signs) ****** 
 Diagonal vibrational polarizability:
      318.8570728     171.2053518     140.5488835
 Harmonic frequencies (cm**-1), IR intensities (KM/Mole), Raman scattering
 activities (A**4/AMU), depolarization ratios for plane and unpolarized
 incident light, reduced masses (AMU), force constants (mDyne/A),
 and normal coordinates:
                      1                      2                      3
                      A                      A                      A
 Frequencies --   -163.7634                23.7040                24.5427
 Red. masses --      5.8038                 3.8768                 4.5158
 Frc consts  --      0.0917                 0.0013                 0.0016
 IR Inten    --    126.9810                 0.0821                 0.9347
  Atom  AN      X      Y      Z        X      Y      Z        X      Y      Z
     1   6     0.08   0.05   0.02    -0.02   0.03  -0.00    -0.06   0.02   0.07
     2   6    -0.02   0.01   0.02     0.00   0.03  -0.01    -0.03   0.03   0.05
     3   6     0.02  -0.01   0.04     0.03   0.02  -0.04     0.03   0.01   0.00
     4   6    -0.04  -0.11  -0.07     0.01  -0.03  -0.02    -0.02  -0.05  -0.03
     5   8    -0.03  -0.00   0.06     0.01   0.05  -0.01    -0.01   0.07   0.05
     6   1     0.03  -0.01   0.05     0.03   0.01  -0.05     0.03  -0.01  -0.03
     7   1     0.02  -0.03   0.03     0.03   0.03  -0.03     0.05   0.02   0.01
     8   1     0.03   0.01   0.06     0.03   0.02  -0.04     0.04   0.02   0.02
     9   8    -0.07  -0.08  -0.04    -0.01  -0.00  -0.01    -0.01  -0.03  -0.04
    10   8    -0.01  -0.10  -0.06     0.04  -0.07  -0.03    -0.01  -0.10  -0.05
    11   6    -0.03  -0.04  -0.01     0.05  -0.09  -0.03     0.00  -0.13  -0.08
    12   1    -0.01  -0.01   0.01     0.05  -0.09   0.01    -0.01  -0.14  -0.06
    13   1    -0.01  -0.03  -0.01     0.08  -0.13  -0.04     0.01  -0.17  -0.09
    14   1    -0.10  -0.05   0.01     0.05  -0.06  -0.06     0.02  -0.10  -0.11
    15  14     0.01   0.00   0.00     0.00   0.02   0.00    -0.03   0.04   0.06
    16   6    -0.03   0.01   0.00     0.04   0.12  -0.07    -0.06  -0.04   0.12
    17   1    -0.03   0.00   0.01     0.05   0.13  -0.11    -0.07  -0.05   0.16
    18   1    -0.02   0.01  -0.00     0.04   0.19  -0.04    -0.04  -0.08   0.10
    19   1    -0.03   0.02   0.00     0.05   0.11  -0.12    -0.07  -0.02   0.15
    20   6    -0.00   0.01  -0.00    -0.07  -0.09  -0.05    -0.02   0.12   0.11
    21   1    -0.01  -0.00  -0.01    -0.08  -0.10  -0.04    -0.03   0.10   0.11
    22   1     0.01   0.00   0.00    -0.09  -0.14  -0.01     0.02   0.17   0.08
    23   1    -0.01   0.01  -0.00    -0.08  -0.08  -0.13    -0.04   0.14   0.17
    24   6    -0.01   0.01  -0.00     0.03   0.02   0.14    -0.02   0.02  -0.02
    25   6    -0.00   0.01  -0.01     0.10   0.05   0.14    -0.03  -0.03  -0.06
    26   1    -0.00   0.00  -0.00     0.11   0.05   0.21    -0.02  -0.04  -0.11
    27   1    -0.00   0.01  -0.01     0.07   0.04   0.09    -0.02  -0.01  -0.06
    28   1     0.00   0.00  -0.00     0.16   0.08   0.11    -0.05  -0.07  -0.04
    29   6    -0.01   0.00  -0.00     0.06   0.03   0.21    -0.03  -0.02  -0.01
    30   1    -0.01   0.00  -0.00     0.12   0.05   0.19    -0.05  -0.07   0.02
    31   1    -0.01  -0.00  -0.00     0.07   0.04   0.27    -0.03  -0.03  -0.05
    32   1    -0.01   0.00  -0.00     0.02   0.02   0.21    -0.03   0.01   0.03
    33   6     0.00   0.01  -0.00    -0.06  -0.03   0.18    -0.00   0.08  -0.06
    34   1     0.01  -0.00  -0.01    -0.05  -0.02   0.26     0.01   0.06  -0.10
    35   1    -0.00   0.00  -0.00    -0.11  -0.05   0.19    -0.01   0.11  -0.02
    36   1     0.01   0.02   0.00    -0.09  -0.04   0.14     0.01   0.11  -0.08
    37   6    -0.09  -0.04  -0.04    -0.00  -0.01  -0.02    -0.03  -0.03  -0.00
    38   6    -0.02   0.02   0.01     0.01   0.01  -0.02    -0.02  -0.00   0.02
    39   6     0.34   0.08   0.12    -0.02   0.01  -0.00    -0.10  -0.01   0.06
    40   8    -0.26  -0.10  -0.05    -0.02  -0.01  -0.01    -0.07  -0.03   0.01
    41   1    -0.06  -0.06  -0.05    -0.01  -0.00  -0.01    -0.02  -0.02   0.00
    42   6     0.27   0.07   0.07    -0.04   0.00   0.01    -0.14  -0.01   0.07
    43   1     0.04   0.01  -0.13    -0.03   0.04   0.00    -0.07   0.04   0.09
    44   1    -0.03   0.07   0.02     0.01  -0.00  -0.03    -0.03  -0.01   0.01
    45   6    -0.00   0.00   0.00    -0.04   0.01  -0.02     0.01   0.00   0.01
    46   6    -0.00  -0.00   0.00    -0.04   0.00  -0.02     0.02   0.00   0.01
    47   6    -0.00  -0.00   0.00    -0.04  -0.01  -0.02     0.02   0.00   0.01
    48   6    -0.00  -0.00   0.00    -0.03  -0.01  -0.02     0.01   0.01   0.01
    49   1    -0.00   0.00   0.01    -0.04   0.02  -0.02     0.02  -0.00   0.01
    50   1    -0.00  -0.00   0.00    -0.05   0.00  -0.03     0.02   0.00   0.02
    51   1    -0.00  -0.00  -0.00    -0.04  -0.01  -0.03     0.02   0.00   0.02
    52   1    -0.00   0.00  -0.00    -0.02  -0.02  -0.02     0.01   0.01   0.01
    53   6    -0.00   0.00   0.00    -0.03   0.01  -0.01     0.01   0.00   0.00
    54   6    -0.00   0.00   0.00    -0.02  -0.00  -0.01     0.01   0.00   0.00
    55   6     0.00  -0.00   0.00    -0.01  -0.00  -0.01     0.01   0.00  -0.00
    56   6     0.00   0.00   0.00    -0.01   0.00  -0.00     0.01   0.00   0.00
    57   6     0.00   0.00   0.00    -0.01   0.01   0.00     0.01   0.01  -0.00
    58   6    -0.00   0.00   0.00    -0.02   0.01  -0.00     0.01   0.01  -0.00
    59   8     0.01   0.00  -0.01     0.00   0.00  -0.00     0.01   0.00   0.01
    60   1    -0.00   0.00   0.00    -0.03   0.02   0.00     0.01   0.01  -0.00
    61   6    -0.00   0.00   0.00     0.00  -0.02  -0.03     0.00   0.01  -0.03
    62   6    -0.00   0.00   0.00     0.01  -0.01  -0.03     0.02   0.00  -0.02
    63   6    -0.00   0.00   0.01     0.00  -0.01  -0.02     0.02   0.00  -0.01
    64   6     0.00  -0.00   0.00    -0.01  -0.01  -0.02     0.01   0.01  -0.01
    65   1    -0.00   0.00   0.00     0.01  -0.03  -0.04    -0.00   0.02  -0.04
    66   8    -0.00   0.00   0.00     0.01   0.00  -0.01     0.02  -0.01  -0.00
    67   6     0.00  -0.00   0.00    -0.01  -0.02  -0.02    -0.01   0.02  -0.02
    68   6    -0.00   0.00   0.00    -0.01  -0.03  -0.03    -0.01   0.02  -0.03
    69   6    -0.00   0.00   0.00    -0.01  -0.03  -0.04    -0.03   0.04  -0.04
    70   6    -0.00   0.00   0.00    -0.02  -0.03  -0.03    -0.04   0.05  -0.04
    71   6    -0.00   0.00   0.00    -0.03  -0.02  -0.03    -0.04   0.03  -0.03
    72   6     0.00  -0.00   0.00    -0.02  -0.02  -0.02    -0.02   0.02  -0.02
    73   1    -0.00   0.00   0.00    -0.01  -0.04  -0.04    -0.03   0.05  -0.05
    74   1    -0.00   0.00   0.00    -0.03  -0.04  -0.04    -0.06   0.06  -0.05
    75   1    -0.00   0.00   0.00    -0.04  -0.02  -0.02    -0.05   0.04  -0.03
    76   1    -0.00   0.00   0.00    -0.03  -0.01  -0.01    -0.02   0.01  -0.01
    77   6     0.00  -0.00  -0.00     0.01   0.02   0.06     0.01   0.01  -0.01
    78   6    -0.00   0.00  -0.00     0.00   0.02   0.05     0.01   0.01  -0.00
    79   6     0.00   0.00   0.00    -0.00   0.02   0.03     0.01   0.01  -0.00
    80   6     0.00   0.00   0.00    -0.01   0.01   0.02     0.01   0.01  -0.00
    81   6     0.00   0.00   0.00     0.00   0.02   0.03     0.01   0.01  -0.01
    82   6     0.00  -0.00   0.00     0.01   0.02   0.05     0.01   0.01  -0.01
    83   1     0.00  -0.00   0.00     0.02   0.03   0.08     0.01   0.01  -0.01
    84   1    -0.00   0.00   0.00     0.00   0.02   0.06     0.02   0.01  -0.00
    85   1     0.00   0.00   0.00    -0.01   0.02   0.02     0.02   0.01  -0.00
    86   1     0.00   0.00   0.00     0.00   0.01   0.02     0.01   0.01  -0.01
    87   1     0.00  -0.00   0.00     0.02   0.02   0.06     0.01   0.01  -0.01
    88  15    -0.01   0.03  -0.00     0.01  -0.00  -0.01     0.02  -0.01   0.01
    89   8     0.05   0.03  -0.05     0.01  -0.00  -0.00     0.03  -0.01   0.02
    90   8    -0.03   0.08   0.00     0.01  -0.00  -0.01     0.01  -0.02  -0.00
    91   1    -0.15  -0.15  -0.04    -0.01  -0.01  -0.01    -0.04  -0.02  -0.00
    92   6     0.00   0.01  -0.00     0.03   0.00  -0.04     0.13  -0.03  -0.04
    93   6     0.00   0.01  -0.00     0.02  -0.01  -0.03     0.08  -0.08   0.03
    94   6     0.00   0.01  -0.00     0.02  -0.01  -0.03     0.04  -0.07   0.04
    95   6    -0.00   0.00   0.00     0.02  -0.01  -0.03     0.05  -0.01  -0.02
    96   6    -0.00   0.00   0.00     0.02   0.00  -0.04     0.10   0.04  -0.09
    97   6    -0.00   0.00   0.00     0.03   0.01  -0.05     0.14   0.03  -0.10
    98   1     0.00   0.01  -0.00     0.04   0.01  -0.04     0.16  -0.04  -0.04
    99   1     0.01   0.01  -0.01     0.02  -0.01  -0.03     0.07  -0.12   0.08
   100   1     0.00   0.00  -0.00     0.01  -0.02  -0.02     0.01  -0.10   0.09
   101   1    -0.00  -0.00   0.00     0.03   0.01  -0.05     0.11   0.08  -0.13
   102   1    -0.00  -0.00   0.00     0.04   0.02  -0.06     0.18   0.07  -0.15
   103   1    -0.01   0.13  -0.07    -0.02  -0.00  -0.01    -0.10  -0.02   0.04
   104   1     0.32   0.05  -0.31    -0.06  -0.02   0.03    -0.18  -0.07   0.16
   105   1     0.41   0.04   0.23    -0.07   0.02  -0.00    -0.21   0.04   0.03
   106   1    -0.11   0.16   0.12    -0.02  -0.00   0.00    -0.05  -0.02   0.06
                      4                      5                      6
                      A                      A                      A
 Frequencies --     28.0415                33.5841                36.0659
 Red. masses --      5.5053                 5.3951                 5.0954
 Frc consts  --      0.0026                 0.0036                 0.0039
 IR Inten    --      0.4382                 0.4716                 0.1831
  Atom  AN      X      Y      Z        X      Y      Z        X      Y      Z
     1   6    -0.02  -0.02  -0.01    -0.03   0.06   0.01     0.00   0.09   0.03
     2   6    -0.03  -0.02  -0.00     0.00   0.06  -0.00     0.01   0.10   0.00
     3   6    -0.06  -0.01   0.02     0.05   0.04  -0.03     0.03   0.10  -0.04
     4   6    -0.04   0.02  -0.02     0.02  -0.01  -0.06     0.02   0.03   0.07
     5   8    -0.04  -0.05   0.00     0.02   0.10  -0.00     0.00   0.14  -0.02
     6   1    -0.06  -0.00   0.03     0.06   0.02  -0.05     0.03   0.09  -0.06
     7   1    -0.06  -0.02   0.02     0.06   0.05  -0.03     0.03   0.13  -0.03
     8   1    -0.06  -0.02   0.02     0.06   0.05  -0.02     0.02   0.10  -0.05
     9   8     0.05  -0.09  -0.06     0.06  -0.06  -0.09    -0.02   0.04   0.11
    10   8    -0.13   0.15   0.02    -0.01   0.01  -0.06     0.09  -0.01   0.07
    11   6    -0.15   0.16   0.01     0.01  -0.03  -0.08     0.12  -0.04   0.11
    12   1    -0.14   0.13  -0.16    -0.01  -0.07  -0.14     0.11  -0.05   0.18
    13   1    -0.24   0.29   0.06    -0.02   0.00  -0.07     0.19  -0.08   0.09
    14   1    -0.07   0.08   0.11     0.07  -0.05  -0.06     0.10  -0.02   0.08
    15  14    -0.03  -0.03   0.03    -0.01   0.03   0.00    -0.05   0.02  -0.01
    16   6     0.00  -0.03   0.03    -0.06  -0.01   0.03    -0.11   0.01   0.01
    17   1    -0.00  -0.03   0.05    -0.08  -0.03   0.05    -0.15  -0.05   0.03
    18   1     0.03  -0.03   0.03    -0.05  -0.04   0.02    -0.05  -0.01   0.00
    19   1    -0.00  -0.02   0.00    -0.08   0.01   0.06    -0.14   0.07  -0.01
    20   6    -0.05  -0.03   0.03    -0.02   0.08   0.03    -0.12   0.03   0.01
    21   1    -0.05  -0.03   0.05    -0.04   0.04   0.03    -0.15  -0.04   0.01
    22   1    -0.08  -0.04   0.03     0.02   0.11   0.01    -0.07   0.05  -0.00
    23   1    -0.05  -0.04   0.01    -0.05   0.10   0.07    -0.18   0.08   0.02
    24   6    -0.03  -0.02   0.06     0.02  -0.01  -0.05     0.02  -0.06  -0.01
    25   6    -0.01  -0.02   0.05     0.02  -0.02  -0.07     0.08  -0.04  -0.02
    26   1    -0.00  -0.02   0.06     0.03  -0.03  -0.08     0.12  -0.07  -0.01
    27   1    -0.01  -0.01   0.04     0.03  -0.01  -0.06     0.09  -0.00  -0.04
    28   1     0.00  -0.02   0.05     0.01  -0.04  -0.06     0.08  -0.03  -0.02
    29   6    -0.02  -0.02   0.08    -0.00  -0.05  -0.05    -0.00  -0.12   0.02
    30   1    -0.00  -0.02   0.07    -0.02  -0.07  -0.03    -0.01  -0.13   0.02
    31   1    -0.02  -0.02   0.10     0.01  -0.07  -0.08     0.04  -0.17   0.02
    32   1    -0.03  -0.02   0.08    -0.01  -0.04  -0.03    -0.05  -0.14   0.03
    33   6    -0.05  -0.03   0.07     0.04   0.02  -0.07     0.04  -0.06  -0.01
    34   1    -0.05  -0.03   0.08     0.05   0.00  -0.10     0.07  -0.09  -0.00
    35   1    -0.06  -0.03   0.07     0.03   0.03  -0.05    -0.00  -0.07   0.00
    36   1    -0.06  -0.03   0.06     0.05   0.04  -0.08     0.05  -0.03  -0.02
    37   6    -0.03   0.02  -0.00     0.00   0.02  -0.04    -0.00   0.05   0.04
    38   6    -0.04  -0.00   0.01     0.01   0.04  -0.02     0.02   0.08  -0.00
    39   6    -0.00   0.00  -0.01    -0.05   0.04   0.00     0.01   0.06   0.04
    40   8    -0.01   0.02  -0.01    -0.03   0.01  -0.04    -0.01   0.05   0.04
    41   1    -0.02   0.01  -0.01     0.01   0.02  -0.04    -0.04   0.06   0.04
    42   6     0.02   0.01  -0.02    -0.08   0.04   0.01    -0.00   0.06   0.05
    43   1    -0.01  -0.03  -0.03    -0.03   0.07   0.03     0.00   0.09   0.03
    44   1    -0.05   0.01   0.01     0.00   0.03  -0.02     0.04   0.05  -0.01
    45   6     0.07   0.00  -0.03    -0.03   0.02  -0.04     0.03  -0.01  -0.02
    46   6     0.08   0.02  -0.03    -0.03   0.01  -0.04     0.03   0.01  -0.05
    47   6     0.07   0.04  -0.03    -0.03  -0.01  -0.02     0.02   0.02  -0.07
    48   6     0.05   0.04  -0.03    -0.02  -0.01  -0.01     0.01   0.02  -0.06
    49   1     0.08  -0.01  -0.03    -0.03   0.03  -0.05     0.03  -0.02  -0.01
    50   1     0.10   0.02  -0.03    -0.04   0.01  -0.04     0.03   0.01  -0.07
    51   1     0.08   0.06  -0.03    -0.03  -0.02  -0.01     0.02   0.04  -0.10
    52   1     0.04   0.06  -0.03    -0.01  -0.02   0.00     0.01   0.03  -0.06
    53   6     0.05   0.00  -0.02    -0.02   0.01  -0.04     0.02  -0.01  -0.01
    54   6     0.04   0.02  -0.02    -0.01   0.00  -0.02     0.01   0.00  -0.03
    55   6     0.02   0.02  -0.02    -0.00   0.00  -0.02     0.00  -0.00  -0.02
    56   6     0.01  -0.00  -0.00    -0.00   0.01  -0.02    -0.00  -0.01  -0.01
    57   6     0.02  -0.03   0.00    -0.00   0.01  -0.01     0.00  -0.03  -0.00
    58   6     0.04  -0.02  -0.01    -0.01   0.02  -0.03     0.01  -0.03   0.00
    59   8    -0.00  -0.01  -0.00     0.00   0.01  -0.03    -0.01  -0.01  -0.01
    60   1     0.05  -0.04  -0.01    -0.01   0.02  -0.02     0.02  -0.04   0.01
    61   6     0.01   0.02  -0.03     0.02  -0.04   0.02     0.01  -0.02   0.01
    62   6     0.02   0.02  -0.03    -0.00  -0.01   0.01     0.00  -0.03   0.00
    63   6     0.02   0.02  -0.02    -0.01  -0.00  -0.01    -0.00  -0.01  -0.01
    64   6     0.01   0.03  -0.03     0.01  -0.01  -0.01    -0.00   0.00  -0.02
    65   1     0.01   0.02  -0.03     0.03  -0.06   0.04     0.01  -0.03   0.02
    66   8     0.02   0.01  -0.02    -0.02   0.01  -0.01    -0.01  -0.02  -0.01
    67   6    -0.01   0.05  -0.03     0.04  -0.04   0.01    -0.00   0.02  -0.01
    68   6    -0.00   0.04  -0.04     0.05  -0.06   0.03    -0.00   0.01  -0.00
    69   6    -0.02   0.07  -0.04     0.08  -0.11   0.05    -0.01   0.03  -0.00
    70   6    -0.04   0.09  -0.05     0.11  -0.13   0.05    -0.02   0.07  -0.01
    71   6    -0.04   0.09  -0.04     0.10  -0.10   0.03    -0.02   0.07  -0.02
    72   6    -0.02   0.07  -0.03     0.06  -0.05   0.01    -0.01   0.05  -0.02
    73   1    -0.02   0.07  -0.05     0.09  -0.13   0.06    -0.00   0.03   0.01
    74   1    -0.05   0.11  -0.06     0.14  -0.17   0.07    -0.02   0.09  -0.01
    75   1    -0.05   0.10  -0.05     0.12  -0.11   0.03    -0.03   0.10  -0.03
    76   1    -0.02   0.06  -0.03     0.05  -0.03  -0.01    -0.01   0.05  -0.03
    77   6     0.00  -0.14   0.11     0.05  -0.03   0.22    -0.03  -0.07  -0.05
    78   6    -0.02  -0.09   0.14     0.01  -0.00   0.21    -0.03  -0.06  -0.05
    79   6    -0.01  -0.05   0.10    -0.01   0.01   0.13    -0.02  -0.05  -0.03
    80   6     0.01  -0.06   0.04     0.01  -0.00   0.05    -0.00  -0.04  -0.01
    81   6     0.03  -0.12   0.00     0.04  -0.04   0.06    -0.00  -0.04  -0.02
    82   6     0.02  -0.16   0.04     0.06  -0.05   0.14    -0.02  -0.06  -0.04
    83   1    -0.00  -0.17   0.14     0.06  -0.04   0.28    -0.04  -0.08  -0.07
    84   1    -0.03  -0.08   0.19     0.00   0.01   0.27    -0.04  -0.07  -0.06
    85   1    -0.03  -0.01   0.13    -0.03   0.04   0.12    -0.02  -0.04  -0.02
    86   1     0.04  -0.13  -0.05     0.05  -0.05  -0.00     0.01  -0.04  -0.00
    87   1     0.04  -0.20   0.01     0.09  -0.08   0.14    -0.02  -0.06  -0.04
    88  15     0.02   0.02  -0.01    -0.01   0.02  -0.02     0.01   0.01  -0.02
    89   8     0.03   0.02  -0.04    -0.01   0.02  -0.03     0.03   0.01  -0.06
    90   8     0.03   0.04   0.01    -0.02   0.02  -0.02    -0.00   0.05   0.00
    91   1     0.00   0.02  -0.00    -0.03   0.02  -0.04    -0.00   0.05   0.03
    92   6     0.05  -0.02  -0.02    -0.08   0.02   0.02    -0.03  -0.12   0.04
    93   6     0.05  -0.01  -0.01    -0.06   0.04  -0.02     0.01  -0.05   0.01
    94   6     0.04  -0.00  -0.01    -0.03   0.02  -0.03     0.02  -0.02  -0.00
    95   6     0.03   0.00  -0.02    -0.03   0.00   0.01    -0.00  -0.05   0.01
    96   6     0.03  -0.01  -0.03    -0.05  -0.01   0.05    -0.04  -0.12   0.04
    97   6     0.04  -0.02  -0.03    -0.07   0.00   0.05    -0.05  -0.15   0.06
    98   1     0.05  -0.03  -0.02    -0.10   0.03   0.02    -0.04  -0.14   0.05
    99   1     0.05  -0.01  -0.00    -0.06   0.05  -0.05     0.03  -0.02   0.00
   100   1     0.04   0.01  -0.01    -0.01   0.03  -0.05     0.05   0.03  -0.02
   101   1     0.02  -0.01  -0.04    -0.05  -0.03   0.07    -0.06  -0.15   0.05
   102   1     0.04  -0.03  -0.04    -0.09  -0.01   0.08    -0.09  -0.21   0.08
   103   1    -0.01   0.01  -0.01    -0.05   0.03  -0.01     0.01   0.05   0.02
   104   1     0.03   0.03  -0.04    -0.09   0.01   0.01    -0.00   0.06   0.02
   105   1     0.04  -0.01  -0.02    -0.10   0.06   0.01     0.00   0.06   0.06
   106   1     0.01   0.01  -0.02    -0.08   0.03   0.01    -0.03   0.05   0.05
                      7                      8                      9
                      A                      A                      A
 Frequencies --     42.5096                46.2354                49.3729
 Red. masses --      5.9765                 5.3342                 5.0207
 Frc consts  --      0.0064                 0.0067                 0.0072
 IR Inten    --      0.1460                 0.5240                 0.6680
  Atom  AN      X      Y      Z        X      Y      Z        X      Y      Z
     1   6    -0.06  -0.02  -0.04    -0.02  -0.02  -0.01    -0.01   0.01   0.07
     2   6    -0.07  -0.01  -0.04    -0.01  -0.03   0.01    -0.02   0.04   0.03
     3   6    -0.08  -0.01  -0.04    -0.01  -0.05   0.04    -0.00   0.04  -0.01
     4   6    -0.06  -0.04   0.09    -0.01  -0.03   0.01    -0.02   0.02   0.02
     5   8    -0.09   0.00  -0.06    -0.01  -0.05   0.02    -0.02   0.07   0.02
     6   1    -0.07  -0.01  -0.03    -0.01  -0.04   0.05    -0.00   0.03  -0.02
     7   1    -0.10   0.01  -0.03    -0.00  -0.07   0.04    -0.01   0.06  -0.00
     8   1    -0.08  -0.01  -0.07    -0.01  -0.04   0.06     0.00   0.05  -0.02
     9   8    -0.11  -0.03   0.13    -0.03  -0.02   0.03     0.02  -0.03  -0.00
    10   8     0.01  -0.07   0.09     0.01  -0.04   0.01    -0.07   0.09   0.04
    11   6     0.04  -0.09   0.14     0.02  -0.04   0.04    -0.09   0.12   0.04
    12   1     0.02  -0.09   0.21     0.02  -0.04   0.06    -0.08   0.13  -0.05
    13   1     0.11  -0.12   0.12     0.05  -0.05   0.03    -0.15   0.20   0.07
    14   1     0.00  -0.07   0.11     0.00  -0.03   0.03    -0.07   0.08   0.10
    15  14    -0.09  -0.00  -0.06     0.01  -0.01   0.04    -0.01   0.10  -0.05
    16   6    -0.07   0.01  -0.07     0.04  -0.03   0.05    -0.02   0.16  -0.10
    17   1    -0.09  -0.01  -0.04     0.06  -0.01   0.06    -0.01   0.17  -0.14
    18   1    -0.02   0.01  -0.07     0.02  -0.04   0.05    -0.03   0.21  -0.08
    19   1    -0.08   0.03  -0.11     0.05  -0.06   0.07    -0.01   0.15  -0.12
    20   6    -0.11  -0.03  -0.07     0.03   0.02   0.05     0.04   0.03  -0.10
    21   1    -0.12  -0.03  -0.07     0.04   0.05   0.06     0.05   0.05  -0.13
    22   1    -0.12  -0.04  -0.06     0.01   0.03   0.04     0.03  -0.02  -0.06
    23   1    -0.12  -0.02  -0.09     0.05  -0.00   0.06     0.06   0.01  -0.12
    24   6    -0.09  -0.00  -0.03    -0.02   0.02   0.02    -0.02   0.11  -0.03
    25   6    -0.06   0.00  -0.03    -0.05   0.01   0.03    -0.04   0.13  -0.00
    26   1    -0.06  -0.00  -0.02    -0.06   0.02   0.02    -0.06   0.15   0.02
    27   1    -0.07   0.01  -0.05    -0.05  -0.00   0.04    -0.05   0.09   0.01
    28   1    -0.05   0.01  -0.04    -0.05   0.01   0.03    -0.02   0.15  -0.01
    29   6    -0.08  -0.00  -0.00    -0.01   0.04   0.00    -0.02   0.14  -0.05
    30   1    -0.06  -0.01  -0.01    -0.02   0.05  -0.00    -0.02   0.16  -0.06
    31   1    -0.08  -0.00   0.01    -0.03   0.05  -0.00    -0.03   0.16  -0.05
    32   1    -0.09  -0.00   0.00     0.01   0.04  -0.01     0.00   0.13  -0.07
[...]
 -0.00000052,0.00000077,0.,-0.00000062,-0.00000198,-0.00000243,-0.00000
 214,-0.00000116,-0.00000084,-0.00007577,0.00064801,-0.00007627,-0.0001
 6290,-0.00021882,-0.00009183,0.00003791,-0.00015225,0.00019580,-0.0000
 5975,-0.00020035,-0.00014678,-0.00049195,-0.00013578,-0.00014045,-0.00
 038567,-0.00104073,-0.00012233,-0.00011409,-0.00049716,0.00067661,-0.0
 0061763,-0.00005824,0.00059900,0.00012881,-0.00024157,0.00010091,0.000
 12483,-0.00011510,0.00002878,0.00006210,0.00004671,0.00004722,0.000024
 18,0.00007314,0.00000009,0.00011209,0.00005223,-0.00000376,0.00008237,
 0.00001579,-0.00005724,0.00010003,0.00001572,-0.00002038,0.00048582,-0
 .00365331,-0.00274877,0.00890261,0.00796706,-0.00635478,0.12419987,0.1
 6271412,-0.00081879,-0.00149301,-0.00129081,-0.00022066,0.00066091,0.0
 0039860,0.00001128,-0.00000183,0.00000420,0.00019680,0.00008562,-0.000
 10813,0.00040047,-0.00008218,-0.00040140,-0.00000435,-0.00000967,-0.00
 000648,-0.00000084,-0.00001050,-0.00000270,0.00000462,-0.00001144,-0.0
 0000634,-0.00016060,-0.00005801,-0.00004436,-0.00008369,-0.00005785,0.
 00006318,0.00004009,0.00003114,-0.00001997,-0.00000969,-0.00000509,-0.
 00000033,-0.00000271,-0.00000640,0.00000410,-0.00000757,-0.00000452,0.
 00000121,-0.00026541,0.00006228,0.00011753,0.00002424,-0.00000668,-0.0
 0001880,0.00000079,-0.00000322,-0.00000658,0.00000139,-0.00000222,-0.0
 0000593,-0.00000135,0.00000496,0.00000744,0.00004718,-0.00000780,-0.00
 000215,0.00000403,-0.00000827,0.00000770,-0.00000878,0.00000802,-0.000
 01305,-0.00000434,0.00000535,-0.00000751,0.00002384,-0.00000415,-0.000
 00642,0.00002045,-0.00000531,0.00000498,0.00001082,0.00000546,-0.00000
 550,-0.00000726,-0.00001382,-0.00000012,-0.00000579,0.00000431,-0.0000
 0065,-0.00000135,0.00001479,-0.00001024,0.00000084,-0.00000393,-0.0000
 0213,0.00000772,-0.00000004,-0.00000034,-0.00000557,0.00000329,0.00000
 041,-0.00002047,0.00001353,-0.00002427,0.00001996,-0.00000069,-0.00000
 383,-0.00001313,0.00001499,0.00000083,-0.00000568,-0.00002226,0.000037
 88,-0.00015703,-0.00015657,0.00007626,-0.00009843,-0.00008844,-0.00002
 207,-0.01192155,-0.00617198,0.00816025,0.00009898,-0.00047150,-0.00035
 286,-0.00001217,-0.00003450,-0.00002459,0.08720444,0.07452036,-0.10834
 980,0.00029290,-0.00032638,0.00025352,0.00000126,0.00005551,0.00005599
 ,-0.00000076,0.00000306,-0.00000256,0.00000298,0.00001146,-0.00000009,
 -0.00000622,0.00000312,-0.00000643,-0.00000799,0.00001027,-0.00000495,
 0.00000208,0.00000134,0.00000287,0.00000045,0.00000141,0.00000274,-0.0
 0000093,0.00000085,0.00000435,0.00000176,-0.00001231,0.00000358,0.0000
 0786,0.00000895,-0.00000204,0.00002069,-0.00002172,-0.00000757,-0.0000
 3784,0.00000057,0.00000485,-0.00000247,-0.00009857,-0.00004082,0.00000
 059,0.00000749,-0.00000027,0.00001171,0.00000727,0.00000100,0.00010377
 ,0.00008356,0.00015496,0.00000229,0.00000196,0.00000367,0.00003520,0.0
 0002600,0.00001949,-0.00008633,-0.00001706,-0.00011305,0.00007419,-0.0
 0001970,-0.00043008,-0.00001114,0.00000767,0.00002258,-0.00000519,-0.0
 0000817,-0.00000189,0.00005348,0.00049904,-0.00169004,0.00001488,0.000
 01340,0.00001641,-0.00002162,0.00000054,0.00002739,0.00002600,0.000012
 26,-0.00000603,0.00000176,0.00000706,0.00002159,-0.00001121,0.00000100
 ,0.00001628,-0.00001544,-0.00001071,-0.00000749,-0.00000307,-0.0000028
 4,-0.00000224,-0.00000158,-0.00000052,0.00000559,0.00000020,0.00000102
 ,0.00000516,0.00000434,0.00000045,0.00000402,0.00000049,0.00000067,0.0
 0000026,-0.00000020,0.00000443,0.00000041,0.00000030,-0.00000126,0.000
 00290,-0.00000287,0.00000468,0.00000102,0.00000215,-0.00000868,0.00000
 281,0.00000153,0.00000278,-0.00000172,0.00000017,0.00000026,-0.0000008
 7,-0.00000075,0.,-0.00000053,-0.00000193,0.00000238,-0.00000427,0.0000
 0539,-0.00000354,0.00000280,0.00000125,-0.00000047,-0.00000109,-0.0008
 6869,0.00009641,-0.00037141,0.00018562,-0.00004933,0.00006269,0.000257
 70,0.00031813,-0.00005592,0.00019394,-0.00051551,0.00023978,-0.0001341
 7,0.00027387,-0.00033878,0.00051191,0.00028488,0.00015670,0.00004776,0
 .00067676,-0.00003280,0.00025759,0.00006909,-0.00060699,0.00033365,-0.
 00014235,0.00014874,-0.00019188,0.00015866,-0.00002791,-0.00006878,-0.
 00007770,-0.00002998,-0.00001778,-0.00012737,-0.00001302,-0.00004433,-
 0.00000569,-0.00000754,-0.00004327,0.00000135,0.00001038,-0.00006592,-
 0.00004047,-0.00000435,0.00139406,-0.00238037,0.00058124,-0.00415011,-
 0.00364963,0.00186558,-0.09246581,-0.07811400,0.10987484,0.00060585,0.
 00011960,-0.00135420,-0.00033510,0.00151914,0.00068378,0.00002038,-0.0
 0002032,0.00005446,0.00036404,0.00017985,-0.00032835,0.00057257,-0.000
 21772,-0.00045663,-0.00000695,-0.00001380,-0.00000923,0.00000222,0.000
 00485,0.00000377,0.00000771,-0.00001856,-0.00001445,-0.00025894,-0.000
 10800,-0.00000705,-0.00015565,-0.00011299,0.00020705,0.00006554,0.0000
 4661,-0.00003678,-0.00001952,-0.00001058,-0.00000474,-0.00000622,-0.00
 001889,0.00000992,-0.00001494,-0.00000480,0.00000539,-0.00037580,0.000
 14372,0.00013820,0.00003450,-0.00002382,-0.00002426,0.00000273,-0.0000
 0606,-0.00001071,-0.00000044,0.00000082,-0.00000444,-0.00000284,0.0000
 0693,0.00000769,0.00006557,-0.00002910,0.00000423,0.00000568,-0.000010
 55,0.00001380,-0.00000874,0.00001435,-0.00001776,-0.00000626,0.0000020
 9,-0.00000997,0.00003636,-0.00001338,-0.00001146,0.00000675,-0.0000015
 4,0.00000824,0.00001221,0.00000561,-0.00000362,-0.00000089,-0.00001721
 ,0.00000216,-0.00000467,-0.00000086,-0.00000391,-0.00000263,0.00001896
 ,-0.00000766,0.00000054,-0.00000517,-0.00000508,0.00001061,0.00000145,
 -0.00000155,-0.00000406,0.00000032,0.00000319,-0.00002313,0.00001604,-
 0.00001196,0.00002021,0.00000031,-0.00000738,-0.00000970,0.00000916,0.
 00000240,0.00000725,-0.00003241,0.00001510,-0.00033823,-0.00010663,0.0
 0012114,-0.00027308,-0.00003061,0.00015805,-0.00263765,0.00556785,0.00
 583657,-0.00071905,-0.00105541,-0.00084503,-0.00001059,-0.00004785,-0.
 00003649,-0.04569156,-0.00763252,-0.03517635,0.00040664,-0.00037026,0.
 00013364,-0.00000863,-0.00010473,-0.00001834,0.00000190,0.00000581,-0.
 00000421,0.00000024,0.00000729,-0.00000089,-0.00000610,0.00000607,-0.0
 0000711,-0.00000468,0.00000359,-0.00000652,-0.00000104,-0.00000068,0.0
 0000237,0.00000062,-0.00000203,0.00000181,0.00000125,0.,0.00000465,-0.
 00000161,-0.00000845,0.00000792,0.00000281,0.00000241,-0.00000533,0.00
 000566,-0.00000239,-0.00000363,-0.00001746,-0.00000756,-0.00000827,0.0
 0000632,0.00001639,0.00001237,0.00001630,-0.00000889,-0.00000997,0.000
 00123,0.00001227,0.00000438,0.00005805,0.00003157,-0.00009703,0.000001
 43,-0.00000328,0.00000305,0.00001869,0.00000706,0.00000235,-0.00001716
 ,0.00000402,-0.00005253,-0.00002967,-0.00001888,-0.00001662,0.00000073
 ,-0.00000667,-0.00000741,0.00000427,-0.00000265,-0.00000361,0.00032493
 ,0.00006061,0.00004205,-0.00000696,0.00000467,0.00002229,-0.00000099,0
 .00000592,0.00000994,0.00000399,0.00000415,-0.00000386,0.00000430,0.00
 000446,0.00000514,-0.00000576,0.00000001,0.00000698,-0.00000202,0.0000
 0028,-0.00001036,0.00000121,-0.00000143,-0.00000036,0.00000105,-0.0000
 0065,0.00000075,0.00000024,-0.00000105,0.00000034,0.00000175,-0.000000
 71,0.00000401,-0.00000581,0.00000519,0.00000630,0.00000076,0.00000139,
 0.00000217,-0.00000533,-0.00000301,0.00000198,0.00001422,-0.00000413,-
 0.00000044,-0.00000230,-0.00000302,0.00000272,0.00000379,0.00000601,-0
 .00000163,-0.00000480,0.00000145,-0.00000208,-0.00000221,0.00000195,-0
 .00000235,0.00000196,-0.00000262,0.00000101,0.00001161,-0.00000422,-0.
 00000073,-0.00000497,-0.00000402,-0.00000118,-0.00045957,-0.00054966,0
 .00055192,0.00009869,0.00017655,-0.00000645,-0.00041030,0.00047453,-0.
 00060752,0.00043877,-0.00021054,0.00022373,0.00006337,0.00006706,-0.00
 004355,0.00008425,0.00000238,0.00008922,-0.00018090,-0.00002022,0.0000
 8434,-0.00004402,-0.00019741,-0.00006814,0.00009939,-0.00002514,0.0000
 7418,0.00001297,0.00009783,-0.00000922,-0.00002353,-0.00004466,-0.0000
 1630,0.00000388,0.00000840,-0.00000014,-0.00001979,0.00001327,-0.00003
 149,-0.00001381,-0.00000293,0.00000670,-0.00004085,-0.00001063,0.00000
 305,0.00021010,-0.00000645,-0.00048831,-0.00156736,-0.00086980,-0.0277
 2971,0.00472098,0.00258897,0.02013566,0.04532522,0.00132231,-0.0052185
 5,-0.00081219,0.00161034,0.00083632,0.00167786,-0.00001358,-0.00004918
 ,0.00009631,0.00030137,0.00029037,-0.00027429,0.00053997,-0.00047513,-
 0.00162234,-0.00001587,-0.00002790,-0.00001722,0.00000867,0.00001075,0
 .00002054,0.00001449,-0.00001430,-0.00002176,-0.00025048,-0.00013717,-
 0.00004042,-0.00012535,-0.00012036,0.00016964,0.00005464,0.00004191,-0
 .00003084,-0.00001297,-0.00000877,0.00000062,-0.00000944,-0.00001154,0
 .00000953,-0.00001173,-0.00000552,0.00000229,-0.00080830,0.00039245,0.
 00015967,0.00007514,-0.00004766,-0.00001025,0.00000471,-0.00001536,-0.
 00002213,-0.00000198,0.00000584,-0.00000020,-0.00000357,0.00001527,0.0
 0001327,0.00013312,-0.00006444,0.00003760,0.00000687,-0.00002417,0.000
 02620,-0.00002001,0.00001479,-0.00003836,-0.00000846,0.00000917,-0.000
 01290,0.00004816,-0.00004111,-0.00001289,0.00000412,0.00000915,0.00001
 771,0.00001862,0.00000646,-0.00000746,-0.00000581,-0.00002939,0.000010
 58,-0.00000272,-0.00000358,0.00000336,0.00001396,0.00004534,0.00000623
 ,-0.00000384,-0.00000248,0.00000115,0.00001910,-0.00000102,-0.00000713
 ,-0.00000296,-0.00000331,0.00000105,0.00000308,0.00001701,-0.00001110,
 0.00002216,0.00000576,-0.00000004,0.00000628,-0.00000628,-0.00000012,-
 0.00002100,-0.00002787,-0.00001636,-0.00021569,-0.00052743,-0.00006599
 ,-0.00045661,0.00021824,-0.00012156,-0.00463432,0.00245251,-0.03225918
 ,0.00022484,-0.00038217,-0.00037590,-0.00001542,-0.00003678,-0.0000161
 8,-0.00450044,-0.04746718,0.00905011,-0.00005431,-0.00007768,-0.000217
 70,0.00000077,-0.00006402,0.00007372,-0.00000259,0.00000068,-0.0000053
 8,0.00000108,0.00001655,0.00000238,-0.00001042,0.00001320,-0.00001053,
 -0.00000324,0.00001104,-0.00000932,0.00000050,0.00000104,0.00000323,-0
 .00000012,-0.00000089,0.00000243,0.,0.00000140,0.00000670,-0.00000508,
 -0.00001671,0.00001068,0.00000685,0.00001121,-0.00000212,0.00001653,-0
 .00002670,-0.00001228,-0.00003872,0.00000209,-0.00000038,0.00000694,-0
 .00015131,-0.00006128,0.00000725,0.00000835,-0.00000265,0.00001222,0.0
 0000579,-0.00000006,0.00008254,0.00011079,0.00025402,0.00000206,0.0000
 0156,0.00000489,0.00001523,0.00000300,-0.00000915,-0.00005164,-0.00000
 728,-0.00002413,0.00030937,0.00000579,-0.00022197,-0.00005767,-0.00000
 542,0.00007754,-0.00000116,-0.00000423,-0.00000074,-0.00004914,0.00004
 235,0.00067257,0.00001133,0.00002733,0.00001557,-0.00001151,0.00000275
 ,0.00002079,0.00001361,0.00000687,-0.00000757,0.00000091,0.00000470,0.
 00001610,-0.00000777,-0.00000047,0.00001034,-0.00001361,-0.00000436,-0
 .00000389,-0.00000158,-0.00000196,-0.00000113,-0.00000041,-0.00000055,
 0.00000269,-0.00000009,-0.00000026,0.00000348,0.00000329,-0.00000035,0
 .00000323,-0.00000137,0.00000122,0.00000015,-0.00000110,0.00000471,0.0
 0000103,-0.00000160,-0.00000015,0.00000371,-0.00000038,0.00000166,-0.0
 0000181,-0.00000017,-0.00000944,0.00000544,0.00000168,0.00000424,-0.00
 000314,0.00000003,0.00000082,-0.00000039,-0.00000087,0.00000047,-0.000
 00013,-0.00000159,0.00000205,-0.00000445,0.00000879,-0.00000478,0.0000
 0232,0.00000056,-0.00000053,-0.00000048,-0.00053724,0.00023290,-0.0007
 1893,0.00009819,-0.00008661,0.00009040,0.00035179,0.00031355,0.0003023
 6,0.00015184,-0.00084392,0.00015413,0.00003854,0.00006808,-0.00002125,
 0.00003855,0.00005331,0.00010991,-0.00013564,-0.00002892,0.00009736,-0
 .00002856,-0.00020478,-0.00007877,0.00010628,-0.00007827,0.00003380,-0
 .00001368,0.00005616,-0.00001064,-0.00004435,-0.00002754,-0.00002085,0
 .00000977,-0.00005400,0.00000475,-0.00000045,0.00005637,-0.00002822,-0
 .00001387,0.00000018,-0.00000143,-0.00000632,-0.00000154,-0.00000433,-
 0.00005614,0.00110824,0.00052851,0.00023054,-0.00017926,0.01263717,0.0
 0557561,0.00071316,0.01628161,0.00075831,0.04936568,-0.00135882,-0.001
 81462,0.00013791,0.00065614,-0.00022765,0.00026055,-0.00002005,-0.0000
 0077,0.00001302,0.00007123,0.00010286,-0.00008109,0.00014664,-0.000250
 07,-0.00036040,-0.00000785,-0.00000992,-0.00000558,0.00000244,0.000000
 96,0.00000302,0.00000500,0.00000038,-0.00000375,-0.00003707,-0.0000357
 8,0.00001061,-0.00003271,-0.00003275,0.00006334,0.00001633,0.00000847,
 -0.00001054,-0.00000415,-0.00000214,-0.00000179,-0.00000184,-0.0000045
 8,0.00000300,-0.00000369,-0.00000065,0.00000152,-0.00025279,0.00014010
 ,0.00000634,0.00002951,-0.00002102,0.00000272,0.00000217,-0.00000618,-
 0.00000849,-0.00000227,0.00000386,0.00000234,-0.00000135,0.00000593,0.
 00000340,0.00004075,-0.00002177,0.00001666,0.00000239,-0.00000720,0.00
 000755,-0.00000973,0.00000273,-0.00001138,-0.00000268,0.00000402,-0.00
 000138,0.00001370,-0.00001577,-0.00000236,-0.00001026,0.00000626,0.000
 00732,0.00000397,0.00000036,-0.00000114,0.00000080,-0.00000623,0.00000
 599,0.00000171,-0.00000349,0.00000212,0.00000589,0.00001358,0.00000816
 ,-0.00000211,0.00000057,0.00000137,0.00000560,0.00000009,-0.00000360,0
 .00000122,-0.00000389,0.00000083,0.00000623,0.00000439,0.00000910,0.00
 000364,0.00000338,-0.00000018,0.00001108,-0.00001184,-0.00000099,-0.00
 001625,-0.00000119,-0.00002476,-0.00004208,-0.00008693,-0.00000908,0.0
 0000156,0.00014977,-0.00010529,-0.00120698,0.00053889,-0.01121745,0.00
 081364,-0.00012432,0.00041284,-0.00000640,0.00000520,0.00001469,-0.035
 83860,0.00929448,-0.32012337,-0.00034323,0.00017626,-0.00008651,0.0000
 1269,0.00004400,0.00003735,0.00000178,0.00000107,-0.00000080,-0.000000
 63,-0.00000066,-0.00000041,-0.00000146,0.00000472,-0.00000217,0.000000
 90,-0.00000401,-0.00000483,-0.00000184,-0.00000107,0.,-0.00000009,-0.0
 0000226,-0.00000031,0.00000136,-0.00000070,0.00000066,-0.00000340,0.00
 000022,0.00000427,-0.00000220,-0.00000396,-0.00000129,-0.00000561,0.00
 000888,0.00000319,0.00001367,-0.00000058,-0.00000225,0.00000640,0.0000
 6824,0.00002135,0.00000801,-0.00001131,0.00000092,-0.00000554,0.000002
 71,0.00000027,-0.00005657,-0.00002923,-0.00014176,-0.00000049,-0.00000
 263,-0.00000009,-0.00000822,0.00000470,0.00001878,0.00003231,-0.000010
 72,-0.00000505,-0.00022917,-0.00002383,0.00020899,0.00003416,0.0000064
 2,-0.00003925,0.00000531,0.00000165,-0.00000299,0.00002248,0.00010301,
 -0.00042397,-0.00001150,-0.00001260,0.00000490,0.00000895,0.00000060,-
 0.00001577,-0.00001114,-0.00000382,0.00000607,0.00000143,-0.00000199,-
 0.00001132,0.00000436,0.00000133,-0.00000409,0.00000943,0.00000508,-0.
 00000245,0.00000278,0.00000137,0.00000061,0.00000137,0.00000011,-0.000
 00239,0.00000005,-0.00000071,-0.00000274,-0.00000086,-0.00000060,0.000
 00115,-0.00000281,0.00000139,0.00000192,0.00000044,-0.00000217,0.00000
 043,-0.00000361,-0.00000069,-0.00000079,0.00000658,-0.00000429,-0.0000
 0337,-0.00000260,0.00000293,-0.00000035,0.00000055,0.00000160,-0.00000
 091,-0.00000205,0.00000067,0.00000009,-0.00000055,0.00000115,-0.000000
 38,0.00000211,-0.00000251,0.00000317,0.00000318,-0.00000009,-0.0000011
 9,-0.00000232,-0.00000126,0.00000055,0.00027473,-0.00030052,0.00035580
 ,-0.00003997,0.00011088,-0.00003126,-0.00017264,-0.00001781,-0.0001787
 9,0.00013140,0.00026380,0.00002770,-0.00007004,-0.00001049,0.00003812,
 0.00000739,0.00001105,-0.00012172,0.00011317,0.00004111,-0.00002062,-0
 .00002731,0.00009358,0.00005314,-0.00005134,0.00001427,-0.00000643,0.0
 0000160,-0.00007439,-0.00000889,0.00002916,0.00003130,0.00001470,-0.00
 000532,0.00002531,0.00000045,-0.00000646,-0.00003407,0.00001153,0.0000
 0041,-0.00000147,-0.00000103,0.00002638,0.00000805,-0.00000222,0.00075
 779,-0.00021560,0.00123124,0.00129030,-0.00051679,-0.00396770,-0.00365
 990,-0.00188737,-0.00791070,0.03893222,-0.00545479,0.34193764\\-0.0000
 0058,-0.00000626,-0.00000318,0.00000033,0.00000519,0.00000224,0.000004
 26,0.00000212,0.00000046,0.00000352,0.00000234,-0.00000632,-0.00000132
 ,0.00000146,0.00000064,-0.00000211,-0.00000107,0.00000087,0.00000009,-
 0.00000060,-0.00000093,-0.00000098,0.00000110,-0.00000082,-0.00000003,
 0.00000008,0.00000250,-0.00000257,-0.00000426,0.00000656,-0.00000056,0
 .00000193,-0.00000064,0.00000320,-0.00000187,0.00000162,0.00000227,-0.
 00000123,0.00000315,0.00000131,0.00000093,0.00000181,-0.00000230,-0.00
 000272,-0.00000455,0.00000371,-0.00000349,-0.00000399,-0.00000447,0.00
 000386,-0.00000200,-0.00000103,-0.00000117,0.00000115,0.00000087,0.000
 00170,-0.00000097,0.00000641,-0.00000029,0.00000245,-0.00000293,0.0000
 0054,-0.00000262,0.00000106,-0.00000064,-0.00000206,0.00000010,-0.0000
 0084,-0.00000159,0.00000108,0.00000314,0.00000155,0.00000084,0.0000029
 6,-0.00000212,-0.00000196,-0.00000197,-0.00000153,-0.00000132,0.000000
 87,0.00000004,-0.00000056,-0.00000028,-0.00000277,0.00000301,-0.000002
 61,-0.00000018,0.00000025,0.00000084,-0.00000227,-0.00000146,-0.000000
 60,-0.00000348,-0.00000111,0.00000150,-0.00000417,-0.00000334,0.000000
 28,0.00000155,0.00000015,-0.00000130,-0.00000167,0.00000089,0.00000160
 ,-0.00000370,0.00000487,-0.00000201,-0.00000414,0.00000242,0.00000224,
 0.00000467,0.00000192,-0.00000330,-0.00000182,-0.00000196,-0.00000733,
 0.00000191,-0.00000111,-0.00000243,-0.00000236,-0.00000031,-0.00000006
 ,0.00000112,0.00000390,0.00000268,-0.00000108,0.00000200,0.00000091,-0
 .00000131,0.00000055,0.00000059,0.00000055,-0.00000390,-0.00000279,0.,
 -0.00000204,0.00000637,0.00000112,-0.00000380,-0.00000339,-0.00000045,
 0.00000137,0.00000351,-0.00000111,0.00000329,0.00000308,0.00000166,-0.
 00000102,-0.00000294,-0.00000095,-0.00000020,0.00000050,-0.00000079,-0
 .00000132,-0.00000035,-0.00000025,-0.00000039,-0.00000523,-0.00000169,
 -0.00000196,-0.00000280,0.00000140,0.00000807,0.00000503,0.00000147,-0
 .00000739,0.00000545,0.00000543,0.00000228,0.00000243,0.00000138,-0.00
 000585,0.00000029,0.00000096,-0.00000019,-0.00000239,-0.00000037,0.000
 00064,-0.00000036,0.00000147,-0.00000534,-0.00000169,-0.00000192,-0.00
 000085,0.00000317,0.00000372,-0.00000217,-0.00000163,-0.00000055,-0.00
 000143,-0.00000140,-0.00000243,0.00000322,0.00000186,-0.00000070,0.000
 00209,-0.00000028,0.00000009,0.00000024,0.00000282,0.00000415,-0.00000
 252,-0.00000108,0.00000216,-0.00000567,-0.00000285,-0.00000211,-0.0000
 0071,0.00000214,-0.00000444,-0.00000764,-0.00000290,0.00000061,0.00000
 664,0.00000387,-0.00000558,0.00000239,0.00000257,-0.00000015,-0.000003
 10,0.00000025,0.00000018,-0.00000066,0.00000187,0.00000274,-0.00000552
 ,-0.00000150,-0.00000005,0.00000216,0.00000097,0.00000349,-0.00000686,
 0.00000523,0.00000208,0.00000580,-0.00000398,0.00000088,-0.00000188,0.
 00000204,0.00000379,0.00000335,-0.00000612,0.00000169,-0.00000346,-0.0
 0000380,0.00000501,-0.00000145,0.00000095,0.00000318,0.00000022,-0.000
 00202,0.00000388,-0.00000175,0.00000067,0.00000221,-0.00000125,0.00000
 430,0.00000107,0.00000243,0.00000202,0.00000134,0.00000294,0.00000366,
 -0.00000713,0.00000048,-0.00000042,0.00000181,-0.00000362,-0.00000399,
 0.00000703,0.00000146,-0.00000029,0.00000079,-0.00000175,0.00000167,0.
 00000536,0.00000247,0.00000308,0.00000326,0.00000270,-0.00000173,-0.00
 000005,0.00000569,-0.00000501,-0.00000436,-0.00000286,0.00000378,0.000
 00367,0.00000200,-0.00000188,-0.00000618,0.00000083,-0.00000135,-0.000
 00468,0.00000224,-0.00000225,-0.00000107,-0.00000313,0.00000121,-0.000
 00085,0.00000103,-0.00000161,-0.00000274,0.00000207,-0.00000073,-0.000
 00107,0.00000366,0.00000233,-0.00000214,-0.00000055,0.00000015,-0.0000
 0010,0.00000139,0.00000011,0.00000055,0.00000207,-0.00000121,0.0000017
 4\\\@
 The archive entry for this job was punched.


 IF YOU PERCEIVE THAT THERE ARE FOUR POSSIBLE WAYS IN
 WHICH A PROCEDURE CAN GO WRONG AND CIRCUMVENT THESE, 
 THEN A FIFTH WAY WILL DEVELOP.

                              -- MURPHY'S TWELFTH LAW
 Job cpu time:       1 days 17 hours 25 minutes 48.1 seconds.
 Elapsed time:       0 days  3 hours 29 minutes 25.3 seconds.
 File lengths (MBytes):  RWF=  12725 Int=      0 D2E=      0 Chk=     99 Scr=      1
 Normal termination of Gaussian 16 at Sun Dec 31 00:18:38 2023.
