Unloading slurm/anatra/current
  ERROR: No such file or directory on
    '/cm/local/modulefiles/slurm/anatra/current'
environment: line 0: unalias: gv: not found
environment: line 0: unalias: sl: not found
 Entering Gaussian System, Link 0=g16
 Initial command:
 /apps/gaussian/g16/C.01/g16/l1.exe "/local/jobs/1150731/Gau-77638.inp" -scrdir="/local/jobs/1150731/"
 Entering Link 1 = /apps/gaussian/g16/C.01/g16/l1.exe PID=     77639.
  
 Copyright (c) 1988-2019, Gaussian, Inc.  All Rights Reserved.
  
 This is part of the Gaussian(R) 16 program.  It is based on
 the Gaussian(R) 09 system (copyright 2009, Gaussian, Inc.),
 the Gaussian(R) 03 system (copyright 2003, Gaussian, Inc.),
 the Gaussian(R) 98 system (copyright 1998, Gaussian, Inc.),
 the Gaussian(R) 94 system (copyright 1995, Gaussian, Inc.),
 the Gaussian 92(TM) system (copyright 1992, Gaussian, Inc.),
 the Gaussian 90(TM) system (copyright 1990, Gaussian, Inc.),
 the Gaussian 88(TM) system (copyright 1988, Gaussian, Inc.),
 the Gaussian 86(TM) system (copyright 1986, Carnegie Mellon
 University), and the Gaussian 82(TM) system (copyright 1983,
 Carnegie Mellon University). Gaussian is a federally registered
 trademark of Gaussian, Inc.
  
 This software contains proprietary and confidential information,
 including trade secrets, belonging to Gaussian, Inc.
  
 This software is provided under written license and may be
 used, copied, transmitted, or stored only in accord with that
 written license.
  
 The following legend is applicable only to US Government
 contracts under FAR:
  
                    RESTRICTED RIGHTS LEGEND
  
 Use, reproduction and disclosure by the US Government is
 subject to restrictions as set forth in subparagraphs (a)
 and (c) of the Commercial Computer Software - Restricted
 Rights clause in FAR 52.227-19.
  
 Gaussian, Inc.
 340 Quinnipiac St., Bldg. 40, Wallingford CT 06492
  
  
 ---------------------------------------------------------------
 Warning -- This program may not be used in any manner that
 competes with the business of Gaussian, Inc. or will provide
 assistance to any competitor of Gaussian, Inc.  The licensee
 of this program is prohibited from giving any competitor of
 Gaussian, Inc. access to this program.  By using this program,
 the user acknowledges that Gaussian, Inc. is engaged in the
 business of creating and licensing software in the field of
 computational chemistry and represents and warrants to the
 licensee that it is not a competitor of Gaussian, Inc. and that
 it will not use this program in any manner prohibited above.
 ---------------------------------------------------------------
  

 Cite this work as:
 Gaussian 16, Revision C.01,
 M. J. Frisch, G. W. Trucks, H. B. Schlegel, G. E. Scuseria, 
 M. A. Robb, J. R. Cheeseman, G. Scalmani, V. Barone, 
 G. A. Petersson, H. Nakatsuji, X. Li, M. Caricato, A. V. Marenich, 
 J. Bloino, B. G. Janesko, R. Gomperts, B. Mennucci, H. P. Hratchian, 
 J. V. Ortiz, A. F. Izmaylov, J. L. Sonnenberg, D. Williams-Young, 
 F. Ding, F. Lipparini, F. Egidi, J. Goings, B. Peng, A. Petrone, 
 T. Henderson, D. Ranasinghe, V. G. Zakrzewski, J. Gao, N. Rega, 
 G. Zheng, W. Liang, M. Hada, M. Ehara, K. Toyota, R. Fukuda, 
 J. Hasegawa, M. Ishida, T. Nakajima, Y. Honda, O. Kitao, H. Nakai, 
 T. Vreven, K. Throssell, J. A. Montgomery, Jr., J. E. Peralta, 
 F. Ogliaro, M. J. Bearpark, J. J. Heyd, E. N. Brothers, K. N. Kudin, 
 V. N. Staroverov, T. A. Keith, R. Kobayashi, J. Normand, 
 K. Raghavachari, A. P. Rendell, J. C. Burant, S. S. Iyengar, 
 J. Tomasi, M. Cossi, J. M. Millam, M. Klene, C. Adamo, R. Cammi, 
 J. W. Ochterski, R. L. Martin, K. Morokuma, O. Farkas, 
 J. B. Foresman, and D. J. Fox, Gaussian, Inc., Wallingford CT, 2019.
 
 ******************************************
 Gaussian 16:  ES64L-G16RevC.01  3-Jul-2019
                18-Dec-2023 
 ******************************************
 %chk=BPA_TS_1_sqm.chk
 ----------------------------------------------------------------------
 # wb97xd def2svp geom=allchk scrf=(iefpcm,solvent=toluene) opt=(readfc
 ,ts,noeigen,maxcycles=50,maxstep=10)
 ----------------------------------------------------------------------
 1/5=1,6=50,8=10,10=3,11=1,18=20,26=3,29=7,38=1/1,3;
 2/9=110,12=2,40=1/2;
 3/5=43,7=101,11=2,14=-4,25=1,30=1,70=2201,71=1,72=13,74=-58/1,2,3;
 4//1;
 5/5=2,38=5,53=13/2;
 6/7=2,8=2,9=2,10=2,28=1/1;
 7//1,2,3,16;
 1/5=1,6=50,8=10,11=1,18=20,26=3/3(2);
 2/9=110/2;
 99//99;
 2/9=110/2;
 3/5=43,7=101,11=2,14=-2,25=1,30=1,70=2205,71=1,72=13,74=-58/1,2,3;
 4/5=5,16=3,69=1/1;
 5/5=2,38=5,53=13/2;
 7//1,2,3,16;
 1/5=1,6=50,8=10,11=1,18=20,26=3/3(-5);
 2/9=110/2;
 6/7=2,8=2,9=2,10=2,19=2,28=1/1;
 99/9=1/99;
 Structure from the checkpoint file:  "BPA_TS_1_sqm.chk"
 ----------
 Structure2
 ----------
 Charge =  0 Multiplicity = 1
 Redundant internal coordinates found in file.  (old form).
 C,0,-2.1109,0.6771,-2.7109
 C,0,-1.2138,-0.206,-3.4409
 C,0,-0.7144,-2.4655,-4.5467
 C,0,-2.6062,-3.841,-2.0668
 O,0,0.0658,0.1671,-3.5966
 H,0,-0.6212,-3.3926,-3.9836
 H,0,0.2965,-2.0822,-4.6832
 H,0,-1.1085,-2.711,-5.5331
 O,0,-1.8339,-4.795,-1.9378
 O,0,-3.9059,-3.9096,-2.433
 C,0,-4.5087,-5.1714,-2.6797
 H,0,-4.4771,-5.8017,-1.7894
 H,0,-5.553,-5.0357,-2.9617
 H,0,-4.0028,-5.697,-3.4913
 Si,0,0.7049,1.0568,-4.8686
 C,0,2.3521,0.2678,-5.3043
 H,0,2.7621,0.6978,-6.2169
 H,0,3.0785,0.424,-4.5089
 H,0,2.2455,-0.8045,-5.4594
 C,0,-0.4458,0.9228,-6.3492
 H,0,-0.0683,1.4955,-7.1948
 H,0,-1.4387,1.2988,-6.1057
 H,0,-0.5544,-0.1134,-6.6655
 C,0,0.9502,2.8774,-4.3032
 C,0,1.5076,2.9131,-2.8638
 H,0,1.654,3.9336,-2.5074
 H,0,0.8318,2.4177,-2.165
 H,0,2.4702,2.4051,-2.7916
 C,0,1.9477,3.6051,-5.2313
 H,0,2.9309,3.1331,-5.2159
 H,0,2.0889,4.6457,-4.9346
 H,0,1.6026,3.6087,-6.2663
 C,0,-0.3837,3.655,-4.344
 H,0,-0.2609,4.6865,-4.0109
 H,0,-0.7955,3.6927,-5.3533
 H,0,-1.1396,3.1984,-3.7064
 C,0,-2.1541,-2.3574,-1.8399
 C,0,-1.6276,-1.4406,-3.8613
 C,0,-3.4178,0.4078,-2.4548
 O,0,-2.9582,-1.4762,-1.4402
 H,0,-1.0676,-2.2691,-1.7855
 C,0,-4.2735,1.259,-1.5336
 H,0,-1.6737,1.5489,-2.2467
 H,0,-2.6899,-1.6599,-3.9622
 C,0,1.6965,-3.9361,-1.3588
 C,0,2.4895,-3.2973,-2.3054
 C,0,2.6115,-1.9148,-2.2986
 C,0,1.9474,-1.151,-1.3431
 H,0,1.5893,-5.0116,-1.3795
 H,0,3.0071,-3.8778,-3.0558
 H,0,3.2236,-1.4292,-3.0439
 H,0,2.0403,-0.0754,-1.3741
 C,0,1.0083,-3.1851,-0.3735
 C,0,1.1382,-1.7629,-0.3412
 C,0,0.4372,-1.0189,0.6691
 C,0,-0.4439,-1.7005,1.5318
 C,0,-0.5669,-3.0977,1.4945
 C,0,0.1729,-3.8236,0.5634
 O,0,-1.1944,-0.9821,2.4266
 H,0,0.0809,-4.9,0.5278
 C,0,0.9073,3.2766,0.7367
 C,0,-0.3533,2.717,0.5462
 C,0,-0.5124,1.3251,0.613
 C,0,0.6012,0.4753,0.7763
 H,0,1.0245,4.35,0.6986
 O,0,-1.7589,0.7747,0.4497
 C,0,1.8876,1.0541,1.047
 C,0,2.033,2.4746,1.012
 C,0,3.3024,3.0594,1.2506
 C,0,4.405,2.2606,1.5353
 C,0,4.2746,0.8794,1.5931
 C,0,3.0421,0.2767,1.3578
 H,0,3.408,4.1344,1.219
 H,0,5.3672,2.7159,1.7223
 H,0,5.1351,0.2684,1.8261
 H,0,2.962,-0.7988,1.4178
 C,0,-3.2202,-5.2088,4.1199
 C,0,-2.3609,-4.2434,4.6378
 C,0,-1.4996,-3.5585,3.7846
 C,0,-1.4904,-3.829,2.4108
 C,0,-2.3631,-4.8028,1.907
 C,0,-3.2253,-5.4915,2.7566
 H,0,-3.8929,-5.7364,4.7807
 H,0,-2.3655,-4.0191,5.6946
 H,0,-0.8405,-2.8049,4.1921
 H,0,-2.3827,-5.0205,0.8488
 H,0,-3.8994,-6.2357,2.3585
 P,0,-2.3205,-0.0239,1.7499
 O,0,-3.0216,0.841,2.7326
 O,0,-3.3061,-1.0878,1.0527
 H,0,-3.2459,-1.036,0.0711
 C,0,-3.6387,5.3144,-0.3383
 C,0,-3.6651,4.541,0.8195
 C,0,-2.5936,3.7015,1.112
 C,0,-1.496,3.6225,0.2498
 C,0,-1.4768,4.418,-0.9008
 C,0,-2.5459,5.2588,-1.1999
 H,0,-4.4715,5.9638,-0.5668
 H,0,-4.5104,4.5863,1.4912
 H,0,-2.6161,3.115,2.0178
 H,0,-0.6327,4.3743,-1.5716
 H,0,-2.5281,5.8616,-2.0961
 H,0,-3.9807,-0.3607,-2.9761
 H,0,-4.6501,0.6634,-0.702
 H,0,-3.707,2.0912,-1.1139
 H,0,-5.1234,1.6712,-2.0767
 Recover connectivity data from disk.

 GradGradGradGradGradGradGradGradGradGradGradGradGradGradGradGradGradGrad
 Berny optimization.
 Initialization pass.
 Force constant matrix read from checkpoint file:
 "BPA_TS_1_sqm.chk"
                           ----------------------------
                           !    Initial Parameters    !
                           ! (Angstroms and Degrees)  !
 --------------------------                            --------------------------
 ! Name  Definition              Value          Derivative Info.                !
 --------------------------------------------------------------------------------
 ! R1    R(1,2)                  1.4552         D2E/DX2 =    0.3623             !
 ! R2    R(1,39)                 1.3587         D2E/DX2 =    0.5583             !
 ! R3    R(1,43)                 1.0801         D2E/DX2 =    0.2788             !
 ! R4    R(2,5)                  1.3419         D2E/DX2 =    0.4831             !
 ! R5    R(2,38)                 1.3683         D2E/DX2 =    0.5357             !
 ! R6    R(3,6)                  1.0887         D2E/DX2 =    0.2682             !
 ! R7    R(3,7)                  1.0897         D2E/DX2 =    0.2698             !
 ! R8    R(3,8)                  1.0902         D2E/DX2 =    0.2697             !
 ! R9    R(3,38)                 1.5343         D2E/DX2 =    0.3394             !
 ! R10   R(4,9)                  1.2342         D2E/DX2 =    0.7506             !
 ! R11   R(4,10)                 1.352          D2E/DX2 =    0.4384             !
 ! R12   R(4,37)                 1.5675         D2E/DX2 =    0.2578             !
 ! R13   R(5,15)                 1.6787         D2E/DX2 =    0.2642             !
 ! R14   R(10,11)                1.42           D2E/DX2 =    0.4118             !
 ! R15   R(11,12)                1.0913         D2E/DX2 =    0.2656             !
 ! R16   R(11,13)                1.0902         D2E/DX2 =    0.2663             !
 ! R17   R(11,14)                1.0913         D2E/DX2 =    0.2654             !
 ! R18   R(15,16)                1.8777         D2E/DX2 =    0.2145             !
 ! R19   R(15,20)                1.88           D2E/DX2 =    0.2122             !
 ! R20   R(15,24)                1.9221         D2E/DX2 =    0.198              !
 ! R21   R(16,17)                1.089          D2E/DX2 =    0.2686             !
 ! R22   R(16,18)                1.0884         D2E/DX2 =    0.269              !
 ! R23   R(16,19)                1.0887         D2E/DX2 =    0.2688             !
 ! R24   R(20,21)                1.0888         D2E/DX2 =    0.2685             !
 ! R25   R(20,22)                1.0893         D2E/DX2 =    0.2686             !
 ! R26   R(20,23)                1.0888         D2E/DX2 =    0.2689             !
 ! R27   R(24,25)                1.544          D2E/DX2 =    0.3466             !
 ! R28   R(24,29)                1.5446         D2E/DX2 =    0.345              !
 ! R29   R(24,33)                1.5445         D2E/DX2 =    0.3453             !
 ! R30   R(25,26)                1.0908         D2E/DX2 =    0.2689             !
 ! R31   R(25,27)                1.0911         D2E/DX2 =    0.2689             !
 ! R32   R(25,28)                1.0908         D2E/DX2 =    0.2698             !
 ! R33   R(29,30)                1.0907         D2E/DX2 =    0.2697             !
 ! R34   R(29,31)                1.0912         D2E/DX2 =    0.2689             !
 ! R35   R(29,32)                1.091          D2E/DX2 =    0.2694             !
 ! R36   R(33,34)                1.0909         D2E/DX2 =    0.269              !
 ! R37   R(33,35)                1.0907         D2E/DX2 =    0.2698             !
 ! R38   R(33,36)                1.0892         D2E/DX2 =    0.2693             !
 ! R39   R(37,38)                2.2812         D2E/DX2 =    0.004              !
 ! R40   R(37,40)                1.2581         D2E/DX2 =    0.5603             !
 ! R41   R(37,41)                1.0914         D2E/DX2 =    0.1725             !
 ! R42   R(37,44)                2.2973         D2E/DX2 =    0.0141             !
 ! R43   R(38,41)                2.3041         D2E/DX2 =    0.0168             !
 ! R44   R(38,44)                1.0894         D2E/DX2 =    0.1825             !
 ! R45   R(39,40)                2.1886         D2E/DX2 =    0.018              !
 ! R46   R(39,42)                1.5183         D2E/DX2 =    0.3567             !
 ! R47   R(39,103)               1.0859         D2E/DX2 =    0.1837             !
 ! R48   R(40,91)                1.6002         D2E/DX2 =    0.0543             !
 ! R49   R(40,103)               2.1561         D2E/DX2 =    0.0112             !
 ! R50   R(42,104)               1.09           D2E/DX2 =    0.2697             !
 ! R51   R(42,105)               1.0907         D2E/DX2 =    0.2693             !
 ! R52   R(42,106)               1.0896         D2E/DX2 =    0.2702             !
 ! R53   R(45,46)                1.3903         D2E/DX2 =    0.4862             !
 ! R54   R(45,49)                1.081          D2E/DX2 =    0.2764             !
 ! R55   R(45,53)                1.4172         D2E/DX2 =    0.436              !
 ! R56   R(46,47)                1.3879         D2E/DX2 =    0.4903             !
 ! R57   R(46,50)                1.0807         D2E/DX2 =    0.2783             !
 ! R58   R(47,48)                1.3919         D2E/DX2 =    0.4801             !
 ! R59   R(47,51)                1.0798         D2E/DX2 =    0.2783             !
 ! R60   R(48,52)                1.08           D2E/DX2 =    0.2763             !
 ! R61   R(48,54)                1.4258         D2E/DX2 =    0.4131             !
 ! R62   R(53,54)                1.4285         D2E/DX2 =    0.3467             !
 ! R63   R(53,58)                1.4083         D2E/DX2 =    0.4539             !
 ! R64   R(54,55)                1.4372         D2E/DX2 =    0.402              !
 ! R65   R(55,56)                1.409          D2E/DX2 =    0.3755             !
 ! R66   R(55,64)                1.507          D2E/DX2 =    0.3143             !
 ! R67   R(56,57)                1.4031         D2E/DX2 =    0.4607             !
 ! R68   R(56,59)                1.3711         D2E/DX2 =    0.3991             !
 ! R69   R(57,58)                1.3933         D2E/DX2 =    0.4837             !
 ! R70   R(57,80)                1.4924         D2E/DX2 =    0.3897             !
 ! R71   R(58,60)                1.0809         D2E/DX2 =    0.2768             !
 ! R72   R(59,88)                1.6261         D2E/DX2 =    0.314              !
 ! R73   R(61,62)                1.3923         D2E/DX2 =    0.4846             !
 ! R74   R(61,65)                1.0805         D2E/DX2 =    0.2772             !
 ! R75   R(61,68)                1.4093         D2E/DX2 =    0.4512             !
 ! R76   R(62,63)                1.4026         D2E/DX2 =    0.4659             !
 ! R77   R(62,95)                1.4878         D2E/DX2 =    0.4024             !
 ! R78   R(63,64)                1.4103         D2E/DX2 =    0.3738             !
 ! R79   R(63,66)                1.3724         D2E/DX2 =    0.3976             !
 ! R80   R(64,67)                1.4364         D2E/DX2 =    0.4024             !
 ! R81   R(66,88)                1.6259         D2E/DX2 =    0.3231             !
 ! R82   R(67,68)                1.4284         D2E/DX2 =    0.3467             !
 ! R83   R(67,72)                1.4261         D2E/DX2 =    0.4125             !
 ! R84   R(68,69)                1.4178         D2E/DX2 =    0.4346             !
 ! R85   R(69,70)                1.391          D2E/DX2 =    0.4845             !
 ! R86   R(69,73)                1.0806         D2E/DX2 =    0.2766             !
 ! R87   R(70,71)                1.3885         D2E/DX2 =    0.4886             !
 ! R88   R(70,74)                1.0808         D2E/DX2 =    0.2782             !
 ! R89   R(71,72)                1.392          D2E/DX2 =    0.4802             !
 ! R90   R(71,75)                1.0808         D2E/DX2 =    0.278              !
 ! R91   R(72,76)                1.0801         D2E/DX2 =    0.2763             !
 ! R92   R(77,78)                1.3923         D2E/DX2 =    0.4803             !
 ! R93   R(77,82)                1.3923         D2E/DX2 =    0.4806             !
 ! R94   R(77,83)                1.0805         D2E/DX2 =    0.2782             !
 ! R95   R(78,79)                1.3924         D2E/DX2 =    0.4789             !
 ! R96   R(78,84)                1.0804         D2E/DX2 =    0.278              !
 ! R97   R(79,80)                1.4002         D2E/DX2 =    0.4644             !
 ! R98   R(79,85)                1.0809         D2E/DX2 =    0.2777             !
 ! R99   R(80,81)                1.4013         D2E/DX2 =    0.4628             !
 ! R100  R(81,82)                1.3927         D2E/DX2 =    0.4793             !
 ! R101  R(81,86)                1.0805         D2E/DX2 =    0.277              !
 ! R102  R(82,87)                1.0802         D2E/DX2 =    0.2781             !
 ! R103  R(88,89)                1.485          D2E/DX2 =    0.5786             !
 ! R104  R(88,90)                1.6092         D2E/DX2 =    0.417              !
 ! R105  R(90,91)                0.9848         D2E/DX2 =    0.2329             !
 ! R106  R(92,93)                1.3926         D2E/DX2 =    0.4794             !
 ! R107  R(92,97)                1.3927         D2E/DX2 =    0.4798             !
 ! R108  R(92,98)                1.0805         D2E/DX2 =    0.2782             !
 ! R109  R(93,94)                1.3923         D2E/DX2 =    0.4793             !
 ! R110  R(93,99)                1.0806         D2E/DX2 =    0.2778             !
 ! R111  R(94,95)                1.398          D2E/DX2 =    0.469              !
 ! R112  R(94,100)               1.0793         D2E/DX2 =    0.2761             !
 ! R113  R(95,96)                1.399          D2E/DX2 =    0.4693             !
 ! R114  R(96,97)                1.3926         D2E/DX2 =    0.4796             !
 ! R115  R(96,101)               1.0791         D2E/DX2 =    0.278              !
 ! R116  R(97,102)               1.0802         D2E/DX2 =    0.2779             !
 ! A1    A(2,1,39)             124.5588         D2E/DX2 =    0.0489             !
 ! A2    A(2,1,43)             117.1216         D2E/DX2 =    0.0697             !
 ! A3    A(39,1,43)            117.9243         D2E/DX2 =    0.0734             !
 ! A4    A(1,2,5)              118.5107         D2E/DX2 =    0.1456             !
 ! A5    A(1,2,38)             121.0152         D2E/DX2 =    0.0541             !
 ! A6    A(5,2,38)             120.2377         D2E/DX2 =    0.1528             !
 ! A7    A(6,3,7)              106.5532         D2E/DX2 =    0.0419             !
 ! A8    A(6,3,8)              107.8878         D2E/DX2 =    0.0397             !
 ! A9    A(6,3,38)             112.8756         D2E/DX2 =    0.0891             !
 ! A10   A(7,3,8)              107.5307         D2E/DX2 =    0.0389             !
 ! A11   A(7,3,38)             111.9091         D2E/DX2 =    0.0926             !
 ! A12   A(8,3,38)             109.843          D2E/DX2 =    0.0857             !
 ! A13   A(9,4,10)             126.2012         D2E/DX2 =    0.112              !
 ! A14   A(9,4,37)             122.4123         D2E/DX2 =    0.0885             !
 ! A15   A(10,4,37)            111.3763         D2E/DX2 =    0.0865             !
 ! A16   A(2,5,15)             126.748          D2E/DX2 =    0.1117             !
 ! A17   A(4,10,11)            120.0143         D2E/DX2 =    0.21               !
 ! A18   A(10,11,12)           111.0513         D2E/DX2 =    0.1119             !
 ! A19   A(10,11,13)           109.9363         D2E/DX2 =    0.1007             !
 ! A20   A(10,11,14)           111.1244         D2E/DX2 =    0.1118             !
 ! A21   A(12,11,13)           108.0991         D2E/DX2 =    0.0513             !
 ! A22   A(12,11,14)           108.3691         D2E/DX2 =    0.0514             !
 ! A23   A(13,11,14)           108.1585         D2E/DX2 =    0.0515             !
 ! A24   A(5,15,16)            106.6848         D2E/DX2 =    0.0158             !
 ! A25   A(5,15,20)            109.0238         D2E/DX2 =    0.0162             !
 ! A26   A(5,15,24)            109.1295         D2E/DX2 =    0.0173             !
 ! A27   A(16,15,20)           108.9207         D2E/DX2 =    0.025              !
 ! A28   A(16,15,24)           110.7515         D2E/DX2 =    0.0285             !
 ! A29   A(20,15,24)           112.1666         D2E/DX2 =    0.0267             !
 ! A30   A(15,16,17)           111.0284         D2E/DX2 =    0.0487             !
 ! A31   A(15,16,18)           110.8295         D2E/DX2 =    0.0497             !
 ! A32   A(15,16,19)           111.1639         D2E/DX2 =    0.0501             !
 ! A33   A(17,16,18)           107.7268         D2E/DX2 =    0.0324             !
 ! A34   A(17,16,19)           107.8424         D2E/DX2 =    0.0329             !
 ! A35   A(18,16,19)           108.1075         D2E/DX2 =    0.0332             !
 ! A36   A(15,20,21)           111.2193         D2E/DX2 =    0.0475             !
 ! A37   A(15,20,22)           110.9328         D2E/DX2 =    0.0506             !
 ! A38   A(15,20,23)           110.9571         D2E/DX2 =    0.0497             !
 ! A39   A(21,20,22)           107.9434         D2E/DX2 =    0.0327             !
 ! A40   A(21,20,23)           108.0311         D2E/DX2 =    0.0326             !
 ! A41   A(22,20,23)           107.6091         D2E/DX2 =    0.0327             !
 ! A42   A(15,24,25)           110.0116         D2E/DX2 =    0.018              !
 ! A43   A(15,24,29)           110.6039         D2E/DX2 =    0.018              !
 ! A44   A(15,24,33)           111.0314         D2E/DX2 =    0.0191             !
 ! A45   A(25,24,29)           108.4288         D2E/DX2 =    0.0251             !
 ! A46   A(25,24,33)           108.9515         D2E/DX2 =    0.0256             !
 ! A47   A(29,24,33)           107.7375         D2E/DX2 =    0.0261             !
 ! A48   A(24,25,26)           112.0048         D2E/DX2 =    0.0896             !
 ! A49   A(24,25,27)           111.2835         D2E/DX2 =    0.0924             !
 ! A50   A(24,25,28)           111.6861         D2E/DX2 =    0.0919             !
 ! A51   A(26,25,27)           107.3765         D2E/DX2 =    0.0422             !
 ! A52   A(26,25,28)           107.195          D2E/DX2 =    0.0424             !
 ! A53   A(27,25,28)           107.0221         D2E/DX2 =    0.0416             !
 ! A54   A(24,29,30)           111.701          D2E/DX2 =    0.0922             !
 ! A55   A(24,29,31)           111.6812         D2E/DX2 =    0.0905             !
 ! A56   A(24,29,32)           111.5483         D2E/DX2 =    0.0911             !
 ! A57   A(30,29,31)           106.9883         D2E/DX2 =    0.0422             !
 ! A58   A(30,29,32)           107.4543         D2E/DX2 =    0.0419             !
 ! A59   A(31,29,32)           107.2002         D2E/DX2 =    0.0419             !
 ! A60   A(24,33,34)           111.7625         D2E/DX2 =    0.09               !
 ! A61   A(24,33,35)           111.5863         D2E/DX2 =    0.0919             !
 ! A62   A(24,33,36)           111.8902         D2E/DX2 =    0.0908             !
 ! A63   A(34,33,35)           106.9999         D2E/DX2 =    0.0421             !
 ! A64   A(34,33,36)           107.203          D2E/DX2 =    0.0423             !
 ! A65   A(35,33,36)           107.1066         D2E/DX2 =    0.0418             !
 ! A66   A(4,37,38)            108.5839         D2E/DX2 =    0.0084             !
 ! A67   A(4,37,40)            121.6403         D2E/DX2 =    0.035              !
 ! A68   A(4,37,41)            111.7718         D2E/DX2 =    0.041              !
 ! A69   A(4,37,44)             94.9549         D2E/DX2 =    0.0076             !
 ! A70   A(38,37,40)            98.4842         D2E/DX2 =    0.0125             !
 ! A71   A(40,37,41)           124.3148         D2E/DX2 =    0.0422             !
 ! A72   A(40,37,44)            86.088          D2E/DX2 =    0.0099             !
 ! A73   A(41,37,44)           104.6938         D2E/DX2 =    0.0056             !
 ! A74   A(2,38,3)             124.0541         D2E/DX2 =    0.0394             !
 ! A75   A(2,38,37)             99.217          D2E/DX2 =    0.013              !
 ! A76   A(2,38,41)             88.5182         D2E/DX2 =    0.0095             !
 ! A77   A(2,38,44)            120.3314         D2E/DX2 =    0.045              !
 ! A78   A(3,38,37)            105.3521         D2E/DX2 =    0.0131             !
 ! A79   A(3,38,41)             91.0086         D2E/DX2 =    0.0108             !
 ! A80   A(3,38,44)            113.8624         D2E/DX2 =    0.046              !
 ! A81   A(41,38,44)           104.3627         D2E/DX2 =    0.0055             !
 ! A82   A(1,39,40)             93.2106         D2E/DX2 =    0.0151             !
 ! A83   A(1,39,42)            123.047          D2E/DX2 =    0.0348             !
 ! A84   A(1,39,103)           123.2562         D2E/DX2 =    0.0474             !
 ! A85   A(40,39,42)           108.6429         D2E/DX2 =    0.0099             !
 ! A86   A(42,39,103)          113.3198         D2E/DX2 =    0.048              !
 ! A87   A(37,40,39)           126.1472         D2E/DX2 =    0.0194             !
 ! A88   A(37,40,91)           127.4192         D2E/DX2 =    0.0253             !
 ! A89   A(37,40,103)          116.05           D2E/DX2 =    0.0165             !
 ! A90   A(39,40,91)            99.3967         D2E/DX2 =    0.028              !
 ! A91   A(91,40,103)          116.4356         D2E/DX2 =    0.0205             !
 ! A92   A(39,42,104)          110.5648         D2E/DX2 =    0.0831             !
 ! A93   A(39,42,105)          111.6225         D2E/DX2 =    0.0972             !
 ! A94   A(39,42,106)          110.4427         D2E/DX2 =    0.0858             !
 ! A95   A(104,42,105)         107.6252         D2E/DX2 =    0.0407             !
 ! A96   A(104,42,106)         108.5115         D2E/DX2 =    0.0387             !
 ! A97   A(105,42,106)         107.9562         D2E/DX2 =    0.041              !
 ! A98   A(46,45,49)           120.0423         D2E/DX2 =    0.0776             !
 ! A99   A(46,45,53)           120.455          D2E/DX2 =    0.0747             !
 ! A100  A(49,45,53)           119.4964         D2E/DX2 =    0.0779             !
 ! A101  A(45,46,47)           120.2971         D2E/DX2 =    0.0739             !
 ! A102  A(45,46,50)           119.942          D2E/DX2 =    0.0763             !
 ! A103  A(47,46,50)           119.7588         D2E/DX2 =    0.0764             !
 ! A104  A(46,47,48)           120.5332         D2E/DX2 =    0.0742             !
 ! A105  A(46,47,51)           119.6314         D2E/DX2 =    0.0766             !
 ! A106  A(48,47,51)           119.8349         D2E/DX2 =    0.0763             !
 ! A107  A(47,48,52)           119.0611         D2E/DX2 =    0.0809             !
 ! A108  A(47,48,54)           121.1743         D2E/DX2 =    0.0753             !
 ! A109  A(52,48,54)           119.7598         D2E/DX2 =    0.079              !
 ! A110  A(45,53,54)           119.9438         D2E/DX2 =    0.0748             !
 ! A111  A(45,53,58)           120.6855         D2E/DX2 =    0.1002             !
 ! A112  A(54,53,58)           119.3592         D2E/DX2 =    0.0727             !
 ! A113  A(48,54,53)           117.5796         D2E/DX2 =    0.0767             !
 ! A114  A(48,54,55)           123.2705         D2E/DX2 =    0.1022             !
 ! A115  A(53,54,55)           119.1386         D2E/DX2 =    0.0717             !
 ! A116  A(54,55,56)           119.0124         D2E/DX2 =    0.0716             !
 ! A117  A(54,55,64)           120.6766         D2E/DX2 =    0.0992             !
 ! A118  A(56,55,64)           120.2752         D2E/DX2 =    0.074              !
 ! A119  A(55,56,57)           121.3504         D2E/DX2 =    0.0707             !
 ! A120  A(55,56,59)           119.2361         D2E/DX2 =    0.0753             !
 ! A121  A(57,56,59)           119.4134         D2E/DX2 =    0.1008             !
 ! A122  A(56,57,58)           119.3429         D2E/DX2 =    0.074              !
 ! A123  A(56,57,80)           121.7275         D2E/DX2 =    0.1036             !
 ! A124  A(58,57,80)           118.9198         D2E/DX2 =    0.1073             !
 ! A125  A(53,58,57)           121.5571         D2E/DX2 =    0.0728             !
 ! A126  A(53,58,60)           118.6896         D2E/DX2 =    0.0805             !
 ! A127  A(57,58,60)           119.7126         D2E/DX2 =    0.0803             !
 ! A128  A(56,59,88)           114.5961         D2E/DX2 =    0.1185             !
 ! A129  A(62,61,65)           119.517          D2E/DX2 =    0.0802             !
 ! A130  A(62,61,68)           121.4124         D2E/DX2 =    0.0733             !
 ! A131  A(65,61,68)           119.0517         D2E/DX2 =    0.0798             !
 ! A132  A(61,62,63)           119.6733         D2E/DX2 =    0.0736             !
 ! A133  A(61,62,95)           118.5568         D2E/DX2 =    0.1131             !
 ! A134  A(63,62,95)           121.7597         D2E/DX2 =    0.1123             !
 ! A135  A(62,63,64)           120.9263         D2E/DX2 =    0.0722             !
 ! A136  A(62,63,66)           119.6948         D2E/DX2 =    0.1071             !
 ! A137  A(64,63,66)           119.2957         D2E/DX2 =    0.079              !
 ! A138  A(55,64,63)           120.2177         D2E/DX2 =    0.0759             !
 ! A139  A(55,64,67)           120.6915         D2E/DX2 =    0.1016             !
 ! A140  A(63,64,67)           119.0908         D2E/DX2 =    0.0708             !
 ! A141  A(63,66,88)           114.5544         D2E/DX2 =    0.0912             !
 ! A142  A(64,67,68)           119.1633         D2E/DX2 =    0.0715             !
 ! A143  A(64,67,72)           123.1227         D2E/DX2 =    0.1012             !
 ! A144  A(68,67,72)           117.7136         D2E/DX2 =    0.0761             !
 ! A145  A(61,68,67)           119.3022         D2E/DX2 =    0.0727             !
 ! A146  A(61,68,69)           120.8825         D2E/DX2 =    0.0992             !
 ! A147  A(67,68,69)           119.8151         D2E/DX2 =    0.0744             !
 ! A148  A(68,69,70)           120.4816         D2E/DX2 =    0.0747             !
 ! A149  A(68,69,73)           119.5295         D2E/DX2 =    0.078              !
 ! A150  A(70,69,73)           119.9865         D2E/DX2 =    0.0779             !
 ! A151  A(69,70,71)           120.3517         D2E/DX2 =    0.074              !
 ! A152  A(69,70,74)           119.9465         D2E/DX2 =    0.0763             !
 ! A153  A(71,70,74)           119.6991         D2E/DX2 =    0.0765             !
 ! A154  A(70,71,72)           120.4507         D2E/DX2 =    0.0742             !
 ! A155  A(70,71,75)           119.7719         D2E/DX2 =    0.0765             !
 ! A156  A(72,71,75)           119.777          D2E/DX2 =    0.0765             !
 ! A157  A(67,72,71)           121.1712         D2E/DX2 =    0.0752             !
 ! A158  A(67,72,76)           119.6594         D2E/DX2 =    0.0786             !
 ! A159  A(71,72,76)           119.1686         D2E/DX2 =    0.0804             !
 ! A160  A(78,77,82)           120.4813         D2E/DX2 =    0.0771             !
 ! A161  A(78,77,83)           119.6898         D2E/DX2 =    0.0772             !
 ! A162  A(82,77,83)           119.8273         D2E/DX2 =    0.0771             !
 ! A163  A(77,78,79)           119.6618         D2E/DX2 =    0.0771             !
 ! A164  A(77,78,84)           120.3434         D2E/DX2 =    0.0765             !
 ! A165  A(79,78,84)           119.993          D2E/DX2 =    0.0767             !
 ! A166  A(78,79,80)           120.6788         D2E/DX2 =    0.0778             !
 ! A167  A(78,79,85)           119.2813         D2E/DX2 =    0.0789             !
 ! A168  A(80,79,85)           120.0374         D2E/DX2 =    0.0789             !
 ! A169  A(57,80,79)           120.7838         D2E/DX2 =    0.1077             !
 ! A170  A(57,80,81)           120.3416         D2E/DX2 =    0.1092             !
 ! A171  A(79,80,81)           118.8745         D2E/DX2 =    0.0803             !
 ! A172  A(80,81,82)           120.6559         D2E/DX2 =    0.0778             !
 ! A173  A(80,81,86)           120.2244         D2E/DX2 =    0.0793             !
 ! A174  A(82,81,86)           119.1159         D2E/DX2 =    0.0794             !
 ! A175  A(77,82,81)           119.6476         D2E/DX2 =    0.0773             !
 ! A176  A(77,82,87)           120.2025         D2E/DX2 =    0.0767             !
 ! A177  A(81,82,87)           120.1483         D2E/DX2 =    0.0767             !
 ! A178  A(59,88,66)           112.5202         D2E/DX2 =    0.0399             !
 ! A179  A(59,88,89)           113.2511         D2E/DX2 =    0.0429             !
 ! A180  A(59,88,90)           102.4082         D2E/DX2 =    0.0918             !
 ! A181  A(66,88,89)           113.9649         D2E/DX2 =    0.0478             !
 ! A182  A(66,88,90)           100.9423         D2E/DX2 =    0.0986             !
 ! A183  A(89,88,90)           112.4956         D2E/DX2 =    0.0708             !
 ! A184  A(88,90,91)           111.0783         D2E/DX2 =    0.6642             !
 ! A185  A(40,91,90)           159.702          D2E/DX2 =    0.2657             !
 ! A186  A(93,92,97)           120.467          D2E/DX2 =    0.0774             !
 ! A187  A(93,92,98)           119.6691         D2E/DX2 =    0.0772             !
 ! A188  A(97,92,98)           119.8637         D2E/DX2 =    0.0771             !
 ! A189  A(92,93,94)           119.666          D2E/DX2 =    0.0772             !
 ! A190  A(92,93,99)           120.5524         D2E/DX2 =    0.0763             !
 ! A191  A(94,93,99)           119.7816         D2E/DX2 =    0.0769             !
 ! A192  A(93,94,95)           120.5801         D2E/DX2 =    0.0776             !
 ! A193  A(93,94,100)          119.2036         D2E/DX2 =    0.0799             !
 ! A194  A(95,94,100)          120.215          D2E/DX2 =    0.0796             !
 ! A195  A(62,95,94)           120.9669         D2E/DX2 =    0.1119             !
 ! A196  A(62,95,96)           119.96           D2E/DX2 =    0.1106             !
 ! A197  A(94,95,96)           119.0713         D2E/DX2 =    0.0805             !
 ! A198  A(95,96,97)           120.6259         D2E/DX2 =    0.0782             !
 ! A199  A(95,96,101)          119.9336         D2E/DX2 =    0.0792             !
 ! A200  A(97,96,101)          119.4367         D2E/DX2 =    0.0789             !
 ! A201  A(92,97,96)           119.5778         D2E/DX2 =    0.0774             !
 ! A202  A(92,97,102)          120.2592         D2E/DX2 =    0.0766             !
 ! A203  A(96,97,102)          120.1627         D2E/DX2 =    0.0766             !
 ! D1    D(39,1,2,5)          -178.4061         D2E/DX2 =    0.0091             !
 ! D2    D(39,1,2,38)           -3.9796         D2E/DX2 =    0.0046             !
 ! D3    D(43,1,2,5)            -5.7939         D2E/DX2 =    0.007              !
 ! D4    D(43,1,2,38)          168.6326         D2E/DX2 =    0.0051             !
 ! D5    D(2,1,39,40)           56.7304         D2E/DX2 =    0.008              !
 ! D6    D(2,1,39,42)          171.4677         D2E/DX2 =    0.01               !
 ! D7    D(2,1,39,103)         -16.0556         D2E/DX2 =    0.0066             !
 ! D8    D(43,1,39,40)        -115.8273         D2E/DX2 =    0.005              !
 ! D9    D(43,1,39,42)          -1.0901         D2E/DX2 =    0.0074             !
 ! D10   D(43,1,39,103)        171.3867         D2E/DX2 =    0.0065             !
 ! D11   D(1,2,5,15)           -90.6192         D2E/DX2 =    0.0301             !
 ! D12   D(38,2,5,15)           94.9096         D2E/DX2 =    0.0293             !
 ! D13   D(1,2,38,3)          -175.4908         D2E/DX2 =    0.009              !
 ! D14   D(1,2,38,37)          -59.807          D2E/DX2 =    0.007              !
 ! D15   D(1,2,38,41)          -85.2748         D2E/DX2 =    0.0114             !
 ! D16   D(1,2,38,44)           20.5299         D2E/DX2 =    0.0058             !
 ! D17   D(5,2,38,3)            -1.16           D2E/DX2 =    0.0073             !
 ! D18   D(5,2,38,37)          114.5238         D2E/DX2 =    0.0069             !
 ! D19   D(5,2,38,41)           89.056          D2E/DX2 =    0.0099             !
 ! D20   D(5,2,38,44)         -165.1392         D2E/DX2 =    0.0074             !
 ! D21   D(6,3,38,2)           118.6402         D2E/DX2 =    0.0066             !
 ! D22   D(6,3,38,37)            5.9317         D2E/DX2 =    0.0065             !
 ! D23   D(6,3,38,41)           29.7471         D2E/DX2 =    0.0074             !
 ! D24   D(6,3,38,44)          -76.458          D2E/DX2 =    0.006              !
 ! D25   D(7,3,38,2)            -1.5574         D2E/DX2 =    0.0066             !
 ! D26   D(7,3,38,37)         -114.2659         D2E/DX2 =    0.0066             !
 ! D27   D(7,3,38,41)          -90.4505         D2E/DX2 =    0.0074             !
 ! D28   D(7,3,38,44)          163.3444         D2E/DX2 =    0.0062             !
 ! D29   D(8,3,38,2)          -120.9174         D2E/DX2 =    0.0069             !
 ! D30   D(8,3,38,37)          126.3742         D2E/DX2 =    0.0069             !
 ! D31   D(8,3,38,41)          150.1895         D2E/DX2 =    0.0074             !
 ! D32   D(8,3,38,44)           43.9845         D2E/DX2 =    0.0058             !
 ! D33   D(9,4,10,11)            1.463          D2E/DX2 =    0.0099             !
 ! D34   D(37,4,10,11)        -179.6865         D2E/DX2 =    0.0116             !
 ! D35   D(9,4,37,38)           96.316          D2E/DX2 =    0.0057             !
 ! D36   D(9,4,37,40)         -150.7294         D2E/DX2 =    0.0049             !
 ! D37   D(9,4,37,41)           12.8325         D2E/DX2 =    0.0057             !
 ! D38   D(9,4,37,44)          120.8187         D2E/DX2 =    0.0064             !
 ! D39   D(10,4,37,38)         -82.5852         D2E/DX2 =    0.0056             !
 ! D40   D(10,4,37,40)          30.3694         D2E/DX2 =    0.0051             !
 ! D41   D(10,4,37,41)        -166.0687         D2E/DX2 =    0.0044             !
 ! D42   D(10,4,37,44)         -58.0825         D2E/DX2 =    0.0061             !
 ! D43   D(2,5,15,16)         -138.4965         D2E/DX2 =    0.0126             !
 ! D44   D(2,5,15,20)          -21.0184         D2E/DX2 =    0.0117             !
 ! D45   D(2,5,15,24)          101.8028         D2E/DX2 =    0.0154             !
 ! D46   D(4,10,11,12)          60.3987         D2E/DX2 =    0.0188             !
 ! D47   D(4,10,11,13)         179.983          D2E/DX2 =    0.0216             !
 ! D48   D(4,10,11,14)         -60.312          D2E/DX2 =    0.019              !
 ! D49   D(5,15,16,17)         171.6442         D2E/DX2 =    0.0093             !
 ! D50   D(5,15,16,18)         -68.6681         D2E/DX2 =    0.0095             !
 ! D51   D(5,15,16,19)          51.5889         D2E/DX2 =    0.0096             !
 ! D52   D(20,15,16,17)         54.098          D2E/DX2 =    0.0101             !
 ! D53   D(20,15,16,18)        173.7857         D2E/DX2 =    0.0096             !
 ! D54   D(20,15,16,19)        -65.9573         D2E/DX2 =    0.0098             !
 ! D55   D(24,15,16,17)        -69.7091         D2E/DX2 =    0.01               !
 ! D56   D(24,15,16,18)         49.9786         D2E/DX2 =    0.0099             !
 ! D57   D(24,15,16,19)        170.2355         D2E/DX2 =    0.0097             !
 ! D58   D(5,15,20,21)         179.522          D2E/DX2 =    0.0092             !
 ! D59   D(5,15,20,22)          59.3661         D2E/DX2 =    0.0095             !
 ! D60   D(5,15,20,23)         -60.1949         D2E/DX2 =    0.0095             !
 ! D61   D(16,15,20,21)        -64.4234         D2E/DX2 =    0.0102             !
 ! D62   D(16,15,20,22)        175.4207         D2E/DX2 =    0.0099             !
 ! D63   D(16,15,20,23)         55.8597         D2E/DX2 =    0.0102             !
 ! D64   D(24,15,20,21)         58.5396         D2E/DX2 =    0.0101             !
 ! D65   D(24,15,20,22)        -61.6163         D2E/DX2 =    0.0102             !
 ! D66   D(24,15,20,23)        178.8227         D2E/DX2 =    0.0099             !
 ! D67   D(5,15,24,25)          41.1105         D2E/DX2 =    0.0106             !
 ! D68   D(5,15,24,29)         160.8694         D2E/DX2 =    0.0105             !
 ! D69   D(5,15,24,33)         -79.5758         D2E/DX2 =    0.011              !
 ! D70   D(16,15,24,25)        -76.044          D2E/DX2 =    0.0109             !
 ! D71   D(16,15,24,29)         43.7149         D2E/DX2 =    0.0105             !
 ! D72   D(16,15,24,33)        163.2697         D2E/DX2 =    0.0108             !
 ! D73   D(20,15,24,25)        162.0319         D2E/DX2 =    0.0107             !
 ! D74   D(20,15,24,29)        -78.2092         D2E/DX2 =    0.0105             !
 ! D75   D(20,15,24,33)         41.3456         D2E/DX2 =    0.0109             !
 ! D76   D(15,24,25,26)       -179.6634         D2E/DX2 =    0.0103             !
 ! D77   D(15,24,25,27)        -59.4569         D2E/DX2 =    0.0098             !
 ! D78   D(15,24,25,28)         60.0817         D2E/DX2 =    0.0098             !
 ! D79   D(29,24,25,26)         59.2643         D2E/DX2 =    0.0122             !
 ! D80   D(29,24,25,27)        179.4709         D2E/DX2 =    0.0125             !
 ! D81   D(29,24,25,28)        -60.9906         D2E/DX2 =    0.0122             !
 ! D82   D(33,24,25,26)        -57.733          D2E/DX2 =    0.012              !
 ! D83   D(33,24,25,27)         62.4736         D2E/DX2 =    0.0122             !
 ! D84   D(33,24,25,28)       -177.9878         D2E/DX2 =    0.0122             !
 ! D85   D(15,24,29,30)        -61.0618         D2E/DX2 =    0.01               !
 ! D86   D(15,24,29,31)        179.1613         D2E/DX2 =    0.0102             !
 ! D87   D(15,24,29,32)         59.2188         D2E/DX2 =    0.0097             !
 ! D88   D(25,24,29,30)         59.6441         D2E/DX2 =    0.012              !
 ! D89   D(25,24,29,31)        -60.1328         D2E/DX2 =    0.0118             !
 ! D90   D(25,24,29,32)        179.9247         D2E/DX2 =    0.012              !
 ! D91   D(33,24,29,30)        177.4184         D2E/DX2 =    0.0124             !
 ! D92   D(33,24,29,31)         57.6415         D2E/DX2 =    0.0121             !
 ! D93   D(33,24,29,32)        -62.301          D2E/DX2 =    0.0121             !
 ! D94   D(15,24,33,34)        179.1481         D2E/DX2 =    0.01               !
 ! D95   D(15,24,33,35)        -61.0831         D2E/DX2 =    0.0096             !
 ! D96   D(15,24,33,36)         58.9095         D2E/DX2 =    0.0094             !
 ! D97   D(25,24,33,34)         57.8377         D2E/DX2 =    0.0118             !
 ! D98   D(25,24,33,35)        177.6064         D2E/DX2 =    0.012              !
 ! D99   D(25,24,33,36)        -62.4009         D2E/DX2 =    0.0119             !
 ! D100  D(29,24,33,34)        -59.5985         D2E/DX2 =    0.0118             !
 ! D101  D(29,24,33,35)         60.1702         D2E/DX2 =    0.0119             !
 ! D102  D(29,24,33,36)       -179.8371         D2E/DX2 =    0.0121             !
 ! D103  D(4,37,38,2)         -177.428          D2E/DX2 =    0.0252             !
 ! D104  D(4,37,38,3)          -48.1679         D2E/DX2 =    0.0199             !
 ! D105  D(40,37,38,2)          55.0028         D2E/DX2 =    0.0246             !
 ! D106  D(40,37,38,3)        -175.7372         D2E/DX2 =    0.026              !
 ! D107  D(4,37,40,39)        -123.3209         D2E/DX2 =    0.0057             !
 ! D108  D(4,37,40,91)          92.244          D2E/DX2 =    0.0062             !
 ! D109  D(4,37,40,103)        -91.4543         D2E/DX2 =    0.0076             !
 ! D110  D(38,37,40,39)         -5.2613         D2E/DX2 =    0.0047             !
 ! D111  D(38,37,40,91)       -149.6964         D2E/DX2 =    0.013              !
 ! D112  D(38,37,40,103)        26.6053         D2E/DX2 =    0.01               !
 ! D113  D(41,37,40,39)         75.2313         D2E/DX2 =    0.0049             !
 ! D114  D(41,37,40,91)        -69.2038         D2E/DX2 =    0.0061             !
 ! D115  D(41,37,40,103)       107.098          D2E/DX2 =    0.0082             !
 ! D116  D(44,37,40,39)        -29.9068         D2E/DX2 =    0.0094             !
 ! D117  D(44,37,40,91)       -174.3419         D2E/DX2 =    0.013              !
 ! D118  D(44,37,40,103)         1.9598         D2E/DX2 =    0.0135             !
 ! D119  D(1,39,40,37)         -45.1247         D2E/DX2 =    0.0161             !
 ! D120  D(1,39,40,91)         106.9568         D2E/DX2 =    0.0206             !
 ! D121  D(42,39,40,37)       -171.6626         D2E/DX2 =    0.0167             !
 ! D122  D(42,39,40,91)        -19.5811         D2E/DX2 =    0.0191             !
 ! D123  D(1,39,42,104)       -120.0396         D2E/DX2 =    0.0088             !
 ! D124  D(1,39,42,105)         -0.2649         D2E/DX2 =    0.0089             !
 ! D125  D(1,39,42,106)        119.8452         D2E/DX2 =    0.0082             !
 ! D126  D(40,39,42,104)       -13.1816         D2E/DX2 =    0.0085             !
 ! D127  D(40,39,42,105)       106.5931         D2E/DX2 =    0.0086             !
 ! D128  D(40,39,42,106)      -133.2967         D2E/DX2 =    0.0083             !
 ! D129  D(103,39,42,104)       66.8078         D2E/DX2 =    0.0082             !
 ! D130  D(103,39,42,105)     -173.4175         D2E/DX2 =    0.0082             !
 ! D131  D(103,39,42,106)      -53.3073         D2E/DX2 =    0.0081             !
 ! D132  D(37,40,91,90)        -24.344          D2E/DX2 =    0.0322             !
 ! D133  D(39,40,91,90)       -175.9161         D2E/DX2 =    0.0321             !
 ! D134  D(103,40,91,90)       159.3666         D2E/DX2 =    0.0281             !
 ! D135  D(49,45,46,47)        178.8301         D2E/DX2 =    0.0077             !
 ! D136  D(49,45,46,50)         -0.6407         D2E/DX2 =    0.0088             !
 ! D137  D(53,45,46,47)         -0.2539         D2E/DX2 =    0.0078             !
 ! D138  D(53,45,46,50)       -179.7247         D2E/DX2 =    0.0083             !
 ! D139  D(46,45,53,54)         -0.6216         D2E/DX2 =    0.0063             !
 ! D140  D(46,45,53,58)        178.1361         D2E/DX2 =    0.0058             !
 ! D141  D(49,45,53,54)       -179.7106         D2E/DX2 =    0.0065             !
 ! D142  D(49,45,53,58)         -0.9529         D2E/DX2 =    0.007              !
 ! D143  D(45,46,47,48)          0.2515         D2E/DX2 =    0.0082             !
 ! D144  D(45,46,47,51)       -179.4868         D2E/DX2 =    0.0076             !
 ! D145  D(50,46,47,48)        179.7233         D2E/DX2 =    0.0076             !
 ! D146  D(50,46,47,51)         -0.0151         D2E/DX2 =    0.0089             !
 ! D147  D(46,47,48,52)       -178.5644         D2E/DX2 =    0.0076             !
 ! D148  D(46,47,48,54)          0.6374         D2E/DX2 =    0.0079             !
 ! D149  D(51,47,48,52)          1.1734         D2E/DX2 =    0.0089             !
 ! D150  D(51,47,48,54)       -179.6247         D2E/DX2 =    0.0083             !
 ! D151  D(47,48,54,53)         -1.4683         D2E/DX2 =    0.0061             !
 ! D152  D(47,48,54,55)        179.7624         D2E/DX2 =    0.0062             !
 ! D153  D(52,48,54,53)        177.7281         D2E/DX2 =    0.0066             !
 ! D154  D(52,48,54,55)         -1.0412         D2E/DX2 =    0.0072             !
 ! D155  D(45,53,54,48)          1.4469         D2E/DX2 =    0.0049             !
 ! D156  D(45,53,54,55)       -179.7311         D2E/DX2 =    0.0046             !
 ! D157  D(58,53,54,48)       -177.3273         D2E/DX2 =    0.0045             !
 ! D158  D(58,53,54,55)          1.4947         D2E/DX2 =    0.0047             !
 ! D159  D(45,53,58,57)       -176.5645         D2E/DX2 =    0.0061             !
 ! D160  D(45,53,58,60)          1.1048         D2E/DX2 =    0.007              !
 ! D161  D(54,53,58,57)          2.2004         D2E/DX2 =    0.0061             !
 ! D162  D(54,53,58,60)        179.8697         D2E/DX2 =    0.0061             !
 ! D163  D(48,54,55,56)        173.6491         D2E/DX2 =    0.0063             !
 ! D164  D(48,54,55,64)         -4.1839         D2E/DX2 =    0.0066             !
 ! D165  D(53,54,55,56)         -5.102          D2E/DX2 =    0.0051             !
 ! D166  D(53,54,55,64)        177.065          D2E/DX2 =    0.0064             !
 ! D167  D(54,55,56,57)          5.2149         D2E/DX2 =    0.0054             !
 ! D168  D(54,55,56,59)       -174.8701         D2E/DX2 =    0.0108             !
 ! D169  D(64,55,56,57)       -176.9431         D2E/DX2 =    0.0064             !
 ! D170  D(64,55,56,59)          2.9718         D2E/DX2 =    0.0084             !
 ! D171  D(54,55,64,63)        118.8751         D2E/DX2 =    0.0177             !
 ! D172  D(54,55,64,67)        -61.2129         D2E/DX2 =    0.0155             !
 ! D173  D(56,55,64,63)        -58.9306         D2E/DX2 =    0.0167             !
 ! D174  D(56,55,64,67)        120.9814         D2E/DX2 =    0.0147             !
 ! D175  D(55,56,57,58)         -1.5866         D2E/DX2 =    0.005              !
 ! D176  D(55,56,57,80)        179.5665         D2E/DX2 =    0.0044             !
 ! D177  D(59,56,57,58)        178.4987         D2E/DX2 =    0.0089             !
 ! D178  D(59,56,57,80)         -0.3483         D2E/DX2 =    0.0074             !
 ! D179  D(55,56,59,88)         66.9948         D2E/DX2 =    0.0218             !
 ! D180  D(57,56,59,88)       -113.0886         D2E/DX2 =    0.0176             !
 ! D181  D(56,57,58,53)         -2.2039         D2E/DX2 =    0.0061             !
 ! D182  D(56,57,58,60)       -179.8498         D2E/DX2 =    0.0066             !
 ! D183  D(80,57,58,53)        176.6756         D2E/DX2 =    0.0064             !
 ! D184  D(80,57,58,60)         -0.9703         D2E/DX2 =    0.0068             !
 ! D185  D(56,57,80,79)        -48.2024         D2E/DX2 =    0.0039             !
 ! D186  D(56,57,80,81)        131.928          D2E/DX2 =    0.0035             !
 ! D187  D(58,57,80,79)        132.9459         D2E/DX2 =    0.0036             !
 ! D188  D(58,57,80,81)        -46.9237         D2E/DX2 =    0.004              !
 ! D189  D(56,59,88,66)        -43.1296         D2E/DX2 =    0.023              !
 ! D190  D(56,59,88,89)       -174.1799         D2E/DX2 =    0.0355             !
 ! D191  D(56,59,88,90)         64.4258         D2E/DX2 =    0.0733             !
 ! D192  D(65,61,62,63)       -179.1378         D2E/DX2 =    0.0065             !
 ! D193  D(65,61,62,95)          2.0064         D2E/DX2 =    0.0082             !
 ! D194  D(68,61,62,63)         -0.7336         D2E/DX2 =    0.0064             !
 ! D195  D(68,61,62,95)       -179.5894         D2E/DX2 =    0.0086             !
 ! D196  D(62,61,68,67)          2.3713         D2E/DX2 =    0.0062             !
 ! D197  D(62,61,68,69)       -177.7621         D2E/DX2 =    0.0056             !
 ! D198  D(65,61,68,67)       -179.2172         D2E/DX2 =    0.0067             !
 ! D199  D(65,61,68,69)          0.6493         D2E/DX2 =    0.007              !
 ! D200  D(61,62,63,64)         -4.533          D2E/DX2 =    0.0064             !
 ! D201  D(61,62,63,66)        178.8076         D2E/DX2 =    0.0093             !
 ! D202  D(95,62,63,64)        174.2849         D2E/DX2 =    0.0104             !
 ! D203  D(95,62,63,66)         -2.3744         D2E/DX2 =    0.0107             !
 ! D204  D(61,62,95,94)       -118.3633         D2E/DX2 =    0.0053             !
 ! D205  D(61,62,95,96)         61.1515         D2E/DX2 =    0.0047             !
 ! D206  D(63,62,95,94)         62.806          D2E/DX2 =    0.0076             !
 ! D207  D(63,62,95,96)       -117.6793         D2E/DX2 =    0.0066             !
 ! D208  D(62,63,64,55)       -172.1272         D2E/DX2 =    0.0099             !
 ! D209  D(62,63,64,67)          7.9595         D2E/DX2 =    0.0071             !
 ! D210  D(66,63,64,55)          4.5453         D2E/DX2 =    0.01               !
 ! D211  D(66,63,64,67)       -175.368          D2E/DX2 =    0.0109             !
 ! D212  D(62,63,66,88)       -117.0108         D2E/DX2 =    0.0283             !
 ! D213  D(64,63,66,88)         66.2751         D2E/DX2 =    0.0304             !
 ! D214  D(55,64,67,68)        173.9035         D2E/DX2 =    0.0072             !
 ! D215  D(55,64,67,72)         -6.3335         D2E/DX2 =    0.0072             !
 ! D216  D(63,64,67,68)         -6.1836         D2E/DX2 =    0.0056             !
 ! D217  D(63,64,67,72)        173.5794         D2E/DX2 =    0.0057             !
 ! D218  D(63,66,88,59)        -44.2974         D2E/DX2 =    0.021              !
 ! D219  D(63,66,88,89)         86.3924         D2E/DX2 =    0.0304             !
 ! D220  D(63,66,88,90)       -152.784          D2E/DX2 =    0.0719             !
 ! D221  D(64,67,68,61)          1.1307         D2E/DX2 =    0.0047             !
 ! D222  D(64,67,68,69)       -178.7373         D2E/DX2 =    0.0042             !
 ! D223  D(72,67,68,61)       -178.6451         D2E/DX2 =    0.0046             !
 ! D224  D(72,67,68,69)          1.487          D2E/DX2 =    0.0048             !
 ! D225  D(64,67,72,71)        178.9924         D2E/DX2 =    0.0055             !
 ! D226  D(64,67,72,76)         -1.3338         D2E/DX2 =    0.0071             !
 ! D227  D(68,67,72,71)         -1.2414         D2E/DX2 =    0.0061             !
 ! D228  D(68,67,72,76)        178.4324         D2E/DX2 =    0.0068             !
 ! D229  D(61,68,69,70)        179.3267         D2E/DX2 =    0.0057             !
 ! D230  D(61,68,69,73)         -0.1152         D2E/DX2 =    0.007              !
 ! D231  D(67,68,69,70)         -0.8074         D2E/DX2 =    0.0062             !
 ! D232  D(67,68,69,73)        179.7506         D2E/DX2 =    0.0064             !
 ! D233  D(68,69,70,71)         -0.187          D2E/DX2 =    0.0079             !
 ! D234  D(68,69,70,74)       -179.5907         D2E/DX2 =    0.0083             !
 ! D235  D(73,69,70,71)        179.2524         D2E/DX2 =    0.0076             !
 ! D236  D(73,69,70,74)         -0.1513         D2E/DX2 =    0.0088             !
 ! D237  D(69,70,71,72)          0.4552         D2E/DX2 =    0.0081             !
 ! D238  D(69,70,71,75)       -179.3095         D2E/DX2 =    0.0076             !
 ! D239  D(74,70,71,72)        179.8603         D2E/DX2 =    0.0075             !
 ! D240  D(74,70,71,75)          0.0957         D2E/DX2 =    0.0089             !
 ! D241  D(70,71,72,67)          0.2817         D2E/DX2 =    0.0078             !
 ! D242  D(70,71,72,76)       -179.3937         D2E/DX2 =    0.0077             !
 ! D243  D(75,71,72,67)       -179.9536         D2E/DX2 =    0.0083             !
 ! D244  D(75,71,72,76)          0.3709         D2E/DX2 =    0.0089             !
 ! D245  D(82,77,78,79)         -0.1099         D2E/DX2 =    0.0085             !
 ! D246  D(82,77,78,84)        179.4102         D2E/DX2 =    0.008              !
 ! D247  D(83,77,78,79)       -179.6379         D2E/DX2 =    0.0081             !
 ! D248  D(83,77,78,84)         -0.1178         D2E/DX2 =    0.0089             !
 ! D249  D(78,77,82,81)          0.0381         D2E/DX2 =    0.0086             !
 ! D250  D(78,77,82,87)       -179.5076         D2E/DX2 =    0.008              !
 ! D251  D(83,77,82,81)        179.5655         D2E/DX2 =    0.0082             !
 ! D252  D(83,77,82,87)          0.0198         D2E/DX2 =    0.0089             !
 ! D253  D(77,78,79,80)          0.1119         D2E/DX2 =    0.0083             !
 ! D254  D(77,78,79,85)        179.5319         D2E/DX2 =    0.008              !
 ! D255  D(84,78,79,80)       -179.4099         D2E/DX2 =    0.0081             !
 ! D256  D(84,78,79,85)          0.01           D2E/DX2 =    0.0089             !
 ! D257  D(78,79,80,57)       -179.9136         D2E/DX2 =    0.0068             !
 ! D258  D(78,79,80,81)         -0.0421         D2E/DX2 =    0.0069             !
 ! D259  D(85,79,80,57)          0.6709         D2E/DX2 =    0.0073             !
 ! D260  D(85,79,80,81)       -179.4576         D2E/DX2 =    0.007              !
 ! D261  D(57,80,81,82)        179.8415         D2E/DX2 =    0.0068             !
 ! D262  D(57,80,81,86)         -0.8716         D2E/DX2 =    0.0072             !
 ! D263  D(79,80,81,82)         -0.0306         D2E/DX2 =    0.0069             !
 ! D264  D(79,80,81,86)        179.2563         D2E/DX2 =    0.0071             !
 ! D265  D(80,81,82,77)          0.0326         D2E/DX2 =    0.0084             !
 ! D266  D(80,81,82,87)        179.5786         D2E/DX2 =    0.0081             !
 ! D267  D(86,81,82,77)       -179.2621         D2E/DX2 =    0.0081             !
 ! D268  D(86,81,82,87)          0.2839         D2E/DX2 =    0.0089             !
 ! D269  D(59,88,90,91)       -110.9731         D2E/DX2 =    0.0654             !
 ! D270  D(66,88,90,91)          5.2564         D2E/DX2 =    0.0704             !
 ! D271  D(89,88,90,91)        127.1156         D2E/DX2 =    0.0458             !
 ! D272  D(88,90,91,40)        116.3466         D2E/DX2 =    0.2907             !
 ! D273  D(97,92,93,94)         -0.3528         D2E/DX2 =    0.0086             !
 ! D274  D(97,92,93,99)        179.7318         D2E/DX2 =    0.0082             !
 ! D275  D(98,92,93,94)        179.8248         D2E/DX2 =    0.0082             !
 ! D276  D(98,92,93,99)         -0.0906         D2E/DX2 =    0.009              !
 ! D277  D(93,92,97,96)          0.2896         D2E/DX2 =    0.0086             !
 ! D278  D(93,92,97,102)      -179.8815         D2E/DX2 =    0.0081             !
 ! D279  D(98,92,97,96)       -179.8883         D2E/DX2 =    0.0082             !
 ! D280  D(98,92,97,102)        -0.0594         D2E/DX2 =    0.009              !
 ! D281  D(92,93,94,95)         -0.3868         D2E/DX2 =    0.0084             !
 ! D282  D(92,93,94,100)       179.2131         D2E/DX2 =    0.0083             !
 ! D283  D(99,93,94,95)        179.5293         D2E/DX2 =    0.0082             !
 ! D284  D(99,93,94,100)        -0.8708         D2E/DX2 =    0.0091             !
 ! D285  D(93,94,95,62)       -179.3107         D2E/DX2 =    0.0068             !
 ! D286  D(93,94,95,96)          1.1704         D2E/DX2 =    0.007              !
 ! D287  D(100,94,95,62)         1.0935         D2E/DX2 =    0.0075             !
 ! D288  D(100,94,95,96)      -178.4255         D2E/DX2 =    0.0077             !
 ! D289  D(62,95,96,97)        179.2414         D2E/DX2 =    0.0068             !
 ! D290  D(62,95,96,101)        -0.0434         D2E/DX2 =    0.0073             !
 ! D291  D(94,95,96,97)         -1.2346         D2E/DX2 =    0.007              !
 ! D292  D(94,95,96,101)       179.4805         D2E/DX2 =    0.0072             !
 ! D293  D(95,96,97,92)          0.5135         D2E/DX2 =    0.0084             !
 ! D294  D(95,96,97,102)      -179.3156         D2E/DX2 =    0.0082             !
 ! D295  D(101,96,97,92)       179.8019         D2E/DX2 =    0.0081             !
 ! D296  D(101,96,97,102)       -0.0272         D2E/DX2 =    0.0089             !
 --------------------------------------------------------------------------------
 Trust Radius=1.00D-01 FncErr=1.00D-07 GrdErr=1.00D-06 EigMax=2.50D+02 EigMin=1.00D-04
 Number of steps in this run=     50 maximum allowed number of steps=    636.
 Search for a saddle point of order  1.
 GradGradGradGradGradGradGradGradGradGradGradGradGradGradGradGradGradGrad

 Stoichiometry    C47H49O8PSi
 Framework group  C1[X(C47H49O8PSi)]
 Deg. of freedom   312
 Full point group                 C1      NOp   1
 Largest Abelian subgroup         C1      NOp   1
 Largest concise Abelian subgroup C1      NOp   1
                         Standard orientation:                         
 ---------------------------------------------------------------------
 Center     Atomic      Atomic             Coordinates (Angstroms)
 Number     Number       Type             X           Y           Z
 ---------------------------------------------------------------------
      1          6           0       -1.247072    1.064704   -1.991871
      2          6           0       -1.177214    2.206899   -1.092947
      3          6           0       -0.050924    4.379060   -0.324364
      4          6           0        2.887181    2.913287   -1.240802
      5          8           0       -1.963844    2.215448   -0.005767
      6          1           0        0.947531    4.407248    0.108735
      7          1           0       -0.750731    4.349733    0.510429
      8          1           0       -0.212245    5.317490   -0.855303
      9          8           0        3.477239    3.362517   -0.254278
     10          8           0        3.176596    3.179883   -2.534322
     11          6           0        4.269148    4.027323   -2.857653
     12          1           0        5.207981    3.617197   -2.481753
     13          1           0        4.353172    4.128975   -3.939830
     14          1           0        4.133949    5.023031   -2.432011
     15         14           0       -3.514469    2.848570    0.107010
     16          6           0       -3.614939    3.737836    1.757687
     17          1           0       -4.543258    4.300762    1.842406
     18          1           0       -3.581247    3.028195    2.582303
     19          1           0       -2.788885    4.436587    1.878637
     20          6           0       -3.768346    4.097715   -1.274810
     21          1           0       -4.768888    4.525788   -1.240163
     22          1           0       -3.636544    3.631160   -2.250245
     23          1           0       -3.050273    4.912756   -1.199784
     24          6           0       -4.788727    1.411701    0.028857
     25          6           0       -4.286453    0.214064    0.863858
     26          1           0       -4.984109   -0.624051    0.837145
     27          1           0       -3.325745   -0.149831    0.496341
     28          1           0       -4.146228    0.483648    1.911492
     29          6           0       -6.153012    1.863674    0.594871
     30          1           0       -6.076478    2.163048    1.640921
     31          1           0       -6.894689    1.064751    0.545326
     32          1           0       -6.555628    2.712517    0.040166
     33          6           0       -5.013515    0.948768   -1.427433
     34          1           0       -5.724033    0.122955   -1.484214
     35          1           0       -5.409837    1.753665   -2.047721
     36          1           0       -4.088842    0.610781   -1.893424
     37          6           0        1.653267    1.954565   -1.117297
     38          6           0       -0.252459    3.197471   -1.282152
     39          6           0       -0.486369    0.914333   -3.107585
     40          8           0        1.392657    1.097174   -2.000367
     41          1           0        1.262296    1.927111   -0.098657
     42          6           0       -0.449429   -0.369287   -3.917726
     43          1           0       -1.863882    0.233061   -1.684340
     44          1           0        0.213999    3.335743   -2.256859
     45          6           0        1.941671    2.628075    3.007516
     46          6           0        0.705447    3.130902    3.397234
     47          6           0       -0.449777    2.391758    3.184251
     48          6           0       -0.386220    1.137666    2.583742
     49          1           0        2.836692    3.215318    3.158191
     50          1           0        0.641121    4.105195    3.860490
     51          1           0       -1.405146    2.796215    3.483634
     52          1           0       -1.302224    0.593044    2.408157
     53          6           0        2.037950    1.354288    2.393811
     54          6           0        0.860613    0.572874    2.184430
     55          6           0        0.978951   -0.718989    1.565781
     56          6           0        2.236599   -1.133551    1.084504
     57          6           0        3.389027   -0.360905    1.293348
     58          6           0        3.282666    0.856906    1.961782
     59          8           0        2.334568   -2.317420    0.399762
     60          1           0        4.166235    1.458099    2.123776
     61          6           0       -2.616516   -3.049182    1.000359
     62          6           0       -1.855377   -2.665095   -0.100413
     63          6           0       -0.644474   -1.985140    0.095890
     64          6           0       -0.230682   -1.600000    1.387933
     65          1           0       -3.541979   -3.585176    0.846725
     66          8           0        0.118115   -1.628037   -0.987764
     67          6           0       -0.976100   -2.060356    2.526150
     68          6           0       -2.190141   -2.783245    2.317050
     69          6           0       -2.950808   -3.220811    3.430701
     70          6           0       -2.515034   -2.965902    4.726843
     71          6           0       -1.326374   -2.282365    4.945764
     72          6           0       -0.561344   -1.835757    3.872014
     73          1           0       -3.870669   -3.763838    3.267141
     74          1           0       -3.098330   -3.309190    5.569467
     75          1           0       -0.991007   -2.099180    5.956725
     76          1           0        0.364781   -1.314838    4.066055
     77          6           0        7.237223   -1.601081   -0.135927
     78          6           0        6.436535   -2.502588    0.560348
     79          6           0        5.187202   -2.098992    1.024195
     80          6           0        4.726834   -0.796538    0.795599
     81          6           0        5.545539    0.096786    0.091751
     82          6           0        6.796463   -0.301797   -0.372831
     83          1           0        8.204309   -1.915533   -0.501178
     84          1           0        6.776751   -3.513045    0.734669
     85          1           0        4.567487   -2.806137    1.557375
     86          1           0        5.207000    1.103422   -0.107344
     87          1           0        7.417975    0.391488   -0.920378
     88         15           0        1.584147   -2.329037   -1.042772
     89          8           0        1.591008   -3.662446   -1.696429
     90          8           0        2.416565   -1.231385   -1.874409
     91          1           0        1.872047   -0.428842   -2.045495
     92          6           0       -3.347599   -3.510570   -4.022291
     93          6           0       -2.142658   -4.072800   -3.608336
     94          6           0       -1.660168   -3.804531   -2.330187
     95          6           0       -2.370551   -2.969749   -1.462518
     96          6           0       -3.587551   -2.425859   -1.886975
     97          6           0       -4.075108   -2.689122   -3.164613
     98          1           0       -3.720678   -3.716447   -5.015224
     99          1           0       -1.579194   -4.713844   -4.271161
    100          1           0       -0.731936   -4.254450   -2.012508
    101          1           0       -4.151485   -1.786503   -1.225469
    102          1           0       -5.010317   -2.256306   -3.488519
    103          1           0        0.058718    1.731113   -3.571214
    104          1           0        0.562478   -0.773245   -3.949133
    105          1           0       -1.097286   -1.134420   -3.488214
    106          1           0       -0.779871   -0.184155   -4.939358
 ---------------------------------------------------------------------
 Rotational constants (GHZ):           0.0589916           0.0434514           0.0392383
 Standard basis: def2SVP (5D, 7F)
 There are  1108 symmetry adapted cartesian basis functions of A   symmetry.
 There are  1051 symmetry adapted basis functions of A   symmetry.
  1051 basis functions,  1792 primitive gaussians,  1108 cartesian basis functions
   212 alpha electrons      212 beta electrons
       nuclear repulsion energy      9491.9422946171 Hartrees.
 NAtoms=  106 NActive=  106 NUniq=  106 SFac= 1.00D+00 NAtFMM=   60 NAOKFM=T Big=T
 Integral buffers will be    131072 words long.
 Raffenetti 2 integral format.
 Two-electron integral symmetry is turned on.
 Nuclear repulsion after empirical dispersion term =     9491.8139274784 Hartrees.
 ------------------------------------------------------------------------------
 Polarizable Continuum Model (PCM)
 =================================
 Model                : PCM.
 Atomic radii         : UFF (Universal Force Field).
 Polarization charges : Total charges.
 Charge compensation  : None.
 Solution method      : On-the-fly selection.
 Cavity type          : Scaled VdW (van der Waals Surface) (Alpha=1.100).
 Cavity algorithm     : GePol (No added spheres)
                        Default sphere list used, NSphG=  106.
                        Lebedev-Laikov grids with approx.  5.0 points / Ang**2.
                        Smoothing algorithm: York/Karplus (Gamma=1.0000).
                        Polarization charges: spherical gaussians, with
                                              point-specific exponents (IZeta= 3).
                        Self-potential: point-specific (ISelfS= 7).
                        Self-field    : sphere-specific E.n sum rule (ISelfD= 2).
 1st derivatives      : Analytical E(r).r(x)/FMM algorithm (CHGder, D1EAlg=3).
                        Cavity 1st derivative terms included.
 Solvent              : Toluene, Eps=   2.374100 Eps(inf)=   2.238315
 ------------------------------------------------------------------------------
 One-electron integrals computed using PRISM.
   1 Symmetry operations used in ECPInt.
 ECPInt:  NShTT=  121771 NPrTT=  444119 LenC2=   96481 LenP2D=  217184.
 LDataN:  DoStor=T MaxTD1= 4 Len=   56
 NBasis=  1051 RedAO= T EigKep=  1.56D-04  NBF=  1051
 NBsUse=  1051 1.00D-06 EigRej= -1.00D+00 NBFU=  1051
 ExpMin= 7.80D-02 ExpMax= 8.00D+03 ExpMxC= 1.20D+03 IAcc=3 IRadAn=         5 AccDes= 0.00D+00
 Harris functional with IExCor= 4639 and IRadAn=       5 diagonalized for initial guess.
 HarFok:  IExCor= 4639 AccDes= 0.00D+00 IRadAn=         5 IDoV= 1 UseB2=F ITyADJ=14
 ICtDFT=  3500011 ScaDFX=  1.000000  1.000000  1.000000  1.000000
 FoFCou: FMM=F IPFlag=           0 FMFlag=      100000 FMFlg1=        2001
         NFxFlg=           0 DoJE=T BraDBF=F KetDBF=T FulRan=T
         wScrn=  0.000000 ICntrl=       500 IOpCl=  0 I1Cent=   200000004 NGrid=           0
         NMat0=    1 NMatS0=      1 NMatT0=    0 NMatD0=    1 NMtDS0=    0 NMtDT0=    0
 Petite list used in FoFCou.
 Requested convergence on RMS density matrix=1.00D-08 within 128 cycles.
 Requested convergence on MAX density matrix=1.00D-06.
 Requested convergence on             energy=1.00D-06.
 No special actions if energy rises.
 Inv3:  Mode=3 IEnd=       12816.
 Iteration    1 A*A^-1 deviation from unit magnitude is 4.33D-15 for   3062.
 Iteration    1 A*A^-1 deviation from orthogonality  is 2.66D-15 for   5184   2550.
 Iteration    1 A^-1*A deviation from unit magnitude is 4.22D-15 for   3062.
 Iteration    1 A^-1*A deviation from orthogonality  is 1.91D-15 for   4446   2915.
 Error on total polarization charges =  0.00954
 SCF Done:  E(RwB97XD) =  -3050.57602973     A.U. after   15 cycles
            NFock= 15  Conv=0.88D-08     -V/T= 2.0091
 Hyperfine terms turned off by default for NAtoms > 100.

 **********************************************************************

            Population analysis using the SCF Density.

 **********************************************************************

 Orbital symmetries:
       Occupied  (A) (A) (A) (A) (A) (A) (A) (A) (A) (A) (A) (A)
                 (A) (A) (A) (A) (A) (A) (A) (A) (A) (A) (A) (A)
                 (A) (A) (A) (A) (A) (A) (A) (A) (A) (A) (A) (A)
                 (A) (A) (A) (A) (A) (A) (A) (A) (A) (A) (A) (A)
                 (A) (A) (A) (A) (A) (A) (A) (A) (A) (A) (A) (A)
                 (A) (A) (A) (A) (A) (A) (A) (A) (A) (A) (A) (A)
                 (A) (A) (A) (A) (A) (A) (A) (A) (A) (A) (A) (A)
                 (A) (A) (A) (A) (A) (A) (A) (A) (A) (A) (A) (A)
                 (A) (A) (A) (A) (A) (A) (A) (A) (A) (A) (A) (A)
                 (A) (A) (A) (A) (A) (A) (A) (A) (A) (A) (A) (A)
                 (A) (A) (A) (A) (A) (A) (A) (A) (A) (A) (A) (A)
                 (A) (A) (A) (A) (A) (A) (A) (A) (A) (A) (A) (A)
                 (A) (A) (A) (A) (A) (A) (A) (A) (A) (A) (A) (A)
                 (A) (A) (A) (A) (A) (A) (A) (A) (A) (A) (A) (A)
                 (A) (A) (A) (A) (A) (A) (A) (A) (A) (A) (A) (A)
                 (A) (A) (A) (A) (A) (A) (A) (A) (A) (A) (A) (A)
                 (A) (A) (A) (A) (A) (A) (A) (A) (A) (A) (A) (A)
                 (A) (A) (A) (A) (A) (A) (A) (A)
       Virtual   (A) (A) (A) (A) (A) (A) (A) (A) (A) (A) (A) (A)
                 (A) (A) (A) (A) (A) (A) (A) (A) (A) (A) (A) (A)
                 (A) (A) (A) (A) (A) (A) (A) (A) (A) (A) (A) (A)
                 (A) (A) (A) (A) (A) (A) (A) (A) (A) (A) (A) (A)
                 (A) (A) (A) (A) (A) (A) (A) (A) (A) (A) (A) (A)
                 (A) (A) (A) (A) (A) (A) (A) (A) (A) (A) (A) (A)
                 (A) (A) (A) (A) (A) (A) (A) (A) (A) (A) (A) (A)
                 (A) (A) (A) (A) (A) (A) (A) (A) (A) (A) (A) (A)
                 (A) (A) (A) (A) (A) (A) (A) (A) (A) (A) (A) (A)
                 (A) (A) (A) (A) (A) (A) (A) (A) (A) (A) (A) (A)
                 (A) (A) (A) (A) (A) (A) (A) (A) (A) (A) (A) (A)
                 (A) (A) (A) (A) (A) (A) (A) (A) (A) (A) (A) (A)
                 (A) (A) (A) (A) (A) (A) (A) (A) (A) (A) (A) (A)
                 (A) (A) (A) (A) (A) (A) (A) (A) (A) (A) (A) (A)
                 (A) (A) (A) (A) (A) (A) (A) (A) (A) (A) (A) (A)
                 (A) (A) (A) (A) (A) (A) (A) (A) (A) (A) (A) (A)
                 (A) (A) (A) (A) (A) (A) (A) (A) (A) (A) (A) (A)
                 (A) (A) (A) (A) (A) (A) (A) (A) (A) (A) (A) (A)
                 (A) (A) (A) (A) (A) (A) (A) (A) (A) (A) (A) (A)
                 (A) (A) (A) (A) (A) (A) (A) (A) (A) (A) (A) (A)
                 (A) (A) (A) (A) (A) (A) (A) (A) (A) (A) (A) (A)
                 (A) (A) (A) (A) (A) (A) (A) (A) (A) (A) (A) (A)
                 (A) (A) (A) (A) (A) (A) (A) (A) (A) (A) (A) (A)
                 (A) (A) (A) (A) (A) (A) (A) (A) (A) (A) (A) (A)
                 (A) (A) (A) (A) (A) (A) (A) (A) (A) (A) (A) (A)
                 (A) (A) (A) (A) (A) (A) (A) (A) (A) (A) (A) (A)
                 (A) (A) (A) (A) (A) (A) (A) (A) (A) (A) (A) (A)
                 (A) (A) (A) (A) (A) (A) (A) (A) (A) (A) (A) (A)
                 (A) (A) (A) (A) (A) (A) (A) (A) (A) (A) (A) (A)
                 (A) (A) (A) (A) (A) (A) (A) (A) (A) (A) (A) (A)
                 (A) (A) (A) (A) (A) (A) (A) (A) (A) (A) (A) (A)
                 (A) (A) (A) (A) (A) (A) (A) (A) (A) (A) (A) (A)
                 (A) (A) (A) (A) (A) (A) (A) (A) (A) (A) (A) (A)
                 (A) (A) (A) (A) (A) (A) (A) (A) (A) (A) (A) (A)
                 (A) (A) (A) (A) (A) (A) (A) (A) (A) (A) (A) (A)
                 (A) (A) (A) (A) (A) (A) (A) (A) (A) (A) (A) (A)
                 (A) (A) (A) (A) (A) (A) (A) (A) (A) (A) (A) (A)
                 (A) (A) (A) (A) (A) (A) (A) (A) (A) (A) (A) (A)
                 (A) (A) (A) (A) (A) (A) (A) (A) (A) (A) (A) (A)
                 (A) (A) (A) (A) (A) (A) (A) (A) (A) (A) (A) (A)
                 (A) (A) (A) (A) (A) (A) (A) (A) (A) (A) (A) (A)
                 (A) (A) (A) (A) (A) (A) (A) (A) (A) (A) (A) (A)
                 (A) (A) (A) (A) (A) (A) (A) (A) (A) (A) (A) (A)
                 (A) (A) (A) (A) (A) (A) (A) (A) (A) (A) (A) (A)
                 (A) (A) (A) (A) (A) (A) (A) (A) (A) (A) (A) (A)
                 (A) (A) (A) (A) (A) (A) (A) (A) (A) (A) (A) (A)
                 (A) (A) (A) (A) (A) (A) (A) (A) (A) (A) (A) (A)
                 (A) (A) (A) (A) (A) (A) (A) (A) (A) (A) (A) (A)
                 (A) (A) (A) (A) (A) (A) (A) (A) (A) (A) (A) (A)
                 (A) (A) (A) (A) (A) (A) (A) (A) (A) (A) (A) (A)
                 (A) (A) (A) (A) (A) (A) (A) (A) (A) (A) (A) (A)
                 (A) (A) (A) (A) (A) (A) (A) (A) (A) (A) (A) (A)
                 (A) (A) (A) (A) (A) (A) (A) (A) (A) (A) (A) (A)
                 (A) (A) (A) (A) (A) (A) (A) (A) (A) (A) (A) (A)
                 (A) (A) (A) (A) (A) (A) (A) (A) (A) (A) (A) (A)
                 (A) (A) (A) (A) (A) (A) (A) (A) (A) (A) (A) (A)
                 (A) (A) (A) (A) (A) (A) (A) (A) (A) (A) (A) (A)
                 (A) (A) (A) (A) (A) (A) (A) (A) (A) (A) (A) (A)
                 (A) (A) (A) (A) (A) (A) (A) (A) (A) (A) (A) (A)
                 (A) (A) (A) (A) (A) (A) (A) (A) (A) (A) (A) (A)
                 (A) (A) (A) (A) (A) (A) (A) (A) (A) (A) (A) (A)
                 (A) (A) (A) (A) (A) (A) (A) (A) (A) (A) (A) (A)
                 (A) (A) (A) (A) (A) (A) (A) (A) (A) (A) (A) (A)
                 (A) (A) (A) (A) (A) (A) (A) (A) (A) (A) (A) (A)
                 (A) (A) (A) (A) (A) (A) (A) (A) (A) (A) (A) (A)
                 (A) (A) (A) (A) (A) (A) (A) (A) (A) (A) (A) (A)
                 (A) (A) (A) (A) (A) (A) (A) (A) (A) (A) (A) (A)
                 (A) (A) (A) (A) (A) (A) (A) (A) (A) (A) (A) (A)
                 (A) (A) (A) (A) (A) (A) (A) (A) (A) (A) (A) (A)
                 (A) (A) (A) (A) (A) (A) (A) (A) (A) (A) (A)
 The electronic state is 1-A.
 Alpha  occ. eigenvalues --  -77.38181 -66.28503 -19.32307 -19.32263 -19.31992
 Alpha  occ. eigenvalues --  -19.27398 -19.27244 -19.26920 -19.26800 -19.21627
 Alpha  occ. eigenvalues --  -10.45222 -10.40315 -10.38597 -10.38338 -10.37715
 Alpha  occ. eigenvalues --  -10.36225 -10.33453 -10.33352 -10.32751 -10.32640
 Alpha  occ. eigenvalues --  -10.32586 -10.32488 -10.32358 -10.31944 -10.31783
 Alpha  occ. eigenvalues --  -10.31653 -10.31491 -10.31428 -10.31302 -10.31175
 Alpha  occ. eigenvalues --  -10.31077 -10.30961 -10.30959 -10.30929 -10.30881
 Alpha  occ. eigenvalues --  -10.30810 -10.30716 -10.30670 -10.30457 -10.30345
 Alpha  occ. eigenvalues --  -10.30196 -10.30081 -10.30038 -10.29955 -10.29933
 Alpha  occ. eigenvalues --  -10.29870 -10.29841 -10.29827 -10.29789 -10.29778
 Alpha  occ. eigenvalues --  -10.29756 -10.29247 -10.29087 -10.28930 -10.28799
 Alpha  occ. eigenvalues --  -10.28043 -10.28039  -6.81588  -5.41108  -4.96974
 Alpha  occ. eigenvalues --   -4.96883  -4.96635  -3.76169  -3.75807  -3.75741
 Alpha  occ. eigenvalues --   -1.22252  -1.20884  -1.17692  -1.14306  -1.13617
 Alpha  occ. eigenvalues --   -1.12059  -1.11420  -1.04944  -0.99160  -0.98052
 Alpha  occ. eigenvalues --   -0.95967  -0.95624  -0.93135  -0.92527  -0.91095
 Alpha  occ. eigenvalues --   -0.90545  -0.89853  -0.87112  -0.86759  -0.86521
 Alpha  occ. eigenvalues --   -0.86068  -0.84779  -0.84097  -0.83910  -0.83764
 Alpha  occ. eigenvalues --   -0.82923  -0.81769  -0.81476  -0.80248  -0.80142
 Alpha  occ. eigenvalues --   -0.78388  -0.77725  -0.77313  -0.77238  -0.76085
 Alpha  occ. eigenvalues --   -0.74679  -0.73745  -0.73546  -0.72568  -0.71549
 Alpha  occ. eigenvalues --   -0.70113  -0.69820  -0.69599  -0.69237  -0.68302
 Alpha  occ. eigenvalues --   -0.68132  -0.67247  -0.66966  -0.66015  -0.65909
 Alpha  occ. eigenvalues --   -0.64918  -0.63635  -0.63178  -0.62512  -0.61572
 Alpha  occ. eigenvalues --   -0.61403  -0.60954  -0.59990  -0.59455  -0.59049
 Alpha  occ. eigenvalues --   -0.58520  -0.58113  -0.57936  -0.57578  -0.57351
 Alpha  occ. eigenvalues --   -0.56554  -0.56238  -0.56012  -0.55329  -0.54874
 Alpha  occ. eigenvalues --   -0.54600  -0.54436  -0.53919  -0.53635  -0.53411
 Alpha  occ. eigenvalues --   -0.53143  -0.52827  -0.52750  -0.52507  -0.52442
 Alpha  occ. eigenvalues --   -0.52192  -0.51502  -0.51327  -0.51238  -0.51155
 Alpha  occ. eigenvalues --   -0.50958  -0.50783  -0.50630  -0.50528  -0.49985
 Alpha  occ. eigenvalues --   -0.49495  -0.49472  -0.49217  -0.48913  -0.48837
 Alpha  occ. eigenvalues --   -0.48627  -0.48283  -0.48220  -0.48054  -0.47858
 Alpha  occ. eigenvalues --   -0.47461  -0.47369  -0.47077  -0.46840  -0.46583
 Alpha  occ. eigenvalues --   -0.46271  -0.46069  -0.45967  -0.45659  -0.45221
[...]
   D192      -3.12763  -0.00051   0.00000  -0.00169  -0.00169  -3.12932
   D193       0.03504  -0.00008   0.00000   0.00259   0.00259   0.03763
   D194      -0.01374  -0.00044   0.00000  -0.00194  -0.00196  -0.01569
   D195      -3.13425  -0.00001   0.00000   0.00233   0.00232  -3.13193
   D196       0.04138   0.00013   0.00000   0.00454   0.00455   0.04594
   D197      -3.10219   0.00009   0.00000   0.00351   0.00352  -3.09867
   D198      -3.12778   0.00016   0.00000   0.00428   0.00428  -3.12350
   D199       0.01182   0.00012   0.00000   0.00325   0.00325   0.01507
   D200      -0.07801  -0.00038   0.00000  -0.00549  -0.00551  -0.08352
   D201       3.12033  -0.00168   0.00000  -0.00716  -0.00723   3.11311
   D202       3.04195  -0.00063   0.00000  -0.00969  -0.00968   3.03227
   D203      -0.04289  -0.00193   0.00000  -0.01137  -0.01140  -0.05429
   D204      -2.06900  -0.00230   0.00000  -0.00078  -0.00078  -2.06978
   D205       1.06513  -0.00137   0.00000   0.00300   0.00300   1.06813
   D206       1.09415  -0.00186   0.00000   0.00358   0.00358   1.09773
   D207      -2.05491  -0.00093   0.00000   0.00736   0.00736  -2.04755
   D208      -3.00533   0.00195   0.00000   0.01924   0.01924  -2.98609
   D209       0.13814   0.00077   0.00000   0.00956   0.00960   0.14774
   D210       0.07949   0.00297   0.00000   0.02063   0.02068   0.10018
   D211      -3.06022   0.00178   0.00000   0.01095   0.01105  -3.04918
   D212      -2.03507   0.00516   0.00000   0.00844   0.00850  -2.02656
   D213       1.16218   0.00357   0.00000   0.00667   0.00669   1.16886
   D214       3.03592  -0.00137   0.00000  -0.01599  -0.01603   3.01989
   D215      -0.10991  -0.00113   0.00000  -0.01494  -0.01497  -0.12488
   D216      -0.10757  -0.00018   0.00000  -0.00626  -0.00627  -0.11383
   D217       3.02979   0.00006   0.00000  -0.00521  -0.00520   3.02459
   D218      -0.77024   0.00376   0.00000  -0.03002  -0.03002  -0.80026
   D219       1.49044  -0.01131   0.00000  -0.05165  -0.05174   1.43870
   D220      -2.66668   0.00580   0.00000  -0.03002  -0.03001  -2.69669
   D221       0.02004   0.00005   0.00000  -0.00034  -0.00034   0.01970
   D222      -3.11959   0.00008   0.00000   0.00067   0.00068  -3.11891
   D223      -3.11754  -0.00016   0.00000  -0.00133  -0.00134  -3.11888
   D224       0.02602  -0.00013   0.00000  -0.00032  -0.00032   0.02569
   D225       3.12416   0.00001   0.00000  -0.00018  -0.00019   3.12398
   D226      -0.02321  -0.00013   0.00000  -0.00079  -0.00080  -0.02401
   D227      -0.02161   0.00023   0.00000   0.00085   0.00086  -0.02076
   D228       3.11420   0.00010   0.00000   0.00024   0.00024   3.11444
   D229       3.12955   0.00016   0.00000   0.00097   0.00098   3.13052
   D230      -0.00243   0.00006   0.00000   0.00103   0.00104  -0.00140
   D231      -0.01404   0.00012   0.00000  -0.00006  -0.00006  -0.01409
   D232       3.13717   0.00002   0.00000   0.00000   0.00000   3.13717
   D233      -0.00350  -0.00005   0.00000  -0.00002  -0.00001  -0.00352
   D234      -3.13461  -0.00007   0.00000   0.00005   0.00005  -3.13456
   D235       3.12842   0.00005   0.00000  -0.00010  -0.00009   3.12832
   D236      -0.00269   0.00002   0.00000  -0.00003  -0.00003  -0.00272
   D237       0.00831   0.00015   0.00000   0.00056   0.00056   0.00886
   D238      -3.12921   0.00011   0.00000   0.00049   0.00049  -3.12872
   D239       3.13945   0.00016   0.00000   0.00050   0.00050   3.13995
   D240       0.00193   0.00013   0.00000   0.00043   0.00043   0.00236
   D241       0.00463  -0.00024   0.00000  -0.00100  -0.00100   0.00363
   D242      -3.13120  -0.00010   0.00000  -0.00038  -0.00038  -3.13158
   D243      -3.14103  -0.00020   0.00000  -0.00093  -0.00094   3.14122
   D244       0.00632  -0.00006   0.00000  -0.00031  -0.00031   0.00601
   D245      -0.00193   0.00014   0.00000   0.00023   0.00023  -0.00170
   D246       3.13162   0.00027   0.00000   0.00077   0.00077   3.13239
   D247      -3.13540   0.00001   0.00000  -0.00022  -0.00022  -3.13563
   D248      -0.00185   0.00014   0.00000   0.00031   0.00031  -0.00154
   D249       0.00083  -0.00006   0.00000  -0.00055  -0.00056   0.00027
   D250      -3.13294  -0.00006   0.00000  -0.00085  -0.00085  -3.13379
   D251       3.13429   0.00007   0.00000  -0.00010  -0.00010   3.13419
   D252       0.00052   0.00007   0.00000  -0.00039  -0.00039   0.00013
   D253       0.00169  -0.00019   0.00000   0.00033   0.00033   0.00201
   D254       3.13390   0.00017   0.00000   0.00069   0.00069   3.13459
   D255      -3.13189  -0.00032   0.00000  -0.00021  -0.00021  -3.13210
   D256       0.00032   0.00004   0.00000   0.00015   0.00015   0.00048
   D257      -3.13840   0.00052   0.00000  -0.00046  -0.00046  -3.13886
   D258      -0.00035   0.00016   0.00000  -0.00055  -0.00055  -0.00089
   D259       0.01264   0.00015   0.00000  -0.00084  -0.00084   0.01180
   D260      -3.13249  -0.00021   0.00000  -0.00092  -0.00092  -3.13342
   D261       3.13730  -0.00043   0.00000   0.00016   0.00016   3.13746
   D262      -0.01722  -0.00036   0.00000   0.00203   0.00203  -0.01519
   D263      -0.00077  -0.00008   0.00000   0.00022   0.00022  -0.00055
   D264       3.12790  -0.00001   0.00000   0.00209   0.00209   3.12999
   D265       0.00053   0.00003   0.00000   0.00032   0.00032   0.00086
   D266       3.13431   0.00003   0.00000   0.00062   0.00062   3.13493
   D267      -3.12826  -0.00002   0.00000  -0.00150  -0.00150  -3.12976
   D268       0.00552  -0.00001   0.00000  -0.00120  -0.00121   0.00432
   D269      -1.90523   0.01595   0.00000   0.05324   0.05327  -1.85196
   D270       0.10297  -0.00501   0.00000   0.02723   0.02720   0.13017
   D271       2.24291   0.00632   0.00000   0.04556   0.04555   2.28846
   D272       2.01149  -0.00247   0.00000  -0.04415  -0.04415   1.96733
   D273      -0.00630   0.00003   0.00000  -0.00022  -0.00022  -0.00652
   D274       3.13711   0.00033   0.00000   0.00020   0.00020   3.13731
   D275       3.13828  -0.00016   0.00000  -0.00038  -0.00038   3.13790
   D276      -0.00149   0.00013   0.00000   0.00004   0.00004  -0.00144
   D277       0.00507  -0.00004   0.00000  -0.00002  -0.00002   0.00505
   D278      -3.13959  -0.00017   0.00000  -0.00028  -0.00028  -3.13987
   D279      -3.13952   0.00016   0.00000   0.00014   0.00014  -3.13938
   D280      -0.00099   0.00002   0.00000  -0.00012  -0.00012  -0.00111
   D281      -0.00632   0.00025   0.00000   0.00083   0.00083  -0.00549
   D282       3.12973   0.00131   0.00000   0.00260   0.00260   3.13233
   D283       3.13346  -0.00005   0.00000   0.00042   0.00042   3.13388
   D284      -0.01368   0.00101   0.00000   0.00218   0.00219  -0.01149
   D285      -3.12914   0.00042   0.00000   0.00257   0.00257  -3.12657
   D286       0.01985  -0.00049   0.00000  -0.00118  -0.00118   0.01868
   D287       0.01804  -0.00065   0.00000   0.00077   0.00078   0.01882
   D288      -3.11614  -0.00157   0.00000  -0.00297  -0.00297  -3.11911
   D289       3.12779  -0.00045   0.00000  -0.00279  -0.00278   3.12501
   D290      -0.00142  -0.00043   0.00000  -0.00201  -0.00201  -0.00343
   D291      -0.02112   0.00047   0.00000   0.00093   0.00093  -0.02019
   D292       3.13286   0.00048   0.00000   0.00171   0.00171   3.13456
   D293       0.00880  -0.00023   0.00000  -0.00035  -0.00035   0.00845
   D294      -3.12974  -0.00009   0.00000  -0.00009  -0.00009  -3.12983
   D295       3.13805  -0.00026   0.00000  -0.00115  -0.00114   3.13691
   D296      -0.00048  -0.00012   0.00000  -0.00089  -0.00089  -0.00137
         Item               Value     Threshold  Converged?
 Maximum Force            0.045909     0.000450     NO 
 RMS     Force            0.004956     0.000300     NO 
 Maximum Displacement     0.454020     0.001800     NO 
 RMS     Displacement     0.072701     0.001200     NO 
 Predicted change in Energy=-9.795049D-03
 GradGradGradGradGradGradGradGradGradGradGradGradGradGradGradGradGradGrad

 Stoichiometry    C47H49O8PSi
 Framework group  C1[X(C47H49O8PSi)]
 Deg. of freedom   312
 Full point group                 C1      NOp   1
 Largest Abelian subgroup         C1      NOp   1
 Largest concise Abelian subgroup C1      NOp   1
                         Standard orientation:                         
 ---------------------------------------------------------------------
 Center     Atomic      Atomic             Coordinates (Angstroms)
 Number     Number       Type             X           Y           Z
 ---------------------------------------------------------------------
      1          6           0       -1.246830    0.973508   -2.052244
      2          6           0       -1.160159    2.142280   -1.195651
      3          6           0       -0.011456    4.308288   -0.468493
      4          6           0        2.888737    2.787126   -1.312981
      5          8           0       -1.963861    2.191368   -0.120034
      6          1           0        0.987841    4.332595   -0.025218
      7          1           0       -0.722088    4.303195    0.361532
      8          1           0       -0.153828    5.241201   -1.021208
      9          8           0        3.457789    3.274724   -0.343081
     10          8           0        3.207673    3.000955   -2.601695
     11          6           0        4.313214    3.838439   -2.910205
     12          1           0        5.239579    3.429096   -2.497257
     13          1           0        4.414267    3.905812   -3.995300
     14          1           0        4.168423    4.845177   -2.507621
     15         14           0       -3.516305    2.840372   -0.044474
     16          6           0       -3.633213    3.775214    1.577274
     17          1           0       -4.562929    4.346922    1.630490
     18          1           0       -3.615222    3.089847    2.427670
     19          1           0       -2.801310    4.474772    1.687307
     20          6           0       -3.741247    4.041068   -1.470276
     21          1           0       -4.743589    4.476182   -1.461932
     22          1           0       -3.598418    3.542418   -2.432193
     23          1           0       -3.016516    4.856603   -1.409519
     24          6           0       -4.790977    1.409606   -0.093611
     25          6           0       -4.297688    0.241032    0.784170
     26          1           0       -5.002217   -0.597108    0.774264
     27          1           0       -3.331158   -0.138374    0.439049
     28          1           0       -4.168320    0.543344    1.828028
     29          6           0       -6.156765    1.887505    0.442432
     30          1           0       -6.091355    2.219716    1.482747
     31          1           0       -6.900775    1.084767    0.406945
     32          1           0       -6.552005    2.722615   -0.144553
     33          6           0       -4.997205    0.904865   -1.537015
     34          1           0       -5.712603    0.076566   -1.572301
     35          1           0       -5.385442    1.693259   -2.188628
     36          1           0       -4.065555    0.548332   -1.983501
     37          6           0        1.672642    1.829329   -1.167815
     38          6           0       -0.214025    3.112215   -1.393818
     39          6           0       -0.472857    0.759547   -3.146403
     40          8           0        1.433615    0.943419   -2.016285
     41          1           0        1.265272    1.830009   -0.151614
     42          6           0       -0.454194   -0.549489   -3.901280
     43          1           0       -1.892448    0.167907   -1.717812
     44          1           0        0.265372    3.201158   -2.367973
     45          6           0        1.851153    2.785456    2.906124
     46          6           0        0.610357    3.288160    3.261260
     47          6           0       -0.537391    2.518976    3.073817
     48          6           0       -0.453440    1.243365    2.536563
     49          1           0        2.742605    3.390406    3.032791
     50          1           0        0.527191    4.285767    3.677650
     51          1           0       -1.503678    2.926000    3.346194
     52          1           0       -1.362248    0.675449    2.377300
     53          6           0        1.969532    1.483709    2.355973
     54          6           0        0.804539    0.679090    2.176551
     55          6           0        0.945814   -0.640119    1.622187
     56          6           0        2.206504   -1.057234    1.175499
     57          6           0        3.354841   -0.257280    1.341654
     58          6           0        3.224473    0.983612    1.950818
     59          8           0        2.330936   -2.277595    0.560332
     60          1           0        4.100548    1.608974    2.086543
     61          6           0       -2.631702   -2.993779    1.080971
     62          6           0       -1.838899   -2.674401   -0.011117
     63          6           0       -0.626737   -1.989558    0.198881
     64          6           0       -0.250371   -1.536785    1.470613
     65          1           0       -3.560754   -3.531253    0.926498
     66          8           0        0.170679   -1.705610   -0.881585
     67          6           0       -1.030944   -1.937384    2.607943
     68          6           0       -2.241388   -2.664314    2.397530
     69          6           0       -3.036041   -3.042030    3.510499
     70          6           0       -2.638545   -2.725800    4.799870
     71          6           0       -1.446955   -2.034157    5.018408
     72          6           0       -0.651887   -1.645791    3.950411
     73          1           0       -3.956769   -3.590668    3.343424
     74          1           0       -3.248895   -3.024205    5.644908
     75          1           0       -1.138692   -1.801938    6.031726
     76          1           0        0.274952   -1.117431    4.141752
     77          6           0        7.218982   -1.477897   -0.065017
     78          6           0        6.425999   -2.378284    0.641929
     79          6           0        5.171155   -1.985106    1.099506
     80          6           0        4.694994   -0.691455    0.854119
     81          6           0        5.504850    0.202717    0.139800
     82          6           0        6.760786   -0.187261   -0.317457
     83          1           0        8.193775   -1.786082   -0.426019
     84          1           0        6.778829   -3.385866    0.831277
     85          1           0        4.556733   -2.694091    1.643668
     86          1           0        5.150884    1.206589   -0.070773
     87          1           0        7.376449    0.509978   -0.874190
     88         15           0        1.632532   -2.418853   -0.899732
     89          8           0        1.640164   -3.809467   -1.405775
     90          8           0        2.458354   -1.392116   -1.806632
     91          1           0        1.927822   -0.580224   -2.000537
     92          6           0       -3.175023   -3.654608   -3.960374
     93          6           0       -1.994944   -4.212556   -3.473601
     94          6           0       -1.560485   -3.903728   -2.187478
     95          6           0       -2.297461   -3.030831   -1.380918
     96          6           0       -3.489063   -2.489899   -1.875862
     97          6           0       -3.926147   -2.794986   -3.162547
     98          1           0       -3.510268   -3.893386   -4.963437
     99          1           0       -1.410052   -4.885297   -4.090981
    100          1           0       -0.645972   -4.348905   -1.813549
    101          1           0       -4.072098   -1.817824   -1.258382
    102          1           0       -4.845350   -2.361992   -3.540694
    103          1           0        0.104145    1.549383   -3.621704
    104          1           0        0.552833   -0.977011   -3.899332
    105          1           0       -1.127144   -1.285100   -3.452687
    106          1           0       -0.759528   -0.397379   -4.940025
 ---------------------------------------------------------------------
 Rotational constants (GHZ):           0.0594533           0.0436821           0.0395832
 Standard basis: def2SVP (5D, 7F)
 There are  1108 symmetry adapted cartesian basis functions of A   symmetry.
 There are  1051 symmetry adapted basis functions of A   symmetry.
  1051 basis functions,  1792 primitive gaussians,  1108 cartesian basis functions
   212 alpha electrons      212 beta electrons
       nuclear repulsion energy      9516.8157814705 Hartrees.
 NAtoms=  106 NActive=  106 NUniq=  106 SFac= 1.00D+00 NAtFMM=   60 NAOKFM=T Big=T
 Integral buffers will be    131072 words long.
 Raffenetti 2 integral format.
 Two-electron integral symmetry is turned on.
 Nuclear repulsion after empirical dispersion term =     9516.6859944054 Hartrees.
 ------------------------------------------------------------------------------
 Polarizable Continuum Model (PCM)
 =================================
 Model                : PCM.
 Atomic radii         : UFF (Universal Force Field).
 Polarization charges : Total charges.
 Charge compensation  : None.
 Solution method      : On-the-fly selection.
 Cavity type          : Scaled VdW (van der Waals Surface) (Alpha=1.100).
 Cavity algorithm     : GePol (No added spheres)
                        Default sphere list used, NSphG=  106.
                        Lebedev-Laikov grids with approx.  5.0 points / Ang**2.
                        Smoothing algorithm: York/Karplus (Gamma=1.0000).
                        Polarization charges: spherical gaussians, with
                                              point-specific exponents (IZeta= 3).
                        Self-potential: point-specific (ISelfS= 7).
                        Self-field    : sphere-specific E.n sum rule (ISelfD= 2).
 1st derivatives      : Analytical E(r).r(x)/FMM algorithm (CHGder, D1EAlg=3).
                        Cavity 1st derivative terms included.
 Solvent              : Toluene, Eps=   2.374100 Eps(inf)=   2.238315
 ------------------------------------------------------------------------------
 One-electron integrals computed using PRISM.
   1 Symmetry operations used in ECPInt.
 ECPInt:  NShTT=  121771 NPrTT=  444119 LenC2=   96714 LenP2D=  217939.
 LDataN:  DoStor=T MaxTD1= 4 Len=   56
 NBasis=  1051 RedAO= T EigKep=  1.54D-04  NBF=  1051
 NBsUse=  1051 1.00D-06 EigRej= -1.00D+00 NBFU=  1051
 Initial guess from the checkpoint file:  "BPA_TS_1_sqm.chk"
 B after Tr=    -0.000000    0.000000   -0.000000
         Rot=    0.999913    0.009168    0.007431    0.005921 Ang=   1.51 deg.
 ExpMin= 7.80D-02 ExpMax= 8.00D+03 ExpMxC= 1.20D+03 IAcc=3 IRadAn=         5 AccDes= 0.00D+00
 Harris functional with IExCor= 4639 and IRadAn=       5 diagonalized for initial guess.
 HarFok:  IExCor= 4639 AccDes= 0.00D+00 IRadAn=         5 IDoV= 1 UseB2=F ITyADJ=14
 ICtDFT=  3500011 ScaDFX=  1.000000  1.000000  1.000000  1.000000
 FoFCou: FMM=F IPFlag=           0 FMFlag=      100000 FMFlg1=        2001
         NFxFlg=           0 DoJE=T BraDBF=F KetDBF=T FulRan=T
         wScrn=  0.000000 ICntrl=       500 IOpCl=  0 I1Cent=   200000004 NGrid=           0
         NMat0=    1 NMatS0=      1 NMatT0=    0 NMatD0=    1 NMtDS0=    0 NMtDT0=    0
 Petite list used in FoFCou.
 Requested convergence on RMS density matrix=1.00D-08 within 128 cycles.
 Requested convergence on MAX density matrix=1.00D-06.
 Requested convergence on             energy=1.00D-06.
 No special actions if energy rises.
 Inv3:  Mode=3 IEnd=       12648.
 Iteration    1 A*A^-1 deviation from unit magnitude is 3.55D-15 for   3928.
 Iteration    1 A*A^-1 deviation from orthogonality  is 3.40D-15 for   4084   4043.
 Iteration    1 A^-1*A deviation from unit magnitude is 3.55D-15 for   3928.
 Iteration    1 A^-1*A deviation from orthogonality  is 2.78D-15 for   6195   2018.
