Unloading slurm/anatra/current
  ERROR: No such file or directory on
    '/cm/local/modulefiles/slurm/anatra/current'
environment: line 0: unalias: gv: not found
environment: line 0: unalias: sl: not found
 Entering Gaussian System, Link 0=g16
 Initial command:
 /apps/gaussian/g16/C.01/g16/l1.exe "/local/jobs/1150732/Gau-3279044.inp" -scrdir="/local/jobs/1150732/"
 Entering Link 1 = /apps/gaussian/g16/C.01/g16/l1.exe PID=   3279045.
  
 Copyright (c) 1988-2019, Gaussian, Inc.  All Rights Reserved.
  
 This is part of the Gaussian(R) 16 program.  It is based on
 the Gaussian(R) 09 system (copyright 2009, Gaussian, Inc.),
 the Gaussian(R) 03 system (copyright 2003, Gaussian, Inc.),
 the Gaussian(R) 98 system (copyright 1998, Gaussian, Inc.),
 the Gaussian(R) 94 system (copyright 1995, Gaussian, Inc.),
 the Gaussian 92(TM) system (copyright 1992, Gaussian, Inc.),
 the Gaussian 90(TM) system (copyright 1990, Gaussian, Inc.),
 the Gaussian 88(TM) system (copyright 1988, Gaussian, Inc.),
 the Gaussian 86(TM) system (copyright 1986, Carnegie Mellon
 University), and the Gaussian 82(TM) system (copyright 1983,
 Carnegie Mellon University). Gaussian is a federally registered
 trademark of Gaussian, Inc.
  
 This software contains proprietary and confidential information,
 including trade secrets, belonging to Gaussian, Inc.
  
 This software is provided under written license and may be
 used, copied, transmitted, or stored only in accord with that
 written license.
  
 The following legend is applicable only to US Government
 contracts under FAR:
  
                    RESTRICTED RIGHTS LEGEND
  
 Use, reproduction and disclosure by the US Government is
 subject to restrictions as set forth in subparagraphs (a)
 and (c) of the Commercial Computer Software - Restricted
 Rights clause in FAR 52.227-19.
  
 Gaussian, Inc.
 340 Quinnipiac St., Bldg. 40, Wallingford CT 06492
  
  
 ---------------------------------------------------------------
 Warning -- This program may not be used in any manner that
 competes with the business of Gaussian, Inc. or will provide
 assistance to any competitor of Gaussian, Inc.  The licensee
 of this program is prohibited from giving any competitor of
 Gaussian, Inc. access to this program.  By using this program,
 the user acknowledges that Gaussian, Inc. is engaged in the
 business of creating and licensing software in the field of
 computational chemistry and represents and warrants to the
 licensee that it is not a competitor of Gaussian, Inc. and that
 it will not use this program in any manner prohibited above.
 ---------------------------------------------------------------
  

 Cite this work as:
 Gaussian 16, Revision C.01,
 M. J. Frisch, G. W. Trucks, H. B. Schlegel, G. E. Scuseria, 
 M. A. Robb, J. R. Cheeseman, G. Scalmani, V. Barone, 
 G. A. Petersson, H. Nakatsuji, X. Li, M. Caricato, A. V. Marenich, 
 J. Bloino, B. G. Janesko, R. Gomperts, B. Mennucci, H. P. Hratchian, 
 J. V. Ortiz, A. F. Izmaylov, J. L. Sonnenberg, D. Williams-Young, 
 F. Ding, F. Lipparini, F. Egidi, J. Goings, B. Peng, A. Petrone, 
 T. Henderson, D. Ranasinghe, V. G. Zakrzewski, J. Gao, N. Rega, 
 G. Zheng, W. Liang, M. Hada, M. Ehara, K. Toyota, R. Fukuda, 
 J. Hasegawa, M. Ishida, T. Nakajima, Y. Honda, O. Kitao, H. Nakai, 
 T. Vreven, K. Throssell, J. A. Montgomery, Jr., J. E. Peralta, 
 F. Ogliaro, M. J. Bearpark, J. J. Heyd, E. N. Brothers, K. N. Kudin, 
 V. N. Staroverov, T. A. Keith, R. Kobayashi, J. Normand, 
 K. Raghavachari, A. P. Rendell, J. C. Burant, S. S. Iyengar, 
 J. Tomasi, M. Cossi, J. M. Millam, M. Klene, C. Adamo, R. Cammi, 
 J. W. Ochterski, R. L. Martin, K. Morokuma, O. Farkas, 
 J. B. Foresman, and D. J. Fox, Gaussian, Inc., Wallingford CT, 2019.
 
 ******************************************
 Gaussian 16:  ES64L-G16RevC.01  3-Jul-2019
                18-Dec-2023 
 ******************************************
 %chk=BPA_TS_2_sqm.chk
 ----------------------------------------------------------------------
 # wb97xd def2svp geom=allchk scrf=(iefpcm,solvent=toluene) opt=(readfc
 ,ts,noeigen,maxcycles=50,maxstep=10)
 ----------------------------------------------------------------------
 1/5=1,6=50,8=10,10=3,11=1,18=20,26=3,29=7,38=1/1,3;
 2/9=110,12=2,40=1/2;
 3/5=43,7=101,11=2,14=-4,25=1,30=1,70=2201,71=1,72=13,74=-58/1,2,3;
 4//1;
 5/5=2,38=5,53=13/2;
 6/7=2,8=2,9=2,10=2,28=1/1;
 7//1,2,3,16;
 1/5=1,6=50,8=10,11=1,18=20,26=3/3(2);
 2/9=110/2;
 99//99;
 2/9=110/2;
 3/5=43,7=101,11=2,14=-2,25=1,30=1,70=2205,71=1,72=13,74=-58/1,2,3;
 4/5=5,16=3,69=1/1;
 5/5=2,38=5,53=13/2;
 7//1,2,3,16;
 1/5=1,6=50,8=10,11=1,18=20,26=3/3(-5);
 2/9=110/2;
 6/7=2,8=2,9=2,10=2,19=2,28=1/1;
 99/9=1/99;
 Structure from the checkpoint file:  "BPA_TS_2_sqm.chk"
 ----------
 Structure2
 ----------
 Charge =  0 Multiplicity = 1
 Redundant internal coordinates found in file.  (old form).
 C,0,-2.2927,0.8207,-2.4987
 C,0,-1.3555,0.042,-3.299
 C,0,-0.7559,-2.1064,-4.5631
 C,0,-2.5339,-3.7484,-2.1654
 O,0,-0.0915,0.4744,-3.4509
 H,0,0.232,-1.6622,-4.6802
 H,0,-1.1485,-2.3006,-5.5614
 H,0,-0.6083,-3.0655,-4.0694
 O,0,-1.7156,-4.67,-2.1019
 O,0,-3.8305,-3.8559,-2.5333
 C,0,-4.3716,-5.126,-2.8659
 H,0,-5.4227,-5.0231,-3.136
 H,0,-3.8445,-5.5683,-3.7128
 H,0,-4.3042,-5.814,-2.0215
 Si,0,0.4526,1.9414,-4.0654
 C,0,-0.9951,3.0875,-4.4332
 H,0,-0.6624,3.9898,-4.9433
 H,0,-1.7283,2.5953,-5.0708
 H,0,-1.5044,3.3946,-3.522
 C,0,1.5346,2.7104,-2.7398
 H,0,2.4433,2.1309,-2.5871
 H,0,1.0071,2.7464,-1.7892
 H,0,1.8249,3.7258,-3.0042
 C,0,1.4567,1.5883,-5.6653
 C,0,0.5384,1.0051,-6.7612
 H,0,1.0904,0.7801,-7.6749
 H,0,0.0636,0.0795,-6.434
 H,0,-0.2586,1.6999,-7.0293
 C,0,2.0893,2.8894,-6.2061
 H,0,1.3309,3.6348,-6.4491
 H,0,2.6649,2.7099,-7.1155
 H,0,2.7682,3.338,-5.4795
 C,0,2.5911,0.579,-5.387
 H,0,3.1728,0.3675,-6.2856
 H,0,3.2857,0.9518,-4.6333
 H,0,2.1968,-0.3719,-5.0287
 C,0,-2.154,-2.263,-1.8394
 C,0,-1.7111,-1.1809,-3.7981
 C,0,-3.579,0.4615,-2.2488
 O,0,-2.9961,-1.4556,-1.3686
 H,0,-1.0723,-2.1219,-1.7922
 C,0,-4.4682,1.2005,-1.2647
 H,0,-1.903,1.6842,-1.9799
 H,0,-2.7615,-1.4501,-3.9014
 C,0,1.744,-3.7404,-1.4459
 C,0,2.529,-3.0325,-2.3496
 C,0,2.6283,-1.6509,-2.2593
 C,0,1.9476,-0.9582,-1.2627
 H,0,1.6552,-4.8144,-1.5316
 H,0,3.0587,-3.5583,-3.1313
 H,0,3.2357,-1.1092,-2.9695
 H,0,2.025,0.1179,-1.2257
 C,0,1.0395,-3.0617,-0.4202
 C,0,1.1444,-1.6422,-0.304
 C,0,0.425,-0.971,0.7426
 C,0,-0.4485,-1.7149,1.5601
 C,0,-0.5447,-3.11,1.4428
 C,0,0.2124,-3.7679,0.4751
 O,0,-1.2169,-1.0599,2.4886
 H,0,0.1404,-4.842,0.3769
 C,0,0.7948,3.3237,1.0114
 C,0,-0.4472,2.7426,0.7692
 C,0,-0.5753,1.3468,0.7825
 C,0,0.5551,0.5179,0.9266
 H,0,0.887,4.4003,1.019
 O,0,-1.806,0.7719,0.5885
 C,0,1.8228,1.1127,1.2434
 C,0,1.9343,2.5365,1.2757
 C,0,3.1849,3.1384,1.5649
 C,0,4.3014,2.3525,1.8317
 C,0,4.2036,0.9673,1.8205
 C,0,2.9901,0.3479,1.5353
 H,0,3.2656,4.2158,1.585
 H,0,5.2491,2.8205,2.0572
 H,0,5.0748,0.3661,2.0389
 H,0,2.9341,-0.7308,1.5416
 C,0,-3.1694,-5.4148,3.9306
 C,0,-3.1607,-5.6226,2.5539
 C,0,-2.3078,-4.8713,1.7492
 C,0,-1.4582,-3.909,2.3113
 C,0,-1.481,-3.7144,3.6978
 C,0,-2.3331,-4.4621,4.5063
 H,0,-3.8349,-5.9913,4.5569
 H,0,-3.817,-6.3575,2.1113
 H,0,-2.3167,-5.0318,0.6808
 H,0,-0.8398,-2.9712,4.1505
 H,0,-2.3484,-4.2962,5.5737
 P,0,-2.3535,-0.0807,1.8603
 O,0,-3.0478,0.7442,2.8816
 O,0,-3.341,-1.1225,1.1331
 H,0,-3.2788,-1.0491,0.1531
 C,0,-3.7754,5.2792,-0.1196
 C,0,-3.7982,4.4907,1.0282
 C,0,-2.7126,3.6701,1.3221
 C,0,-1.6039,3.6279,0.4717
 C,0,-1.5888,4.4359,-0.6707
 C,0,-2.673,5.257,-0.9705
 H,0,-4.6197,5.9132,-0.3495
 H,0,-4.6523,4.5089,1.6899
 H,0,-2.7338,3.0675,2.2179
 H,0,-0.7382,4.4165,-1.3359
 H,0,-2.6605,5.8706,-1.8596
 H,0,-4.1059,-0.3016,-2.8139
 H,0,-5.3369,1.615,-1.7754
 H,0,-4.8169,0.5274,-0.4816
 H,0,-3.9376,2.0228,-0.7829
 Recover connectivity data from disk.

 GradGradGradGradGradGradGradGradGradGradGradGradGradGradGradGradGradGrad
 Berny optimization.
 Initialization pass.
 Force constant matrix read from checkpoint file:
 "BPA_TS_2_sqm.chk"
                           ----------------------------
                           !    Initial Parameters    !
                           ! (Angstroms and Degrees)  !
 --------------------------                            --------------------------
 ! Name  Definition              Value          Derivative Info.                !
 --------------------------------------------------------------------------------
 ! R1    R(1,2)                  1.4578         D2E/DX2 =    0.3564             !
 ! R2    R(1,39)                 1.3587         D2E/DX2 =    0.5552             !
 ! R3    R(1,43)                 1.0801         D2E/DX2 =    0.2782             !
 ! R4    R(2,5)                  1.3445         D2E/DX2 =    0.4723             !
 ! R5    R(2,38)                 1.3679         D2E/DX2 =    0.5319             !
 ! R6    R(3,6)                  1.0895         D2E/DX2 =    0.2697             !
 ! R7    R(3,7)                  1.0902         D2E/DX2 =    0.2698             !
 ! R8    R(3,8)                  1.0888         D2E/DX2 =    0.2684             !
 ! R9    R(3,38)                 1.5343         D2E/DX2 =    0.339              !
 ! R10   R(4,9)                  1.2341         D2E/DX2 =    0.7501             !
 ! R11   R(4,10)                 1.3521         D2E/DX2 =    0.4392             !
 ! R12   R(4,37)                 1.5675         D2E/DX2 =    0.2581             !
 ! R13   R(5,15)                 1.681          D2E/DX2 =    0.2613             !
 ! R14   R(10,11)                1.4201         D2E/DX2 =    0.4117             !
 ! R15   R(11,12)                1.0901         D2E/DX2 =    0.2664             !
 ! R16   R(11,13)                1.0912         D2E/DX2 =    0.2654             !
 ! R17   R(11,14)                1.0913         D2E/DX2 =    0.2657             !
 ! R18   R(15,16)                1.8827         D2E/DX2 =    0.2102             !
 ! R19   R(15,20)                1.876          D2E/DX2 =    0.217              !
 ! R20   R(15,24)                1.9216         D2E/DX2 =    0.1962             !
 ! R21   R(16,17)                1.0886         D2E/DX2 =    0.2688             !
 ! R22   R(16,18)                1.0892         D2E/DX2 =    0.2688             !
 ! R23   R(16,19)                1.0881         D2E/DX2 =    0.2687             !
 ! R24   R(20,21)                1.0885         D2E/DX2 =    0.2692             !
 ! R25   R(20,22)                1.0877         D2E/DX2 =    0.2696             !
 ! R26   R(20,23)                1.0887         D2E/DX2 =    0.2688             !
 ! R27   R(24,25)                1.5441         D2E/DX2 =    0.3465             !
 ! R28   R(24,29)                1.5445         D2E/DX2 =    0.3452             !
 ! R29   R(24,33)                1.5437         D2E/DX2 =    0.3475             !
 ! R30   R(25,26)                1.091          D2E/DX2 =    0.2691             !
 ! R31   R(25,27)                1.0905         D2E/DX2 =    0.2695             !
 ! R32   R(25,28)                1.0908         D2E/DX2 =    0.2697             !
 ! R33   R(29,30)                1.0908         D2E/DX2 =    0.2696             !
 ! R34   R(29,31)                1.0911         D2E/DX2 =    0.269              !
 ! R35   R(29,32)                1.0909         D2E/DX2 =    0.2696             !
 ! R36   R(33,34)                1.0911         D2E/DX2 =    0.269              !
 ! R37   R(33,35)                1.0906         D2E/DX2 =    0.2696             !
 ! R38   R(33,36)                1.09           D2E/DX2 =    0.2693             !
 ! R39   R(37,38)                2.2811         D2E/DX2 =    0.0037             !
 ! R40   R(37,40)                1.258          D2E/DX2 =    0.5582             !
 ! R41   R(37,41)                1.0919         D2E/DX2 =    0.1717             !
 ! R42   R(37,44)                2.2982         D2E/DX2 =    0.0138             !
 ! R43   R(38,41)                2.3059         D2E/DX2 =    0.0165             !
 ! R44   R(38,44)                1.0893         D2E/DX2 =    0.1822             !
 ! R45   R(39,40)                2.1886         D2E/DX2 =    0.0171             !
 ! R46   R(39,42)                1.5183         D2E/DX2 =    0.3569             !
 ! R47   R(39,103)               1.0859         D2E/DX2 =    0.184              !
 ! R48   R(40,91)                1.6002         D2E/DX2 =    0.051              !
 ! R49   R(40,103)               2.1569         D2E/DX2 =    0.0115             !
 ! R50   R(42,104)               1.0896         D2E/DX2 =    0.2702             !
 ! R51   R(42,105)               1.0899         D2E/DX2 =    0.2693             !
 ! R52   R(42,106)               1.0908         D2E/DX2 =    0.2692             !
 ! R53   R(45,46)                1.3907         D2E/DX2 =    0.4851             !
 ! R54   R(45,49)                1.0811         D2E/DX2 =    0.2764             !
 ! R55   R(45,53)                1.4174         D2E/DX2 =    0.4354             !
 ! R56   R(46,47)                1.3881         D2E/DX2 =    0.4898             !
 ! R57   R(46,50)                1.0808         D2E/DX2 =    0.2782             !
 ! R58   R(47,48)                1.3915         D2E/DX2 =    0.4809             !
 ! R59   R(47,51)                1.0802         D2E/DX2 =    0.2782             !
 ! R60   R(48,52)                1.0795         D2E/DX2 =    0.2765             !
 ! R61   R(48,54)                1.4255         D2E/DX2 =    0.4136             !
 ! R62   R(53,54)                1.4281         D2E/DX2 =    0.3476             !
 ! R63   R(53,58)                1.4087         D2E/DX2 =    0.4521             !
 ! R64   R(54,55)                1.4365         D2E/DX2 =    0.4041             !
 ! R65   R(55,56)                1.4088         D2E/DX2 =    0.3745             !
 ! R66   R(55,64)                1.5059         D2E/DX2 =    0.3158             !
 ! R67   R(56,57)                1.4033         D2E/DX2 =    0.4639             !
 ! R68   R(56,59)                1.3717         D2E/DX2 =    0.3964             !
 ! R69   R(57,58)                1.3937         D2E/DX2 =    0.4811             !
 ! R70   R(57,80)                1.4924         D2E/DX2 =    0.3894             !
 ! R71   R(58,60)                1.081          D2E/DX2 =    0.2768             !
 ! R72   R(59,88)                1.6265         D2E/DX2 =    0.3158             !
 ! R73   R(61,62)                1.3924         D2E/DX2 =    0.484              !
 ! R74   R(61,65)                1.0806         D2E/DX2 =    0.2771             !
 ! R75   R(61,68)                1.41           D2E/DX2 =    0.4496             !
 ! R76   R(62,63)                1.4017         D2E/DX2 =    0.4694             !
 ! R77   R(62,95)                1.4867         D2E/DX2 =    0.4045             !
 ! R78   R(63,64)                1.4091         D2E/DX2 =    0.3752             !
 ! R79   R(63,66)                1.3721         D2E/DX2 =    0.3972             !
 ! R80   R(64,67)                1.4357         D2E/DX2 =    0.4033             !
 ! R81   R(66,88)                1.6261         D2E/DX2 =    0.3204             !
 ! R82   R(67,68)                1.4285         D2E/DX2 =    0.3463             !
 ! R83   R(67,72)                1.4257         D2E/DX2 =    0.4133             !
 ! R84   R(68,69)                1.4177         D2E/DX2 =    0.4348             !
 ! R85   R(69,70)                1.3912         D2E/DX2 =    0.4839             !
 ! R86   R(69,73)                1.0806         D2E/DX2 =    0.2766             !
 ! R87   R(70,71)                1.3887         D2E/DX2 =    0.4881             !
 ! R88   R(70,74)                1.0807         D2E/DX2 =    0.2782             !
 ! R89   R(71,72)                1.392          D2E/DX2 =    0.4803             !
 ! R90   R(71,75)                1.0808         D2E/DX2 =    0.278              !
 ! R91   R(72,76)                1.0802         D2E/DX2 =    0.2762             !
 ! R92   R(77,78)                1.3923         D2E/DX2 =    0.4805             !
 ! R93   R(77,82)                1.3923         D2E/DX2 =    0.4804             !
 ! R94   R(77,83)                1.0805         D2E/DX2 =    0.2783             !
 ! R95   R(78,79)                1.3926         D2E/DX2 =    0.4794             !
 ! R96   R(78,84)                1.0801         D2E/DX2 =    0.2781             !
 ! R97   R(79,80)                1.4014         D2E/DX2 =    0.4634             !
 ! R98   R(79,85)                1.0804         D2E/DX2 =    0.2773             !
 ! R99   R(80,81)                1.4003         D2E/DX2 =    0.4642             !
 ! R100  R(81,82)                1.3924         D2E/DX2 =    0.479              !
 ! R101  R(81,86)                1.0809         D2E/DX2 =    0.2775             !
 ! R102  R(82,87)                1.0803         D2E/DX2 =    0.278              !
 ! R103  R(88,89)                1.4851         D2E/DX2 =    0.5791             !
 ! R104  R(88,90)                1.6091         D2E/DX2 =    0.4144             !
 ! R105  R(90,91)                0.9847         D2E/DX2 =    0.2293             !
 ! R106  R(92,93)                1.3927         D2E/DX2 =    0.479              !
 ! R107  R(92,97)                1.3928         D2E/DX2 =    0.4796             !
 ! R108  R(92,98)                1.0806         D2E/DX2 =    0.2782             !
 ! R109  R(93,94)                1.3922         D2E/DX2 =    0.4794             !
 ! R110  R(93,99)                1.0806         D2E/DX2 =    0.2777             !
 ! R111  R(94,95)                1.3979         D2E/DX2 =    0.4694             !
 ! R112  R(94,100)               1.0798         D2E/DX2 =    0.2757             !
 ! R113  R(95,96)                1.3993         D2E/DX2 =    0.4676             !
 ! R114  R(96,97)                1.3927         D2E/DX2 =    0.4796             !
 ! R115  R(96,101)               1.08           D2E/DX2 =    0.2776             !
 ! R116  R(97,102)               1.0804         D2E/DX2 =    0.2778             !
 ! A1    A(2,1,39)             124.6377         D2E/DX2 =    0.0485             !
 ! A2    A(2,1,43)             117.3076         D2E/DX2 =    0.0709             !
 ! A3    A(39,1,43)            117.683          D2E/DX2 =    0.0748             !
 ! A4    A(1,2,5)              119.6445         D2E/DX2 =    0.1351             !
 ! A5    A(1,2,38)             120.7125         D2E/DX2 =    0.0538             !
 ! A6    A(5,2,38)             119.3864         D2E/DX2 =    0.1365             !
 ! A7    A(6,3,7)              107.5031         D2E/DX2 =    0.0388             !
 ! A8    A(6,3,8)              106.5572         D2E/DX2 =    0.0417             !
 ! A9    A(6,3,38)             111.849          D2E/DX2 =    0.0918             !
 ! A10   A(7,3,8)              107.8869         D2E/DX2 =    0.0398             !
 ! A11   A(7,3,38)             109.8664         D2E/DX2 =    0.0855             !
 ! A12   A(8,3,38)             112.934          D2E/DX2 =    0.0891             !
 ! A13   A(9,4,10)             126.1926         D2E/DX2 =    0.1121             !
 ! A14   A(9,4,37)             122.4299         D2E/DX2 =    0.0874             !
 ! A15   A(10,4,37)            111.3679         D2E/DX2 =    0.0886             !
 ! A16   A(2,5,15)             128.7742         D2E/DX2 =    0.1657             !
 ! A17   A(4,10,11)            120.0167         D2E/DX2 =    0.2113             !
 ! A18   A(10,11,12)           109.9384         D2E/DX2 =    0.1008             !
 ! A19   A(10,11,13)           111.1156         D2E/DX2 =    0.1113             !
 ! A20   A(10,11,14)           111.0457         D2E/DX2 =    0.1119             !
 ! A21   A(12,11,13)           108.1629         D2E/DX2 =    0.0514             !
 ! A22   A(12,11,14)           108.1062         D2E/DX2 =    0.0515             !
 ! A23   A(13,11,14)           108.3705         D2E/DX2 =    0.0513             !
 ! A24   A(5,15,16)            110.7184         D2E/DX2 =    0.0182             !
 ! A25   A(5,15,20)            106.6253         D2E/DX2 =    0.0156             !
 ! A26   A(5,15,24)            108.2479         D2E/DX2 =    0.0157             !
 ! A27   A(16,15,20)           109.3903         D2E/DX2 =    0.0246             !
 ! A28   A(16,15,24)           110.5487         D2E/DX2 =    0.0276             !
 ! A29   A(20,15,24)           111.2393         D2E/DX2 =    0.0264             !
 ! A30   A(15,16,17)           111.168          D2E/DX2 =    0.0477             !
 ! A31   A(15,16,18)           110.9089         D2E/DX2 =    0.0502             !
 ! A32   A(15,16,19)           111.5999         D2E/DX2 =    0.0506             !
 ! A33   A(17,16,18)           107.8174         D2E/DX2 =    0.0325             !
 ! A34   A(17,16,19)           107.5488         D2E/DX2 =    0.033              !
 ! A35   A(18,16,19)           107.618          D2E/DX2 =    0.0331             !
 ! A36   A(15,20,21)           111.2465         D2E/DX2 =    0.0501             !
 ! A37   A(15,20,22)           110.5724         D2E/DX2 =    0.0505             !
 ! A38   A(15,20,23)           111.3776         D2E/DX2 =    0.0482             !
 ! A39   A(21,20,22)           107.4492         D2E/DX2 =    0.0328             !
 ! A40   A(21,20,23)           107.9392         D2E/DX2 =    0.033              !
 ! A41   A(22,20,23)           108.1007         D2E/DX2 =    0.0329             !
 ! A42   A(15,24,25)           110.4596         D2E/DX2 =    0.0178             !
 ! A43   A(15,24,29)           110.5331         D2E/DX2 =    0.0176             !
 ! A44   A(15,24,33)           110.7339         D2E/DX2 =    0.0176             !
 ! A45   A(25,24,29)           108.2544         D2E/DX2 =    0.0252             !
 ! A46   A(25,24,33)           108.5438         D2E/DX2 =    0.0253             !
 ! A47   A(29,24,33)           108.2354         D2E/DX2 =    0.0253             !
 ! A48   A(24,25,26)           111.8014         D2E/DX2 =    0.0905             !
 ! A49   A(24,25,27)           111.503          D2E/DX2 =    0.0922             !
 ! A50   A(24,25,28)           111.616          D2E/DX2 =    0.0923             !
 ! A51   A(26,25,27)           107.2498         D2E/DX2 =    0.0421             !
 ! A52   A(26,25,28)           107.1706         D2E/DX2 =    0.0423             !
 ! A53   A(27,25,28)           107.2333         D2E/DX2 =    0.0418             !
 ! A54   A(24,29,30)           111.6473         D2E/DX2 =    0.0917             !
 ! A55   A(24,29,31)           111.6732         D2E/DX2 =    0.0904             !
 ! A56   A(24,29,32)           111.5977         D2E/DX2 =    0.0918             !
 ! A57   A(30,29,31)           107.0691         D2E/DX2 =    0.042              !
 ! A58   A(30,29,32)           107.4609         D2E/DX2 =    0.0419             !
 ! A59   A(31,29,32)           107.126          D2E/DX2 =    0.042              !
 ! A60   A(24,33,34)           111.7172         D2E/DX2 =    0.0912             !
 ! A61   A(24,33,35)           111.6606         D2E/DX2 =    0.0923             !
 ! A62   A(24,33,36)           111.335          D2E/DX2 =    0.0918             !
 ! A63   A(34,33,35)           107.2083         D2E/DX2 =    0.0423             !
 ! A64   A(34,33,36)           107.1256         D2E/DX2 =    0.0418             !
 ! A65   A(35,33,36)           107.543          D2E/DX2 =    0.0421             !
 ! A66   A(4,37,38)            108.5422         D2E/DX2 =    0.0076             !
 ! A67   A(4,37,40)            121.5862         D2E/DX2 =    0.0315             !
 ! A68   A(4,37,41)            111.8113         D2E/DX2 =    0.0404             !
 ! A69   A(4,37,44)             94.8485         D2E/DX2 =    0.0075             !
 ! A70   A(38,37,40)            98.4446         D2E/DX2 =    0.0119             !
 ! A71   A(40,37,41)           124.3339         D2E/DX2 =    0.0414             !
 ! A72   A(40,37,44)            86.0906         D2E/DX2 =    0.0097             !
 ! A73   A(41,37,44)           104.7705         D2E/DX2 =    0.0055             !
 ! A74   A(2,38,3)             124.0108         D2E/DX2 =    0.0366             !
 ! A75   A(2,38,37)             99.2806         D2E/DX2 =    0.0125             !
 ! A76   A(2,38,41)             88.5911         D2E/DX2 =    0.0092             !
 ! A77   A(2,38,44)            120.4143         D2E/DX2 =    0.0444             !
 ! A78   A(3,38,37)            105.2392         D2E/DX2 =    0.0126             !
 ! A79   A(3,38,41)             90.8654         D2E/DX2 =    0.011              !
 ! A80   A(3,38,44)            113.8275         D2E/DX2 =    0.0451             !
 ! A81   A(41,38,44)           104.4059         D2E/DX2 =    0.0055             !
 ! A82   A(1,39,40)             93.0613         D2E/DX2 =    0.0143             !
 ! A83   A(1,39,42)            123.0237         D2E/DX2 =    0.0349             !
 ! A84   A(1,39,103)           123.3266         D2E/DX2 =    0.0471             !
 ! A85   A(40,39,42)           108.7634         D2E/DX2 =    0.0097             !
 ! A86   A(42,39,103)          113.2754         D2E/DX2 =    0.0476             !
 ! A87   A(37,40,39)           126.1538         D2E/DX2 =    0.0177             !
 ! A88   A(37,40,91)           129.5796         D2E/DX2 =    0.0151             !
 ! A89   A(37,40,103)          115.914          D2E/DX2 =    0.0154             !
 ! A90   A(39,40,91)            96.4811         D2E/DX2 =    0.0178             !
 ! A91   A(91,40,103)          114.2291         D2E/DX2 =    0.014              !
 ! A92   A(39,42,104)          110.3821         D2E/DX2 =    0.0856             !
 ! A93   A(39,42,105)          110.6392         D2E/DX2 =    0.0831             !
 ! A94   A(39,42,106)          111.6124         D2E/DX2 =    0.097              !
 ! A95   A(104,42,105)         108.4587         D2E/DX2 =    0.0386             !
 ! A96   A(104,42,106)         107.9423         D2E/DX2 =    0.0409             !
 ! A97   A(105,42,106)         107.6877         D2E/DX2 =    0.0408             !
 ! A98   A(46,45,49)           120.0366         D2E/DX2 =    0.0778             !
 ! A99   A(46,45,53)           120.4685         D2E/DX2 =    0.0748             !
 ! A100  A(49,45,53)           119.4882         D2E/DX2 =    0.0781             !
 ! A101  A(45,46,47)           120.3147         D2E/DX2 =    0.0741             !
 ! A102  A(45,46,50)           119.9341         D2E/DX2 =    0.0763             !
 ! A103  A(47,46,50)           119.7494         D2E/DX2 =    0.0765             !
 ! A104  A(46,47,48)           120.4679         D2E/DX2 =    0.0744             !
 ! A105  A(46,47,51)           119.7755         D2E/DX2 =    0.0766             !
 ! A106  A(48,47,51)           119.7563         D2E/DX2 =    0.0765             !
 ! A107  A(47,48,52)           119.0578         D2E/DX2 =    0.0812             !
 ! A108  A(47,48,54)           121.2263         D2E/DX2 =    0.0752             !
 ! A109  A(52,48,54)           119.7131         D2E/DX2 =    0.0792             !
 ! A110  A(45,53,54)           119.889          D2E/DX2 =    0.0746             !
 ! A111  A(45,53,58)           120.7776         D2E/DX2 =    0.0994             !
 ! A112  A(54,53,58)           119.3218         D2E/DX2 =    0.0724             !
 ! A113  A(48,54,53)           117.6197         D2E/DX2 =    0.0766             !
 ! A114  A(48,54,55)           123.2286         D2E/DX2 =    0.1026             !
 ! A115  A(53,54,55)           119.1397         D2E/DX2 =    0.0716             !
 ! A116  A(54,55,56)           119.1163         D2E/DX2 =    0.0703             !
 ! A117  A(54,55,64)           120.5145         D2E/DX2 =    0.1                !
 ! A118  A(56,55,64)           120.3153         D2E/DX2 =    0.0737             !
 ! A119  A(55,56,57)           121.2616         D2E/DX2 =    0.071              !
 ! A120  A(55,56,59)           119.2078         D2E/DX2 =    0.0678             !
 ! A121  A(57,56,59)           119.5306         D2E/DX2 =    0.0947             !
 ! A122  A(56,57,58)           119.3455         D2E/DX2 =    0.0737             !
 ! A123  A(56,57,80)           121.7065         D2E/DX2 =    0.1106             !
 ! A124  A(58,57,80)           118.9374         D2E/DX2 =    0.1129             !
 ! A125  A(53,58,57)           121.5733         D2E/DX2 =    0.0729             !
 ! A126  A(53,58,60)           118.6528         D2E/DX2 =    0.0804             !
 ! A127  A(57,58,60)           119.7312         D2E/DX2 =    0.0803             !
 ! A128  A(56,59,88)           114.6739         D2E/DX2 =    0.0833             !
 ! A129  A(62,61,65)           119.5459         D2E/DX2 =    0.0801             !
 ! A130  A(62,61,68)           121.3636         D2E/DX2 =    0.0735             !
 ! A131  A(65,61,68)           119.0771         D2E/DX2 =    0.0798             !
 ! A132  A(61,62,63)           119.6975         D2E/DX2 =    0.073              !
 ! A133  A(61,62,95)           118.7034         D2E/DX2 =    0.1129             !
 ! A134  A(63,62,95)           121.5851         D2E/DX2 =    0.1137             !
 ! A135  A(62,63,64)           120.8911         D2E/DX2 =    0.0709             !
 ! A136  A(62,63,66)           119.8568         D2E/DX2 =    0.1042             !
 ! A137  A(64,63,66)           119.1768         D2E/DX2 =    0.0705             !
 ! A138  A(55,64,63)           119.9874         D2E/DX2 =    0.0731             !
 ! A139  A(55,64,67)           120.8558         D2E/DX2 =    0.098              !
 ! A140  A(63,64,67)           119.1563         D2E/DX2 =    0.0707             !
 ! A141  A(63,66,88)           114.2735         D2E/DX2 =    0.0839             !
 ! A142  A(64,67,68)           119.1327         D2E/DX2 =    0.0715             !
 ! A143  A(64,67,72)           123.0844         D2E/DX2 =    0.101              !
 ! A144  A(68,67,72)           117.7826         D2E/DX2 =    0.076              !
 ! A145  A(61,68,67)           119.2845         D2E/DX2 =    0.0727             !
 ! A146  A(61,68,69)           120.9383         D2E/DX2 =    0.0991             !
 ! A147  A(67,68,69)           119.7764         D2E/DX2 =    0.0744             !
 ! A148  A(68,69,70)           120.4798         D2E/DX2 =    0.0747             !
 ! A149  A(68,69,73)           119.5359         D2E/DX2 =    0.0781             !
 ! A150  A(70,69,73)           119.9826         D2E/DX2 =    0.078              !
 ! A151  A(69,70,71)           120.3596         D2E/DX2 =    0.0741             !
 ! A152  A(69,70,74)           119.9433         D2E/DX2 =    0.0763             !
 ! A153  A(71,70,74)           119.6951         D2E/DX2 =    0.0765             !
 ! A154  A(70,71,72)           120.4583         D2E/DX2 =    0.0742             !
 ! A155  A(70,71,75)           119.7659         D2E/DX2 =    0.0765             !
 ! A156  A(72,71,75)           119.7753         D2E/DX2 =    0.0765             !
 ! A157  A(67,72,71)           121.1321         D2E/DX2 =    0.0751             !
 ! A158  A(67,72,76)           119.633          D2E/DX2 =    0.0786             !
 ! A159  A(71,72,76)           119.2339         D2E/DX2 =    0.0802             !
 ! A160  A(78,77,82)           120.4791         D2E/DX2 =    0.0771             !
 ! A161  A(78,77,83)           119.8249         D2E/DX2 =    0.0771             !
 ! A162  A(82,77,83)           119.6944         D2E/DX2 =    0.0772             !
 ! A163  A(77,78,79)           119.6469         D2E/DX2 =    0.0773             !
 ! A164  A(77,78,84)           120.1928         D2E/DX2 =    0.0767             !
 ! A165  A(79,78,84)           120.1588         D2E/DX2 =    0.0767             !
 ! A166  A(78,79,80)           120.6629         D2E/DX2 =    0.0779             !
 ! A167  A(78,79,85)           119.0917         D2E/DX2 =    0.0794             !
 ! A168  A(80,79,85)           120.2419         D2E/DX2 =    0.0792             !
 ! A169  A(57,80,79)           120.3528         D2E/DX2 =    0.1085             !
 ! A170  A(57,80,81)           120.7836         D2E/DX2 =    0.1071             !
 ! A171  A(79,80,81)           118.8636         D2E/DX2 =    0.0802             !
 ! A172  A(80,81,82)           120.6821         D2E/DX2 =    0.0778             !
 ! A173  A(80,81,86)           120.0381         D2E/DX2 =    0.0791             !
 ! A174  A(82,81,86)           119.2772         D2E/DX2 =    0.079              !
 ! A175  A(77,82,81)           119.6653         D2E/DX2 =    0.0772             !
 ! A176  A(77,82,87)           120.3392         D2E/DX2 =    0.0766             !
 ! A177  A(81,82,87)           119.9939         D2E/DX2 =    0.0768             !
 ! A178  A(59,88,66)           112.4889         D2E/DX2 =    0.0383             !
 ! A179  A(59,88,89)           113.2936         D2E/DX2 =    0.0381             !
 ! A180  A(59,88,90)           102.3361         D2E/DX2 =    0.0726             !
 ! A181  A(66,88,89)           113.8305         D2E/DX2 =    0.0432             !
 ! A182  A(66,88,90)           101.1065         D2E/DX2 =    0.0651             !
 ! A183  A(89,88,90)           112.5501         D2E/DX2 =    0.0427             !
 ! A184  A(88,90,91)           111.2682         D2E/DX2 =    0.3602             !
 ! A185  A(40,91,90)           159.8179         D2E/DX2 =    0.1167             !
 ! A186  A(93,92,97)           120.4929         D2E/DX2 =    0.0774             !
 ! A187  A(93,92,98)           119.6516         D2E/DX2 =    0.0772             !
 ! A188  A(97,92,98)           119.8555         D2E/DX2 =    0.0771             !
 ! A189  A(92,93,94)           119.6639         D2E/DX2 =    0.0773             !
 ! A190  A(92,93,99)           120.5351         D2E/DX2 =    0.0763             !
 ! A191  A(94,93,99)           119.8007         D2E/DX2 =    0.0769             !
 ! A192  A(93,94,95)           120.5178         D2E/DX2 =    0.0775             !
 ! A193  A(93,94,100)          119.2578         D2E/DX2 =    0.0801             !
 ! A194  A(95,94,100)          120.224          D2E/DX2 =    0.08               !
 ! A195  A(62,95,94)           120.8848         D2E/DX2 =    0.1113             !
 ! A196  A(62,95,96)           119.9215         D2E/DX2 =    0.1084             !
 ! A197  A(94,95,96)           119.1934         D2E/DX2 =    0.0804             !
 ! A198  A(95,96,97)           120.5154         D2E/DX2 =    0.078              !
 ! A199  A(95,96,101)          120.0635         D2E/DX2 =    0.0787             !
 ! A200  A(97,96,101)          119.4156         D2E/DX2 =    0.0787             !
 ! A201  A(92,97,96)           119.6087         D2E/DX2 =    0.0774             !
 ! A202  A(92,97,102)          120.1915         D2E/DX2 =    0.0766             !
 ! A203  A(96,97,102)          120.1994         D2E/DX2 =    0.0766             !
 ! D1    D(39,1,2,5)          -178.1285         D2E/DX2 =    0.0095             !
 ! D2    D(39,1,2,38)           -3.9828         D2E/DX2 =    0.0047             !
 ! D3    D(43,1,2,5)            -5.3087         D2E/DX2 =    0.0072             !
 ! D4    D(43,1,2,38)          168.837          D2E/DX2 =    0.0054             !
 ! D5    D(2,1,39,40)           56.898          D2E/DX2 =    0.0077             !
 ! D6    D(2,1,39,42)          171.6663         D2E/DX2 =    0.01               !
 ! D7    D(2,1,39,103)         -15.8328         D2E/DX2 =    0.0066             !
 ! D8    D(43,1,39,40)        -115.8972         D2E/DX2 =    0.0051             !
 ! D9    D(43,1,39,42)          -1.1289         D2E/DX2 =    0.0074             !
 ! D10   D(43,1,39,103)        171.3721         D2E/DX2 =    0.0065             !
 ! D11   D(1,2,5,15)           -57.1902         D2E/DX2 =    0.0206             !
 ! D12   D(38,2,5,15)          128.586          D2E/DX2 =    0.0199             !
 ! D13   D(1,2,38,3)          -175.4942         D2E/DX2 =    0.0091             !
 ! D14   D(1,2,38,37)          -59.9273         D2E/DX2 =    0.0068             !
 ! D15   D(1,2,38,41)          -85.4008         D2E/DX2 =    0.0112             !
 ! D16   D(1,2,38,44)           20.5098         D2E/DX2 =    0.0055             !
 ! D17   D(5,2,38,3)            -1.3336         D2E/DX2 =    0.0077             !
 ! D18   D(5,2,38,37)          114.2333         D2E/DX2 =    0.0073             !
 ! D19   D(5,2,38,41)           88.7598         D2E/DX2 =    0.0104             !
 ! D20   D(5,2,38,44)         -165.3296         D2E/DX2 =    0.0077             !
 ! D21   D(6,3,38,2)            -1.3048         D2E/DX2 =    0.0066             !
 ! D22   D(6,3,38,37)         -113.9778         D2E/DX2 =    0.0066             !
 ! D23   D(6,3,38,41)          -90.189          D2E/DX2 =    0.0075             !
 ! D24   D(6,3,38,44)          163.63           D2E/DX2 =    0.0063             !
 ! D25   D(7,3,38,2)          -120.6071         D2E/DX2 =    0.0068             !
 ! D26   D(7,3,38,37)          126.7199         D2E/DX2 =    0.0068             !
 ! D27   D(7,3,38,41)          150.5087         D2E/DX2 =    0.0074             !
 ! D28   D(7,3,38,44)           44.3277         D2E/DX2 =    0.0057             !
 ! D29   D(8,3,38,2)           118.8961         D2E/DX2 =    0.0065             !
 ! D30   D(8,3,38,37)            6.2231         D2E/DX2 =    0.0065             !
 ! D31   D(8,3,38,41)           30.0119         D2E/DX2 =    0.0073             !
 ! D32   D(8,3,38,44)          -76.1691         D2E/DX2 =    0.0059             !
 ! D33   D(9,4,10,11)            1.3239         D2E/DX2 =    0.01               !
 ! D34   D(37,4,10,11)        -179.7855         D2E/DX2 =    0.0118             !
 ! D35   D(9,4,37,38)           97.1176         D2E/DX2 =    0.0054             !
 ! D36   D(9,4,37,40)         -150.048          D2E/DX2 =    0.0048             !
 ! D37   D(9,4,37,41)           13.5345         D2E/DX2 =    0.0057             !
 ! D38   D(9,4,37,44)          121.566          D2E/DX2 =    0.0063             !
 ! D39   D(10,4,37,38)         -81.8217         D2E/DX2 =    0.0057             !
 ! D40   D(10,4,37,40)          31.0126         D2E/DX2 =    0.005              !
 ! D41   D(10,4,37,41)        -165.4048         D2E/DX2 =    0.0046             !
 ! D42   D(10,4,37,44)         -57.3733         D2E/DX2 =    0.0062             !
 ! D43   D(2,5,15,16)            4.845          D2E/DX2 =    0.0112             !
 ! D44   D(2,5,15,20)          123.7516         D2E/DX2 =    0.0121             !
 ! D45   D(2,5,15,24)         -116.4772         D2E/DX2 =    0.0117             !
 ! D46   D(4,10,11,12)         179.9804         D2E/DX2 =    0.0216             !
 ! D47   D(4,10,11,13)         -60.3134         D2E/DX2 =    0.0189             !
 ! D48   D(4,10,11,14)          60.3895         D2E/DX2 =    0.0191             !
 ! D49   D(5,15,16,17)        -173.0548         D2E/DX2 =    0.0089             !
 ! D50   D(5,15,16,18)         -53.1081         D2E/DX2 =    0.0092             !
 ! D51   D(5,15,16,19)          66.8744         D2E/DX2 =    0.0092             !
 ! D52   D(20,15,16,17)         69.7248         D2E/DX2 =    0.01               !
 ! D53   D(20,15,16,18)       -170.3285         D2E/DX2 =    0.0097             !
 ! D54   D(20,15,16,19)        -50.346          D2E/DX2 =    0.01               !
 ! D55   D(24,15,16,17)        -53.1004         D2E/DX2 =    0.0096             !
 ! D56   D(24,15,16,18)         66.8462         D2E/DX2 =    0.0096             !
 ! D57   D(24,15,16,19)       -173.1713         D2E/DX2 =    0.0094             !
 ! D58   D(5,15,20,21)          66.9715         D2E/DX2 =    0.0098             !
 ! D59   D(5,15,20,22)         -52.341          D2E/DX2 =    0.01               !
 ! D60   D(5,15,20,23)        -172.5587         D2E/DX2 =    0.0096             !
 ! D61   D(16,15,20,21)       -173.2593         D2E/DX2 =    0.0103             !
 ! D62   D(16,15,20,22)         67.4282         D2E/DX2 =    0.0106             !
 ! D63   D(16,15,20,23)        -52.7896         D2E/DX2 =    0.0107             !
 ! D64   D(24,15,20,21)        -50.846          D2E/DX2 =    0.01               !
 ! D65   D(24,15,20,22)       -170.1585         D2E/DX2 =    0.0099             !
 ! D66   D(24,15,20,23)         69.6237         D2E/DX2 =    0.0099             !
 ! D67   D(5,15,24,25)          65.2796         D2E/DX2 =    0.0109             !
 ! D68   D(5,15,24,29)        -174.9356         D2E/DX2 =    0.0107             !
 ! D69   D(5,15,24,33)         -54.9971         D2E/DX2 =    0.0105             !
 ! D70   D(16,15,24,25)        -56.1475         D2E/DX2 =    0.011              !
 ! D71   D(16,15,24,29)         63.6373         D2E/DX2 =    0.0108             !
 ! D72   D(16,15,24,33)       -176.4242         D2E/DX2 =    0.0106             !
 ! D73   D(20,15,24,25)       -177.8892         D2E/DX2 =    0.0106             !
 ! D74   D(20,15,24,29)        -58.1045         D2E/DX2 =    0.0106             !
 ! D75   D(20,15,24,33)         61.8341         D2E/DX2 =    0.0106             !
 ! D76   D(15,24,25,26)       -179.0176         D2E/DX2 =    0.0097             !
 ! D77   D(15,24,25,27)        -58.9606         D2E/DX2 =    0.0093             !
 ! D78   D(15,24,25,28)         60.9484         D2E/DX2 =    0.0094             !
 ! D79   D(29,24,25,26)         59.8339         D2E/DX2 =    0.0119             !
 ! D80   D(29,24,25,27)        179.8909         D2E/DX2 =    0.0121             !
 ! D81   D(29,24,25,28)        -60.2001         D2E/DX2 =    0.012              !
 ! D82   D(33,24,25,26)        -57.4365         D2E/DX2 =    0.0117             !
 ! D83   D(33,24,25,27)         62.6205         D2E/DX2 =    0.0118             !
 ! D84   D(33,24,25,28)       -177.4704         D2E/DX2 =    0.0119             !
 ! D85   D(15,24,29,30)        -60.1846         D2E/DX2 =    0.0095             !
 ! D86   D(15,24,29,31)        179.9777         D2E/DX2 =    0.0099             !
 ! D87   D(15,24,29,32)         60.1014         D2E/DX2 =    0.0095             !
 ! D88   D(25,24,29,30)         60.9184         D2E/DX2 =    0.0119             !
 ! D89   D(25,24,29,31)        -58.9192         D2E/DX2 =    0.0119             !
 ! D90   D(25,24,29,32)       -178.7955         D2E/DX2 =    0.0121             !
 ! D91   D(33,24,29,30)        178.3868         D2E/DX2 =    0.012              !
 ! D92   D(33,24,29,31)         58.5492         D2E/DX2 =    0.0118             !
 ! D93   D(33,24,29,32)        -61.3271         D2E/DX2 =    0.0119             !
 ! D94   D(15,24,33,34)       -179.9433         D2E/DX2 =    0.0098             !
 ! D95   D(15,24,33,35)        -59.8883         D2E/DX2 =    0.0095             !
 ! D96   D(15,24,33,36)         60.3307         D2E/DX2 =    0.0093             !
 ! D97   D(25,24,33,34)         58.6438         D2E/DX2 =    0.0118             !
 ! D98   D(25,24,33,35)        178.6987         D2E/DX2 =    0.012              !
 ! D99   D(25,24,33,36)        -61.0822         D2E/DX2 =    0.0119             !
 ! D100  D(29,24,33,34)        -58.6387         D2E/DX2 =    0.0119             !
 ! D101  D(29,24,33,35)         61.4162         D2E/DX2 =    0.0119             !
 ! D102  D(29,24,33,36)       -178.3648         D2E/DX2 =    0.0121             !
 ! D103  D(4,37,38,2)         -177.5369         D2E/DX2 =    0.0233             !
 ! D104  D(4,37,38,3)          -48.3434         D2E/DX2 =    0.0177             !
 ! D105  D(40,37,38,2)          54.9957         D2E/DX2 =    0.0236             !
 ! D106  D(40,37,38,3)        -175.8108         D2E/DX2 =    0.0221             !
 ! D107  D(4,37,40,39)        -122.8291         D2E/DX2 =    0.0056             !
 ! D108  D(4,37,40,91)          95.4143         D2E/DX2 =    0.0035             !
 ! D109  D(4,37,40,103)        -91.0499         D2E/DX2 =    0.0077             !
 ! D110  D(38,37,40,39)         -4.8801         D2E/DX2 =    0.0046             !
 ! D111  D(38,37,40,91)       -146.6368         D2E/DX2 =    0.0069             !
 ! D112  D(38,37,40,103)        26.8991         D2E/DX2 =    0.0095             !
 ! D113  D(41,37,40,39)         75.6989         D2E/DX2 =    0.0047             !
 ! D114  D(41,37,40,91)        -66.0578         D2E/DX2 =    0.0035             !
 ! D115  D(41,37,40,103)       107.4781         D2E/DX2 =    0.008              !
 ! D116  D(44,37,40,39)        -29.5366         D2E/DX2 =    0.0093             !
 ! D117  D(44,37,40,91)       -171.2932         D2E/DX2 =    0.0086             !
 ! D118  D(44,37,40,103)         2.2426         D2E/DX2 =    0.0133             !
 ! D119  D(1,39,40,37)         -45.5756         D2E/DX2 =    0.0152             !
 ! D120  D(1,39,40,91)         105.7287         D2E/DX2 =    0.017              !
 ! D121  D(42,39,40,37)       -172.0572         D2E/DX2 =    0.0158             !
 ! D122  D(42,39,40,91)        -20.753          D2E/DX2 =    0.017              !
 ! D123  D(1,39,42,104)        118.7632         D2E/DX2 =    0.0081             !
 ! D124  D(1,39,42,105)       -121.1788         D2E/DX2 =    0.0088             !
 ! D125  D(1,39,42,106)         -1.282          D2E/DX2 =    0.0088             !
 ! D126  D(40,39,42,104)      -134.4937         D2E/DX2 =    0.008              !
 ! D127  D(40,39,42,105)       -14.4356         D2E/DX2 =    0.0083             !
 ! D128  D(40,39,42,106)       105.4612         D2E/DX2 =    0.0084             !
 ! D129  D(103,39,42,104)      -54.4192         D2E/DX2 =    0.008              !
 ! D130  D(103,39,42,105)       65.6388         D2E/DX2 =    0.0082             !
 ! D131  D(103,39,42,106)     -174.4644         D2E/DX2 =    0.0082             !
 ! D132  D(37,40,91,90)        -29.6263         D2E/DX2 =    0.0158             !
 ! D133  D(39,40,91,90)       -179.4263         D2E/DX2 =    0.0192             !
 ! D134  D(103,40,91,90)       156.7492         D2E/DX2 =    0.0183             !
 ! D135  D(49,45,46,47)        178.8625         D2E/DX2 =    0.0076             !
 ! D136  D(49,45,46,50)         -0.6539         D2E/DX2 =    0.0088             !
 ! D137  D(53,45,46,47)         -0.1878         D2E/DX2 =    0.0078             !
 ! D138  D(53,45,46,50)       -179.7042         D2E/DX2 =    0.0083             !
 ! D139  D(46,45,53,54)         -0.5762         D2E/DX2 =    0.0062             !
 ! D140  D(46,45,53,58)        178.179          D2E/DX2 =    0.0054             !
 ! D141  D(49,45,53,54)       -179.6318         D2E/DX2 =    0.0064             !
 ! D142  D(49,45,53,58)         -0.8766         D2E/DX2 =    0.0069             !
 ! D143  D(45,46,47,48)          0.1762         D2E/DX2 =    0.0081             !
 ! D144  D(45,46,47,51)       -179.6281         D2E/DX2 =    0.0077             !
 ! D145  D(50,46,47,48)        179.6935         D2E/DX2 =    0.0075             !
 ! D146  D(50,46,47,51)         -0.1109         D2E/DX2 =    0.0089             !
 ! D147  D(46,47,48,52)       -178.7758         D2E/DX2 =    0.0076             !
 ! D148  D(46,47,48,54)          0.61           D2E/DX2 =    0.0078             !
 ! D149  D(51,47,48,52)          1.0286         D2E/DX2 =    0.0088             !
 ! D150  D(51,47,48,54)       -179.5856         D2E/DX2 =    0.0083             !
 ! D151  D(47,48,54,53)         -1.335          D2E/DX2 =    0.006              !
 ! D152  D(47,48,54,55)        179.9382         D2E/DX2 =    0.0051             !
 ! D153  D(52,48,54,53)        178.0468         D2E/DX2 =    0.0067             !
 ! D154  D(52,48,54,55)         -0.68           D2E/DX2 =    0.0068             !
 ! D155  D(45,53,54,48)          1.305          D2E/DX2 =    0.0048             !
 ! D156  D(45,53,54,55)       -179.9144         D2E/DX2 =    0.0039             !
 ! D157  D(58,53,54,48)       -177.4684         D2E/DX2 =    0.0043             !
 ! D158  D(58,53,54,55)          1.3123         D2E/DX2 =    0.0045             !
 ! D159  D(45,53,58,57)       -176.4268         D2E/DX2 =    0.005              !
 ! D160  D(45,53,58,60)          1.1922         D2E/DX2 =    0.0068             !
 ! D161  D(54,53,58,57)          2.3354         D2E/DX2 =    0.0057             !
 ! D162  D(54,53,58,60)        179.9544         D2E/DX2 =    0.0061             !
 ! D163  D(48,54,55,56)        173.6785         D2E/DX2 =    0.0051             !
 ! D164  D(48,54,55,64)         -3.6601         D2E/DX2 =    0.0067             !
 ! D165  D(53,54,55,56)         -5.0299         D2E/DX2 =    0.005              !
 ! D166  D(53,54,55,64)        177.6315         D2E/DX2 =    0.0061             !
 ! D167  D(54,55,56,57)          5.2948         D2E/DX2 =    0.0056             !
 ! D168  D(54,55,56,59)       -174.7905         D2E/DX2 =    0.008              !
 ! D169  D(64,55,56,57)       -177.3612         D2E/DX2 =    0.0074             !
 ! D170  D(64,55,56,59)          2.5535         D2E/DX2 =    0.0082             !
 ! D171  D(54,55,64,63)        117.8274         D2E/DX2 =    0.0129             !
 ! D172  D(54,55,64,67)        -61.906          D2E/DX2 =    0.012              !
 ! D173  D(56,55,64,63)        -59.4792         D2E/DX2 =    0.0149             !
 ! D174  D(56,55,64,67)        120.7874         D2E/DX2 =    0.0134             !
 ! D175  D(55,56,57,58)         -1.7117         D2E/DX2 =    0.0053             !
 ! D176  D(55,56,57,80)        179.4828         D2E/DX2 =    0.0059             !
 ! D177  D(59,56,57,58)        178.3739         D2E/DX2 =    0.0067             !
 ! D178  D(59,56,57,80)         -0.4316         D2E/DX2 =    0.0068             !
 ! D179  D(55,56,59,88)         66.7983         D2E/DX2 =    0.0208             !
 ! D180  D(57,56,59,88)       -113.2855         D2E/DX2 =    0.0195             !
 ! D181  D(56,57,58,53)         -2.1841         D2E/DX2 =    0.0059             !
 ! D182  D(56,57,58,60)       -179.7779         D2E/DX2 =    0.0064             !
 ! D183  D(80,57,58,53)        176.6548         D2E/DX2 =    0.0064             !
 ! D184  D(80,57,58,60)         -0.939          D2E/DX2 =    0.0072             !
 ! D185  D(56,57,80,79)        132.0988         D2E/DX2 =    0.0046             !
 ! D186  D(56,57,80,81)        -48.0282         D2E/DX2 =    0.0038             !
 ! D187  D(58,57,80,79)        -46.7115         D2E/DX2 =    0.0042             !
 ! D188  D(58,57,80,81)        133.1615         D2E/DX2 =    0.0032             !
 ! D189  D(56,59,88,66)        -41.6528         D2E/DX2 =    0.0221             !
 ! D190  D(56,59,88,89)       -172.5216         D2E/DX2 =    0.0302             !
 ! D191  D(56,59,88,90)         66.0423         D2E/DX2 =    0.0208             !
 ! D192  D(65,61,62,63)       -178.8527         D2E/DX2 =    0.0066             !
 ! D193  D(65,61,62,95)          2.4828         D2E/DX2 =    0.0076             !
 ! D194  D(68,61,62,63)         -0.198          D2E/DX2 =    0.0063             !
 ! D195  D(68,61,62,95)       -178.8626         D2E/DX2 =    0.0076             !
 ! D196  D(62,61,68,67)          2.4424         D2E/DX2 =    0.0061             !
 ! D197  D(62,61,68,69)       -177.8859         D2E/DX2 =    0.0056             !
 ! D198  D(65,61,68,67)       -178.8968         D2E/DX2 =    0.0064             !
 ! D199  D(65,61,68,69)          0.7749         D2E/DX2 =    0.007              !
 ! D200  D(61,62,63,64)         -5.3514         D2E/DX2 =    0.0058             !
 ! D201  D(61,62,63,66)        177.8311         D2E/DX2 =    0.0084             !
 ! D202  D(95,62,63,64)        173.2736         D2E/DX2 =    0.0076             !
 ! D203  D(95,62,63,66)         -3.544          D2E/DX2 =    0.0089             !
 ! D204  D(61,62,95,94)       -117.0629         D2E/DX2 =    0.0062             !
 ! D205  D(61,62,95,96)         62.7431         D2E/DX2 =    0.0052             !
 ! D206  D(63,62,95,94)         64.2989         D2E/DX2 =    0.0085             !
 ! D207  D(63,62,95,96)       -115.8951         D2E/DX2 =    0.0066             !
 ! D208  D(62,63,64,55)       -171.2846         D2E/DX2 =    0.008              !
 ! D209  D(62,63,64,67)          8.4533         D2E/DX2 =    0.0063             !
 ! D210  D(66,63,64,55)          5.5542         D2E/DX2 =    0.0086             !
 ! D211  D(66,63,64,67)       -174.7079         D2E/DX2 =    0.0093             !
 ! D212  D(62,63,66,88)       -116.7334         D2E/DX2 =    0.0226             !
 ! D213  D(64,63,66,88)         66.3944         D2E/DX2 =    0.0228             !
 ! D214  D(55,64,67,68)        173.6696         D2E/DX2 =    0.0067             !
 ! D215  D(55,64,67,72)         -6.5369         D2E/DX2 =    0.0069             !
 ! D216  D(63,64,67,68)         -6.066          D2E/DX2 =    0.0054             !
 ! D217  D(63,64,67,72)        173.7276         D2E/DX2 =    0.0056             !
 ! D218  D(63,66,88,59)        -45.8765         D2E/DX2 =    0.0214             !
 ! D219  D(63,66,88,89)         84.7204         D2E/DX2 =    0.0253             !
 ! D220  D(63,66,88,90)       -154.3528         D2E/DX2 =    0.0367             !
 ! D221  D(64,67,68,61)          0.7319         D2E/DX2 =    0.0046             !
 ! D222  D(64,67,68,69)       -178.9436         D2E/DX2 =    0.0043             !
 ! D223  D(72,67,68,61)       -179.0725         D2E/DX2 =    0.0045             !
 ! D224  D(72,67,68,69)          1.2519         D2E/DX2 =    0.0049             !
 ! D225  D(64,67,72,71)        179.158          D2E/DX2 =    0.0056             !
 ! D226  D(64,67,72,76)         -1.1926         D2E/DX2 =    0.0071             !
 ! D227  D(68,67,72,71)         -1.0458         D2E/DX2 =    0.0061             !
 ! D228  D(68,67,72,76)        178.6036         D2E/DX2 =    0.0067             !
 ! D229  D(61,68,69,70)        179.6356         D2E/DX2 =    0.0057             !
 ! D230  D(61,68,69,73)          0.1219         D2E/DX2 =    0.007              !
 ! D231  D(67,68,69,70)         -0.6943         D2E/DX2 =    0.0062             !
 ! D232  D(67,68,69,73)        179.792          D2E/DX2 =    0.0064             !
 ! D233  D(68,69,70,71)         -0.1261         D2E/DX2 =    0.0079             !
 ! D234  D(68,69,70,74)       -179.6174         D2E/DX2 =    0.0083             !
 ! D235  D(73,69,70,71)        179.3854         D2E/DX2 =    0.0076             !
 ! D236  D(73,69,70,74)         -0.1059         D2E/DX2 =    0.0088             !
 ! D237  D(69,70,71,72)          0.3513         D2E/DX2 =    0.0081             !
 ! D238  D(69,70,71,75)       -179.3863         D2E/DX2 =    0.0076             !
 ! D239  D(74,70,71,72)        179.8439         D2E/DX2 =    0.0076             !
 ! D240  D(74,70,71,75)          0.1062         D2E/DX2 =    0.0089             !
 ! D241  D(70,71,72,67)          0.2534         D2E/DX2 =    0.0078             !
 ! D242  D(70,71,72,76)       -179.3975         D2E/DX2 =    0.0076             !
 ! D243  D(75,71,72,67)        179.991          D2E/DX2 =    0.0083             !
 ! D244  D(75,71,72,76)          0.3402         D2E/DX2 =    0.0089             !
 ! D245  D(82,77,78,79)          0.038          D2E/DX2 =    0.0085             !
 ! D246  D(82,77,78,84)       -179.52           D2E/DX2 =    0.008              !
 ! D247  D(83,77,78,79)        179.5777         D2E/DX2 =    0.0082             !
 ! D248  D(83,77,78,84)          0.0197         D2E/DX2 =    0.0089             !
 ! D249  D(78,77,82,81)         -0.1094         D2E/DX2 =    0.0086             !
 ! D250  D(78,77,82,87)        179.4214         D2E/DX2 =    0.008              !
 ! D251  D(83,77,82,81)       -179.6497         D2E/DX2 =    0.0082             !
 ! D252  D(83,77,82,87)         -0.119          D2E/DX2 =    0.009              !
 ! D253  D(77,78,79,80)          0.0263         D2E/DX2 =    0.0084             !
 ! D254  D(77,78,79,85)       -179.2906         D2E/DX2 =    0.008              !
 ! D255  D(84,78,79,80)        179.5845         D2E/DX2 =    0.0081             !
 ! D256  D(84,78,79,85)          0.2676         D2E/DX2 =    0.0089             !
 ! D257  D(78,79,80,57)        179.8569         D2E/DX2 =    0.0069             !
 ! D258  D(78,79,80,81)         -0.0185         D2E/DX2 =    0.007              !
 ! D259  D(85,79,80,57)         -0.834          D2E/DX2 =    0.0072             !
 ! D260  D(85,79,80,81)        179.2905         D2E/DX2 =    0.0071             !
 ! D261  D(57,80,81,82)       -179.9286         D2E/DX2 =    0.0068             !
 ! D262  D(57,80,81,86)          0.654          D2E/DX2 =    0.0074             !
 ! D263  D(79,80,81,82)         -0.0537         D2E/DX2 =    0.0069             !
 ! D264  D(79,80,81,86)       -179.4711         D2E/DX2 =    0.007              !
 ! D265  D(80,81,82,77)          0.1174         D2E/DX2 =    0.0084             !
 ! D266  D(80,81,82,87)       -179.415          D2E/DX2 =    0.0081             !
 ! D267  D(86,81,82,77)        179.5392         D2E/DX2 =    0.0081             !
 ! D268  D(86,81,82,87)          0.0068         D2E/DX2 =    0.0089             !
 ! D269  D(59,88,90,91)       -109.7535         D2E/DX2 =    0.0322             !
 ! D270  D(66,88,90,91)          6.4749         D2E/DX2 =    0.0398             !
 ! D271  D(89,88,90,91)        128.3012         D2E/DX2 =    0.0313             !
 ! D272  D(88,90,91,40)        116.8734         D2E/DX2 =    0.1215             !
 ! D273  D(97,92,93,94)         -0.305          D2E/DX2 =    0.0086             !
 ! D274  D(97,92,93,99)        179.8755         D2E/DX2 =    0.0082             !
 ! D275  D(98,92,93,94)        179.7674         D2E/DX2 =    0.0082             !
 ! D276  D(98,92,93,99)         -0.0521         D2E/DX2 =    0.009              !
 ! D277  D(93,92,97,96)          0.2047         D2E/DX2 =    0.0086             !
 ! D278  D(93,92,97,102)       179.997          D2E/DX2 =    0.008              !
 ! D279  D(98,92,97,96)       -179.8678         D2E/DX2 =    0.0082             !
 ! D280  D(98,92,97,102)        -0.0756         D2E/DX2 =    0.009              !
 ! D281  D(92,93,94,95)         -0.2648         D2E/DX2 =    0.0084             !
 ! D282  D(92,93,94,100)       179.5092         D2E/DX2 =    0.0085             !
 ! D283  D(99,93,94,95)        179.556          D2E/DX2 =    0.0082             !
 ! D284  D(99,93,94,100)        -0.67           D2E/DX2 =    0.0092             !
 ! D285  D(93,94,95,62)       -179.2713         D2E/DX2 =    0.0068             !
 ! D286  D(93,94,95,96)          0.9213         D2E/DX2 =    0.0071             !
 ! D287  D(100,94,95,62)         0.9569         D2E/DX2 =    0.0076             !
 ! D288  D(100,94,95,96)      -178.8505         D2E/DX2 =    0.008              !
 ! D289  D(62,95,96,97)        179.1682         D2E/DX2 =    0.0067             !
 ! D290  D(62,95,96,101)         0.0176         D2E/DX2 =    0.0073             !
 ! D291  D(94,95,96,97)         -1.0226         D2E/DX2 =    0.0071             !
 ! D292  D(94,95,96,101)       179.8269         D2E/DX2 =    0.0072             !
 ! D293  D(95,96,97,92)          0.4658         D2E/DX2 =    0.0084             !
 ! D294  D(95,96,97,102)      -179.3263         D2E/DX2 =    0.0081             !
 ! D295  D(101,96,97,92)       179.6218         D2E/DX2 =    0.0081             !
 ! D296  D(101,96,97,102)       -0.1704         D2E/DX2 =    0.0089             !
 --------------------------------------------------------------------------------
 Trust Radius=1.00D-01 FncErr=1.00D-07 GrdErr=1.00D-06 EigMax=2.50D+02 EigMin=1.00D-04
 Number of steps in this run=     50 maximum allowed number of steps=    636.
 Search for a saddle point of order  1.
 GradGradGradGradGradGradGradGradGradGradGradGradGradGradGradGradGradGrad

 Stoichiometry    C47H49O8PSi
 Framework group  C1[X(C47H49O8PSi)]
 Deg. of freedom   312
 Full point group                 C1      NOp   1
 Largest Abelian subgroup         C1      NOp   1
 Largest concise Abelian subgroup C1      NOp   1
                         Standard orientation:                         
 ---------------------------------------------------------------------
 Center     Atomic      Atomic             Coordinates (Angstroms)
 Number     Number       Type             X           Y           Z
 ---------------------------------------------------------------------
      1          6           0       -1.233624    0.696034   -2.176146
      2          6           0       -1.387790    1.862771   -1.315824
      3          6           0       -0.632563    4.197550   -0.573172
      4          6           0        2.534260    3.149551   -1.265517
      5          8           0       -2.224975    1.808346   -0.265158
      6          1           0       -1.367492    4.090110    0.223890
      7          1           0       -0.899224    5.084895   -1.147596
      8          1           0        0.324215    4.387356   -0.089490
      9          8           0        3.002556    3.704465   -0.267638
     10          8           0        2.848415    3.422261   -2.551990
     11          6           0        3.821262    4.412546   -2.851106
     12          1           0        3.945573    4.497379   -3.930784
     13          1           0        3.520553    5.388095   -2.465642
     14          1           0        4.788973    4.154815   -2.417509
     15         14           0       -3.868606    1.456423   -0.245896
     16          6           0       -4.465490    0.968596   -1.963572
     17          1           0       -5.548154    0.857498   -1.986667
     18          1           0       -4.192208    1.723995   -2.699144
     19          1           0       -4.031804    0.023832   -2.285007
     20          6           0       -4.093911    0.009051    0.926132
     21          1           0       -3.869371    0.293898    1.952444
     22          1           0       -3.424616   -0.806059    0.659988
     23          1           0       -5.114586   -0.368685    0.898633
     24          6           0       -4.809542    3.011064    0.378851
     25          6           0       -4.655636    4.174611   -0.624576
     26          1           0       -5.167933    5.075029   -0.282557
     27          1           0       -3.607802    4.436310   -0.775532
     28          1           0       -5.069145    3.920208   -1.601368
     29          6           0       -6.315120    2.705455    0.538054
     30          1           0       -6.766591    2.403262   -0.407829
     31          1           0       -6.867847    3.576753    0.892844
     32          1           0       -6.488070    1.901538    1.254923
     33          6           0       -4.261936    3.467817    1.747977
     34          1           0       -4.786240    4.350053    2.118589
     35          1           0       -4.367145    2.688681    2.503881
     36          1           0       -3.204557    3.725135    1.686337
     37          6           0        1.446511    2.025028   -1.169282
     38          6           0       -0.604321    2.969920   -1.493123
     39          6           0       -0.391459    0.626936   -3.240113
     40          8           0        1.366413    1.110398   -2.029350
     41          1           0        1.002727    1.974065   -0.172953
     42          6           0       -0.122207   -0.659597   -4.000104
     43          1           0       -1.742016   -0.209429   -1.878950
     44          1           0       -0.103463    3.144417   -2.444528
     45          6           0        1.492931    2.851948    2.935107
     46          6           0        0.192681    3.201203    3.283520
     47          6           0       -0.850797    2.308510    3.080823
     48          6           0       -0.608845    1.053439    2.530683
     49          1           0        2.299474    3.557504    3.077877
     50          1           0       -0.009136    4.174866    3.707022
     51          1           0       -1.858240    2.591112    3.349060
     52          1           0       -1.439864    0.384751    2.364510
     53          6           0        1.769512    1.580463    2.373108
     54          6           0        0.709278    0.644772    2.173422
     55          6           0        1.008038   -0.639888    1.604380
     56          6           0        2.318257   -0.904604    1.159465
     57          6           0        3.356265    0.017930    1.361427
     58          6           0        3.077923    1.234124    1.982614
     59          8           0        2.581128   -2.088513    0.518503
     60          1           0        3.872084    1.950825    2.138072
     61          6           0       -2.262548   -3.401303    1.028789
     62          6           0       -1.534510   -2.941805   -0.065617
     63          6           0       -0.413774   -2.125207    0.139229
     64          6           0       -0.076713   -1.669592    1.429364
     65          1           0       -3.114999   -4.045847    0.869052
     66          8           0        0.332133   -1.707154   -0.933908
     67          6           0       -0.782986   -2.195151    2.563463
     68          6           0       -1.894677   -3.066007    2.347973
     69          6           0       -2.615800   -3.574910    3.457441
     70          6           0       -2.239872   -3.243901    4.755326
     71          6           0       -1.150809   -2.412097    4.980079
     72          6           0       -0.426467   -1.893468    3.910532
     73          1           0       -3.458175   -4.230669    3.289838
     74          1           0       -2.791975   -3.641726    5.594926
     75          1           0       -0.861109   -2.169173    5.992596
     76          1           0        0.423113   -1.256380    4.108272
     77          6           0        7.363730   -0.760910    0.048440
     78          6           0        6.766165    0.463055   -0.240323
     79          6           0        5.464164    0.711767    0.186722
     80          6           0        4.750046   -0.257143    0.904389
     81          6           0        5.367815   -1.481957    1.185395
     82          6           0        6.668869   -1.735805    0.759224
     83          1           0        8.371325   -0.959527   -0.287415
     84          1           0        7.306724    1.213153   -0.798760
     85          1           0        5.005060    1.660148   -0.052268
     86          1           0        4.831466   -2.246080    1.730250
     87          1           0        7.131368   -2.688213    0.973964
     88         15           0        1.865642   -2.247994   -0.933426
     89          8           0        2.024262   -3.602824   -1.520660
     90          8           0        2.596384   -1.108769   -1.803773
     91          1           0        1.982531   -0.366309   -2.007720
     92          6           0       -2.855055   -3.969967   -4.002654
     93          6           0       -1.613939   -4.415664   -3.554681
     94          6           0       -1.186227   -4.087548   -2.271056
     95          6           0       -1.990067   -3.310462   -1.431917
     96          6           0       -3.240611   -2.881257   -1.890276
     97          6           0       -3.672406   -3.204870   -3.174177
     98          1           0       -3.185201   -4.221577   -5.000326
     99          1           0       -0.980108   -5.010991   -4.196171
    100          1           0       -0.226266   -4.443270   -1.927587
    101          1           0       -3.874269   -2.282648   -1.252676
    102          1           0       -4.634228   -2.861655   -3.526686
    103          1           0        0.060402    1.500222   -3.701067
    104          1           0       -0.429633   -0.557246   -5.040429
    105          1           0        0.939523   -0.904700   -3.976531
    106          1           0       -0.666338   -1.501585   -3.570194
 ---------------------------------------------------------------------
 Rotational constants (GHZ):           0.0570552           0.0437081           0.0388211
 Standard basis: def2SVP (5D, 7F)
 There are  1108 symmetry adapted cartesian basis functions of A   symmetry.
 There are  1051 symmetry adapted basis functions of A   symmetry.
  1051 basis functions,  1792 primitive gaussians,  1108 cartesian basis functions
   212 alpha electrons      212 beta electrons
       nuclear repulsion energy      9466.1013690766 Hartrees.
 NAtoms=  106 NActive=  106 NUniq=  106 SFac= 1.00D+00 NAtFMM=   60 NAOKFM=T Big=T
 Integral buffers will be    131072 words long.
 Raffenetti 2 integral format.
 Two-electron integral symmetry is turned on.
 Nuclear repulsion after empirical dispersion term =     9465.9744547842 Hartrees.
 ------------------------------------------------------------------------------
 Polarizable Continuum Model (PCM)
 =================================
 Model                : PCM.
 Atomic radii         : UFF (Universal Force Field).
 Polarization charges : Total charges.
 Charge compensation  : None.
 Solution method      : On-the-fly selection.
 Cavity type          : Scaled VdW (van der Waals Surface) (Alpha=1.100).
 Cavity algorithm     : GePol (No added spheres)
                        Default sphere list used, NSphG=  106.
                        Lebedev-Laikov grids with approx.  5.0 points / Ang**2.
                        Smoothing algorithm: York/Karplus (Gamma=1.0000).
                        Polarization charges: spherical gaussians, with
                                              point-specific exponents (IZeta= 3).
                        Self-potential: point-specific (ISelfS= 7).
                        Self-field    : sphere-specific E.n sum rule (ISelfD= 2).
 1st derivatives      : Analytical E(r).r(x)/FMM algorithm (CHGder, D1EAlg=3).
                        Cavity 1st derivative terms included.
 Solvent              : Toluene, Eps=   2.374100 Eps(inf)=   2.238315
 ------------------------------------------------------------------------------
 One-electron integrals computed using PRISM.
   1 Symmetry operations used in ECPInt.
 ECPInt:  NShTT=  121771 NPrTT=  444119 LenC2=   95908 LenP2D=  216096.
 LDataN:  DoStor=T MaxTD1= 4 Len=   56
 NBasis=  1051 RedAO= T EigKep=  1.57D-04  NBF=  1051
 NBsUse=  1051 1.00D-06 EigRej= -1.00D+00 NBFU=  1051
 ExpMin= 7.80D-02 ExpMax= 8.00D+03 ExpMxC= 1.20D+03 IAcc=3 IRadAn=         5 AccDes= 0.00D+00
 Harris functional with IExCor= 4639 and IRadAn=       5 diagonalized for initial guess.
 HarFok:  IExCor= 4639 AccDes= 0.00D+00 IRadAn=         5 IDoV= 1 UseB2=F ITyADJ=14
 ICtDFT=  3500011 ScaDFX=  1.000000  1.000000  1.000000  1.000000
 FoFCou: FMM=F IPFlag=           0 FMFlag=      100000 FMFlg1=        2001
         NFxFlg=           0 DoJE=T BraDBF=F KetDBF=T FulRan=T
         wScrn=  0.000000 ICntrl=       500 IOpCl=  0 I1Cent=   200000004 NGrid=           0
         NMat0=    1 NMatS0=      1 NMatT0=    0 NMatD0=    1 NMtDS0=    0 NMtDT0=    0
 Petite list used in FoFCou.
 Requested convergence on RMS density matrix=1.00D-08 within 128 cycles.
 Requested convergence on MAX density matrix=1.00D-06.
 Requested convergence on             energy=1.00D-06.
 No special actions if energy rises.
 Inv3:  Mode=3 IEnd=       12958.
 Iteration    1 A*A^-1 deviation from unit magnitude is 3.55D-15 for   4534.
 Iteration    1 A*A^-1 deviation from orthogonality  is 2.05D-15 for   4699   1483.
 Iteration    1 A^-1*A deviation from unit magnitude is 3.33D-15 for   4534.
 Iteration    1 A^-1*A deviation from orthogonality  is 2.44D-15 for   5609   4415.
 Error on total polarization charges =  0.00978
 SCF Done:  E(RwB97XD) =  -3050.57590815     A.U. after   15 cycles
            NFock= 15  Conv=0.81D-08     -V/T= 2.0091
 Hyperfine terms turned off by default for NAtoms > 100.

 **********************************************************************

            Population analysis using the SCF Density.

 **********************************************************************

 Orbital symmetries:
       Occupied  (A) (A) (A) (A) (A) (A) (A) (A) (A) (A) (A) (A)
                 (A) (A) (A) (A) (A) (A) (A) (A) (A) (A) (A) (A)
                 (A) (A) (A) (A) (A) (A) (A) (A) (A) (A) (A) (A)
                 (A) (A) (A) (A) (A) (A) (A) (A) (A) (A) (A) (A)
                 (A) (A) (A) (A) (A) (A) (A) (A) (A) (A) (A) (A)
                 (A) (A) (A) (A) (A) (A) (A) (A) (A) (A) (A) (A)
                 (A) (A) (A) (A) (A) (A) (A) (A) (A) (A) (A) (A)
                 (A) (A) (A) (A) (A) (A) (A) (A) (A) (A) (A) (A)
                 (A) (A) (A) (A) (A) (A) (A) (A) (A) (A) (A) (A)
                 (A) (A) (A) (A) (A) (A) (A) (A) (A) (A) (A) (A)
                 (A) (A) (A) (A) (A) (A) (A) (A) (A) (A) (A) (A)
                 (A) (A) (A) (A) (A) (A) (A) (A) (A) (A) (A) (A)
                 (A) (A) (A) (A) (A) (A) (A) (A) (A) (A) (A) (A)
                 (A) (A) (A) (A) (A) (A) (A) (A) (A) (A) (A) (A)
                 (A) (A) (A) (A) (A) (A) (A) (A) (A) (A) (A) (A)
                 (A) (A) (A) (A) (A) (A) (A) (A) (A) (A) (A) (A)
                 (A) (A) (A) (A) (A) (A) (A) (A) (A) (A) (A) (A)
                 (A) (A) (A) (A) (A) (A) (A) (A)
       Virtual   (A) (A) (A) (A) (A) (A) (A) (A) (A) (A) (A) (A)
                 (A) (A) (A) (A) (A) (A) (A) (A) (A) (A) (A) (A)
                 (A) (A) (A) (A) (A) (A) (A) (A) (A) (A) (A) (A)
                 (A) (A) (A) (A) (A) (A) (A) (A) (A) (A) (A) (A)
                 (A) (A) (A) (A) (A) (A) (A) (A) (A) (A) (A) (A)
                 (A) (A) (A) (A) (A) (A) (A) (A) (A) (A) (A) (A)
                 (A) (A) (A) (A) (A) (A) (A) (A) (A) (A) (A) (A)
                 (A) (A) (A) (A) (A) (A) (A) (A) (A) (A) (A) (A)
                 (A) (A) (A) (A) (A) (A) (A) (A) (A) (A) (A) (A)
                 (A) (A) (A) (A) (A) (A) (A) (A) (A) (A) (A) (A)
                 (A) (A) (A) (A) (A) (A) (A) (A) (A) (A) (A) (A)
                 (A) (A) (A) (A) (A) (A) (A) (A) (A) (A) (A) (A)
                 (A) (A) (A) (A) (A) (A) (A) (A) (A) (A) (A) (A)
                 (A) (A) (A) (A) (A) (A) (A) (A) (A) (A) (A) (A)
                 (A) (A) (A) (A) (A) (A) (A) (A) (A) (A) (A) (A)
                 (A) (A) (A) (A) (A) (A) (A) (A) (A) (A) (A) (A)
                 (A) (A) (A) (A) (A) (A) (A) (A) (A) (A) (A) (A)
                 (A) (A) (A) (A) (A) (A) (A) (A) (A) (A) (A) (A)
                 (A) (A) (A) (A) (A) (A) (A) (A) (A) (A) (A) (A)
                 (A) (A) (A) (A) (A) (A) (A) (A) (A) (A) (A) (A)
                 (A) (A) (A) (A) (A) (A) (A) (A) (A) (A) (A) (A)
                 (A) (A) (A) (A) (A) (A) (A) (A) (A) (A) (A) (A)
                 (A) (A) (A) (A) (A) (A) (A) (A) (A) (A) (A) (A)
                 (A) (A) (A) (A) (A) (A) (A) (A) (A) (A) (A) (A)
                 (A) (A) (A) (A) (A) (A) (A) (A) (A) (A) (A) (A)
                 (A) (A) (A) (A) (A) (A) (A) (A) (A) (A) (A) (A)
                 (A) (A) (A) (A) (A) (A) (A) (A) (A) (A) (A) (A)
                 (A) (A) (A) (A) (A) (A) (A) (A) (A) (A) (A) (A)
                 (A) (A) (A) (A) (A) (A) (A) (A) (A) (A) (A) (A)
                 (A) (A) (A) (A) (A) (A) (A) (A) (A) (A) (A) (A)
                 (A) (A) (A) (A) (A) (A) (A) (A) (A) (A) (A) (A)
                 (A) (A) (A) (A) (A) (A) (A) (A) (A) (A) (A) (A)
                 (A) (A) (A) (A) (A) (A) (A) (A) (A) (A) (A) (A)
                 (A) (A) (A) (A) (A) (A) (A) (A) (A) (A) (A) (A)
                 (A) (A) (A) (A) (A) (A) (A) (A) (A) (A) (A) (A)
                 (A) (A) (A) (A) (A) (A) (A) (A) (A) (A) (A) (A)
                 (A) (A) (A) (A) (A) (A) (A) (A) (A) (A) (A) (A)
                 (A) (A) (A) (A) (A) (A) (A) (A) (A) (A) (A) (A)
                 (A) (A) (A) (A) (A) (A) (A) (A) (A) (A) (A) (A)
                 (A) (A) (A) (A) (A) (A) (A) (A) (A) (A) (A) (A)
                 (A) (A) (A) (A) (A) (A) (A) (A) (A) (A) (A) (A)
                 (A) (A) (A) (A) (A) (A) (A) (A) (A) (A) (A) (A)
                 (A) (A) (A) (A) (A) (A) (A) (A) (A) (A) (A) (A)
                 (A) (A) (A) (A) (A) (A) (A) (A) (A) (A) (A) (A)
                 (A) (A) (A) (A) (A) (A) (A) (A) (A) (A) (A) (A)
                 (A) (A) (A) (A) (A) (A) (A) (A) (A) (A) (A) (A)
                 (A) (A) (A) (A) (A) (A) (A) (A) (A) (A) (A) (A)
                 (A) (A) (A) (A) (A) (A) (A) (A) (A) (A) (A) (A)
                 (A) (A) (A) (A) (A) (A) (A) (A) (A) (A) (A) (A)
                 (A) (A) (A) (A) (A) (A) (A) (A) (A) (A) (A) (A)
                 (A) (A) (A) (A) (A) (A) (A) (A) (A) (A) (A) (A)
                 (A) (A) (A) (A) (A) (A) (A) (A) (A) (A) (A) (A)
                 (A) (A) (A) (A) (A) (A) (A) (A) (A) (A) (A) (A)
                 (A) (A) (A) (A) (A) (A) (A) (A) (A) (A) (A) (A)
                 (A) (A) (A) (A) (A) (A) (A) (A) (A) (A) (A) (A)
                 (A) (A) (A) (A) (A) (A) (A) (A) (A) (A) (A) (A)
                 (A) (A) (A) (A) (A) (A) (A) (A) (A) (A) (A) (A)
                 (A) (A) (A) (A) (A) (A) (A) (A) (A) (A) (A) (A)
                 (A) (A) (A) (A) (A) (A) (A) (A) (A) (A) (A) (A)
                 (A) (A) (A) (A) (A) (A) (A) (A) (A) (A) (A) (A)
                 (A) (A) (A) (A) (A) (A) (A) (A) (A) (A) (A) (A)
                 (A) (A) (A) (A) (A) (A) (A) (A) (A) (A) (A) (A)
                 (A) (A) (A) (A) (A) (A) (A) (A) (A) (A) (A) (A)
                 (A) (A) (A) (A) (A) (A) (A) (A) (A) (A) (A) (A)
                 (A) (A) (A) (A) (A) (A) (A) (A) (A) (A) (A) (A)
                 (A) (A) (A) (A) (A) (A) (A) (A) (A) (A) (A) (A)
                 (A) (A) (A) (A) (A) (A) (A) (A) (A) (A) (A) (A)
                 (A) (A) (A) (A) (A) (A) (A) (A) (A) (A) (A) (A)
                 (A) (A) (A) (A) (A) (A) (A) (A) (A) (A) (A) (A)
                 (A) (A) (A) (A) (A) (A) (A) (A) (A) (A) (A)
 The electronic state is 1-A.
 Alpha  occ. eigenvalues --  -77.38254 -66.28459 -19.32415 -19.32201 -19.32028
 Alpha  occ. eigenvalues --  -19.27604 -19.27164 -19.26965 -19.26678 -19.21694
 Alpha  occ. eigenvalues --  -10.45148 -10.40208 -10.38713 -10.38395 -10.37768
 Alpha  occ. eigenvalues --  -10.36188 -10.33557 -10.33385 -10.32756 -10.32691
 Alpha  occ. eigenvalues --  -10.32667 -10.32616 -10.32411 -10.32087 -10.31852
 Alpha  occ. eigenvalues --  -10.31808 -10.31756 -10.31471 -10.31340 -10.31271
 Alpha  occ. eigenvalues --  -10.31173 -10.30987 -10.30977 -10.30967 -10.30907
 Alpha  occ. eigenvalues --  -10.30843 -10.30754 -10.30743 -10.30689 -10.30613
 Alpha  occ. eigenvalues --  -10.30411 -10.30272 -10.30120 -10.30001 -10.29984
 Alpha  occ. eigenvalues --  -10.29964 -10.29896 -10.29863 -10.29854 -10.29821
 Alpha  occ. eigenvalues --  -10.29472 -10.29267 -10.29088 -10.28928 -10.28863
 Alpha  occ. eigenvalues --  -10.27970 -10.27777  -6.81658  -5.41062  -4.97046
 Alpha  occ. eigenvalues --   -4.96954  -4.96705  -3.76120  -3.75757  -3.75701
 Alpha  occ. eigenvalues --   -1.22322  -1.20820  -1.17758  -1.14191  -1.13522
 Alpha  occ. eigenvalues --   -1.11990  -1.11449  -1.05000  -0.99273  -0.98142
 Alpha  occ. eigenvalues --   -0.96191  -0.95664  -0.93245  -0.92609  -0.91076
 Alpha  occ. eigenvalues --   -0.90657  -0.89827  -0.87084  -0.86904  -0.86590
 Alpha  occ. eigenvalues --   -0.86135  -0.84732  -0.84354  -0.83984  -0.83828
 Alpha  occ. eigenvalues --   -0.83012  -0.81872  -0.81008  -0.80411  -0.80307
 Alpha  occ. eigenvalues --   -0.78272  -0.77757  -0.77388  -0.77205  -0.75991
 Alpha  occ. eigenvalues --   -0.74692  -0.73838  -0.73641  -0.72658  -0.71637
 Alpha  occ. eigenvalues --   -0.70089  -0.69868  -0.69627  -0.69315  -0.68472
 Alpha  occ. eigenvalues --   -0.68178  -0.67235  -0.67055  -0.66119  -0.66043
 Alpha  occ. eigenvalues --   -0.64971  -0.63685  -0.63259  -0.62645  -0.61676
 Alpha  occ. eigenvalues --   -0.61510  -0.60958  -0.59972  -0.59475  -0.59061
 Alpha  occ. eigenvalues --   -0.58571  -0.58150  -0.57777  -0.57584  -0.57404
 Alpha  occ. eigenvalues --   -0.56611  -0.56235  -0.55547  -0.55306  -0.54997
 Alpha  occ. eigenvalues --   -0.54700  -0.54612  -0.53853  -0.53508  -0.53429
 Alpha  occ. eigenvalues --   -0.53239  -0.52849  -0.52673  -0.52457  -0.52397
 Alpha  occ. eigenvalues --   -0.52326  -0.51987  -0.51501  -0.51360  -0.51152
 Alpha  occ. eigenvalues --   -0.51103  -0.50830  -0.50671  -0.50563  -0.49875
 Alpha  occ. eigenvalues --   -0.49623  -0.49402  -0.49178  -0.48841  -0.48808
 Alpha  occ. eigenvalues --   -0.48720  -0.48438  -0.48206  -0.48057  -0.47674
 Alpha  occ. eigenvalues --   -0.47553  -0.47290  -0.47010  -0.46919  -0.46714
 Alpha  occ. eigenvalues --   -0.46337  -0.46103  -0.45932  -0.45582  -0.45177
[...]
   D192      -3.12296  -0.00054   0.00000   0.00024   0.00024  -3.12272
   D193       0.04331  -0.00001   0.00000   0.00135   0.00135   0.04466
   D194      -0.00651  -0.00050   0.00000   0.00125   0.00125  -0.00526
   D195      -3.12342   0.00004   0.00000   0.00235   0.00235  -3.12106
   D196       0.04580   0.00027   0.00000  -0.00121  -0.00121   0.04459
   D197      -3.10174   0.00009   0.00000  -0.00136  -0.00137  -3.10311
   D198      -3.12082   0.00027   0.00000  -0.00021  -0.00021  -3.12103
   D199       0.01482   0.00010   0.00000  -0.00036  -0.00036   0.01446
   D200      -0.09516  -0.00059   0.00000   0.00014   0.00015  -0.09501
   D201       3.09907  -0.00065   0.00000  -0.00027  -0.00027   3.09879
   D202       3.02122  -0.00093   0.00000  -0.00083  -0.00082   3.02040
   D203      -0.06774  -0.00099   0.00000  -0.00125  -0.00125  -0.06899
   D204      -2.04311  -0.00202   0.00000  -0.00666  -0.00666  -2.04977
   D205       1.09642  -0.00122   0.00000  -0.00553  -0.00554   1.09088
   D206       1.12365  -0.00145   0.00000  -0.00552  -0.00552   1.11813
   D207      -2.02001  -0.00065   0.00000  -0.00440  -0.00439  -2.02440
   D208      -2.97937   0.00281   0.00000  -0.00444  -0.00446  -2.98383
   D209       0.15322   0.00101   0.00000  -0.00202  -0.00203   0.15119
   D210       0.10955   0.00273   0.00000  -0.00418  -0.00419   0.10536
   D211      -3.04104   0.00093   0.00000  -0.00176  -0.00176  -3.04280
   D212      -2.03232   0.00514   0.00000   0.00236   0.00231  -2.03002
   D213       1.16094   0.00472   0.00000   0.00178   0.00172   1.16265
   D214       3.02174  -0.00203   0.00000   0.00502   0.00503   3.02677
   D215      -0.12240  -0.00180   0.00000   0.00489   0.00490  -0.11750
   D216      -0.11073  -0.00017   0.00000   0.00258   0.00258  -0.10815
   D217       3.02832   0.00005   0.00000   0.00245   0.00245   3.03076
   D218      -0.81104   0.00292   0.00000   0.01306   0.01305  -0.79799
   D219       1.44414  -0.00952   0.00000   0.00017   0.00013   1.44427
   D220      -2.70845   0.00789   0.00000   0.01368   0.01361  -2.69484
   D221       0.01357  -0.00014   0.00000  -0.00072  -0.00072   0.01285
   D222      -3.12215   0.00002   0.00000  -0.00057  -0.00057  -3.12272
   D223      -3.12560  -0.00035   0.00000  -0.00059  -0.00059  -3.12619
   D224       0.02186  -0.00019   0.00000  -0.00044  -0.00044   0.02142
   D225       3.12627   0.00006   0.00000   0.00039   0.00039   3.12666
   D226      -0.02198  -0.00009   0.00000   0.00050   0.00050  -0.02148
   D227      -0.01784   0.00028   0.00000   0.00026   0.00026  -0.01759
   D228       3.11709   0.00013   0.00000   0.00037   0.00037   3.11746
   D229       3.13529   0.00030   0.00000   0.00055   0.00055   3.13584
   D230       0.00229   0.00017   0.00000   0.00022   0.00022   0.00251
   D231      -0.01227   0.00013   0.00000   0.00040   0.00040  -0.01188
   D232       3.13791   0.00000   0.00000   0.00007   0.00007   3.13798
   D233      -0.00228  -0.00003   0.00000  -0.00011  -0.00011  -0.00239
   D234      -3.13486  -0.00008   0.00000  -0.00022  -0.00022  -3.13508
   D235       3.13067   0.00009   0.00000   0.00021   0.00020   3.13088
   D236      -0.00191   0.00005   0.00000   0.00010   0.00010  -0.00182
   D237       0.00664   0.00013   0.00000  -0.00007  -0.00007   0.00657
   D238      -3.13047   0.00009   0.00000  -0.00016  -0.00016  -3.13063
   D239       3.13925   0.00016   0.00000   0.00004   0.00004   3.13929
   D240       0.00214   0.00012   0.00000  -0.00005  -0.00005   0.00209
   D241       0.00373  -0.00025   0.00000  -0.00001  -0.00001   0.00372
   D242      -3.13122  -0.00009   0.00000  -0.00012  -0.00012  -3.13134
   D243       3.14084  -0.00021   0.00000   0.00008   0.00008   3.14092
   D244       0.00589  -0.00005   0.00000  -0.00003  -0.00003   0.00586
   D245       0.00030  -0.00006   0.00000  -0.00003  -0.00003   0.00027
   D246      -3.13368  -0.00007   0.00000   0.00009   0.00009  -3.13359
   D247       3.13428   0.00007   0.00000   0.00004   0.00004   3.13432
   D248       0.00030   0.00007   0.00000   0.00016   0.00016   0.00046
   D249      -0.00144   0.00014   0.00000   0.00001   0.00001  -0.00143
   D250       3.13217   0.00028   0.00000   0.00012   0.00012   3.13229
   D251      -3.13544   0.00001   0.00000  -0.00005  -0.00005  -3.13549
   D252      -0.00182   0.00014   0.00000   0.00006   0.00006  -0.00177
   D253       0.00058   0.00001   0.00000   0.00017   0.00017   0.00075
   D254      -3.12966  -0.00002   0.00000   0.00034   0.00034  -3.12932
   D255       3.13456   0.00002   0.00000   0.00005   0.00005   3.13461
   D256       0.00433  -0.00001   0.00000   0.00022   0.00022   0.00454
   D257       3.13897  -0.00042   0.00000  -0.00030  -0.00029   3.13868
   D258      -0.00029  -0.00005   0.00000  -0.00030  -0.00029  -0.00059
   D259      -0.01408  -0.00036   0.00000  -0.00046  -0.00046  -0.01454
   D260       3.12983   0.00001   0.00000  -0.00046  -0.00046   3.12938
   D261      -3.14011   0.00051   0.00000   0.00028   0.00028  -3.13983
   D262       0.01109   0.00015   0.00000  -0.00008  -0.00008   0.01101
   D263      -0.00086   0.00013   0.00000   0.00028   0.00028  -0.00058
   D264      -3.13285  -0.00023   0.00000  -0.00008  -0.00008  -3.13293
   D265       0.00173  -0.00018   0.00000  -0.00014  -0.00014   0.00159
   D266      -3.13191  -0.00031   0.00000  -0.00025  -0.00025  -3.13216
   D267       3.13378   0.00017   0.00000   0.00021   0.00021   3.13399
   D268       0.00014   0.00004   0.00000   0.00010   0.00010   0.00024
   D269      -1.90136   0.02002   0.00000  -0.00117  -0.00111  -1.90247
   D270       0.10434  -0.00180   0.00000  -0.01510  -0.01511   0.08923
   D271       2.24707   0.00725   0.00000  -0.00742  -0.00748   2.23959
   D272       2.02922  -0.00331   0.00000   0.01310   0.01310   2.04232
   D273      -0.00550   0.00002   0.00000  -0.00028  -0.00028  -0.00578
   D274       3.13928   0.00029   0.00000  -0.00036  -0.00036   3.13892
   D275       3.13751  -0.00014   0.00000  -0.00008  -0.00008   3.13743
   D276      -0.00090   0.00014   0.00000  -0.00016  -0.00016  -0.00106
   D277       0.00361  -0.00005   0.00000   0.00050   0.00050   0.00411
   D278      -3.14151  -0.00010   0.00000   0.00037   0.00037  -3.14114
   D279      -3.13940   0.00011   0.00000   0.00030   0.00030  -3.13910
   D280      -0.00134   0.00006   0.00000   0.00017   0.00017  -0.00117
   D281      -0.00414   0.00026   0.00000  -0.00041  -0.00041  -0.00455
   D282       3.13446   0.00121   0.00000   0.00003   0.00003   3.13449
   D283       3.13430  -0.00002   0.00000  -0.00034  -0.00034   3.13396
   D284      -0.01029   0.00094   0.00000   0.00011   0.00011  -0.01018
   D285      -3.12821   0.00031   0.00000   0.00199   0.00199  -3.12622
   D286       0.01543  -0.00049   0.00000   0.00088   0.00088   0.01631
   D287       0.01640  -0.00066   0.00000   0.00154   0.00154   0.01794
   D288      -3.12314  -0.00145   0.00000   0.00042   0.00042  -3.12272
   D289       3.12628  -0.00034   0.00000  -0.00177  -0.00176   3.12451
   D290      -0.00064  -0.00049   0.00000  -0.00237  -0.00237  -0.00301
   D291      -0.01734   0.00045   0.00000  -0.00066  -0.00066  -0.01800
   D292       3.13893   0.00030   0.00000  -0.00126  -0.00127   3.13766
   D293       0.00792  -0.00020   0.00000  -0.00003  -0.00003   0.00789
   D294      -3.13014  -0.00015   0.00000   0.00010   0.00010  -3.13004
   D295       3.13491  -0.00007   0.00000   0.00056   0.00056   3.13547
   D296      -0.00315  -0.00002   0.00000   0.00069   0.00069  -0.00246
         Item               Value     Threshold  Converged?
 Maximum Force            0.044458     0.000450     NO 
 RMS     Force            0.005093     0.000300     NO 
 Maximum Displacement     0.371959     0.001800     NO 
 RMS     Displacement     0.075060     0.001200     NO 
 Predicted change in Energy=-6.136276D-03
 GradGradGradGradGradGradGradGradGradGradGradGradGradGradGradGradGradGrad

 Stoichiometry    C47H49O8PSi
 Framework group  C1[X(C47H49O8PSi)]
 Deg. of freedom   312
 Full point group                 C1      NOp   1
 Largest Abelian subgroup         C1      NOp   1
 Largest concise Abelian subgroup C1      NOp   1
                         Standard orientation:                         
 ---------------------------------------------------------------------
 Center     Atomic      Atomic             Coordinates (Angstroms)
 Number     Number       Type             X           Y           Z
 ---------------------------------------------------------------------
      1          6           0       -1.289311    0.612389   -2.182985
      2          6           0       -1.473071    1.787369   -1.345673
      3          6           0       -0.801878    4.157057   -0.645410
      4          6           0        2.384938    3.218585   -1.355394
      5          8           0       -2.297561    1.707828   -0.287219
      6          1           0       -1.529565    4.033975    0.160076
      7          1           0       -1.103178    5.030379   -1.231032
      8          1           0        0.156128    4.387794   -0.172011
      9          8           0        2.834887    3.812098   -0.382303
     10          8           0        2.673161    3.482477   -2.643341
     11          6           0        3.596256    4.517765   -2.950104
     12          1           0        3.707260    4.585218   -4.034305
     13          1           0        3.243500    5.482144   -2.573486
     14          1           0        4.576565    4.311325   -2.511261
     15         14           0       -3.927170    1.301474   -0.209027
     16          6           0       -4.561020    0.759766   -1.894335
     17          1           0       -5.643773    0.614713   -1.873910
     18          1           0       -4.337151    1.508934   -2.657846
     19          1           0       -4.105983   -0.179962   -2.212970
     20          6           0       -4.063342   -0.121902    1.003041
     21          1           0       -3.812742    0.193294    2.018376
     22          1           0       -3.373178   -0.923035    0.729829
     23          1           0       -5.074619   -0.534627    1.019639
     24          6           0       -4.889644    2.837724    0.412010
     25          6           0       -4.803961    3.978796   -0.622872
     26          1           0       -5.332983    4.873268   -0.278445
     27          1           0       -3.767056    4.268008   -0.817750
     28          1           0       -5.245471    3.689387   -1.581170
     29          6           0       -6.376367    2.487618    0.631019
     30          1           0       -6.853705    2.148765   -0.293364
     31          1           0       -6.941455    3.355172    0.987098
     32          1           0       -6.499893    1.693670    1.373895
     33          6           0       -4.304628    3.339555    1.747986
     34          1           0       -4.846038    4.216625    2.117262
     35          1           0       -4.356853    2.573259    2.527169
     36          1           0       -3.255162    3.627555    1.640477
     37          6           0        1.368139    2.048020   -1.221030
     38          6           0       -0.734767    2.922631   -1.540451
     39          6           0       -0.451984    0.548897   -3.249169
     40          8           0        1.329188    1.118295   -2.055126
     41          1           0        0.928267    1.993454   -0.219486
     42          6           0       -0.151150   -0.736559   -3.986468
     43          1           0       -1.769662   -0.305944   -1.861291
     44          1           0       -0.244226    3.085120   -2.499514
     45          6           0        1.512364    2.881472    2.992862
     46          6           0        0.214721    3.217930    3.343997
     47          6           0       -0.827016    2.316762    3.128622
     48          6           0       -0.578413    1.074070    2.566378
     49          1           0        2.319672    3.590208    3.143735
     50          1           0        0.004414    4.188205    3.780030
     51          1           0       -1.839503    2.592105    3.399539
     52          1           0       -1.406201    0.397777    2.389869
     53          6           0        1.797927    1.617076    2.416609
     54          6           0        0.742788    0.679578    2.207203
     55          6           0        1.049169   -0.599783    1.628765
     56          6           0        2.355363   -0.850669    1.187803
     57          6           0        3.397294    0.074938    1.394270
     58          6           0        3.110009    1.279524    2.023356
     59          8           0        2.631948   -2.028251    0.538180
     60          1           0        3.903614    1.999755    2.188950
     61          6           0       -2.203764   -3.366581    1.003864
     62          6           0       -1.463249   -2.907410   -0.075553
     63          6           0       -0.344099   -2.087271    0.159391
     64          6           0       -0.026616   -1.632463    1.445571
     65          1           0       -3.056771   -4.013336    0.829528
     66          8           0        0.415593   -1.676709   -0.906540
     67          6           0       -0.749043   -2.162904    2.567903
     68          6           0       -1.855265   -3.034161    2.331894
     69          6           0       -2.591660   -3.546694    3.430519
     70          6           0       -2.237266   -3.219785    4.730320
     71          6           0       -1.148145   -2.383419    4.972819
     72          6           0       -0.411377   -1.862403    3.919090
     73          1           0       -3.433311   -4.205563    3.245040
     74          1           0       -2.802117   -3.620990    5.564365
     75          1           0       -0.873033   -2.142077    5.993582
     76          1           0        0.437655   -1.221818    4.128773
     77          6           0        7.401794   -0.685769    0.057093
     78          6           0        6.799003    0.540044   -0.212523
     79          6           0        5.498465    0.781637    0.222308
     80          6           0        4.788165   -0.196918    0.930589
     81          6           0        5.409558   -1.424068    1.193297
     82          6           0        6.709224   -1.669213    0.758699
     83          1           0        8.411955   -0.878877   -0.286285
     84          1           0        7.337093    1.301806   -0.765367
     85          1           0        5.033513    1.735167   -0.002542
     86          1           0        4.874302   -2.197636    1.732887
     87          1           0        7.175437   -2.626968    0.961202
     88         15           0        1.953763   -2.205306   -0.927685
     89          8           0        2.127657   -3.568550   -1.477367
     90          8           0        2.653217   -1.057545   -1.798101
     91          1           0        2.015094   -0.329790   -2.005984
     92          6           0       -2.683583   -3.880118   -4.061792
     93          6           0       -1.452472   -4.328737   -3.588852
     94          6           0       -1.055031   -4.021654   -2.290474
     95          6           0       -1.881535   -3.260387   -1.458142
     96          6           0       -3.122048   -2.827687   -1.940101
     97          6           0       -3.521726   -3.131519   -3.239201
     98          1           0       -2.990095   -4.116802   -5.074604
     99          1           0       -0.799227   -4.913901   -4.226709
    100          1           0       -0.098515   -4.379990   -1.927550
    101          1           0       -3.774206   -2.239733   -1.303620
    102          1           0       -4.479860   -2.783511   -3.608923
    103          1           0       -0.026143    1.431882   -3.719724
    104          1           0       -0.464727   -0.659026   -5.030983
    105          1           0        0.920782   -0.950726   -3.966289
    106          1           0       -0.670115   -1.589592   -3.539210
 ---------------------------------------------------------------------
 Rotational constants (GHZ):           0.0575334           0.0433716           0.0391539
 Standard basis: def2SVP (5D, 7F)
 There are  1108 symmetry adapted cartesian basis functions of A   symmetry.
 There are  1051 symmetry adapted basis functions of A   symmetry.
  1051 basis functions,  1792 primitive gaussians,  1108 cartesian basis functions
   212 alpha electrons      212 beta electrons
       nuclear repulsion energy      9472.4201565296 Hartrees.
 NAtoms=  106 NActive=  106 NUniq=  106 SFac= 1.00D+00 NAtFMM=   60 NAOKFM=T Big=T
 Integral buffers will be    131072 words long.
 Raffenetti 2 integral format.
 Two-electron integral symmetry is turned on.
 Nuclear repulsion after empirical dispersion term =     9472.2927185536 Hartrees.
 ------------------------------------------------------------------------------
 Polarizable Continuum Model (PCM)
 =================================
 Model                : PCM.
 Atomic radii         : UFF (Universal Force Field).
 Polarization charges : Total charges.
 Charge compensation  : None.
 Solution method      : On-the-fly selection.
 Cavity type          : Scaled VdW (van der Waals Surface) (Alpha=1.100).
 Cavity algorithm     : GePol (No added spheres)
                        Default sphere list used, NSphG=  106.
                        Lebedev-Laikov grids with approx.  5.0 points / Ang**2.
                        Smoothing algorithm: York/Karplus (Gamma=1.0000).
                        Polarization charges: spherical gaussians, with
                                              point-specific exponents (IZeta= 3).
                        Self-potential: point-specific (ISelfS= 7).
                        Self-field    : sphere-specific E.n sum rule (ISelfD= 2).
 1st derivatives      : Analytical E(r).r(x)/FMM algorithm (CHGder, D1EAlg=3).
                        Cavity 1st derivative terms included.
 Solvent              : Toluene, Eps=   2.374100 Eps(inf)=   2.238315
 ------------------------------------------------------------------------------
 One-electron integrals computed using PRISM.
   1 Symmetry operations used in ECPInt.
 ECPInt:  NShTT=  121771 NPrTT=  444119 LenC2=   96019 LenP2D=  216330.
 LDataN:  DoStor=T MaxTD1= 4 Len=   56
 NBasis=  1051 RedAO= T EigKep=  1.55D-04  NBF=  1051
 NBsUse=  1051 1.00D-06 EigRej= -1.00D+00 NBFU=  1051
 Initial guess from the checkpoint file:  "BPA_TS_2_sqm.chk"
 B after Tr=    -0.000000   -0.000000    0.000000
         Rot=    0.999898    0.009723   -0.004256   -0.009570 Ang=   1.64 deg.
 ExpMin= 7.80D-02 ExpMax= 8.00D+03 ExpMxC= 1.20D+03 IAcc=3 IRadAn=         5 AccDes= 0.00D+00
 Harris functional with IExCor= 4639 and IRadAn=       5 diagonalized for initial guess.
 HarFok:  IExCor= 4639 AccDes= 0.00D+00 IRadAn=         5 IDoV= 1 UseB2=F ITyADJ=14
 ICtDFT=  3500011 ScaDFX=  1.000000  1.000000  1.000000  1.000000
 FoFCou: FMM=F IPFlag=           0 FMFlag=      100000 FMFlg1=        2001
         NFxFlg=           0 DoJE=T BraDBF=F KetDBF=T FulRan=T
         wScrn=  0.000000 ICntrl=       500 IOpCl=  0 I1Cent=   200000004 NGrid=           0
         NMat0=    1 NMatS0=      1 NMatT0=    0 NMatD0=    1 NMtDS0=    0 NMtDT0=    0
 Petite list used in FoFCou.
 Requested convergence on RMS density matrix=1.00D-08 within 128 cycles.
 Requested convergence on MAX density matrix=1.00D-06.
 Requested convergence on             energy=1.00D-06.
 No special actions if energy rises.
 Inv3:  Mode=3 IEnd=       12914.
 Iteration    1 A*A^-1 deviation from unit magnitude is 4.00D-15 for   5590.
 Iteration    1 A*A^-1 deviation from orthogonality  is 2.44D-15 for   5027   3785.
 Iteration    1 A^-1*A deviation from unit magnitude is 4.00D-15 for   5590.
 Iteration    1 A^-1*A deviation from orthogonality  is 2.55D-15 for   6364   3403.
