Unloading slurm/anatra/current
  ERROR: No such file or directory on
    '/cm/local/modulefiles/slurm/anatra/current'
environment: line 0: unalias: gv: not found
environment: line 0: unalias: sl: not found
 Entering Gaussian System, Link 0=g16
 Initial command:
 /apps/gaussian/g16/C.01/g16/l1.exe "/local/jobs/1150734/Gau-1990645.inp" -scrdir="/local/jobs/1150734/"
 Entering Link 1 = /apps/gaussian/g16/C.01/g16/l1.exe PID=   1990648.
  
 Copyright (c) 1988-2019, Gaussian, Inc.  All Rights Reserved.
  
 This is part of the Gaussian(R) 16 program.  It is based on
 the Gaussian(R) 09 system (copyright 2009, Gaussian, Inc.),
 the Gaussian(R) 03 system (copyright 2003, Gaussian, Inc.),
 the Gaussian(R) 98 system (copyright 1998, Gaussian, Inc.),
 the Gaussian(R) 94 system (copyright 1995, Gaussian, Inc.),
 the Gaussian 92(TM) system (copyright 1992, Gaussian, Inc.),
 the Gaussian 90(TM) system (copyright 1990, Gaussian, Inc.),
 the Gaussian 88(TM) system (copyright 1988, Gaussian, Inc.),
 the Gaussian 86(TM) system (copyright 1986, Carnegie Mellon
 University), and the Gaussian 82(TM) system (copyright 1983,
 Carnegie Mellon University). Gaussian is a federally registered
 trademark of Gaussian, Inc.
  
 This software contains proprietary and confidential information,
 including trade secrets, belonging to Gaussian, Inc.
  
 This software is provided under written license and may be
 used, copied, transmitted, or stored only in accord with that
 written license.
  
 The following legend is applicable only to US Government
 contracts under FAR:
  
                    RESTRICTED RIGHTS LEGEND
  
 Use, reproduction and disclosure by the US Government is
 subject to restrictions as set forth in subparagraphs (a)
 and (c) of the Commercial Computer Software - Restricted
 Rights clause in FAR 52.227-19.
  
 Gaussian, Inc.
 340 Quinnipiac St., Bldg. 40, Wallingford CT 06492
  
  
 ---------------------------------------------------------------
 Warning -- This program may not be used in any manner that
 competes with the business of Gaussian, Inc. or will provide
 assistance to any competitor of Gaussian, Inc.  The licensee
 of this program is prohibited from giving any competitor of
 Gaussian, Inc. access to this program.  By using this program,
 the user acknowledges that Gaussian, Inc. is engaged in the
 business of creating and licensing software in the field of
 computational chemistry and represents and warrants to the
 licensee that it is not a competitor of Gaussian, Inc. and that
 it will not use this program in any manner prohibited above.
 ---------------------------------------------------------------
  

 Cite this work as:
 Gaussian 16, Revision C.01,
 M. J. Frisch, G. W. Trucks, H. B. Schlegel, G. E. Scuseria, 
 M. A. Robb, J. R. Cheeseman, G. Scalmani, V. Barone, 
 G. A. Petersson, H. Nakatsuji, X. Li, M. Caricato, A. V. Marenich, 
 J. Bloino, B. G. Janesko, R. Gomperts, B. Mennucci, H. P. Hratchian, 
 J. V. Ortiz, A. F. Izmaylov, J. L. Sonnenberg, D. Williams-Young, 
 F. Ding, F. Lipparini, F. Egidi, J. Goings, B. Peng, A. Petrone, 
 T. Henderson, D. Ranasinghe, V. G. Zakrzewski, J. Gao, N. Rega, 
 G. Zheng, W. Liang, M. Hada, M. Ehara, K. Toyota, R. Fukuda, 
 J. Hasegawa, M. Ishida, T. Nakajima, Y. Honda, O. Kitao, H. Nakai, 
 T. Vreven, K. Throssell, J. A. Montgomery, Jr., J. E. Peralta, 
 F. Ogliaro, M. J. Bearpark, J. J. Heyd, E. N. Brothers, K. N. Kudin, 
 V. N. Staroverov, T. A. Keith, R. Kobayashi, J. Normand, 
 K. Raghavachari, A. P. Rendell, J. C. Burant, S. S. Iyengar, 
 J. Tomasi, M. Cossi, J. M. Millam, M. Klene, C. Adamo, R. Cammi, 
 J. W. Ochterski, R. L. Martin, K. Morokuma, O. Farkas, 
 J. B. Foresman, and D. J. Fox, Gaussian, Inc., Wallingford CT, 2019.
 
 ******************************************
 Gaussian 16:  ES64L-G16RevC.01  3-Jul-2019
                18-Dec-2023 
 ******************************************
 %chk=TS-325_sqm.chk
 ----------------------------------------------------------------------
 # wb97xd def2svp geom=allchk scrf=(iefpcm,solvent=toluene) opt=(readfc
 ,ts,noeigen,maxcycles=50,maxstep=10)
 ----------------------------------------------------------------------
 1/5=1,6=50,8=10,10=3,11=1,18=20,26=3,29=7,38=1/1,3;
 2/9=110,12=2,40=1/2;
 3/5=43,7=101,11=2,14=-4,25=1,30=1,70=2201,71=1,72=13,74=-58/1,2,3;
 4//1;
 5/5=2,38=5,53=13/2;
 6/7=2,8=2,9=2,10=2,28=1/1;
 7//1,2,3,16;
 1/5=1,6=50,8=10,11=1,18=20,26=3/3(2);
 2/9=110/2;
 99//99;
 2/9=110/2;
 3/5=43,7=101,11=2,14=-2,25=1,30=1,70=2205,71=1,72=13,74=-58/1,2,3;
 4/5=5,16=3,69=1/1;
 5/5=2,38=5,53=13/2;
 7//1,2,3,16;
 1/5=1,6=50,8=10,11=1,18=20,26=3/3(-5);
 2/9=110/2;
 6/7=2,8=2,9=2,10=2,19=2,28=1/1;
 99/9=1/99;
 Structure from the checkpoint file:  "TS-325_sqm.chk"
 ----------
 TS-325.out
 ----------
 Charge =  0 Multiplicity = 1
 Redundant internal coordinates found in file.  (old form).
 C,0,0.06177,0.16222,-0.05987
 C,0,-0.40074,1.45584,0.53163
 O,0,-1.15429,1.50254,1.49781
 C,0,-0.85367,-0.80502,-0.34582
 C,0,-0.17766,-2.94069,1.77398
 H,0,-0.63118,-3.30064,2.7018
 H,0,-0.07938,-3.77989,1.08005
 H,0,0.82018,-2.55382,1.99723
 N,0,-1.00546,-1.89012,1.17544
 H,0,-1.95493,-2.2718,1.0865
 H,0,-1.12869,-1.1636,1.89783
 H,0,-0.54188,-1.70552,-0.88485
 Br,0,-2.6779,-0.38746,-0.7648
 C,0,1.50834,-0.10668,-0.22143
 C,0,2.39043,0.13335,0.84219
 C,0,3.76031,-0.0945,0.69505
 C,0,4.26366,-0.56034,-0.51778
 C,0,3.39924,-0.79839,-1.58439
 C,0,2.02876,-0.57131,-1.43866
 H,0,2.01427,0.49002,1.7996
 H,0,4.43291,0.08937,1.52903
 H,0,5.33005,-0.7391,-0.63114
 H,0,3.79175,-1.16099,-2.5311
 H,0,1.37285,-0.75516,-2.28698
 N,0,0.13935,2.56268,-0.08207
 C,0,-0.10745,3.88962,0.41632
 H,0,0.84287,2.43119,-0.79729
 H,0,-1.14152,3.98435,0.75836
 H,0,0.57131,4.07921,1.25198
 H,0,0.08687,4.60465,-0.38633
 Recover connectivity data from disk.

 GradGradGradGradGradGradGradGradGradGradGradGradGradGradGradGradGradGrad
 Berny optimization.
 Initialization pass.
 Force constant matrix read from checkpoint file:
 "TS-325_sqm.chk"
                           ----------------------------
                           !    Initial Parameters    !
                           ! (Angstroms and Degrees)  !
 --------------------------                            --------------------------
 ! Name  Definition              Value          Derivative Info.                !
 --------------------------------------------------------------------------------
 ! R1    R(1,2)                  1.4957         D2E/DX2 =    0.3787             !
 ! R2    R(1,4)                  1.3621         D2E/DX2 =    0.6651             !
 ! R3    R(1,14)                 1.4802         D2E/DX2 =    0.4028             !
 ! R4    R(2,3)                  1.2262         D2E/DX2 =    0.7924             !
 ! R5    R(2,25)                 1.376          D2E/DX2 =    0.5674             !
 ! R6    R(4,9)                  1.8748         D2E/DX2 =    0.0269             !
 ! R7    R(4,12)                 1.0948         D2E/DX2 =    0.2617             !
 ! R8    R(4,13)                 1.9177         D2E/DX2 =    0.2171             !
 ! R9    R(5,6)                  1.0937         D2E/DX2 =    0.2672             !
 ! R10   R(5,7)                  1.0934         D2E/DX2 =    0.27               !
 ! R11   R(5,8)                  1.0932         D2E/DX2 =    0.2699             !
 ! R12   R(5,9)                  1.4653         D2E/DX2 =    0.4903             !
 ! R13   R(9,10)                 1.0272         D2E/DX2 =    0.2805             !
 ! R14   R(9,11)                 1.0319         D2E/DX2 =    0.2774             !
 ! R15   R(14,15)                1.4025         D2E/DX2 =    0.4575             !
 ! R16   R(14,19)                1.403          D2E/DX2 =    0.4561             !
 ! R17   R(15,16)                1.3965         D2E/DX2 =    0.4679             !
 ! R18   R(15,20)                1.0887         D2E/DX2 =    0.2724             !
 ! R19   R(16,17)                1.3933         D2E/DX2 =    0.4771             !
 ! R20   R(16,21)                1.0871         D2E/DX2 =    0.2734             !
 ! R21   R(17,18)                1.3934         D2E/DX2 =    0.4769             !
 ! R22   R(17,22)                1.0872         D2E/DX2 =    0.2739             !
 ! R23   R(18,19)                1.3968         D2E/DX2 =    0.4675             !
 ! R24   R(18,23)                1.0871         D2E/DX2 =    0.2734             !
 ! R25   R(19,24)                1.088          D2E/DX2 =    0.2731             !
 ! R26   R(25,26)                1.4388         D2E/DX2 =    0.5293             !
 ! R27   R(25,27)                1.0118         D2E/DX2 =    0.2861             !
 ! R28   R(26,28)                1.0933         D2E/DX2 =    0.2699             !
 ! R29   R(26,29)                1.0932         D2E/DX2 =    0.2693             !
 ! R30   R(26,30)                1.0924         D2E/DX2 =    0.2707             !
 ! A1    A(2,1,4)              119.2977         D2E/DX2 =    0.1165             !
 ! A2    A(2,1,14)             120.1638         D2E/DX2 =    0.1115             !
 ! A3    A(4,1,14)             120.3242         D2E/DX2 =    0.1104             !
 ! A4    A(1,2,3)              122.3149         D2E/DX2 =    0.1292             !
 ! A5    A(1,2,25)             113.4496         D2E/DX2 =    0.1446             !
 ! A6    A(3,2,25)             124.1945         D2E/DX2 =    0.1388             !
 ! A7    A(1,4,9)              107.1618         D2E/DX2 =    0.0928             !
 ! A8    A(1,4,12)             119.737          D2E/DX2 =    0.0234             !
 ! A9    A(1,4,13)             122.0429         D2E/DX2 =    0.0399             !
 ! A10   A(9,4,12)              86.9335         D2E/DX2 =    0.0435             !
 ! A11   A(9,4,13)             103.0786         D2E/DX2 =    0.043              !
 ! A12   A(12,4,13)            110.0243         D2E/DX2 =    0.0184             !
 ! A13   A(6,5,7)              108.85           D2E/DX2 =    0.0438             !
 ! A14   A(6,5,8)              108.7668         D2E/DX2 =    0.0438             !
 ! A15   A(6,5,9)              110.3791         D2E/DX2 =    0.1124             !
 ! A16   A(7,5,8)              108.6128         D2E/DX2 =    0.0434             !
 ! A17   A(7,5,9)              109.9879         D2E/DX2 =    0.1076             !
 ! A18   A(8,5,9)              110.2017         D2E/DX2 =    0.1067             !
 ! A19   A(4,9,5)              134.4812         D2E/DX2 =    0.0413             !
 ! A20   A(4,9,10)             102.6885         D2E/DX2 =    0.049              !
 ! A21   A(4,9,11)              99.8004         D2E/DX2 =    0.0459             !
 ! A22   A(5,9,10)             106.9268         D2E/DX2 =    0.0631             !
 ! A23   A(5,9,11)             106.6355         D2E/DX2 =    0.0588             !
 ! A24   A(10,9,11)            102.2303         D2E/DX2 =    0.0127             !
 ! A25   A(1,14,15)            120.0524         D2E/DX2 =    0.1064             !
 ! A26   A(1,14,19)            121.1561         D2E/DX2 =    0.1069             !
 ! A27   A(15,14,19)           118.7735         D2E/DX2 =    0.0795             !
 ! A28   A(14,15,16)           120.6063         D2E/DX2 =    0.0771             !
 ! A29   A(14,15,20)           120.3757         D2E/DX2 =    0.0771             !
 ! A30   A(16,15,20)           119.0145         D2E/DX2 =    0.0775             !
 ! A31   A(15,16,17)           120.043          D2E/DX2 =    0.0766             !
 ! A32   A(15,16,21)           119.9017         D2E/DX2 =    0.0764             !
 ! A33   A(17,16,21)           120.0551         D2E/DX2 =    0.0764             !
 ! A34   A(16,17,18)           119.9552         D2E/DX2 =    0.0765             !
 ! A35   A(16,17,22)           120.0055         D2E/DX2 =    0.0763             !
 ! A36   A(18,17,22)           120.0393         D2E/DX2 =    0.0763             !
 ! A37   A(17,18,19)           120.0693         D2E/DX2 =    0.0766             !
 ! A38   A(17,18,23)           119.9742         D2E/DX2 =    0.0765             !
 ! A39   A(19,18,23)           119.9565         D2E/DX2 =    0.0764             !
 ! A40   A(14,19,18)           120.5513         D2E/DX2 =    0.0771             !
 ! A41   A(14,19,24)           120.5858         D2E/DX2 =    0.0769             !
 ! A42   A(18,19,24)           118.8619         D2E/DX2 =    0.0779             !
 ! A43   A(2,25,26)            121.3346         D2E/DX2 =    0.1169             !
 ! A44   A(2,25,27)            118.9233         D2E/DX2 =    0.0987             !
 ! A45   A(26,25,27)           118.9457         D2E/DX2 =    0.0936             !
 ! A46   A(25,26,28)           110.5197         D2E/DX2 =    0.1213             !
 ! A47   A(25,26,29)           108.557          D2E/DX2 =    0.1231             !
 ! A48   A(25,26,30)           108.5812         D2E/DX2 =    0.1205             !
 ! A49   A(28,26,29)           109.457          D2E/DX2 =    0.0479             !
 ! A50   A(28,26,30)           109.9632         D2E/DX2 =    0.0479             !
 ! A51   A(29,26,30)           109.7381         D2E/DX2 =    0.0467             !
 ! D1    D(4,1,2,3)             49.1418         D2E/DX2 =    0.009              !
 ! D2    D(4,1,2,25)          -133.0961         D2E/DX2 =    0.0087             !
 ! D3    D(14,1,2,3)          -125.5571         D2E/DX2 =    0.0083             !
 ! D4    D(14,1,2,25)           52.2051         D2E/DX2 =    0.0087             !
 ! D5    D(2,1,4,9)            -90.7057         D2E/DX2 =    0.0083             !
 ! D6    D(2,1,4,12)           172.8674         D2E/DX2 =    0.0183             !
 ! D7    D(2,1,4,13)            27.5036         D2E/DX2 =    0.015              !
 ! D8    D(14,1,4,9)            83.9844         D2E/DX2 =    0.0074             !
 ! D9    D(14,1,4,12)          -12.4424         D2E/DX2 =    0.0161             !
 ! D10   D(14,1,4,13)         -157.8063         D2E/DX2 =    0.016              !
 ! D11   D(2,1,14,15)           47.5529         D2E/DX2 =    0.0031             !
 ! D12   D(2,1,14,19)         -130.8817         D2E/DX2 =    0.0031             !
 ! D13   D(4,1,14,15)         -127.091          D2E/DX2 =    0.003              !
 ! D14   D(4,1,14,19)           54.4743         D2E/DX2 =    0.0035             !
 ! D15   D(1,2,25,26)         -175.0909         D2E/DX2 =    0.0114             !
 ! D16   D(1,2,25,27)           -5.4202         D2E/DX2 =    0.0086             !
 ! D17   D(3,2,25,26)            2.6225         D2E/DX2 =    0.0095             !
 ! D18   D(3,2,25,27)          172.2932         D2E/DX2 =    0.0104             !
 ! D19   D(1,4,9,5)            -76.1611         D2E/DX2 =    0.011              !
 ! D20   D(1,4,9,10)           154.0923         D2E/DX2 =    0.0124             !
 ! D21   D(1,4,9,11)            49.0666         D2E/DX2 =    0.0134             !
 ! D22   D(12,4,9,5)            44.0598         D2E/DX2 =    0.0106             !
 ! D23   D(12,4,9,10)          -85.6868         D2E/DX2 =    0.012              !
 ! D24   D(12,4,9,11)          169.2875         D2E/DX2 =    0.0128             !
 ! D25   D(13,4,9,5)           153.9121         D2E/DX2 =    0.0112             !
 ! D26   D(13,4,9,10)           24.1655         D2E/DX2 =    0.0128             !
 ! D27   D(13,4,9,11)          -80.8602         D2E/DX2 =    0.013              !
 ! D28   D(6,5,9,4)            178.1429         D2E/DX2 =    0.0087             !
 ! D29   D(6,5,9,10)           -53.4919         D2E/DX2 =    0.0116             !
 ! D30   D(6,5,9,11)            55.2944         D2E/DX2 =    0.0117             !
 ! D31   D(7,5,9,4)            -61.7329         D2E/DX2 =    0.0087             !
 ! D32   D(7,5,9,10)            66.6323         D2E/DX2 =    0.0118             !
 ! D33   D(7,5,9,11)           175.4186         D2E/DX2 =    0.0122             !
 ! D34   D(8,5,9,4)             57.985          D2E/DX2 =    0.0089             !
 ! D35   D(8,5,9,10)          -173.6498         D2E/DX2 =    0.0123             !
 ! D36   D(8,5,9,11)           -64.8635         D2E/DX2 =    0.012              !
 ! D37   D(1,14,15,16)        -178.8957         D2E/DX2 =    0.0067             !
 ! D38   D(1,14,15,20)           1.7968         D2E/DX2 =    0.0073             !
 ! D39   D(19,14,15,16)         -0.424          D2E/DX2 =    0.0067             !
 ! D40   D(19,14,15,20)       -179.7315         D2E/DX2 =    0.0069             !
 ! D41   D(1,14,19,18)         178.8607         D2E/DX2 =    0.0069             !
 ! D42   D(1,14,19,24)          -0.7663         D2E/DX2 =    0.0073             !
 ! D43   D(15,14,19,18)          0.4065         D2E/DX2 =    0.0067             !
 ! D44   D(15,14,19,24)       -179.2205         D2E/DX2 =    0.007              !
 ! D45   D(14,15,16,17)          0.2129         D2E/DX2 =    0.0083             !
 ! D46   D(14,15,16,21)       -179.6096         D2E/DX2 =    0.008              !
 ! D47   D(20,15,16,17)        179.5297         D2E/DX2 =    0.0079             !
 ! D48   D(20,15,16,21)         -0.2928         D2E/DX2 =    0.0087             !
 ! D49   D(15,16,17,18)          0.0232         D2E/DX2 =    0.0085             !
 ! D50   D(15,16,17,22)       -179.898          D2E/DX2 =    0.0081             !
 ! D51   D(21,16,17,18)        179.8455         D2E/DX2 =    0.0079             !
 ! D52   D(21,16,17,22)         -0.0757         D2E/DX2 =    0.0088             !
 ! D53   D(16,17,18,19)         -0.0404         D2E/DX2 =    0.0085             !
 ! D54   D(16,17,18,23)        179.9442         D2E/DX2 =    0.0079             !
 ! D55   D(22,17,18,19)        179.8808         D2E/DX2 =    0.0081             !
 ! D56   D(22,17,18,23)         -0.1346         D2E/DX2 =    0.0088             !
 ! D57   D(17,18,19,14)         -0.1782         D2E/DX2 =    0.0083             !
 ! D58   D(17,18,19,24)        179.4552         D2E/DX2 =    0.0079             !
 ! D59   D(23,18,19,14)        179.8372         D2E/DX2 =    0.008              !
 ! D60   D(23,18,19,24)         -0.5294         D2E/DX2 =    0.0087             !
 ! D61   D(2,25,26,28)         -38.8072         D2E/DX2 =    0.011              !
 ! D62   D(2,25,26,29)          81.2469         D2E/DX2 =    0.0111             !
 ! D63   D(2,25,26,30)        -159.4988         D2E/DX2 =    0.0118             !
 ! D64   D(27,25,26,28)        151.5243         D2E/DX2 =    0.0124             !
 ! D65   D(27,25,26,29)        -88.4216         D2E/DX2 =    0.0112             !
 ! D66   D(27,25,26,30)         30.8328         D2E/DX2 =    0.0105             !
 --------------------------------------------------------------------------------
 Trust Radius=1.00D-01 FncErr=1.00D-07 GrdErr=1.00D-06 EigMax=2.50D+02 EigMin=1.00D-04
 Number of steps in this run=     50 maximum allowed number of steps=    180.
 Search for a saddle point of order  1.
 GradGradGradGradGradGradGradGradGradGradGradGradGradGradGradGradGradGrad

                          Input orientation:                          
 ---------------------------------------------------------------------
 Center     Atomic      Atomic             Coordinates (Angstroms)
 Number     Number       Type             X           Y           Z
 ---------------------------------------------------------------------
      1          6           0        0.061770    0.162220   -0.059870
      2          6           0       -0.400740    1.455840    0.531630
      3          8           0       -1.154290    1.502540    1.497810
      4          6           0       -0.853670   -0.805020   -0.345820
      5          6           0       -0.177660   -2.940690    1.773980
      6          1           0       -0.631180   -3.300640    2.701800
      7          1           0       -0.079380   -3.779890    1.080050
      8          1           0        0.820180   -2.553820    1.997230
      9          7           0       -1.005460   -1.890120    1.175440
     10          1           0       -1.954930   -2.271800    1.086500
     11          1           0       -1.128690   -1.163600    1.897830
     12          1           0       -0.541880   -1.705520   -0.884850
     13         35           0       -2.677900   -0.387460   -0.764800
     14          6           0        1.508340   -0.106680   -0.221430
     15          6           0        2.390430    0.133350    0.842190
     16          6           0        3.760310   -0.094500    0.695050
     17          6           0        4.263660   -0.560340   -0.517780
     18          6           0        3.399240   -0.798390   -1.584390
     19          6           0        2.028760   -0.571310   -1.438660
     20          1           0        2.014270    0.490020    1.799600
     21          1           0        4.432910    0.089370    1.529030
     22          1           0        5.330050   -0.739100   -0.631140
     23          1           0        3.791750   -1.160990   -2.531100
     24          1           0        1.372850   -0.755160   -2.286980
     25          7           0        0.139350    2.562680   -0.082070
     26          6           0       -0.107450    3.889620    0.416320
     27          1           0        0.842870    2.431190   -0.797290
     28          1           0       -1.141520    3.984350    0.758360
     29          1           0        0.571310    4.079210    1.251980
     30          1           0        0.086870    4.604650   -0.386330
 ---------------------------------------------------------------------
                    Distance matrix (angstroms):
                    1          2          3          4          5
     1  C    0.000000
     2  C    1.495741   0.000000
     3  O    2.387808   1.226182   0.000000
     4  C    1.362113   2.467094   2.968868   0.000000
     5  C    3.612255   4.574131   4.557671   3.084093   0.000000
     6  H    4.483124   5.233244   4.979335   3.945327   1.093661
     7  H    4.106041   5.274173   5.406850   3.388581   1.093368
     8  H    3.490519   4.440271   4.538944   3.368970   1.093249
     9  N    2.622417   3.460582   3.411190   1.874757   1.465333
    10  H    3.362394   4.076602   3.880186   2.327178   2.019587
    11  H    2.647184   3.042676   2.696103   2.288707   2.019368
    12  H    2.129187   3.467064   4.042742   1.094836   2.954264
    13  Br   2.881816   3.203739   3.318568   1.917737   4.383559
    14  C    1.480194   2.579371   3.554571   2.466220   3.854331
    15  C    2.497439   3.104200   3.856107   3.579957   4.112547
    16  C    3.783518   4.443489   5.229556   4.782997   4.977198
    17  C    4.288083   5.188725   6.137773   5.126061   5.535662
    18  C    3.792840   4.898871   5.960610   4.429599   5.353719
    19  C    2.511609   3.727446   4.801616   3.091492   4.561064
    20  H    2.716126   2.893584   3.340067   3.808548   4.071239
    21  H    4.651535   5.121154   5.763231   5.680046   5.522556
    22  H    5.375268   6.245939   7.183595   6.190650   6.400505
    23  H    4.665899   5.814214   6.913018   5.146075   6.120234
    24  H    2.742360   3.997337   5.080185   2.954315   4.865390
    25  N    2.401816   1.376016   2.300744   3.520945   5.816571
    26  C    3.761503   2.454099   2.821993   4.814286   6.964288
    27  H    2.510404   2.064922   3.180963   3.681729   6.042351
    28  H    4.089754   2.644527   2.589658   4.923427   7.065174
    29  H    4.162138   2.888919   3.110845   5.332845   7.079014
    30  H    4.454480   3.315934   3.835824   5.490973   7.852966
                    6          7          8          9         10
     6  H    0.000000
     7  H    1.778830   0.000000
     8  H    1.777809   1.775859   0.000000
     9  N    2.111736   2.106645   2.109217   0.000000
    10  H    2.328094   2.406671   2.934314   1.027172   0.000000
    11  H    2.336841   2.935096   2.395973   1.031923   1.602821
    12  H    3.926378   2.894434   3.298667   2.119853   2.490704
    13  Br   4.969205   4.654499   4.955652   2.969777   2.738747
    14  C    4.829513   4.207990   3.374094   3.383947   4.288667
    15  C    4.937668   4.633572   3.319742   3.967059   4.972584
    16  C    5.795823   5.336061   4.048246   5.115427   6.128445
    17  C    6.467952   5.637425   4.707100   5.692006   6.646328
    18  C    6.393510   5.299941   4.749851   5.311301   6.162120
    19  C    5.627427   4.591638   4.146848   4.216547   5.013770
    20  H    4.709721   4.809704   3.275648   3.895306   4.887812
    21  H    6.205849   5.961000   4.500831   5.798213   6.824621
    22  H    7.294261   6.437120   5.526343   6.687845   7.640052
    23  H    7.177998   5.906326   5.592493   6.106005   6.880789
    24  H    5.948406   4.753405   4.679218   4.351189   4.975408
    25  N    6.536220   6.451865   5.564673   4.766482   5.396644
    26  C    7.562906   7.698228   6.699081   5.898142   6.467258
    27  H    6.875342   6.553813   5.714909   5.097225   5.787440
    28  H    7.557016   7.843153   6.937632   5.890829   6.317335
    29  H    7.616439   7.887865   6.679403   6.174541   6.837002
    30  H    8.517379   8.513426   7.580422   6.768630   7.322823
                   11         12         13         14         15
    11  H    0.000000
    12  H    2.895053   0.000000
    13  Br   3.176798   2.512822   0.000000
    14  C    3.544329   2.683248   4.230685   0.000000
    15  C    3.896237   3.868146   5.342437   1.402492   0.000000
    16  C    5.147036   4.858015   6.608142   2.431348   1.396473
    17  C    5.939405   4.953725   6.948105   2.808099   2.416550
    18  C    5.723756   4.104226   6.145911   2.431383   2.788212
    19  C    4.631680   2.863796   4.758207   1.402985   2.414462
    20  H    3.552788   4.308198   5.418725   2.167159   1.088735
    21  H    5.712910   5.813517   7.486831   3.414038   2.155321
    22  H    6.949188   5.956333   8.016781   3.895290   3.401946
    23  H    6.620133   4.667655   6.750891   3.414690   3.875319
    24  H    4.892562   2.556432   4.342903   2.169189   3.408317
    25  N    4.406029   4.396142   4.135982   3.003171   3.438497
    26  C    5.364032   5.760848   5.127930   4.357513   4.531041
    27  H    4.906448   4.363206   4.510173   2.686122   3.219147
    28  H    5.272565   5.952674   4.877828   4.971747   5.226079
    29  H    5.549250   6.266445   5.880128   4.535486   4.364280
    30  H    6.322000   6.360982   5.719122   4.923860   5.177661
                   16         17         18         19         20
    16  C    0.000000
    17  C    1.393314   0.000000
    18  C    2.412816   1.393394   0.000000
    19  C    2.788966   2.417213   1.396788   0.000000
    20  H    2.147173   3.396066   3.876794   3.407779   0.000000
    21  H    1.087070   2.154112   3.398526   3.876031   2.466485
    22  H    2.153688   1.087195   2.154119   3.402757   4.291111
    23  H    3.398004   2.153355   1.087107   2.156219   4.963893
    24  H    3.876718   3.394820   2.145171   1.087964   4.319957
    25  N    4.558056   5.191631   4.917381   3.902832   3.369262
    26  C    5.559719   6.307241   6.186853   5.282446   4.239391
    27  H    4.137348   4.552931   4.193416   3.291306   3.447341
    28  H    6.377222   7.176260   6.998684   5.969222   4.822192
    29  H    5.282021   6.187966   6.311352   5.566960   3.906956
    30  H    6.061811   6.643792   6.449805   5.627513   5.042156
                   21         22         23         24         25
    21  H    0.000000
    22  H    2.481443   0.000000
    23  H    4.296410   2.480767   0.000000
    24  H    4.963782   4.289696   2.464827   0.000000
    25  N    5.210332   6.176293   5.762247   4.170277   0.000000
    26  C    6.024524   7.217245   7.028492   5.574325   1.438775
    27  H    4.876912   5.496647   4.960418   3.557089   1.011815
    28  H    6.843908   8.131599   7.850619   6.169206   2.089999
    29  H    5.559455   7.029072   7.220985   6.044654   2.065464
    30  H    6.553199   7.490429   7.181140   5.830418   2.065180
                   26         27         28         29         30
    26  C    0.000000
    27  H    2.122022   0.000000
    28  H    1.093282   2.961445   0.000000
    29  H    1.093155   2.643714   1.785062   0.000000
    30  H    1.092371   2.337595   1.789980   1.787408   0.000000
 Stoichiometry    C11H15BrN2O
 Framework group  C1[X(C11H15BrN2O)]
 Deg. of freedom    84
 Full point group                 C1      NOp   1
 Largest Abelian subgroup         C1      NOp   1
 Largest concise Abelian subgroup C1      NOp   1
                         Standard orientation:                         
 ---------------------------------------------------------------------
 Center     Atomic      Atomic             Coordinates (Angstroms)
 Number     Number       Type             X           Y           Z
 ---------------------------------------------------------------------
      1          6           0        0.061771    0.162220   -0.059871
      2          6           0       -0.400741    1.455839    0.531629
      3          8           0       -1.154291    1.502538    1.497809
      4          6           0       -0.853668   -0.805021   -0.345821
      5          6           0       -0.177655   -2.940690    1.773979
      6          1           0       -0.631175   -3.300641    2.701799
      7          1           0       -0.079374   -3.779890    1.080049
      8          1           0        0.820184   -2.553819    1.997229
      9          7           0       -1.005456   -1.890121    1.175439
     10          1           0       -1.954926   -2.271803    1.086499
     11          1           0       -1.128687   -1.163601    1.897829
     12          1           0       -0.541877   -1.705521   -0.884851
     13         35           0       -2.677898   -0.387463   -0.764801
     14          6           0        1.508341   -0.106678   -0.221431
     15          6           0        2.390431    0.133353    0.842189
     16          6           0        3.760311   -0.094495    0.695049
     17          6           0        4.263662   -0.560335   -0.517781
     18          6           0        3.399242   -0.798386   -1.584391
     19          6           0        2.028762   -0.571308   -1.438661
     20          1           0        2.014271    0.490022    1.799599
     21          1           0        4.432911    0.089375    1.529029
     22          1           0        5.330052   -0.739093   -0.631141
     23          1           0        3.791753   -1.160985   -2.531101
     24          1           0        1.372852   -0.755158   -2.286981
     25          7           0        0.139348    2.562680   -0.082071
     26          6           0       -0.107454    3.889620    0.416319
     27          1           0        0.842868    2.431191   -0.797291
     28          1           0       -1.141524    3.984349    0.758359
     29          1           0        0.571306    4.079211    1.251979
     30          1           0        0.086865    4.604650   -0.386331
 ---------------------------------------------------------------------
 Rotational constants (GHZ):           0.5707058           0.3130453           0.2543192
 Standard basis: def2SVP (5D, 7F)
 There are   320 symmetry adapted cartesian basis functions of A   symmetry.
 There are   303 symmetry adapted basis functions of A   symmetry.
   303 basis functions,   535 primitive gaussians,   320 cartesian basis functions
    69 alpha electrons       69 beta electrons
       nuclear repulsion energy      1347.9991246151 Hartrees.
 NAtoms=   30 NActive=   30 NUniq=   30 SFac= 1.00D+00 NAtFMM=   60 NAOKFM=F Big=F
 Integral buffers will be    131072 words long.
 Raffenetti 2 integral format.
 Two-electron integral symmetry is turned on.
 Nuclear repulsion after empirical dispersion term =     1347.9774848751 Hartrees.
 ------------------------------------------------------------------------------
 Polarizable Continuum Model (PCM)
 =================================
 Model                : PCM.
 Atomic radii         : UFF (Universal Force Field).
 Polarization charges : Total charges.
 Charge compensation  : None.
 Solution method      : On-the-fly selection.
 Cavity type          : Scaled VdW (van der Waals Surface) (Alpha=1.100).
 Cavity algorithm     : GePol (No added spheres)
                        Default sphere list used, NSphG=   30.
                        Lebedev-Laikov grids with approx.  5.0 points / Ang**2.
                        Smoothing algorithm: York/Karplus (Gamma=1.0000).
                        Polarization charges: spherical gaussians, with
                                              point-specific exponents (IZeta= 3).
                        Self-potential: point-specific (ISelfS= 7).
                        Self-field    : sphere-specific E.n sum rule (ISelfD= 2).
 1st derivatives      : Analytical E(r).r(x)/FMM algorithm (CHGder, D1EAlg=3).
                        Cavity 1st derivative terms included.
 Solvent              : Toluene, Eps=   2.374100 Eps(inf)=   2.238315
 ------------------------------------------------------------------------------
 One-electron integrals computed using PRISM.
   1 Symmetry operations used in ECPInt.
 ECPInt:  NShTT=   10011 NPrTT=   37668 LenC2=    9528 LenP2D=   25663.
 LDataN:  DoStor=T MaxTD1= 4 Len=   56
 NBasis=   303 RedAO= T EigKep=  2.86D-04  NBF=   303
 NBsUse=   303 1.00D-06 EigRej= -1.00D+00 NBFU=   303
 ExpMin= 1.22D-01 ExpMax= 1.13D+05 ExpMxC= 1.70D+04 IAcc=3 IRadAn=         5 AccDes= 0.00D+00
 Harris functional with IExCor= 4639 and IRadAn=       5 diagonalized for initial guess.
 HarFok:  IExCor= 4639 AccDes= 0.00D+00 IRadAn=         5 IDoV= 1 UseB2=F ITyADJ=14
 ICtDFT=  3500011 ScaDFX=  1.000000  1.000000  1.000000  1.000000
 FoFCou: FMM=F IPFlag=           0 FMFlag=      100000 FMFlg1=           0
         NFxFlg=           0 DoJE=T BraDBF=F KetDBF=T FulRan=T
         wScrn=  0.000000 ICntrl=       500 IOpCl=  0 I1Cent=   200000004 NGrid=           0
         NMat0=    1 NMatS0=      1 NMatT0=    0 NMatD0=    1 NMtDS0=    0 NMtDT0=    0
 Petite list used in FoFCou.
 Requested convergence on RMS density matrix=1.00D-08 within 128 cycles.
 Requested convergence on MAX density matrix=1.00D-06.
 Requested convergence on             energy=1.00D-06.
 No special actions if energy rises.
 Inv3:  Mode=1 IEnd=    17612787.
 Iteration    1 A*A^-1 deviation from unit magnitude is 3.11D-15 for   1994.
 Iteration    1 A*A^-1 deviation from orthogonality  is 1.95D-15 for   1301    230.
 Iteration    1 A^-1*A deviation from unit magnitude is 3.33D-15 for   1994.
 Iteration    1 A^-1*A deviation from orthogonality  is 3.39D-14 for   1481   1418.
 Error on total polarization charges =  0.00587
 SCF Done:  E(RwB97XD) =  -3186.13623593     A.U. after   16 cycles
            NFock= 16  Conv=0.42D-08     -V/T= 2.0029

 **********************************************************************

            Population analysis using the SCF Density.

 **********************************************************************

 Orbital symmetries:
       Occupied  (A) (A) (A) (A) (A) (A) (A) (A) (A) (A) (A) (A)
                 (A) (A) (A) (A) (A) (A) (A) (A) (A) (A) (A) (A)
                 (A) (A) (A) (A) (A) (A) (A) (A) (A) (A) (A) (A)
                 (A) (A) (A) (A) (A) (A) (A) (A) (A) (A) (A) (A)
                 (A) (A) (A) (A) (A) (A) (A) (A) (A) (A) (A) (A)
                 (A) (A) (A) (A) (A) (A) (A) (A) (A)
       Virtual   (A) (A) (A) (A) (A) (A) (A) (A) (A) (A) (A) (A)
                 (A) (A) (A) (A) (A) (A) (A) (A) (A) (A) (A) (A)
                 (A) (A) (A) (A) (A) (A) (A) (A) (A) (A) (A) (A)
                 (A) (A) (A) (A) (A) (A) (A) (A) (A) (A) (A) (A)
                 (A) (A) (A) (A) (A) (A) (A) (A) (A) (A) (A) (A)
                 (A) (A) (A) (A) (A) (A) (A) (A) (A) (A) (A) (A)
                 (A) (A) (A) (A) (A) (A) (A) (A) (A) (A) (A) (A)
                 (A) (A) (A) (A) (A) (A) (A) (A) (A) (A) (A) (A)
                 (A) (A) (A) (A) (A) (A) (A) (A) (A) (A) (A) (A)
                 (A) (A) (A) (A) (A) (A) (A) (A) (A) (A) (A) (A)
                 (A) (A) (A) (A) (A) (A) (A) (A) (A) (A) (A) (A)
                 (A) (A) (A) (A) (A) (A) (A) (A) (A) (A) (A) (A)
                 (A) (A) (A) (A) (A) (A) (A) (A) (A) (A) (A) (A)
                 (A) (A) (A) (A) (A) (A) (A) (A) (A) (A) (A) (A)
                 (A) (A) (A) (A) (A) (A) (A) (A) (A) (A) (A) (A)
                 (A) (A) (A) (A) (A) (A) (A) (A) (A) (A) (A) (A)
                 (A) (A) (A) (A) (A) (A) (A) (A) (A) (A) (A) (A)
                 (A) (A) (A) (A) (A) (A) (A) (A) (A) (A) (A) (A)
                 (A) (A) (A) (A) (A) (A) (A) (A) (A) (A) (A) (A)
                 (A) (A) (A) (A) (A) (A)
 The electronic state is 1-A.
 Alpha  occ. eigenvalues -- -483.05775 -62.63987 -56.44758 -56.44404 -56.44384
 Alpha  occ. eigenvalues --  -19.20346 -14.48246 -14.44876 -10.37905 -10.37455
 Alpha  occ. eigenvalues --  -10.33943 -10.31525 -10.30697 -10.29870 -10.29855
 Alpha  occ. eigenvalues --  -10.29504 -10.29467 -10.29431 -10.25488  -8.80939
 Alpha  occ. eigenvalues --   -6.63489  -6.62198  -6.62125  -2.73860  -2.73503
 Alpha  occ. eigenvalues --   -2.73445  -2.72416  -2.72415  -1.10507  -1.02610
 Alpha  occ. eigenvalues --   -0.99325  -0.94987  -0.91722  -0.86235  -0.83325
 Alpha  occ. eigenvalues --   -0.80497  -0.78723  -0.77276  -0.70156  -0.68682
 Alpha  occ. eigenvalues --   -0.67170  -0.64710  -0.61676  -0.60912  -0.57131
 Alpha  occ. eigenvalues --   -0.56629  -0.54763  -0.54535  -0.53038  -0.52640
 Alpha  occ. eigenvalues --   -0.51828  -0.51155  -0.50131  -0.48920  -0.47711
 Alpha  occ. eigenvalues --   -0.46664  -0.46268  -0.45384  -0.44827  -0.44346
 Alpha  occ. eigenvalues --   -0.42218  -0.41743  -0.37120  -0.36481  -0.34677
 Alpha  occ. eigenvalues --   -0.32982  -0.31789  -0.31492  -0.24095
 Alpha virt. eigenvalues --    0.04793   0.06145   0.08462   0.09484   0.12706
 Alpha virt. eigenvalues --    0.14980   0.15643   0.16238   0.17366   0.17571
 Alpha virt. eigenvalues --    0.18856   0.19152   0.20003   0.20787   0.21677
 Alpha virt. eigenvalues --    0.22219   0.22642   0.23479   0.24263   0.24864
 Alpha virt. eigenvalues --    0.25770   0.28113   0.29237   0.33103   0.33616
 Alpha virt. eigenvalues --    0.36393   0.37495   0.38552   0.38706   0.41800
 Alpha virt. eigenvalues --    0.42448   0.43537   0.44811   0.45900   0.47672
 Alpha virt. eigenvalues --    0.49150   0.49732   0.50329   0.51946   0.52233
 Alpha virt. eigenvalues --    0.53069   0.53831   0.54968   0.55788   0.56548
 Alpha virt. eigenvalues --    0.57127   0.57606   0.57817   0.58491   0.59495
 Alpha virt. eigenvalues --    0.60380   0.62602   0.63733   0.64465   0.65487
 Alpha virt. eigenvalues --    0.66419   0.68220   0.68482   0.69259   0.69511
 Alpha virt. eigenvalues --    0.70706   0.71714   0.72740   0.73086   0.73603
 Alpha virt. eigenvalues --    0.74472   0.74708   0.75353   0.75900   0.75959
 Alpha virt. eigenvalues --    0.76287   0.76423   0.77688   0.77870   0.78401
 Alpha virt. eigenvalues --    0.79359   0.80703   0.80947   0.82218   0.82654
 Alpha virt. eigenvalues --    0.83556   0.84087   0.85012   0.85610   0.86834
 Alpha virt. eigenvalues --    0.87039   0.88577   0.90103   0.91239   0.94220
 Alpha virt. eigenvalues --    0.94703   0.96784   0.97939   0.98059   1.00759
 Alpha virt. eigenvalues --    1.03736   1.04232   1.06100   1.08140   1.11065
 Alpha virt. eigenvalues --    1.14007   1.15193   1.17860   1.18847   1.20169
 Alpha virt. eigenvalues --    1.23107   1.26246   1.28278   1.30679   1.31082
 Alpha virt. eigenvalues --    1.32178   1.33631   1.35679   1.37222   1.38256
 Alpha virt. eigenvalues --    1.38993   1.39577   1.42983   1.45166   1.46822
 Alpha virt. eigenvalues --    1.49177   1.52519   1.56570   1.57437   1.59945
 Alpha virt. eigenvalues --    1.60981   1.62023   1.62157   1.67697   1.71286
 Alpha virt. eigenvalues --    1.73194   1.75371   1.76759   1.78888   1.79651
 Alpha virt. eigenvalues --    1.80481   1.83099   1.83143   1.84324   1.84945
 Alpha virt. eigenvalues --    1.85195   1.85916   1.86296   1.86604   1.87977
 Alpha virt. eigenvalues --    1.88221   1.88823   1.89605   1.90593   1.91474
 Alpha virt. eigenvalues --    1.92085   1.95198   1.95999   1.98876   2.01434
 Alpha virt. eigenvalues --    2.03246   2.03797   2.04390   2.05857   2.06980
 Alpha virt. eigenvalues --    2.07922   2.08022   2.09293   2.12923   2.13604
 Alpha virt. eigenvalues --    2.15659   2.16943   2.17990   2.19365   2.19937
 Alpha virt. eigenvalues --    2.23003   2.23275   2.24688   2.25184   2.27100
 Alpha virt. eigenvalues --    2.30015   2.31045   2.37380   2.38186   2.39536
 Alpha virt. eigenvalues --    2.39972   2.40621   2.41822   2.42750   2.43951
 Alpha virt. eigenvalues --    2.44353   2.46793   2.51655   2.52469   2.55006
 Alpha virt. eigenvalues --    2.59617   2.62430   2.63407   2.65825   2.70065
 Alpha virt. eigenvalues --    2.71800   2.73030   2.74386   2.75354   2.76366
 Alpha virt. eigenvalues --    2.77659   2.78681   2.81056   2.82938   2.83351
 Alpha virt. eigenvalues --    2.83818   2.87803   2.89146   2.93864   2.96928
 Alpha virt. eigenvalues --    2.98264   3.00006   3.03021   3.05257   3.05726
 Alpha virt. eigenvalues --    3.06156   3.08014   3.10130   3.20540   3.22534
 Alpha virt. eigenvalues --    3.23495   3.27472   3.29119   3.34728   3.41247
 Alpha virt. eigenvalues --    3.51319   3.54879   3.57705   3.64282   3.67214
 Alpha virt. eigenvalues --    3.70554   3.73681   3.77991   3.93214
          Condensed to atoms (all electrons):
               1          2          3          4          5          6
     1  C    5.736507   0.270264  -0.118207   0.457851   0.004085  -0.000743
     2  C    0.270264   4.583206   0.717841  -0.031574  -0.000025  -0.000036
     3  O   -0.118207   0.717841   7.783384   0.007891  -0.000245   0.000008
     4  C    0.457851  -0.031574   0.007891   4.970392   0.000407   0.000612
     5  C    0.004085  -0.000025  -0.000245   0.000407   4.484092   0.405906
     6  H   -0.000743  -0.000036   0.000008   0.000612   0.405906   0.618074
     7  H   -0.000135  -0.000025  -0.000006  -0.000996   0.403752  -0.023674
     8  H    0.002633   0.000334  -0.000004  -0.000806   0.404381  -0.023739
     9  N   -0.079003  -0.010498  -0.000748  -0.062934   0.316988  -0.014879
    10  H    0.004500   0.000664  -0.000285   0.000499  -0.020791  -0.010888
    11  H   -0.013304   0.004617   0.018875  -0.001323  -0.024349  -0.008455
    12  H   -0.019925   0.008738  -0.000019   0.405480   0.001235  -0.000433
    13  Br  -0.073872  -0.002810  -0.002461   0.272147   0.001328  -0.000107
    14  C    0.364180  -0.044678  -0.001545  -0.019824   0.000706   0.000107
    15  C   -0.117549  -0.003474  -0.000076   0.002287  -0.000832   0.000089
    16  C    0.016236   0.000173   0.000023  -0.000256  -0.000194  -0.000002
    17  C   -0.000689   0.000059  -0.000000   0.000131  -0.000000  -0.000001
    18  C    0.014771  -0.000197   0.000002   0.000183  -0.000006   0.000001
    19  C   -0.102266   0.003949  -0.000156  -0.011728   0.000234   0.000005
    20  H   -0.017780   0.006921   0.001124  -0.000926   0.000007  -0.000006
    21  H   -0.000361  -0.000012  -0.000000  -0.000005  -0.000003   0.000000
    22  H    0.000021  -0.000000  -0.000000   0.000001   0.000000  -0.000000
    23  H   -0.000373   0.000002  -0.000000  -0.000006   0.000000  -0.000000
    24  H   -0.014120  -0.000269  -0.000001   0.001540  -0.000007   0.000001
    25  N   -0.158119   0.362369  -0.099762   0.002103  -0.000004  -0.000000
    26  C    0.013838  -0.026461   0.004648  -0.000421   0.000000   0.000000
    27  H   -0.014575  -0.001550   0.003092   0.000119   0.000001  -0.000000
    28  H    0.001457  -0.006951   0.012880   0.000171   0.000000  -0.000000
    29  H    0.000312  -0.001830   0.000787  -0.000097   0.000000  -0.000000
    30  H   -0.000373   0.007085   0.000490   0.000030   0.000000  -0.000000
               7          8          9         10         11         12
     1  C   -0.000135   0.002633  -0.079003   0.004500  -0.013304  -0.019925
     2  C   -0.000025   0.000334  -0.010498   0.000664   0.004617   0.008738
     3  O   -0.000006  -0.000004  -0.000748  -0.000285   0.018875  -0.000019
     4  C   -0.000996  -0.000806  -0.062934   0.000499  -0.001323   0.405480
     5  C    0.403752   0.404381   0.316988  -0.020791  -0.024349   0.001235
     6  H   -0.023674  -0.023739  -0.014879  -0.010888  -0.008455  -0.000433
     7  H    0.600362  -0.018048  -0.025778  -0.004955   0.006624   0.003286
     8  H   -0.018048   0.587513  -0.026631   0.007577  -0.005031   0.000142
     9  N   -0.025778  -0.026631   6.559161   0.316427   0.330124  -0.045013
    10  H   -0.004955   0.007577   0.316427   0.562876  -0.012395   0.000656
    11  H    0.006624  -0.005031   0.330124  -0.012395   0.541181   0.003706
    12  H    0.003286   0.000142  -0.045013   0.000656   0.003706   0.620017
    13  Br   0.000049  -0.000038  -0.043963   0.008640   0.002492  -0.034925
    14  C   -0.000164   0.001629   0.004928  -0.000162  -0.003321  -0.011394
    15  C    0.000011   0.001350   0.002564  -0.000060   0.000338  -0.000042
    16  C    0.000004   0.000609  -0.000072   0.000001   0.000021  -0.000015
    17  C    0.000001   0.000045  -0.000009   0.000000   0.000001  -0.000009
    18  C    0.000003  -0.000130   0.000058  -0.000002   0.000001  -0.000367
    19  C   -0.000023  -0.000051  -0.000432   0.000030  -0.000081   0.005355
    20  H   -0.000004   0.000366   0.000043  -0.000002   0.000124  -0.000009
    21  H   -0.000000   0.000010   0.000001  -0.000000  -0.000001   0.000001
    22  H   -0.000000  -0.000001  -0.000000   0.000000  -0.000000  -0.000001
    23  H    0.000000   0.000001  -0.000001   0.000000  -0.000000   0.000027
    24  H   -0.000013  -0.000010   0.000239  -0.000005  -0.000012   0.001408
    25  N   -0.000000   0.000003  -0.000079   0.000001   0.000564  -0.000096
    26  C    0.000000  -0.000000   0.000006  -0.000000  -0.000026   0.000007
    27  H    0.000000   0.000000   0.000002   0.000000  -0.000030  -0.000031
    28  H    0.000000   0.000000  -0.000001   0.000000  -0.000018   0.000001
    29  H    0.000000   0.000000  -0.000001   0.000000   0.000005   0.000000
    30  H    0.000000   0.000000  -0.000000   0.000000  -0.000000  -0.000000
              13         14         15         16         17         18
     1  C   -0.073872   0.364180  -0.117549   0.016236  -0.000689   0.014771
     2  C   -0.002810  -0.044678  -0.003474   0.000173   0.000059  -0.000197
     3  O   -0.002461  -0.001545  -0.000076   0.000023  -0.000000   0.000002
     4  C    0.272147  -0.019824   0.002287  -0.000256   0.000131   0.000183
     5  C    0.001328   0.000706  -0.000832  -0.000194  -0.000000  -0.000006
     6  H   -0.000107   0.000107   0.000089  -0.000002  -0.000001   0.000001
     7  H    0.000049  -0.000164   0.000011   0.000004   0.000001   0.000003
     8  H   -0.000038   0.001629   0.001350   0.000609   0.000045  -0.000130
     9  N   -0.043963   0.004928   0.002564  -0.000072  -0.000009   0.000058
    10  H    0.008640  -0.000162  -0.000060   0.000001   0.000000  -0.000002
    11  H    0.002492  -0.003321   0.000338   0.000021   0.000001   0.000001
    12  H   -0.034925  -0.011394  -0.000042  -0.000015  -0.000009  -0.000367
    13  Br  34.945604   0.003060  -0.000101   0.000003  -0.000000   0.000000
    14  C    0.003060   5.147035   0.324799   0.076363  -0.140091   0.075677
    15  C   -0.000101   0.324799   5.140447   0.305808   0.066263  -0.122626
    16  C    0.000003   0.076363   0.305808   5.044989   0.305495   0.068447
    17  C   -0.000000  -0.140091   0.066263   0.305495   5.094955   0.303813
    18  C    0.000000   0.075677  -0.122626   0.068447   0.303813   5.047649
    19  C    0.000036   0.314428   0.034356  -0.123378   0.066736   0.307843
    20  H   -0.000007  -0.063058   0.448671  -0.063942   0.013136  -0.001910
    21  H   -0.000000   0.014263  -0.064698   0.448692  -0.068879   0.012976
    22  H    0.000000  -0.001510   0.012922  -0.065154   0.447821  -0.065198
    23  H   -0.000000   0.014056  -0.001740   0.012897  -0.068272   0.446520
    24  H   -0.000119  -0.066566   0.013803  -0.002083   0.013494  -0.064210
    25  N   -0.000117  -0.004841   0.004398  -0.000635   0.000033  -0.000060
    26  C   -0.000116  -0.000009  -0.000514   0.000001   0.000001   0.000000
    27  H    0.000051   0.005223   0.000949  -0.000300   0.000006  -0.000002
    28  H    0.000069   0.000079   0.000004  -0.000003   0.000000  -0.000000
    29  H    0.000006  -0.000107  -0.000006   0.000060  -0.000002  -0.000001
    30  H   -0.000000  -0.000005   0.000008  -0.000002   0.000000  -0.000000
              19         20         21         22         23         24
     1  C   -0.102266  -0.017780  -0.000361   0.000021  -0.000373  -0.014120
     2  C    0.003949   0.006921  -0.000012  -0.000000   0.000002  -0.000269
     3  O   -0.000156   0.001124  -0.000000  -0.000000  -0.000000  -0.000001
     4  C   -0.011728  -0.000926  -0.000005   0.000001  -0.000006   0.001540
     5  C    0.000234   0.000007  -0.000003   0.000000   0.000000  -0.000007
     6  H    0.000005  -0.000006   0.000000  -0.000000  -0.000000   0.000001
     7  H   -0.000023  -0.000004  -0.000000  -0.000000   0.000000  -0.000013
     8  H   -0.000051   0.000366   0.000010  -0.000001   0.000001  -0.000010
     9  N   -0.000432   0.000043   0.000001  -0.000000  -0.000001   0.000239
    10  H    0.000030  -0.000002  -0.000000   0.000000   0.000000  -0.000005
    11  H   -0.000081   0.000124  -0.000001  -0.000000  -0.000000  -0.000012
    12  H    0.005355  -0.000009   0.000001  -0.000001   0.000027   0.001408
    13  Br   0.000036  -0.000007  -0.000000   0.000000  -0.000000  -0.000119
    14  C    0.314428  -0.063058   0.014263  -0.001510   0.014056  -0.066566
    15  C    0.034356   0.448671  -0.064698   0.012922  -0.001740   0.013803
    16  C   -0.123378  -0.063942   0.448692  -0.065154   0.012897  -0.002083
    17  C    0.066736   0.013136  -0.068879   0.447821  -0.068272   0.013494
    18  C    0.307843  -0.001910   0.012976  -0.065198   0.446520  -0.064210
    19  C    5.139053   0.013434  -0.001764   0.012712  -0.063188   0.451899
    20  H    0.013434   0.662494  -0.011458  -0.000227   0.000025  -0.000150
    21  H   -0.001764  -0.011458   0.663340  -0.011422  -0.000224   0.000027
    22  H    0.012712  -0.000227  -0.011422   0.662159  -0.011422  -0.000227
    23  H   -0.063188   0.000025  -0.000224  -0.011422   0.663850  -0.011804
    24  H    0.451899  -0.000150   0.000027  -0.000227  -0.011804   0.668404
    25  N   -0.000651  -0.001609   0.000002   0.000000  -0.000000  -0.000029
    26  C    0.000020   0.000039   0.000001   0.000000   0.000000   0.000004
    27  H    0.000745   0.000024  -0.000003  -0.000001  -0.000003   0.000069
    28  H    0.000000  -0.000012   0.000000   0.000000   0.000000   0.000000
    29  H    0.000015   0.000191  -0.000001  -0.000000   0.000000  -0.000001
    30  H    0.000003  -0.000004   0.000000   0.000000   0.000000  -0.000000
              25         26         27         28         29         30
     1  C   -0.158119   0.013838  -0.014575   0.001457   0.000312  -0.000373
     2  C    0.362369  -0.026461  -0.001550  -0.006951  -0.001830   0.007085
     3  O   -0.099762   0.004648   0.003092   0.012880   0.000787   0.000490
     4  C    0.002103  -0.000421   0.000119   0.000171  -0.000097   0.000030
     5  C   -0.000004   0.000000   0.000001   0.000000   0.000000   0.000000
     6  H   -0.000000   0.000000  -0.000000  -0.000000  -0.000000  -0.000000
     7  H   -0.000000   0.000000   0.000000   0.000000   0.000000   0.000000
     8  H    0.000003  -0.000000   0.000000   0.000000   0.000000   0.000000
     9  N   -0.000079   0.000006   0.000002  -0.000001  -0.000001  -0.000000
    10  H    0.000001  -0.000000   0.000000   0.000000   0.000000   0.000000
    11  H    0.000564  -0.000026  -0.000030  -0.000018   0.000005  -0.000000
    12  H   -0.000096   0.000007  -0.000031   0.000001   0.000000  -0.000000
    13  Br  -0.000117  -0.000116   0.000051   0.000069   0.000006  -0.000000
    14  C   -0.004841  -0.000009   0.005223   0.000079  -0.000107  -0.000005
    15  C    0.004398  -0.000514   0.000949   0.000004  -0.000006   0.000008
    16  C   -0.000635   0.000001  -0.000300  -0.000003   0.000060  -0.000002
    17  C    0.000033   0.000001   0.000006   0.000000  -0.000002   0.000000
    18  C   -0.000060   0.000000  -0.000002  -0.000000  -0.000001  -0.000000
    19  C   -0.000651   0.000020   0.000745   0.000000   0.000015   0.000003
    20  H   -0.001609   0.000039   0.000024  -0.000012   0.000191  -0.000004
    21  H    0.000002   0.000001  -0.000003   0.000000  -0.000001   0.000000
    22  H    0.000000   0.000000  -0.000001   0.000000  -0.000000   0.000000
    23  H   -0.000000   0.000000  -0.000003   0.000000   0.000000   0.000000
    24  H   -0.000029   0.000004   0.000069   0.000000  -0.000001  -0.000000
    25  N    6.576228   0.302548   0.357794  -0.027290  -0.039575  -0.022661
    26  C    0.302548   4.447198  -0.025129   0.400526   0.408759   0.399793
    27  H    0.357794  -0.025129   0.524179   0.004825   0.001356  -0.008416
    28  H   -0.027290   0.400526   0.004825   0.605361  -0.028372  -0.017599
    29  H   -0.039575   0.408759   0.001356  -0.028372   0.647270  -0.026036
    30  H   -0.022661   0.399793  -0.008416  -0.017599  -0.026036   0.627110
 Mulliken charges:
               1
     1  C   -0.155259
     2  C    0.164165
     3  O   -0.327528
     4  C    0.009052
     5  C    0.023337
     6  H    0.058160
     7  H    0.059730
     8  H    0.067896
     9  N   -0.220500
    10  H    0.147672
    11  H    0.159675
    12  H    0.062221
    13  Br  -0.074850
    14  C    0.010741
    15  C   -0.047350
    16  C   -0.023788
    17  C   -0.034038
    18  C   -0.023238
    19  C   -0.047137
    20  H    0.014508
    21  H    0.019518
    22  H    0.019527
    23  H    0.019655
    24  H    0.008735
    25  N   -0.250518
    26  C    0.075288
    27  H    0.151604
    28  H    0.054872
    29  H    0.037270
    30  H    0.040578
 Sum of Mulliken charges =  -0.00000
 Mulliken charges with hydrogens summed into heavy atoms:
               1
     1  C   -0.155259
     2  C    0.164165
     3  O   -0.327528
     4  C    0.071272
     5  C    0.209123
     9  N    0.086847
    13  Br  -0.074850
    14  C    0.010741
    15  C   -0.032843
    16  C   -0.004270
    17  C   -0.014511
    18  C   -0.003583
    19  C   -0.038402
    25  N   -0.098914
    26  C    0.208008
 Electronic spatial extent (au):  <R**2>=           4492.6776
 Charge=             -0.0000 electrons
 Dipole moment (field-independent basis, Debye):
    X=              1.3392    Y=             -3.5318    Z=              0.3866  Tot=              3.7968
 Quadrupole moment (field-independent basis, Debye-Ang):
   XX=           -101.8482   YY=            -87.4147   ZZ=            -98.2492
   XY=              7.3825   XZ=             -0.0514   YZ=             -8.7899
 Traceless Quadrupole moment (field-independent basis, Debye-Ang):
   XX=             -6.0108   YY=              8.4227   ZZ=             -2.4118
   XY=              7.3825   XZ=             -0.0514   YZ=             -8.7899
 Octapole moment (field-independent basis, Debye-Ang**2):
  XXX=            -81.9788  YYY=             -3.3254  ZZZ=            -11.7634  XYY=            -42.0703
  XXY=            -13.3838  XXZ=             -2.7862  XZZ=            -21.4170  YZZ=            -22.8153
  YYZ=              1.7467  XYZ=             16.1329
 Hexadecapole moment (field-independent basis, Debye-Ang**3):
 XXXX=          -2869.8967 YYYY=          -1587.4802 ZZZZ=           -715.7448 XXXY=             14.9335
 XXXZ=             66.9268 YYYX=             82.4379 YYYZ=            -51.7912 ZZZX=             47.5795
 ZZZY=            -22.5950 XXYY=           -824.0701 XXZZ=           -603.7055 YYZZ=           -399.4560
 XXYZ=              1.9741 YYXZ=              3.7176 ZZXY=             26.5176
 N-N= 1.347977484875D+03 E-N=-1.027160764672D+04  KE= 3.176998885425D+03
   1 Symmetry operations used in ECPInt.
 ECPInt:  NShTT=   10011 NPrTT=   37668 LenC2=    9528 LenP2D=   25663.
 LDataN:  DoStor=T MaxTD1= 5 Len=  102
 D1PCM: PCM CHGder 1st derivatives, ID1Alg=3 FixD1E=F DoIter=F DoCFld=F I1PDM=0.
 Calling FoFJK, ICntrl=      2127 FMM=F ISym2X=0 I1Cent= 0 IOpClX= 0 NMat=1 NMatS=1 NMatT=0.
 ***** Axes restored to original set *****
 -------------------------------------------------------------------
 Center     Atomic                   Forces (Hartrees/Bohr)
 Number     Number              X              Y              Z
 -------------------------------------------------------------------
      1        6          -0.000829166    0.023707474   -0.011629158
      2        6           0.022829666   -0.010142602   -0.005930423
      3        8          -0.005448261    0.009358861   -0.003424563
      4        6           0.022602835   -0.007679479   -0.020163169
      5        6           0.005637031    0.002408037   -0.009401114
      6        1          -0.000253178   -0.002962592    0.004274437
      7        1           0.000932722   -0.002763789   -0.002379040
      8        1           0.003233767    0.001989407   -0.000427732
      9        7          -0.041614630   -0.017737946    0.050314747
     10        1           0.002194730   -0.000328008    0.000078076
     11        1           0.002104785    0.001734312   -0.008965034
     12        1           0.000681306    0.008096385   -0.009339548
     13       35          -0.000468944   -0.002689370    0.004386524
     14        6          -0.011412025    0.004439013   -0.002327208
     15        6           0.010383006   -0.001489334   -0.001821914
     16        6          -0.005881303    0.000898326   -0.002669287
     17        6           0.000984830   -0.000392347   -0.000027025
     18        6          -0.005107925   -0.000050452    0.004389028
     19        6           0.011291014   -0.003726960    0.000957451
     20        1          -0.003337876    0.001255535    0.001739022
     21        1           0.002398759    0.000699677    0.003060658
     22        1           0.003760333   -0.000435076   -0.000495261
     23        1           0.001297346   -0.000976183   -0.003624032
     24        1          -0.004120887    0.001060543   -0.001334063
     25        7          -0.015068423   -0.008885170    0.010074128
     26        6           0.007550305   -0.005985702   -0.002207971
     27        1          -0.002641460   -0.002816445   -0.000069114
     28        1          -0.002370818   -0.000201527    0.001085499
     29        1           0.001015949    0.008807156    0.006730424
     30        1          -0.000343491    0.004808255   -0.000854341
 -------------------------------------------------------------------
 Cartesian Forces:  Max     0.050314747 RMS     0.009860989

 GradGradGradGradGradGradGradGradGradGradGradGradGradGradGradGradGradGrad
 Berny optimization.
 FormGI is forming the generalized inverse of G from B-inverse, IUseBI=4.
 Internal  Forces:  Max     0.039644978 RMS     0.006055168
 Search for a saddle point.
 Step number   1 out of a maximum of   50
 All quantities printed in internal units (Hartrees-Bohrs-Radians)
 Swapping is turned off.
 Second derivative matrix not updated -- first step.
 ITU=  0
     Eigenvalues ---   -0.04346  -0.00001   0.00007   0.00059   0.00092
     Eigenvalues ---    0.00482   0.00547   0.00786   0.01142   0.01200
     Eigenvalues ---    0.01279   0.01377   0.01394   0.01538   0.02187
     Eigenvalues ---    0.02463   0.02499   0.02769   0.02925   0.03024
     Eigenvalues ---    0.03343   0.03617   0.03688   0.03719   0.04476
     Eigenvalues ---    0.04549   0.04659   0.04701   0.06316   0.08028
     Eigenvalues ---    0.08816   0.10549   0.10843   0.10928   0.10983
     Eigenvalues ---    0.11147   0.11640   0.12073   0.12469   0.12812
     Eigenvalues ---    0.12897   0.13559   0.13908   0.14758   0.14839
     Eigenvalues ---    0.14916   0.15148   0.15258   0.15551   0.15749
     Eigenvalues ---    0.16218   0.16319   0.16727   0.17898   0.19516
     Eigenvalues ---    0.22616   0.26107   0.26348   0.26565   0.26590
     Eigenvalues ---    0.26629   0.26838   0.26848   0.26941   0.27054
     Eigenvalues ---    0.27132   0.28087   0.28176   0.28243   0.28462
     Eigenvalues ---    0.28994   0.29299   0.37801   0.40895   0.52239
     Eigenvalues ---    0.52535   0.53206   0.53924   0.54072   0.54222
     Eigenvalues ---    0.59065   0.69905   0.70991   0.85623
 Eigenvectors required to have negative eigenvalues:
                          R6        A19       A10       A20       A21
   1                   -0.76978  -0.33663   0.24834   0.18918   0.15739
                          D8        D5        D6        D9        D10
   1                    0.15252   0.14898  -0.13995  -0.13640   0.12862
 RFO step:  Lambda0=1.284246713D-03 Lambda=-3.65880107D-02.
 Linear search not attempted -- option 19 set.
 Maximum step size (   0.100) exceeded in Quadratic search.
    -- Step size scaled by   0.216
 Iteration  1 RMS(Cart)=  0.02737067 RMS(Int)=  0.00040639
 Iteration  2 RMS(Cart)=  0.00066724 RMS(Int)=  0.00009729
 Iteration  3 RMS(Cart)=  0.00000042 RMS(Int)=  0.00009729
 Variable       Old X    -DE/DX   Delta X   Delta X   Delta X     New X
                                 (Linear)    (Quad)   (Total)
    R1        2.82654  -0.00395   0.00000  -0.00654  -0.00654   2.82000
    R2        2.57402   0.01572   0.00000   0.00401   0.00401   2.57803
    R3        2.79716   0.00026   0.00000  -0.00053  -0.00053   2.79663
    R4        2.31715   0.00100   0.00000   0.00271   0.00271   2.31986
    R5        2.60029  -0.01466   0.00000  -0.00402  -0.00402   2.59628
    R6        3.54278   0.03964   0.00000   0.02833   0.02833   3.57111
    R7        2.06894  -0.00187   0.00000  -0.00368  -0.00368   2.06526
    R8        3.62400  -0.00110   0.00000   0.00195   0.00195   3.62595
    R9        2.06672   0.00471   0.00000   0.00302   0.00302   2.06974
   R10        2.06617   0.00371   0.00000   0.00268   0.00268   2.06884
   R11        2.06594   0.00357   0.00000   0.00292   0.00292   2.06887
   R12        2.76908   0.00310   0.00000  -0.00302  -0.00302   2.76606
   R13        1.94107  -0.00191   0.00000  -0.00463  -0.00463   1.93645
   R14        1.95005  -0.00530   0.00000  -0.00701  -0.00701   1.94304
   R15        2.65033   0.00351   0.00000   0.00222   0.00222   2.65255
   R16        2.65126   0.00292   0.00000   0.00133   0.00133   2.65259
   R17        2.63895  -0.00126   0.00000  -0.00170  -0.00170   2.63725
   R18        2.05741   0.00309   0.00000   0.00245   0.00245   2.05986
   R19        2.63298   0.00168   0.00000   0.00062   0.00061   2.63360
   R20        2.05426   0.00395   0.00000   0.00296   0.00296   2.05722
   R21        2.63313   0.00162   0.00000   0.00033   0.00033   2.63347
   R22        2.05450   0.00381   0.00000   0.00219   0.00219   2.05669
   R23        2.63955  -0.00126   0.00000  -0.00139  -0.00139   2.63816
   R24        2.05434   0.00395   0.00000   0.00294   0.00294   2.05728
   R25        2.05595   0.00334   0.00000   0.00268   0.00268   2.05863
   R26        2.71889   0.00749   0.00000   0.00044   0.00044   2.71933
   R27        1.91205  -0.00142   0.00000  -0.00036  -0.00036   1.91170
   R28        2.06600   0.00256   0.00000   0.00272   0.00272   2.06872
   R29        2.06576   0.00730   0.00000   0.00380   0.00380   2.06957
   R30        2.06428   0.00372   0.00000   0.00225   0.00225   2.06653
    A1        2.08214   0.00522   0.00000   0.00406   0.00405   2.08618
    A2        2.09725  -0.00229   0.00000  -0.00036  -0.00037   2.09688
    A3        2.10005  -0.00314   0.00000  -0.00458  -0.00460   2.09546
    A4        2.13480   0.00619   0.00000   0.00526   0.00526   2.14005
    A5        1.98007   0.00903   0.00000   0.00939   0.00938   1.98945
    A6        2.16760  -0.01514   0.00000  -0.01441  -0.01442   2.15318
    A7        1.87033   0.01729   0.00000   0.02337   0.02339   1.89372
    A8        2.08981  -0.00437   0.00000  -0.00717  -0.00771   2.08209
    A9        2.13005   0.00045   0.00000   0.00355   0.00367   2.13372
   A10        1.51728   0.00837   0.00000   0.02613   0.02613   1.54341
   A11        1.79906  -0.01953   0.00000  -0.04344  -0.04338   1.75568
   A12        1.92029  -0.00013   0.00000   0.00009   0.00046   1.92075
   A13        1.89979  -0.00120   0.00000  -0.00128  -0.00128   1.89851
   A14        1.89834  -0.00038   0.00000  -0.00072  -0.00071   1.89762
   A15        1.92648   0.00378   0.00000   0.00534   0.00534   1.93182
   A16        1.89565   0.00009   0.00000  -0.00046  -0.00046   1.89519
   A17        1.91965   0.00001   0.00000  -0.00058  -0.00058   1.91907
   A18        1.92338  -0.00237   0.00000  -0.00239  -0.00239   1.92099
   A19        2.34714  -0.02463   0.00000  -0.05893  -0.05895   2.28819
   A20        1.79225   0.01005   0.00000   0.02690   0.02696   1.81921
   A21        1.74185   0.00140   0.00000   0.00686   0.00669   1.74854
   A22        1.86622   0.00668   0.00000   0.01313   0.01325   1.87947
   A23        1.86114   0.01203   0.00000   0.01896   0.01858   1.87972
   A24        1.78426  -0.00167   0.00000   0.00644   0.00613   1.79038
   A25        2.09531   0.00116   0.00000   0.00057   0.00057   2.09588
   A26        2.11457   0.00352   0.00000   0.00491   0.00491   2.11948
   A27        2.07299  -0.00466   0.00000  -0.00541  -0.00541   2.06758
   A28        2.10498   0.00240   0.00000   0.00295   0.00295   2.10793
   A29        2.10095  -0.00373   0.00000  -0.00520  -0.00520   2.09575
   A30        2.07719   0.00134   0.00000   0.00227   0.00227   2.07946
   A31        2.09515   0.00101   0.00000   0.00107   0.00107   2.09622
   A32        2.09268  -0.00057   0.00000  -0.00052  -0.00052   2.09216
   A33        2.09536  -0.00044   0.00000  -0.00056  -0.00056   2.09480
   A34        2.09361  -0.00229   0.00000  -0.00275  -0.00276   2.09086
   A35        2.09449   0.00118   0.00000   0.00136   0.00136   2.09585
   A36        2.09508   0.00111   0.00000   0.00139   0.00139   2.09647
   A37        2.09560   0.00106   0.00000   0.00113   0.00113   2.09674
   A38        2.09394  -0.00034   0.00000  -0.00034  -0.00034   2.09360
   A39        2.09364  -0.00072   0.00000  -0.00079  -0.00079   2.09284
   A40        2.10402   0.00249   0.00000   0.00301   0.00301   2.10703
   A41        2.10462  -0.00414   0.00000  -0.00572  -0.00572   2.09890
   A42        2.07453   0.00165   0.00000   0.00271   0.00271   2.07724
   A43        2.11769   0.00371   0.00000   0.00350   0.00350   2.12119
   A44        2.07560  -0.00461   0.00000  -0.00399  -0.00399   2.07161
   A45        2.07599   0.00094   0.00000   0.00045   0.00045   2.07644
   A46        1.92893  -0.00376   0.00000  -0.00419  -0.00419   1.92474
   A47        1.89468   0.01247   0.00000   0.01326   0.01325   1.90792
   A48        1.89510   0.00310   0.00000   0.00328   0.00326   1.89836
   A49        1.91039  -0.00452   0.00000  -0.00546  -0.00546   1.90493
   A50        1.91922  -0.00176   0.00000  -0.00175  -0.00175   1.91747
   A51        1.91529  -0.00535   0.00000  -0.00493  -0.00497   1.91032
    D1        0.85769  -0.00492   0.00000  -0.02457  -0.02460   0.83308
    D2       -2.32296  -0.00318   0.00000  -0.01846  -0.01845  -2.34141
    D3       -2.19138  -0.00222   0.00000  -0.01356  -0.01357  -2.20495
    D4        0.91115  -0.00047   0.00000  -0.00745  -0.00741   0.90374
    D5       -1.58311   0.01327   0.00000   0.04677   0.04671  -1.53640
    D6        3.01711  -0.00578   0.00000   0.00356   0.00362   3.02072
    D7        0.48003   0.00207   0.00000   0.01039   0.01040   0.49043
    D8        1.46580   0.01061   0.00000   0.03597   0.03591   1.50172
    D9       -0.21716  -0.00844   0.00000  -0.00723  -0.00718  -0.22434
   D10       -2.75424  -0.00059   0.00000  -0.00040  -0.00040  -2.75464
   D11        0.82996  -0.00307   0.00000  -0.01747  -0.01745   0.81250
   D12       -2.28432  -0.00378   0.00000  -0.02073  -0.02072  -2.30504
   D13       -2.21816  -0.00078   0.00000  -0.00681  -0.00682  -2.22498
   D14        0.95076  -0.00149   0.00000  -0.01007  -0.01009   0.94066
   D15       -3.05591   0.00038   0.00000   0.00402   0.00404  -3.05187
   D16       -0.09460   0.00074   0.00000   0.00377   0.00379  -0.09081
   D17        0.04577   0.00273   0.00000   0.01078   0.01076   0.05653
   D18        3.00708   0.00309   0.00000   0.01054   0.01051   3.01760
   D19       -1.32926  -0.00064   0.00000   0.00172   0.00134  -1.32792
   D20        2.68942   0.00003   0.00000   0.00425   0.00413   2.69355
   D21        0.85637  -0.00101   0.00000  -0.01089  -0.01105   0.84533
   D22        0.76899  -0.00047   0.00000   0.00545   0.00559   0.77458
   D23       -1.49552   0.00020   0.00000   0.00797   0.00839  -1.48713
   D24        2.95462  -0.00084   0.00000  -0.00716  -0.00680   2.94783
   D25        2.68627   0.00077   0.00000   0.01032   0.01007   2.69634
   D26        0.42177   0.00144   0.00000   0.01285   0.01286   0.43463
   D27       -1.41128   0.00041   0.00000  -0.00229  -0.00232  -1.41359
   D28        3.10918  -0.00196   0.00000  -0.00765  -0.00773   3.10145
   D29       -0.93361  -0.00238   0.00000  -0.00770  -0.00773  -0.94134
   D30        0.96507   0.00363   0.00000   0.01308   0.01317   0.97824
   D31       -1.07744  -0.00104   0.00000  -0.00621  -0.00629  -1.08374
   D32        1.16295  -0.00145   0.00000  -0.00626  -0.00629   1.15667
   D33        3.06163   0.00456   0.00000   0.01452   0.01462   3.07625
   D34        1.01203  -0.00240   0.00000  -0.00865  -0.00873   1.00330
   D35       -3.03076  -0.00281   0.00000  -0.00870  -0.00872  -3.03948
   D36       -1.13208   0.00320   0.00000   0.01208   0.01218  -1.11990
   D37       -3.12232  -0.00049   0.00000  -0.00252  -0.00252  -3.12483
   D38        0.03136  -0.00079   0.00000  -0.00357  -0.00356   0.02780
   D39       -0.00740   0.00033   0.00000   0.00082   0.00082  -0.00658
   D40       -3.13691   0.00003   0.00000  -0.00023  -0.00023  -3.13714
   D41        3.12171   0.00100   0.00000   0.00445   0.00445   3.12616
   D42       -0.01337   0.00096   0.00000   0.00490   0.00490  -0.00847
   D43        0.00710   0.00021   0.00000   0.00114   0.00115   0.00824
   D44       -3.12799   0.00017   0.00000   0.00160   0.00160  -3.12639
   D45        0.00372  -0.00056   0.00000  -0.00196  -0.00196   0.00176
   D46       -3.13478  -0.00026   0.00000  -0.00096  -0.00097  -3.13574
   D47        3.13339  -0.00030   0.00000  -0.00098  -0.00098   3.13241
   D48       -0.00511   0.00000   0.00000   0.00002   0.00002  -0.00509
   D49        0.00041   0.00026   0.00000   0.00116   0.00116   0.00157
   D50       -3.13981   0.00010   0.00000   0.00046   0.00046  -3.13936
   D51        3.13890  -0.00004   0.00000   0.00016   0.00016   3.13906
   D52       -0.00132  -0.00020   0.00000  -0.00054  -0.00054  -0.00186
   D53       -0.00071   0.00028   0.00000   0.00079   0.00079   0.00008
   D54        3.14062  -0.00032   0.00000  -0.00127  -0.00127   3.13934
   D55        3.13951   0.00044   0.00000   0.00150   0.00149   3.14101
   D56       -0.00235  -0.00016   0.00000  -0.00057  -0.00057  -0.00292
   D57       -0.00311  -0.00053   0.00000  -0.00197  -0.00197  -0.00508
   D58        3.13208  -0.00051   0.00000  -0.00245  -0.00245   3.12963
   D59        3.13875   0.00007   0.00000   0.00009   0.00009   3.13884
   D60       -0.00924   0.00009   0.00000  -0.00039  -0.00039  -0.00963
   D61       -0.67731  -0.00085   0.00000  -0.00047  -0.00047  -0.67778
   D62        1.41803  -0.00085   0.00000  -0.00140  -0.00142   1.41660
   D63       -2.78378   0.00166   0.00000   0.00217   0.00218  -2.78159
   D64        2.64460  -0.00064   0.00000   0.00022   0.00022   2.64482
   D65       -1.54325  -0.00065   0.00000  -0.00071  -0.00073  -1.54398
   D66        0.53813   0.00186   0.00000   0.00286   0.00288   0.54101
         Item               Value     Threshold  Converged?
 Maximum Force            0.039645     0.000450     NO 
 RMS     Force            0.006055     0.000300     NO 
 Maximum Displacement     0.117133     0.001800     NO 
 RMS     Displacement     0.027500     0.001200     NO 
 Predicted change in Energy=-7.086096D-03
 GradGradGradGradGradGradGradGradGradGradGradGradGradGradGradGradGradGrad

                          Input orientation:                          
 ---------------------------------------------------------------------
 Center     Atomic      Atomic             Coordinates (Angstroms)
 Number     Number       Type             X           Y           Z
 ---------------------------------------------------------------------
      1          6           0        0.071525    0.158967   -0.069979
      2          6           0       -0.392056    1.446803    0.524560
      3          8           0       -1.156066    1.495485    1.484227
      4          6           0       -0.837863   -0.819305   -0.347703
      5          6           0       -0.200892   -2.925583    1.775625
      6          1           0       -0.634812   -3.308710    2.705421
      7          1           0       -0.087761   -3.755943    1.071170
      8          1           0        0.790437   -2.515169    1.993354
      9          7           0       -1.056441   -1.890085    1.193988
     10          1           0       -1.997992   -2.282608    1.096693
     11          1           0       -1.190674   -1.159664    1.905105
     12          1           0       -0.513785   -1.713456   -0.886099
     13         35           0       -2.668630   -0.426439   -0.766779
     14          6           0        1.518319   -0.105550   -0.234164
     15          6           0        2.405331    0.153501    0.822428
     16          6           0        3.774851   -0.071828    0.676598
     17          6           0        4.278923   -0.557614   -0.528456
     18          6           0        3.411446   -0.815930   -1.588075
     19          6           0        2.041562   -0.588925   -1.443671
     20          1           0        2.026969    0.525480    1.774603
     21          1           0        4.448899    0.128993    1.507535
     22          1           0        5.346765   -0.735189   -0.641119
     23          1           0        3.802702   -1.193462   -2.531251
     24          1           0        1.381372   -0.786397   -2.287415
     25          7           0        0.144296    2.562328   -0.071681
     26          6           0       -0.105474    3.883458    0.441124
     27          1           0        0.849393    2.439409   -0.786606
     28          1           0       -1.142507    3.968646    0.781299
     29          1           0        0.566141    4.077815    1.284066
     30          1           0        0.086191    4.610982   -0.352509
 ---------------------------------------------------------------------
                    Distance matrix (angstroms):
                    1          2          3          4          5
     1  C    0.000000
     2  C    1.492282   0.000000
     3  O    2.389312   1.227616   0.000000
     4  C    1.364233   2.468771   2.969086   0.000000
     5  C    3.604845   4.551864   4.532450   3.057885   0.000000
     6  H    4.497391   5.237364   4.984306   3.944608   1.095259
     7  H    4.080944   5.240223   5.374884   3.346595   1.094785
     8  H    3.453285   4.387809   4.487029   3.317810   1.094796
     9  N    2.658671   3.467616   3.399447   1.889751   1.463736
    10  H    3.406656   4.100594   3.890116   2.360812   2.025816
    11  H    2.689403   3.055710   2.688522   2.305529   2.028522
    12  H    2.124761   3.462949   4.040826   1.092887   2.941416
    13  Br   2.887330   3.218599   3.323953   1.918770   4.335813
    14  C    1.479912   2.575848   3.559286   2.464534   3.866203
    15  C    2.498613   3.096243   3.862958   3.582438   4.145086
    16  C    3.784874   4.437619   5.236667   4.783831   5.015806
    17  C    4.292539   5.190816   6.148595   5.126661   5.566401
    18  C    3.796066   4.904061   5.970246   4.426641   5.367877
    19  C    2.515436   3.733713   4.810631   3.089548   4.566447
    20  H    2.713038   2.874565   3.340201   3.810498   4.107700
    21  H    4.653048   5.112505   5.769184   5.682519   5.569817
    22  H    5.380881   6.249317   7.195820   6.192156   6.435448
    23  H    4.669969   5.822798   6.924152   5.142248   6.130106
    24  H    2.743435   4.004926   5.086340   2.947637   4.856745
    25  N    2.404464   1.373890   2.291276   3.532176   5.800764
    26  C    3.763561   2.454869   2.809667   4.824378   6.939239
    27  H    2.513773   2.060490   3.173254   3.695766   6.037489
    28  H    4.088056   2.643631   2.571151   4.928684   7.028920
    29  H    4.175579   2.901244   3.110385   5.349363   7.062404
    30  H    4.460995   3.318132   3.824019   5.508349   7.836528
                    6          7          8          9         10
     6  H    0.000000
     7  H    1.780466   0.000000
     8  H    1.779910   1.777969   0.000000
     9  N    2.115348   2.105909   2.107291   0.000000
    10  H    2.345026   2.412540   2.938268   1.024723   0.000000
    11  H    2.359637   2.941518   2.402079   1.028212   1.601965
    12  H    3.931729   2.860795   3.261133   2.156950   2.541312
    13  Br   4.949755   4.596144   4.893493   2.930191   2.714341
    14  C    4.851532   4.196279   3.361237   3.442902   4.344560
    15  C    4.977452   4.643396   3.331779   4.037098   5.039751
    16  C    5.834265   5.352397   4.075597   5.187980   6.195945
    17  C    6.493942   5.644116   4.728751   5.762674   6.709424
    18  C    6.404706   5.287694   4.752235   5.371750   6.214591
    19  C    5.636946   4.570387   4.133868   4.271754   5.063596
    20  H    4.759465   4.826747   3.289744   3.959733   4.954314
    21  H    6.252747   5.988691   4.540039   5.872287   6.895434
    22  H    7.321312   6.449105   5.555979   6.760359   7.704541
    23  H    7.182516   5.888926   5.593988   6.162302   6.927934
    24  H    5.946046   4.717695   4.654336   4.391039   5.011081
    25  N    6.541283   6.424991   5.519316   4.782015   5.424748
    26  C    7.558738   7.665358   6.644886   5.899571   6.483191
    27  H    6.887524   6.535440   5.681505   5.128301   5.826822
    28  H    7.544528   7.801653   6.873515   5.873878   6.317396
    29  H    7.617302   7.863885   6.634821   6.185202   6.860384
    30  H    8.520111   8.488966   7.535321   6.779463   7.346127
                   11         12         13         14         15
    11  H    0.000000
    12  H    2.925010   0.000000
    13  Br   3.140213   2.512769   0.000000
    14  C    3.609193   2.672046   4.232870   0.000000
    15  C    3.978422   3.863397   5.348550   1.403668   0.000000
    16  C    5.229633   4.850708   6.612680   2.433631   1.395574
    17  C    6.016742   4.943070   6.952877   2.812811   2.416800
    18  C    5.787916   4.087269   6.147646   2.433442   2.786142
    19  C    4.689071   2.846973   4.761354   1.403688   2.412204
    20  H    3.634552   4.306693   5.423414   2.166119   1.090029
    21  H    5.798576   5.809676   7.492678   3.417137   2.155492
    22  H    7.028624   5.946686   8.022324   3.901161   3.403495
    23  H    6.679536   4.648547   6.751283   3.417392   3.874806
    24  H    4.932745   2.532735   4.341016   2.167521   3.406321
    25  N    4.420753   4.402122   4.162744   3.005315   3.422595
    26  C    5.362274   5.766601   5.157907   4.359462   4.512439
    27  H    4.935637   4.372007   4.537616   2.688768   3.199267
    28  H    5.250221   5.954981   4.903301   4.970939   5.210007
    29  H    5.559072   6.278112   5.912530   4.551067   4.358437
    30  H    6.326734   6.375202   5.756410   4.930585   5.160234
                   16         17         18         19         20
    16  C    0.000000
    17  C    1.393639   0.000000
    18  C    2.411326   1.393570   0.000000
    19  C    2.786973   2.417516   1.396054   0.000000
[...]
   D21        0.97240  -0.00003   0.00000  -0.00589  -0.00589   0.96652
   D22        1.12001   0.00001   0.00000  -0.00645  -0.00645   1.11356
   D23       -1.16730  -0.00000   0.00000  -0.00769  -0.00769  -1.17498
   D24        3.12815  -0.00001   0.00000  -0.00622  -0.00621   3.12193
   D25        3.03751   0.00001   0.00000  -0.00641  -0.00642   3.03109
   D26        0.75020   0.00000   0.00000  -0.00765  -0.00765   0.74255
   D27       -1.23754  -0.00001   0.00000  -0.00618  -0.00618  -1.24372
   D28        2.80323  -0.00000   0.00000  -0.06349  -0.06349   2.73974
   D29       -1.19007  -0.00003   0.00000  -0.06379  -0.06379  -1.25385
   D30        1.02530  -0.00006   0.00000  -0.06655  -0.06655   0.95876
   D31       -1.35171  -0.00001   0.00000  -0.06197  -0.06198  -1.41369
   D32        0.93818  -0.00004   0.00000  -0.06228  -0.06228   0.87591
   D33       -3.12963  -0.00007   0.00000  -0.06504  -0.06504   3.08851
   D34        0.71217  -0.00001   0.00000  -0.06061  -0.06061   0.65156
   D35        3.00206  -0.00004   0.00000  -0.06091  -0.06091   2.94115
   D36       -1.06575  -0.00007   0.00000  -0.06367  -0.06367  -1.12943
   D37        3.11739   0.00003   0.00000   0.00397   0.00397   3.12136
   D38       -0.01511   0.00004   0.00000   0.00608   0.00608  -0.00903
   D39       -0.00608   0.00004   0.00000   0.00303   0.00303  -0.00304
   D40       -3.13858   0.00005   0.00000   0.00514   0.00515  -3.13343
   D41       -3.09979  -0.00000   0.00000  -0.00222  -0.00222  -3.10201
   D42        0.06396  -0.00000   0.00000  -0.00276  -0.00276   0.06120
   D43        0.02384  -0.00001   0.00000  -0.00124  -0.00124   0.02260
   D44       -3.09559  -0.00001   0.00000  -0.00179  -0.00179  -3.09737
   D45       -0.01155  -0.00004   0.00000  -0.00276  -0.00276  -0.01432
   D46       -3.13737  -0.00003   0.00000  -0.00288  -0.00288  -3.14025
   D47        3.12094  -0.00005   0.00000  -0.00487  -0.00487   3.11607
   D48       -0.00487  -0.00005   0.00000  -0.00499  -0.00499  -0.00986
   D49        0.01170   0.00002   0.00000   0.00059   0.00059   0.01229
   D50       -3.13634   0.00002   0.00000   0.00093   0.00093  -3.13541
   D51        3.13745   0.00001   0.00000   0.00070   0.00070   3.13816
   D52       -0.01058   0.00001   0.00000   0.00104   0.00104  -0.00955
   D53        0.00588   0.00000   0.00000   0.00119   0.00119   0.00706
   D54        3.12624   0.00000   0.00000   0.00103   0.00103   3.12727
   D55       -3.12926   0.00000   0.00000   0.00085   0.00085  -3.12842
   D56       -0.00890   0.00000   0.00000   0.00069   0.00069  -0.00820
   D57       -0.02419  -0.00001   0.00000  -0.00083  -0.00083  -0.02502
   D58        3.09521  -0.00001   0.00000  -0.00031  -0.00031   3.09490
   D59        3.13849  -0.00000   0.00000  -0.00066  -0.00066   3.13783
   D60       -0.02529  -0.00000   0.00000  -0.00014  -0.00014  -0.02543
   D61        2.30146   0.00009   0.00000  -0.06401  -0.06399   2.23746
   D62       -1.86320  -0.00000   0.00000  -0.06620  -0.06621  -1.92941
   D63        0.21552  -0.00011   0.00000  -0.06902  -0.06903   0.14649
   D64       -0.91692   0.00009   0.00000  -0.06856  -0.06854  -0.98547
   D65        1.20160  -0.00001   0.00000  -0.07075  -0.07076   1.13084
   D66       -3.00286  -0.00012   0.00000  -0.07358  -0.07358  -3.07644
         Item               Value     Threshold  Converged?
 Maximum Force            0.000789     0.000450     NO 
 RMS     Force            0.000203     0.000300     YES
 Maximum Displacement     0.140513     0.001800     NO 
 RMS     Displacement     0.030412     0.001200     NO 
 Predicted change in Energy=-5.278870D-05
 GradGradGradGradGradGradGradGradGradGradGradGradGradGradGradGradGradGrad

                          Input orientation:                          
 ---------------------------------------------------------------------
 Center     Atomic      Atomic             Coordinates (Angstroms)
 Number     Number       Type             X           Y           Z
 ---------------------------------------------------------------------
      1          6           0        0.171024    0.039045   -0.265696
      2          6           0       -0.401663    1.212254    0.422729
      3          8           0       -1.467547    1.144143    1.047160
      4          6           0       -0.684315   -0.979929   -0.636222
      5          6           0       -0.469521   -2.244037    1.914710
      6          1           0       -0.798662   -2.288492    2.964760
      7          1           0       -0.159680   -3.248121    1.595398
      8          1           0        0.403434   -1.574993    1.855092
      9          7           0       -1.491702   -1.729597    1.026948
     10          1           0       -2.267390   -2.369799    0.866193
     11          1           0       -1.841195   -0.810411    1.325943
     12          1           0       -0.252952   -1.899471   -1.034744
     13         35           0       -2.377099   -0.648698   -1.527946
     14          6           0        1.633513   -0.170954   -0.388338
     15          6           0        2.529835    0.211632    0.629201
     16          6           0        3.899086   -0.013227    0.511027
     17          6           0        4.417752   -0.643654   -0.620839
     18          6           0        3.547795   -1.032159   -1.638785
     19          6           0        2.180320   -0.786196   -1.530261
     20          1           0        2.141399    0.685102    1.534064
     21          1           0        4.567065    0.294595    1.319203
     22          1           0        5.491167   -0.824702   -0.709931
     23          1           0        3.937915   -1.514916   -2.538124
     24          1           0        1.519147   -1.057883   -2.356791
     25          7           0        0.310767    2.369100    0.360982
     26          6           0       -0.088553    3.586339    1.019027
     27          1           0        1.126752    2.385362   -0.235555
     28          1           0        0.727479    3.997843    1.631441
     29          1           0       -0.401179    4.357859    0.295614
     30          1           0       -0.942822    3.353975    1.666033
 ---------------------------------------------------------------------
                    Distance matrix (angstroms):
                    1          2          3          4          5
     1  C    0.000000
     2  C    1.475913   0.000000
     3  O    2.372709   1.237198   0.000000
     4  C    1.381016   2.450906   2.821154   0.000000
     5  C    3.221325   3.765177   3.637096   2.855058   0.000000
     6  H    4.097996   4.344508   3.988431   3.833077   1.101324
     7  H    3.791900   4.618296   4.615525   3.224913   1.098247
     8  H    2.675234   3.235520   3.398091   2.782794   1.101464
     9  N    2.750216   3.194958   2.873913   1.994997   1.448317
    10  H    3.609649   4.063090   3.608364   2.587492   2.085075
    11  H    2.702576   2.641821   2.009382   2.284119   2.069643
    12  H    2.128154   3.439358   3.882416   1.091078   2.977399
    13  Br   2.925611   3.342248   3.266915   1.941753   4.246863
    14  C    1.482570   2.590953   3.661517   2.467431   3.744924
    15  C    2.528757   3.104441   4.125933   3.654021   4.083990
    16  C    3.808474   4.472812   5.516130   4.822682   5.102113
    17  C    4.315890   5.268795   6.373004   5.113161   5.733731
    18  C    3.799399   4.988532   6.091325   4.349554   5.498618
    19  C    2.513447   3.804552   4.865824   3.007154   4.584188
    20  H    2.745706   2.824911   3.670461   3.932827   3.942290
    21  H    4.679999   5.131669   6.100187   5.746746   5.671550
    22  H    5.408079   6.336999   7.442272   6.177872   6.665812
    23  H    4.665639   5.919126   7.010269   5.026774   6.307522
    24  H    2.719074   4.070475   5.035488   2.796727   4.858753
    25  N    2.416900   1.360023   2.265780   3.633263   4.929904
    26  C    3.781691   2.467770   2.804770   4.893423   5.911063
    27  H    2.533678   2.036068   3.149026   3.842614   5.348183
    28  H    4.425025   3.239668   3.647344   5.649218   6.361927
    29  H    4.392566   3.148172   3.468418   5.425907   6.797880
    30  H    3.995121   2.534882   2.354081   4.914258   5.623486
                    6          7          8          9         10
     6  H    0.000000
     7  H    1.790067   0.000000
     8  H    1.784791   1.784348   0.000000
     9  N    2.132553   2.098412   2.073949   0.000000
    10  H    2.562763   2.397005   2.956846   1.018524   0.000000
    11  H    2.440762   2.973639   2.429597   1.027836   1.680686
    12  H    4.055265   2.957230   2.981154   2.411211   2.809400
    13  Br   5.036347   4.629172   4.475973   2.912002   2.950615
    14  C    4.652172   4.076728   2.918458   3.768206   4.650356
    15  C    4.773295   4.487418   3.035855   4.483228   5.452826
    16  C    5.767709   5.302262   4.057734   5.680906   6.610975
    17  C    6.540107   5.713829   4.807534   6.230259   7.062717
    18  C    6.454664   5.395906   4.731686   5.743613   6.471520
    19  C    5.597896   4.615888   3.903862   4.573081   5.294611
    20  H    4.419628   4.557299   2.869079   4.391738   5.405173
    21  H    6.178287   5.913479   4.595472   6.394641   7.349421
    22  H    7.430208   6.566549   5.746939   7.252313   8.066393
    23  H    7.301734   6.072914   5.638840   6.498967   7.129236
    24  H    5.933426   4.820312   4.387730   4.578876   5.142626
    25  N    5.450106   5.770466   4.218628   4.526779   5.418422
    26  C    6.229267   6.859090   5.251705   5.498006   6.343994
    27  H    5.982821   6.061636   4.536342   5.038165   5.945217
    28  H    6.604911   7.300160   5.586727   6.172013   7.078256
    29  H    7.173305   7.720019   6.186930   6.227456   7.004975
    30  H    5.791796   6.648757   5.113010   5.152903   5.929234
                   11         12         13         14         15
    11  H    0.000000
    12  H    3.046542   0.000000
    13  Br   2.908269   2.513898   0.000000
    14  C    3.926991   2.639008   4.196661   0.000000
    15  C    4.542677   3.869027   5.428761   1.408953   0.000000
    16  C    5.852385   4.815261   6.629610   2.442653   1.392614
    17  C    6.556843   4.854263   6.855135   2.833635   2.420402
    18  C    6.154673   3.944968   5.938325   2.443311   2.779752
    19  C    4.932653   2.721347   4.559493   1.407661   2.404392
    20  H    4.259216   4.360242   5.618875   2.164811   1.092627
    21  H    6.502836   5.795477   7.564224   3.426099   2.152509
    22  H    7.609764   5.852822   7.912631   3.925850   3.411268
    23  H    6.987521   4.468937   6.453696   3.426088   3.872416
    24  H    4.991560   2.365673   4.004391   2.162067   3.398428
    25  N    3.958709   4.526205   4.460917   2.960238   3.106585
    26  C    4.743138   5.859959   5.446104   4.366170   4.289122
    27  H    4.632488   4.571879   4.811732   2.610536   2.727920
    28  H    5.459919   6.545846   6.419538   4.720092   4.311422
    29  H    5.463170   6.398906   5.682890   5.011777   5.088548
    30  H    4.273739   5.947169   5.317899   4.825253   4.796737
                   16         17         18         19         20
    16  C    0.000000
    17  C    1.395555   0.000000
    18  C    2.404854   1.394266   0.000000
    19  C    2.778218   2.419395   1.393651   0.000000
    20  H    2.150286   3.404553   3.872197   3.399459   0.000000
    21  H    1.092749   2.160178   3.398365   3.870932   2.466276
    22  H    2.164244   1.092215   2.163909   3.411178   4.305342
    23  H    3.399103   2.159936   1.092730   2.153128   4.964903
    24  H    3.870375   3.403973   2.152118   1.092756   4.308590
    25  N    4.309759   5.187290   5.103526   4.126490   2.750124
    26  C    5.395943   6.394434   6.451164   5.546685   3.695284
    27  H    3.741182   4.489327   4.417007   3.583999   2.655549
    28  H    5.234796   6.343057   6.629440   5.915584   3.603179
    29  H    6.135558   7.005506   6.956191   6.038150   4.635472
    30  H    6.009672   7.067289   7.094056   6.091907   4.080774
                   21         22         23         24         25
    21  H    0.000000
    22  H    2.494830   0.000000
    23  H    4.306871   2.496252   0.000000
    24  H    4.963058   4.306213   2.468238   0.000000
    25  N    4.830924   6.179301   6.053643   4.537696   0.000000
    26  C    5.709682   7.319826   7.408682   5.962352   1.440191
    27  H    4.315592   5.438534   5.330725   4.063195   1.010916
    28  H    5.343590   7.171588   7.621199   6.487919   2.107253
    29  H    6.499331   7.911371   7.832451   6.328757   2.113363
    30  H    6.311810   8.031361   8.074814   6.458243   2.060248
                   26         27         28         29         30
    26  C    0.000000
    27  H    2.119738   0.000000
    28  H    1.100134   2.499037   0.000000
    29  H    1.102862   2.550972   1.785473   0.000000
    30  H    1.096533   2.972774   1.790438   1.783034   0.000000
 Stoichiometry    C11H15BrN2O
 Framework group  C1[X(C11H15BrN2O)]
 Deg. of freedom    84
 Full point group                 C1      NOp   1
 Largest Abelian subgroup         C1      NOp   1
 Largest concise Abelian subgroup C1      NOp   1
                         Standard orientation:                         
 ---------------------------------------------------------------------
 Center     Atomic      Atomic             Coordinates (Angstroms)
 Number     Number       Type             X           Y           Z
 ---------------------------------------------------------------------
      1          6           0        0.101586    0.102743   -0.104216
      2          6           0       -0.330837    1.506190    0.042982
      3          8           0       -1.346830    1.810644    0.679948
      4          6           0       -0.850261   -0.888999    0.028599
      5          6           0       -0.527172   -0.979903    2.863861
      6          1           0       -0.775616   -0.547205    3.845677
      7          1           0       -0.315290   -2.050197    2.989257
      8          1           0        0.383750   -0.486206    2.490086
      9          7           0       -1.576459   -0.788751    1.884023
     10          1           0       -2.405822   -1.358395    2.042305
     11          1           0       -1.835385    0.200265    1.777951
     12          1           0       -0.517720   -1.928087    0.041492
     13         35           0       -2.579721   -0.799522   -0.849675
     14          6           0        1.531416   -0.280681   -0.185362
     15          6           0        2.529369    0.404374    0.535705
     16          6           0        3.865777    0.018497    0.468707
     17          6           0        4.248381   -1.076015   -0.307972
     18          6           0        3.276193   -1.769151   -1.027964
     19          6           0        1.942296   -1.368453   -0.978735
     20          1           0        2.247394    1.249280    1.168522
     21          1           0        4.615003    0.570446    1.041518
     22          1           0        5.295987   -1.381337   -0.355257
     23          1           0        3.559615   -2.620283   -1.651908
     24          1           0        1.200970   -1.896161   -1.583777
     25          7           0        0.454924    2.454820   -0.533508
     26          6           0        0.195653    3.868362   -0.439549
     27          1           0        1.220912    2.139625   -1.113049
     28          1           0        1.084176    4.417283   -0.093850
     29          1           0       -0.116954    4.291379   -1.408899
     30          1           0       -0.619806    4.013460    0.279032
 ---------------------------------------------------------------------
 Rotational constants (GHZ):           0.5736449           0.3050388           0.2599397
 Standard basis: def2SVP (5D, 7F)
 There are   320 symmetry adapted cartesian basis functions of A   symmetry.
 There are   303 symmetry adapted basis functions of A   symmetry.
   303 basis functions,   535 primitive gaussians,   320 cartesian basis functions
    69 alpha electrons       69 beta electrons
       nuclear repulsion energy      1351.6053742385 Hartrees.
 NAtoms=   30 NActive=   30 NUniq=   30 SFac= 1.00D+00 NAtFMM=   60 NAOKFM=F Big=F
 Integral buffers will be    131072 words long.
 Raffenetti 2 integral format.
 Two-electron integral symmetry is turned on.
 Nuclear repulsion after empirical dispersion term =     1351.5832094170 Hartrees.
 ------------------------------------------------------------------------------
 Polarizable Continuum Model (PCM)
 =================================
 Model                : PCM.
 Atomic radii         : UFF (Universal Force Field).
 Polarization charges : Total charges.
 Charge compensation  : None.
 Solution method      : On-the-fly selection.
 Cavity type          : Scaled VdW (van der Waals Surface) (Alpha=1.100).
 Cavity algorithm     : GePol (No added spheres)
                        Default sphere list used, NSphG=   30.
                        Lebedev-Laikov grids with approx.  5.0 points / Ang**2.
                        Smoothing algorithm: York/Karplus (Gamma=1.0000).
                        Polarization charges: spherical gaussians, with
                                              point-specific exponents (IZeta= 3).
                        Self-potential: point-specific (ISelfS= 7).
                        Self-field    : sphere-specific E.n sum rule (ISelfD= 2).
 1st derivatives      : Analytical E(r).r(x)/FMM algorithm (CHGder, D1EAlg=3).
                        Cavity 1st derivative terms included.
 Solvent              : Toluene, Eps=   2.374100 Eps(inf)=   2.238315
 ------------------------------------------------------------------------------
 One-electron integrals computed using PRISM.
   1 Symmetry operations used in ECPInt.
 ECPInt:  NShTT=   10011 NPrTT=   37668 LenC2=    9555 LenP2D=   25803.
 LDataN:  DoStor=T MaxTD1= 4 Len=   56
 NBasis=   303 RedAO= T EigKep=  2.90D-04  NBF=   303
 NBsUse=   303 1.00D-06 EigRej= -1.00D+00 NBFU=   303
 Initial guess from the checkpoint file:  "TS-325_sqm.chk"
 B after Tr=    -0.000000   -0.000000   -0.000000
         Rot=    0.999998    0.000761    0.001533    0.001255 Ang=   0.24 deg.
 ExpMin= 1.22D-01 ExpMax= 1.13D+05 ExpMxC= 1.70D+04 IAcc=3 IRadAn=         5 AccDes= 0.00D+00
 Harris functional with IExCor= 4639 and IRadAn=       5 diagonalized for initial guess.
 HarFok:  IExCor= 4639 AccDes= 0.00D+00 IRadAn=         5 IDoV= 1 UseB2=F ITyADJ=14
 ICtDFT=  3500011 ScaDFX=  1.000000  1.000000  1.000000  1.000000
 FoFCou: FMM=F IPFlag=           0 FMFlag=      100000 FMFlg1=           0
         NFxFlg=           0 DoJE=T BraDBF=F KetDBF=T FulRan=T
         wScrn=  0.000000 ICntrl=       500 IOpCl=  0 I1Cent=   200000004 NGrid=           0
         NMat0=    1 NMatS0=      1 NMatT0=    0 NMatD0=    1 NMtDS0=    0 NMtDT0=    0
 Petite list used in FoFCou.
 Requested convergence on RMS density matrix=1.00D-08 within 128 cycles.
 Requested convergence on MAX density matrix=1.00D-06.
 Requested convergence on             energy=1.00D-06.
 No special actions if energy rises.
 Inv3:  Mode=1 IEnd=    16188987.
 Iteration    1 A*A^-1 deviation from unit magnitude is 3.44D-15 for   1309.
 Iteration    1 A*A^-1 deviation from orthogonality  is 2.45D-15 for   1339    131.
 Iteration    1 A^-1*A deviation from unit magnitude is 3.44D-15 for   1309.
 Iteration    1 A^-1*A deviation from orthogonality  is 1.50D-15 for   2273   1977.
 Error on total polarization charges =  0.00654
 SCF Done:  E(RwB97XD) =  -3186.16692462     A.U. after   11 cycles
            NFock= 11  Conv=0.88D-08     -V/T= 2.0030
   1 Symmetry operations used in ECPInt.
 ECPInt:  NShTT=   10011 NPrTT=   37668 LenC2=    9555 LenP2D=   25803.
 LDataN:  DoStor=T MaxTD1= 5 Len=  102
 D1PCM: PCM CHGder 1st derivatives, ID1Alg=3 FixD1E=F DoIter=F DoCFld=F I1PDM=0.
