Unloading slurm/anatra/current
  ERROR: No such file or directory on
    '/cm/local/modulefiles/slurm/anatra/current'
environment: line 0: unalias: gv: not found
environment: line 0: unalias: sl: not found
 Entering Gaussian System, Link 0=g16
 Initial command:
 /apps/gaussian/g16/C.01/g16/l1.exe "/local/jobs/1150735/Gau-3281208.inp" -scrdir="/local/jobs/1150735/"
 Entering Link 1 = /apps/gaussian/g16/C.01/g16/l1.exe PID=   3281209.
  
 Copyright (c) 1988-2019, Gaussian, Inc.  All Rights Reserved.
  
 This is part of the Gaussian(R) 16 program.  It is based on
 the Gaussian(R) 09 system (copyright 2009, Gaussian, Inc.),
 the Gaussian(R) 03 system (copyright 2003, Gaussian, Inc.),
 the Gaussian(R) 98 system (copyright 1998, Gaussian, Inc.),
 the Gaussian(R) 94 system (copyright 1995, Gaussian, Inc.),
 the Gaussian 92(TM) system (copyright 1992, Gaussian, Inc.),
 the Gaussian 90(TM) system (copyright 1990, Gaussian, Inc.),
 the Gaussian 88(TM) system (copyright 1988, Gaussian, Inc.),
 the Gaussian 86(TM) system (copyright 1986, Carnegie Mellon
 University), and the Gaussian 82(TM) system (copyright 1983,
 Carnegie Mellon University). Gaussian is a federally registered
 trademark of Gaussian, Inc.
  
 This software contains proprietary and confidential information,
 including trade secrets, belonging to Gaussian, Inc.
  
 This software is provided under written license and may be
 used, copied, transmitted, or stored only in accord with that
 written license.
  
 The following legend is applicable only to US Government
 contracts under FAR:
  
                    RESTRICTED RIGHTS LEGEND
  
 Use, reproduction and disclosure by the US Government is
 subject to restrictions as set forth in subparagraphs (a)
 and (c) of the Commercial Computer Software - Restricted
 Rights clause in FAR 52.227-19.
  
 Gaussian, Inc.
 340 Quinnipiac St., Bldg. 40, Wallingford CT 06492
  
  
 ---------------------------------------------------------------
 Warning -- This program may not be used in any manner that
 competes with the business of Gaussian, Inc. or will provide
 assistance to any competitor of Gaussian, Inc.  The licensee
 of this program is prohibited from giving any competitor of
 Gaussian, Inc. access to this program.  By using this program,
 the user acknowledges that Gaussian, Inc. is engaged in the
 business of creating and licensing software in the field of
 computational chemistry and represents and warrants to the
 licensee that it is not a competitor of Gaussian, Inc. and that
 it will not use this program in any manner prohibited above.
 ---------------------------------------------------------------
  

 Cite this work as:
 Gaussian 16, Revision C.01,
 M. J. Frisch, G. W. Trucks, H. B. Schlegel, G. E. Scuseria, 
 M. A. Robb, J. R. Cheeseman, G. Scalmani, V. Barone, 
 G. A. Petersson, H. Nakatsuji, X. Li, M. Caricato, A. V. Marenich, 
 J. Bloino, B. G. Janesko, R. Gomperts, B. Mennucci, H. P. Hratchian, 
 J. V. Ortiz, A. F. Izmaylov, J. L. Sonnenberg, D. Williams-Young, 
 F. Ding, F. Lipparini, F. Egidi, J. Goings, B. Peng, A. Petrone, 
 T. Henderson, D. Ranasinghe, V. G. Zakrzewski, J. Gao, N. Rega, 
 G. Zheng, W. Liang, M. Hada, M. Ehara, K. Toyota, R. Fukuda, 
 J. Hasegawa, M. Ishida, T. Nakajima, Y. Honda, O. Kitao, H. Nakai, 
 T. Vreven, K. Throssell, J. A. Montgomery, Jr., J. E. Peralta, 
 F. Ogliaro, M. J. Bearpark, J. J. Heyd, E. N. Brothers, K. N. Kudin, 
 V. N. Staroverov, T. A. Keith, R. Kobayashi, J. Normand, 
 K. Raghavachari, A. P. Rendell, J. C. Burant, S. S. Iyengar, 
 J. Tomasi, M. Cossi, J. M. Millam, M. Klene, C. Adamo, R. Cammi, 
 J. W. Ochterski, R. L. Martin, K. Morokuma, O. Farkas, 
 J. B. Foresman, and D. J. Fox, Gaussian, Inc., Wallingford CT, 2019.
 
 ******************************************
 Gaussian 16:  ES64L-G16RevC.01  3-Jul-2019
                18-Dec-2023 
 ******************************************
 %chk=TS-898_sqm.chk
 ----------------------------------------------------------------------
 # wb97xd def2svp geom=allchk scrf=(iefpcm,solvent=toluene) opt=(readfc
 ,ts,noeigen,maxcycles=50,maxstep=10)
 ----------------------------------------------------------------------
 1/5=1,6=50,8=10,10=3,11=1,18=20,26=3,29=7,38=1/1,3;
 2/9=110,12=2,40=1/2;
 3/5=43,7=101,11=2,14=-4,25=1,30=1,70=2201,71=1,72=13,74=-58/1,2,3;
 4//1;
 5/5=2,38=5,53=13/2;
 6/7=2,8=2,9=2,10=2,28=1/1;
 7//1,2,3,16;
 1/5=1,6=50,8=10,11=1,18=20,26=3/3(2);
 2/9=110/2;
 99//99;
 2/9=110/2;
 3/5=43,7=101,11=2,14=-2,25=1,30=1,70=2205,71=1,72=13,74=-58/1,2,3;
 4/5=5,16=3,69=1/1;
 5/5=2,38=5,53=13/2;
 7//1,2,3,16;
 1/5=1,6=50,8=10,11=1,18=20,26=3/3(-5);
 2/9=110/2;
 6/7=2,8=2,9=2,10=2,19=2,28=1/1;
 99/9=1/99;
 Structure from the checkpoint file:  "TS-898_sqm.chk"
 ----------
 TS-898.out
 ----------
 Charge =  0 Multiplicity = 1
 Redundant internal coordinates found in file.  (old form).
 C,0,-0.46944,-0.70158,-0.3157
 C,0,-1.80325,-0.37883,0.26459
 O,0,-2.1666,-0.88981,1.32245
 C,0,0.64063,-0.22369,0.32388
 C,0,0.48216,2.80238,-0.36191
 H,0,1.0592,3.479,-0.99873
 H,0,-0.56866,2.85168,-0.65767
 H,0,0.56954,3.13654,0.67555
 N,0,0.98232,1.42813,-0.49487
 H,0,0.9747,1.21586,-1.4994
 H,0,1.99051,1.47348,-0.28996
 Cl,0,2.20424,-1.06498,-0.03906
 C,0,0.5992,0.23794,1.78923
 H,0,-0.22197,0.93682,1.97915
 H,0,0.48467,-0.62723,2.45151
 H,0,1.52984,0.74582,2.06821
 C,0,-0.50617,-1.49801,-1.58355
 H,0,0.43652,-1.45603,-2.13643
 H,0,-0.72787,-2.54679,-1.36119
 H,0,-1.27943,-1.12504,-2.26314
 C,0,-2.69529,0.55705,-0.50643
 H,0,-3.55857,0.003,-0.88378
 H,0,-3.02491,1.36267,0.15514
 H,0,-2.16599,1.00486,-1.35156
 Recover connectivity data from disk.

 GradGradGradGradGradGradGradGradGradGradGradGradGradGradGradGradGradGrad
 Berny optimization.
 Initialization pass.
 Force constant matrix read from checkpoint file:
 "TS-898_sqm.chk"
                           ----------------------------
                           !    Initial Parameters    !
                           ! (Angstroms and Degrees)  !
 --------------------------                            --------------------------
 ! Name  Definition              Value          Derivative Info.                !
 --------------------------------------------------------------------------------
 ! R1    R(1,2)                  1.49           D2E/DX2 =    0.3803             !
 ! R2    R(1,4)                  1.3674         D2E/DX2 =    0.6511             !
 ! R3    R(1,17)                 1.4977         D2E/DX2 =    0.4032             !
 ! R4    R(2,3)                  1.2297         D2E/DX2 =    0.7727             !
 ! R5    R(2,21)                 1.5053         D2E/DX2 =    0.3752             !
 ! R6    R(4,9)                  1.875          D2E/DX2 =    0.0355             !
 ! R7    R(4,12)                 1.8123         D2E/DX2 =    0.2106             !
 ! R8    R(4,13)                 1.5369         D2E/DX2 =    0.335              !
 ! R9    R(5,6)                  1.0938         D2E/DX2 =    0.2672             !
 ! R10   R(5,7)                  1.0928         D2E/DX2 =    0.2702             !
 ! R11   R(5,8)                  1.0934         D2E/DX2 =    0.2698             !
 ! R12   R(5,9)                  1.4685         D2E/DX2 =    0.4864             !
 ! R13   R(9,10)                 1.0267         D2E/DX2 =    0.2831             !
 ! R14   R(9,11)                 1.0298         D2E/DX2 =    0.2795             !
 ! R15   R(13,14)                1.0949         D2E/DX2 =    0.2662             !
 ! R16   R(13,15)                1.0956         D2E/DX2 =    0.2664             !
 ! R17   R(13,16)                1.0963         D2E/DX2 =    0.2661             !
 ! R18   R(17,18)                1.0937         D2E/DX2 =    0.268              !
 ! R19   R(17,19)                1.0948         D2E/DX2 =    0.2677             !
 ! R20   R(17,20)                1.0949         D2E/DX2 =    0.2673             !
 ! R21   R(21,22)                1.093          D2E/DX2 =    0.2683             !
 ! R22   R(21,23)                1.0933         D2E/DX2 =    0.2685             !
 ! R23   R(21,24)                1.0931         D2E/DX2 =    0.2689             !
 ! A1    A(2,1,4)              117.9612         D2E/DX2 =    0.1365             !
 ! A2    A(2,1,17)             115.0201         D2E/DX2 =    0.1168             !
 ! A3    A(4,1,17)             126.9934         D2E/DX2 =    0.1304             !
 ! A4    A(1,2,3)              120.6333         D2E/DX2 =    0.1326             !
 ! A5    A(1,2,21)             117.7536         D2E/DX2 =    0.1227             !
 ! A6    A(3,2,21)             121.5909         D2E/DX2 =    0.1255             !
 ! A7    A(1,4,9)              104.5717         D2E/DX2 =    0.0499             !
 ! A8    A(1,4,12)             116.3925         D2E/DX2 =    0.0351             !
 ! A9    A(1,4,13)             121.942          D2E/DX2 =    0.0445             !
 ! A10   A(9,4,12)              99.4555         D2E/DX2 =    0.0241             !
 ! A11   A(9,4,13)              99.0118         D2E/DX2 =    0.0661             !
 ! A12   A(12,4,13)            110.7098         D2E/DX2 =    0.0311             !
 ! A13   A(6,5,7)              108.7737         D2E/DX2 =    0.0436             !
 ! A14   A(6,5,8)              108.7359         D2E/DX2 =    0.0439             !
 ! A15   A(6,5,9)              110.2743         D2E/DX2 =    0.1123             !
 ! A16   A(7,5,8)              108.6541         D2E/DX2 =    0.0434             !
 ! A17   A(7,5,9)              110.1965         D2E/DX2 =    0.1063             !
 ! A18   A(8,5,9)              110.1625         D2E/DX2 =    0.1075             !
 ! A19   A(4,9,5)              136.2896         D2E/DX2 =    0.0479             !
 ! A20   A(4,9,10)             104.1071         D2E/DX2 =    0.0471             !
 ! A21   A(4,9,11)              97.488          D2E/DX2 =    0.0513             !
 ! A22   A(5,9,10)             106.2324         D2E/DX2 =    0.0672             !
 ! A23   A(5,9,11)             105.9157         D2E/DX2 =    0.0616             !
 ! A24   A(10,9,11)            102.1836         D2E/DX2 =    0.0125             !
 ! A25   A(4,13,14)            112.1679         D2E/DX2 =    0.0906             !
 ! A26   A(4,13,15)            109.998          D2E/DX2 =    0.0885             !
 ! A27   A(4,13,16)            111.0323         D2E/DX2 =    0.0979             !
 ! A28   A(14,13,15)           108.7118         D2E/DX2 =    0.0402             !
 ! A29   A(14,13,16)           107.2666         D2E/DX2 =    0.0421             !
 ! A30   A(15,13,16)           107.5031         D2E/DX2 =    0.04               !
 ! A31   A(1,17,18)            112.7305         D2E/DX2 =    0.1032             !
 ! A32   A(1,17,19)            110.0265         D2E/DX2 =    0.0923             !
 ! A33   A(1,17,20)            111.1983         D2E/DX2 =    0.1001             !
 ! A34   A(18,17,19)           108.3006         D2E/DX2 =    0.0454             !
 ! A35   A(18,17,20)           106.3728         D2E/DX2 =    0.0475             !
 ! A36   A(19,17,20)           108.0213         D2E/DX2 =    0.044              !
 ! A37   A(2,21,22)            109.2519         D2E/DX2 =    0.0875             !
 ! A38   A(2,21,23)            109.0768         D2E/DX2 =    0.0907             !
 ! A39   A(2,21,24)            111.3301         D2E/DX2 =    0.1005             !
 ! A40   A(22,21,23)           110.1396         D2E/DX2 =    0.0408             !
 ! A41   A(22,21,24)           108.8556         D2E/DX2 =    0.043              !
 ! A42   A(23,21,24)           108.1763         D2E/DX2 =    0.0434             !
 ! D1    D(4,1,2,3)            -70.3005         D2E/DX2 =    0.0043             !
 ! D2    D(4,1,2,21)           111.3855         D2E/DX2 =    0.0049             !
 ! D3    D(17,1,2,3)           111.4016         D2E/DX2 =    0.0036             !
 ! D4    D(17,1,2,21)          -66.9123         D2E/DX2 =    0.0047             !
 ! D5    D(2,1,4,9)            -91.6361         D2E/DX2 =    0.0129             !
 ! D6    D(2,1,4,12)           159.7922         D2E/DX2 =    0.0122             !
 ! D7    D(2,1,4,13)            19.0221         D2E/DX2 =    0.0107             !
 ! D8    D(17,1,4,9)            86.4327         D2E/DX2 =    0.0145             !
 ! D9    D(17,1,4,12)          -22.1391         D2E/DX2 =    0.0111             !
 ! D10   D(17,1,4,13)         -162.9091         D2E/DX2 =    0.0122             !
 ! D11   D(2,1,17,18)          162.4272         D2E/DX2 =    0.0117             !
 ! D12   D(2,1,17,19)          -76.5718         D2E/DX2 =    0.0113             !
 ! D13   D(2,1,17,20)           43.0679         D2E/DX2 =    0.0112             !
 ! D14   D(4,1,17,18)          -15.6904         D2E/DX2 =    0.0111             !
 ! D15   D(4,1,17,19)          105.3106         D2E/DX2 =    0.0113             !
 ! D16   D(4,1,17,20)         -135.0496         D2E/DX2 =    0.0111             !
 ! D17   D(1,2,21,22)          111.7252         D2E/DX2 =    0.0122             !
 ! D18   D(1,2,21,23)         -127.832          D2E/DX2 =    0.012              !
 ! D19   D(1,2,21,24)           -8.532          D2E/DX2 =    0.0137             !
 ! D20   D(3,2,21,22)          -66.5717         D2E/DX2 =    0.0127             !
 ! D21   D(3,2,21,23)           53.8711         D2E/DX2 =    0.0129             !
 ! D22   D(3,2,21,24)          173.1712         D2E/DX2 =    0.0131             !
 ! D23   D(1,4,9,5)             82.3572         D2E/DX2 =    0.015              !
 ! D24   D(1,4,9,10)           -50.486          D2E/DX2 =    0.0163             !
 ! D25   D(1,4,9,11)          -155.1123         D2E/DX2 =    0.0176             !
 ! D26   D(12,4,9,5)          -157.0514         D2E/DX2 =    0.0145             !
 ! D27   D(12,4,9,10)           70.1054         D2E/DX2 =    0.0155             !
 ! D28   D(12,4,9,11)          -34.5209         D2E/DX2 =    0.0171             !
 ! D29   D(13,4,9,5)           -44.1342         D2E/DX2 =    0.0148             !
 ! D30   D(13,4,9,10)         -176.9775         D2E/DX2 =    0.0161             !
 ! D31   D(13,4,9,11)           78.3962         D2E/DX2 =    0.0175             !
 ! D32   D(1,4,13,14)          -50.0825         D2E/DX2 =    0.0127             !
 ! D33   D(1,4,13,15)           71.0434         D2E/DX2 =    0.013              !
 ! D34   D(1,4,13,16)         -170.0859         D2E/DX2 =    0.0127             !
 ! D35   D(9,4,13,14)           63.4373         D2E/DX2 =    0.0154             !
 ! D36   D(9,4,13,15)         -175.4367         D2E/DX2 =    0.0158             !
 ! D37   D(9,4,13,16)          -56.566          D2E/DX2 =    0.0158             !
 ! D38   D(12,4,13,14)         167.1932         D2E/DX2 =    0.0137             !
 ! D39   D(12,4,13,15)         -71.6809         D2E/DX2 =    0.0135             !
 ! D40   D(12,4,13,16)          47.1898         D2E/DX2 =    0.0133             !
 ! D41   D(6,5,9,4)            174.2025         D2E/DX2 =    0.0086             !
 ! D42   D(6,5,9,10)           -53.5824         D2E/DX2 =    0.011              !
 ! D43   D(6,5,9,11)            54.5726         D2E/DX2 =    0.012              !
 ! D44   D(7,5,9,4)            -65.7013         D2E/DX2 =    0.0086             !
 ! D45   D(7,5,9,10)            66.5137         D2E/DX2 =    0.0113             !
 ! D46   D(7,5,9,11)           174.6688         D2E/DX2 =    0.0127             !
 ! D47   D(8,5,9,4)             54.1752         D2E/DX2 =    0.0086             !
 ! D48   D(8,5,9,10)          -173.6098         D2E/DX2 =    0.0117             !
 ! D49   D(8,5,9,11)           -65.4548         D2E/DX2 =    0.0124             !
 --------------------------------------------------------------------------------
 Trust Radius=1.00D-01 FncErr=1.00D-07 GrdErr=1.00D-06 EigMax=2.50D+02 EigMin=1.00D-04
 Number of steps in this run=     50 maximum allowed number of steps=    144.
 Search for a saddle point of order  1.
 GradGradGradGradGradGradGradGradGradGradGradGradGradGradGradGradGradGrad

                          Input orientation:                          
 ---------------------------------------------------------------------
 Center     Atomic      Atomic             Coordinates (Angstroms)
 Number     Number       Type             X           Y           Z
 ---------------------------------------------------------------------
      1          6           0       -0.469440   -0.701580   -0.315700
      2          6           0       -1.803250   -0.378830    0.264590
      3          8           0       -2.166600   -0.889810    1.322450
      4          6           0        0.640630   -0.223690    0.323880
      5          6           0        0.482160    2.802380   -0.361910
      6          1           0        1.059200    3.479000   -0.998730
      7          1           0       -0.568660    2.851680   -0.657670
      8          1           0        0.569540    3.136540    0.675550
      9          7           0        0.982320    1.428130   -0.494870
     10          1           0        0.974700    1.215860   -1.499400
     11          1           0        1.990510    1.473480   -0.289960
     12         17           0        2.204240   -1.064980   -0.039060
     13          6           0        0.599200    0.237940    1.789230
     14          1           0       -0.221970    0.936820    1.979150
     15          1           0        0.484670   -0.627230    2.451510
     16          1           0        1.529840    0.745820    2.068210
     17          6           0       -0.506170   -1.498010   -1.583550
     18          1           0        0.436520   -1.456030   -2.136430
     19          1           0       -0.727870   -2.546790   -1.361190
     20          1           0       -1.279430   -1.125040   -2.263140
     21          6           0       -2.695290    0.557050   -0.506430
     22          1           0       -3.558570    0.003000   -0.883780
     23          1           0       -3.024910    1.362670    0.155140
     24          1           0       -2.165990    1.004860   -1.351560
 ---------------------------------------------------------------------
                    Distance matrix (angstroms):
                    1          2          3          4          5
     1  C    0.000000
     2  C    1.489951   0.000000
     3  O    2.366288   1.229712   0.000000
     4  C    1.367369   2.449517   3.053096   0.000000
     5  C    3.631172   3.966825   4.846160   3.106851   0.000000
     6  H    4.503390   4.967137   5.905943   3.954037   1.093768
     7  H    3.571057   3.579242   4.524714   3.447278   1.092761
     8  H    4.097953   4.261085   4.910849   3.379330   1.093445
     9  N    2.583674   3.406066   4.311751   1.874997   1.468469
    10  H    2.676427   3.656734   4.718522   2.346968   2.013337
    11  H    3.283733   4.258074   5.046441   2.253744   2.011535
    12  Cl   2.712407   4.077129   4.581336   1.812283   4.245735
    13  C    2.540752   2.911477   3.023136   1.536903   3.349247
    14  H    2.830536   2.677890   2.747620   2.197904   3.075171
    15  H    2.928021   3.174728   2.893606   2.171170   4.435940
    16  H    3.431489   3.953147   4.110366   2.184795   3.351501
    17  C    1.497696   2.520040   3.401731   2.564631   4.578488
    18  H    2.169105   3.455695   4.365855   2.759248   4.613573
    19  H    2.136501   2.915416   3.466619   3.179473   5.574617
    20  H    2.151261   2.687124   3.701197   3.345405   4.705582
    21  C    2.564164   1.505350   2.391175   3.525242   3.893402
    22  H    3.218986   2.132064   2.757198   4.375284   4.943316
    23  H    3.318621   2.130083   2.678241   3.997649   3.826179
    24  H    2.619776   2.158268   3.277210   3.491926   3.350102
                    6          7          8          9         10
     6  H    0.000000
     7  H    1.777577   0.000000
     8  H    1.777712   1.775984   0.000000
     9  N    2.113257   2.111525   2.111619   0.000000
    10  H    2.319399   2.401328   2.929774   1.026741   0.000000
    11  H    2.322026   2.929846   2.391053   1.029802   1.600307
    12  Cl   4.783287   4.838582   4.564612   2.813618   2.974322
    13  C    4.299859   3.766013   3.105325   2.603929   3.451437
    14  H    4.119690   3.277149   2.676682   2.795080   3.689199
    15  H    5.394012   4.783233   4.162596   3.626750   4.387118
    16  H    4.134960   4.033456   2.928689   2.708266   3.641011
    17  C    5.250050   4.447579   5.266853   3.458775   3.092757
    18  H    5.102608   4.664063   5.386708   3.363182   2.799007
    19  H    6.295645   5.446445   6.175097   4.413077   4.132237
    20  H    5.316494   4.347071   5.496877   3.842001   3.338295
    21  C    4.782922   3.132213   4.325501   3.779382   3.858607
    22  H    5.780968   4.135900   5.412197   4.775136   4.732922
    23  H    4.742386   2.985126   4.041969   4.060134   4.330812
    24  H    4.080160   2.538443   4.017009   3.290126   3.151240
                   11         12         13         14         15
    11  H    0.000000
    12  Cl   2.559768   0.000000
    13  C    2.790221   2.759782   0.000000
    14  H    3.214332   3.737228   1.094908   0.000000
    15  H    3.767784   3.058020   1.095560   1.780089   0.000000
    16  H    2.510512   2.859091   1.096295   1.764441   1.767644
    17  C    4.091032   3.149490   3.951077   4.324581   4.245201
    18  H    3.795572   2.770689   4.278645   4.805969   4.662448
    19  H    4.969879   3.541336   4.409193   4.852767   4.437527
    20  H    4.619335   4.133533   4.669975   4.833892   5.058437
    21  C    4.779480   5.182163   4.028095   3.526988   4.501563
    22  H    5.771241   5.921496   4.948457   4.494584   5.279123
    23  H    5.036351   5.768467   4.131518   3.371177   4.642216
    24  H    4.315448   5.010569   4.254292   3.857133   4.914576
                   16         17         18         19         20
    16  H    0.000000
    17  C    4.745046   0.000000
    18  H    4.870574   1.093665   0.000000
    19  H    5.263014   1.094776   1.773854   0.000000
    20  H    5.491148   1.094934   1.752168   1.771752   0.000000
    21  C    4.951376   3.189938   4.064188   3.772954   2.814270
    22  H    5.929413   3.472730   4.433807   3.839559   2.893024
    23  H    4.978563   4.189342   5.017755   4.781164   3.883746
    24  H    5.041933   3.012172   3.666750   3.831775   2.480613
                   21         22         23         24
    21  C    0.000000
    22  H    1.092985   0.000000
    23  H    1.093320   1.792443   0.000000
    24  H    1.093132   1.778151   1.770852   0.000000
 Stoichiometry    C7H14ClNO
 Framework group  C1[X(C7H14ClNO)]
 Deg. of freedom    66
 Full point group                 C1      NOp   1
 Largest Abelian subgroup         C1      NOp   1
 Largest concise Abelian subgroup C1      NOp   1
                         Standard orientation:                         
 ---------------------------------------------------------------------
 Center     Atomic      Atomic             Coordinates (Angstroms)
 Number     Number       Type             X           Y           Z
 ---------------------------------------------------------------------
      1          6           0       -0.469441   -0.701580   -0.315698
      2          6           0       -1.803251   -0.378831    0.264592
      3          8           0       -2.166601   -0.889811    1.322452
      4          6           0        0.640629   -0.223689    0.323882
      5          6           0        0.482157    2.802381   -0.361908
      6          1           0        1.059196    3.479001   -0.998728
      7          1           0       -0.568663    2.851680   -0.657668
      8          1           0        0.569536    3.136541    0.675552
      9          7           0        0.982317    1.428131   -0.494868
     10          1           0        0.974698    1.215861   -1.499398
     11          1           0        1.990507    1.473482   -0.289958
     12         17           0        2.204239   -1.064978   -0.039058
     13          6           0        0.599198    0.237941    1.789232
     14          1           0       -0.221972    0.936820    1.979152
     15          1           0        0.484669   -0.627229    2.451512
     16          1           0        1.529838    0.745821    2.068212
     17          6           0       -0.506171   -1.498010   -1.583548
     18          1           0        0.436519   -1.456029   -2.136428
     19          1           0       -0.727870   -2.546790   -1.361188
     20          1           0       -1.279431   -1.125041   -2.263138
     21          6           0       -2.695292    0.557049   -0.506428
     22          1           0       -3.558572    0.002998   -0.883778
     23          1           0       -3.024912    1.362668    0.155142
     24          1           0       -2.165992    1.004859   -1.351558
 ---------------------------------------------------------------------
 Rotational constants (GHZ):           1.2552322           0.8692634           0.7181864
 Standard basis: def2SVP (5D, 7F)
 There are   224 symmetry adapted cartesian basis functions of A   symmetry.
 There are   214 symmetry adapted basis functions of A   symmetry.
   214 basis functions,   360 primitive gaussians,   224 cartesian basis functions
    44 alpha electrons       44 beta electrons
       nuclear repulsion energy       665.0561892251 Hartrees.
 NAtoms=   24 NActive=   24 NUniq=   24 SFac= 1.00D+00 NAtFMM=   60 NAOKFM=F Big=F
 Integral buffers will be    131072 words long.
 Raffenetti 2 integral format.
 Two-electron integral symmetry is turned on.
 Nuclear repulsion after empirical dispersion term =      665.0385212876 Hartrees.
 ------------------------------------------------------------------------------
 Polarizable Continuum Model (PCM)
 =================================
 Model                : PCM.
 Atomic radii         : UFF (Universal Force Field).
 Polarization charges : Total charges.
 Charge compensation  : None.
 Solution method      : On-the-fly selection.
 Cavity type          : Scaled VdW (van der Waals Surface) (Alpha=1.100).
 Cavity algorithm     : GePol (No added spheres)
                        Default sphere list used, NSphG=   24.
                        Lebedev-Laikov grids with approx.  5.0 points / Ang**2.
                        Smoothing algorithm: York/Karplus (Gamma=1.0000).
                        Polarization charges: spherical gaussians, with
                                              point-specific exponents (IZeta= 3).
                        Self-potential: point-specific (ISelfS= 7).
                        Self-field    : sphere-specific E.n sum rule (ISelfD= 2).
 1st derivatives      : Analytical E(r).r(x)/FMM algorithm (CHGder, D1EAlg=3).
                        Cavity 1st derivative terms included.
 Solvent              : Toluene, Eps=   2.374100 Eps(inf)=   2.238315
 ------------------------------------------------------------------------------
 One-electron integrals computed using PRISM.
   1 Symmetry operations used in ECPInt.
 ECPInt:  NShTT=    5460 NPrTT=   19488 LenC2=    5399 LenP2D=   15048.
 LDataN:  DoStor=T MaxTD1= 4 Len=   56
 NBasis=   214 RedAO= T EigKep=  1.01D-03  NBF=   214
 NBsUse=   214 1.00D-06 EigRej= -1.00D+00 NBFU=   214
 ExpMin= 1.22D-01 ExpMax= 1.04D+04 ExpMxC= 1.57D+03 IAcc=3 IRadAn=         5 AccDes= 0.00D+00
 Harris functional with IExCor= 4639 and IRadAn=       5 diagonalized for initial guess.
 HarFok:  IExCor= 4639 AccDes= 0.00D+00 IRadAn=         5 IDoV= 1 UseB2=F ITyADJ=14
 ICtDFT=  3500011 ScaDFX=  1.000000  1.000000  1.000000  1.000000
 FoFCou: FMM=F IPFlag=           0 FMFlag=      100000 FMFlg1=           0
         NFxFlg=           0 DoJE=T BraDBF=F KetDBF=T FulRan=T
         wScrn=  0.000000 ICntrl=       500 IOpCl=  0 I1Cent=   200000004 NGrid=           0
         NMat0=    1 NMatS0=      1 NMatT0=    0 NMatD0=    1 NMtDS0=    0 NMtDT0=    0
 Petite list used in FoFCou.
 Requested convergence on RMS density matrix=1.00D-08 within 128 cycles.
 Requested convergence on MAX density matrix=1.00D-06.
 Requested convergence on             energy=1.00D-06.
 No special actions if energy rises.
 Inv3:  Mode=1 IEnd=     9145548.
 Iteration    1 A*A^-1 deviation from unit magnitude is 3.11D-15 for   1488.
 Iteration    1 A*A^-1 deviation from orthogonality  is 1.69D-15 for   1135    637.
 Iteration    1 A^-1*A deviation from unit magnitude is 3.11D-15 for   1488.
 Iteration    1 A^-1*A deviation from orthogonality  is 1.78D-15 for   1454    306.
 Error on total polarization charges =  0.00611
 SCF Done:  E(RwB97XD) =  -864.693392011     A.U. after   16 cycles
            NFock= 16  Conv=0.35D-08     -V/T= 2.0060

 **********************************************************************

            Population analysis using the SCF Density.

 **********************************************************************

 Orbital symmetries:
       Occupied  (A) (A) (A) (A) (A) (A) (A) (A) (A) (A) (A) (A)
                 (A) (A) (A) (A) (A) (A) (A) (A) (A) (A) (A) (A)
                 (A) (A) (A) (A) (A) (A) (A) (A) (A) (A) (A) (A)
                 (A) (A) (A) (A) (A) (A) (A) (A)
       Virtual   (A) (A) (A) (A) (A) (A) (A) (A) (A) (A) (A) (A)
                 (A) (A) (A) (A) (A) (A) (A) (A) (A) (A) (A) (A)
                 (A) (A) (A) (A) (A) (A) (A) (A) (A) (A) (A) (A)
                 (A) (A) (A) (A) (A) (A) (A) (A) (A) (A) (A) (A)
                 (A) (A) (A) (A) (A) (A) (A) (A) (A) (A) (A) (A)
                 (A) (A) (A) (A) (A) (A) (A) (A) (A) (A) (A) (A)
                 (A) (A) (A) (A) (A) (A) (A) (A) (A) (A) (A) (A)
                 (A) (A) (A) (A) (A) (A) (A) (A) (A) (A) (A) (A)
                 (A) (A) (A) (A) (A) (A) (A) (A) (A) (A) (A) (A)
                 (A) (A) (A) (A) (A) (A) (A) (A) (A) (A) (A) (A)
                 (A) (A) (A) (A) (A) (A) (A) (A) (A) (A) (A) (A)
                 (A) (A) (A) (A) (A) (A) (A) (A) (A) (A) (A) (A)
                 (A) (A) (A) (A) (A) (A) (A) (A) (A) (A) (A) (A)
                 (A) (A) (A) (A) (A) (A) (A) (A) (A) (A) (A) (A)
                 (A) (A)
 The electronic state is 1-A.
 Alpha  occ. eigenvalues -- -101.66665 -19.21865 -14.48242 -10.38088 -10.36397
 Alpha  occ. eigenvalues --  -10.34346 -10.29735 -10.28917 -10.28157 -10.24180
 Alpha  occ. eigenvalues --   -9.57411  -7.32757  -7.31859  -7.31817  -1.09889
 Alpha  occ. eigenvalues --   -1.03172  -0.95164  -0.86444  -0.82615  -0.80702
 Alpha  occ. eigenvalues --   -0.78481  -0.73232  -0.65843  -0.62323  -0.57631
 Alpha  occ. eigenvalues --   -0.57251  -0.55060  -0.54559  -0.53317  -0.50946
 Alpha  occ. eigenvalues --   -0.50655  -0.49176  -0.48375  -0.47899  -0.46988
 Alpha  occ. eigenvalues --   -0.46165  -0.44287  -0.43719  -0.43077  -0.41308
 Alpha  occ. eigenvalues --   -0.38734  -0.38043  -0.30900  -0.23040
 Alpha virt. eigenvalues --    0.05796   0.10006   0.12002   0.13465   0.15258
 Alpha virt. eigenvalues --    0.15724   0.17703   0.19084   0.19300   0.20523
 Alpha virt. eigenvalues --    0.22076   0.22578   0.23052   0.23800   0.24308
 Alpha virt. eigenvalues --    0.24699   0.26593   0.27611   0.28446   0.31624
 Alpha virt. eigenvalues --    0.33822   0.40286   0.42137   0.44353   0.46258
 Alpha virt. eigenvalues --    0.48524   0.50281   0.51646   0.52596   0.54487
 Alpha virt. eigenvalues --    0.56901   0.58073   0.61579   0.61986   0.63740
 Alpha virt. eigenvalues --    0.64614   0.65990   0.67450   0.69170   0.69760
 Alpha virt. eigenvalues --    0.70961   0.72080   0.72634   0.74216   0.74292
 Alpha virt. eigenvalues --    0.75058   0.75338   0.76123   0.76709   0.77148
 Alpha virt. eigenvalues --    0.78415   0.78496   0.78944   0.79399   0.79911
 Alpha virt. eigenvalues --    0.80489   0.81360   0.82484   0.83038   0.84870
 Alpha virt. eigenvalues --    0.85117   0.86684   0.88376   0.89952   0.92017
 Alpha virt. eigenvalues --    0.93346   0.94013   0.96653   0.99753   1.01308
 Alpha virt. eigenvalues --    1.03176   1.04731   1.07589   1.12509   1.15105
 Alpha virt. eigenvalues --    1.16670   1.19080   1.21489   1.23756   1.27691
 Alpha virt. eigenvalues --    1.31047   1.35185   1.37940   1.39241   1.42190
 Alpha virt. eigenvalues --    1.46924   1.48389   1.50274   1.51835   1.56015
 Alpha virt. eigenvalues --    1.59530   1.61054   1.61638   1.64057   1.64868
 Alpha virt. eigenvalues --    1.66401   1.67648   1.69589   1.71400   1.77287
 Alpha virt. eigenvalues --    1.79753   1.80553   1.83483   1.84858   1.84984
 Alpha virt. eigenvalues --    1.85897   1.86262   1.87740   1.88883   1.90014
 Alpha virt. eigenvalues --    1.90925   1.92936   1.94341   1.95541   1.95951
 Alpha virt. eigenvalues --    1.96305   2.00507   2.03720   2.05274   2.06482
 Alpha virt. eigenvalues --    2.10379   2.11558   2.13802   2.14947   2.18064
 Alpha virt. eigenvalues --    2.19138   2.20655   2.22199   2.26451   2.28034
 Alpha virt. eigenvalues --    2.32593   2.35910   2.37830   2.41328   2.42329
 Alpha virt. eigenvalues --    2.45885   2.49562   2.50627   2.52044   2.53414
 Alpha virt. eigenvalues --    2.59501   2.60205   2.64859   2.67045   2.69989
 Alpha virt. eigenvalues --    2.73434   2.75649   2.78212   2.78668   2.81332
 Alpha virt. eigenvalues --    2.81770   2.83250   2.86841   2.89230   2.91927
 Alpha virt. eigenvalues --    2.99497   3.00789   3.02597   3.04362   3.05092
 Alpha virt. eigenvalues --    3.05576   3.05720   3.08761   3.12862   3.15976
 Alpha virt. eigenvalues --    3.27800   3.28888   3.48550   3.53260   3.72447
          Condensed to atoms (all electrons):
               1          2          3          4          5          6
     1  C    5.475563   0.344790  -0.077922   0.545776   0.007011  -0.001028
     2  C    0.344790   4.706736   0.654843  -0.022800   0.001236  -0.000061
     3  O   -0.077922   0.654843   7.804455  -0.028557  -0.000008  -0.000000
     4  C    0.545776  -0.022800  -0.028557   5.235221   0.005466   0.000743
     5  C    0.007011   0.001236  -0.000008   0.005466   4.498045   0.405508
     6  H   -0.001028  -0.000061  -0.000000   0.000743   0.405508   0.620294
     7  H    0.003834   0.001009   0.000000   0.000716   0.403640  -0.025886
     8  H    0.000032  -0.000234  -0.000006  -0.003683   0.403463  -0.022553
     9  N   -0.152383  -0.010565  -0.000035  -0.067467   0.304668  -0.013345
    10  H   -0.001270  -0.000757   0.000010   0.003594  -0.023392  -0.009427
    11  H    0.006702   0.000126  -0.000000  -0.003495  -0.019989  -0.011442
    12  Cl  -0.090572   0.002016  -0.000030   0.267196   0.000993  -0.000089
    13  C   -0.070705   0.005972   0.008838   0.379031   0.000471  -0.000229
    14  H   -0.022855   0.010885  -0.000958   0.013981   0.000896   0.000108
    15  H   -0.006569   0.000111   0.004576  -0.011733   0.000026   0.000011
    16  H    0.012291   0.000228   0.000425  -0.033831  -0.002414   0.000079
    17  C    0.409086  -0.045780   0.000216  -0.041257  -0.000025  -0.000010
    18  H   -0.017435   0.006046  -0.000176  -0.019019  -0.000131   0.000024
    19  H   -0.038328   0.004617   0.002446  -0.006418   0.000023  -0.000002
    20  H   -0.027947  -0.011155  -0.000504   0.007735  -0.000119   0.000019
    21  C   -0.141383   0.364641  -0.080179  -0.015296  -0.001761   0.000067
    22  H    0.006666  -0.001841   0.001654   0.000198   0.000071  -0.000004
    23  H    0.006637  -0.004149   0.001448   0.000895  -0.000186   0.000014
    24  H    0.005455  -0.015127   0.003909   0.000140  -0.000520   0.000032
               7          8          9         10         11         12
     1  C    0.003834   0.000032  -0.152383  -0.001270   0.006702  -0.090572
     2  C    0.001009  -0.000234  -0.010565  -0.000757   0.000126   0.002016
     3  O    0.000000  -0.000006  -0.000035   0.000010  -0.000000  -0.000030
     4  C    0.000716  -0.003683  -0.067467   0.003594  -0.003495   0.267196
     5  C    0.403640   0.403463   0.304668  -0.023392  -0.019989   0.000993
     6  H   -0.025886  -0.022553  -0.013345  -0.009427  -0.011442  -0.000089
     7  H    0.602883  -0.017816  -0.032726  -0.005385   0.008239  -0.000037
     8  H   -0.017816   0.592987  -0.024418   0.007560  -0.005234   0.000045
     9  N   -0.032726  -0.024418   6.627177   0.326660   0.308948  -0.054757
    10  H   -0.005385   0.007560   0.326660   0.557069  -0.011009   0.004785
    11  H    0.008239  -0.005234   0.308948  -0.011009   0.567993   0.015107
    12  Cl  -0.000037   0.000045  -0.054757   0.004785   0.015107  17.028516
    13  C   -0.000348   0.004925  -0.044196   0.004184  -0.002263  -0.054806
    14  H   -0.000372   0.001541  -0.000166   0.000013  -0.000459   0.003774
    15  H   -0.000007  -0.000230   0.004007  -0.000227  -0.000338   0.001394
    16  H   -0.000087   0.000681   0.006826  -0.000309   0.001999   0.000935
    17  C    0.000068  -0.000002  -0.000335   0.001890   0.000121  -0.004053
    18  H   -0.000062  -0.000001   0.002475   0.001003  -0.000345   0.013102
    19  H    0.000016   0.000000  -0.000699   0.000108   0.000023   0.002829
    20  H   -0.000137   0.000000   0.001822  -0.000628  -0.000058   0.000119
    21  C    0.001072   0.000093   0.003658   0.000070  -0.000033  -0.000192
    22  H    0.000030  -0.000001  -0.000120   0.000014   0.000002   0.000005
    23  H    0.000778   0.000018   0.000027  -0.000001  -0.000006   0.000005
    24  H    0.002962  -0.000053   0.000880   0.000062  -0.000027  -0.000009
              13         14         15         16         17         18
     1  C   -0.070705  -0.022855  -0.006569   0.012291   0.409086  -0.017435
     2  C    0.005972   0.010885   0.000111   0.000228  -0.045780   0.006046
     3  O    0.008838  -0.000958   0.004576   0.000425   0.000216  -0.000176
     4  C    0.379031   0.013981  -0.011733  -0.033831  -0.041257  -0.019019
     5  C    0.000471   0.000896   0.000026  -0.002414  -0.000025  -0.000131
     6  H   -0.000229   0.000108   0.000011   0.000079  -0.000010   0.000024
     7  H   -0.000348  -0.000372  -0.000007  -0.000087   0.000068  -0.000062
     8  H    0.004925   0.001541  -0.000230   0.000681  -0.000002  -0.000001
     9  N   -0.044196  -0.000166   0.004007   0.006826  -0.000335   0.002475
    10  H    0.004184   0.000013  -0.000227  -0.000309   0.001890   0.001003
    11  H   -0.002263  -0.000459  -0.000338   0.001999   0.000121  -0.000345
    12  Cl  -0.054806   0.003774   0.001394   0.000935  -0.004053   0.013102
    13  C    4.522742   0.368554   0.394705   0.377328   0.005843   0.000246
    14  H    0.368554   0.613163  -0.013074  -0.023104  -0.000136  -0.000035
    15  H    0.394705  -0.013074   0.577112  -0.018798  -0.000022  -0.000022
    16  H    0.377328  -0.023104  -0.018798   0.656806  -0.000268   0.000018
    17  C    0.005843  -0.000136  -0.000022  -0.000268   4.459794   0.386421
    18  H    0.000246  -0.000035  -0.000022   0.000018   0.386421   0.662354
    19  H    0.000104  -0.000030   0.000055  -0.000025   0.398322  -0.028929
    20  H   -0.000259   0.000006  -0.000001   0.000019   0.377025  -0.017890
    21  C    0.003913  -0.001560   0.000471   0.000108  -0.000214  -0.000100
    22  H   -0.000035   0.000009  -0.000005  -0.000002   0.000144  -0.000023
    23  H   -0.000510   0.000364  -0.000021  -0.000018   0.000325   0.000006
    24  H   -0.000130   0.000102  -0.000040  -0.000013  -0.003482  -0.000008
              19         20         21         22         23         24
     1  C   -0.038328  -0.027947  -0.141383   0.006666   0.006637   0.005455
     2  C    0.004617  -0.011155   0.364641  -0.001841  -0.004149  -0.015127
     3  O    0.002446  -0.000504  -0.080179   0.001654   0.001448   0.003909
     4  C   -0.006418   0.007735  -0.015296   0.000198   0.000895   0.000140
     5  C    0.000023  -0.000119  -0.001761   0.000071  -0.000186  -0.000520
     6  H   -0.000002   0.000019   0.000067  -0.000004   0.000014   0.000032
     7  H    0.000016  -0.000137   0.001072   0.000030   0.000778   0.002962
     8  H    0.000000   0.000000   0.000093  -0.000001   0.000018  -0.000053
     9  N   -0.000699   0.001822   0.003658  -0.000120   0.000027   0.000880
    10  H    0.000108  -0.000628   0.000070   0.000014  -0.000001   0.000062
    11  H    0.000023  -0.000058  -0.000033   0.000002  -0.000006  -0.000027
    12  Cl   0.002829   0.000119  -0.000192   0.000005   0.000005  -0.000009
    13  C    0.000104  -0.000259   0.003913  -0.000035  -0.000510  -0.000130
    14  H   -0.000030   0.000006  -0.001560   0.000009   0.000364   0.000102
    15  H    0.000055  -0.000001   0.000471  -0.000005  -0.000021  -0.000040
    16  H   -0.000025   0.000019   0.000108  -0.000002  -0.000018  -0.000013
    17  C    0.398322   0.377025  -0.000214   0.000144   0.000325  -0.003482
    18  H   -0.028929  -0.017890  -0.000100  -0.000023   0.000006  -0.000008
    19  H    0.657071  -0.031344  -0.001213   0.000433  -0.000056  -0.000056
    20  H   -0.031344   0.681538   0.010206  -0.002281   0.000095   0.002296
    21  C   -0.001213   0.010206   4.766609   0.364527   0.373176   0.364428
    22  H    0.000433  -0.002281   0.364527   0.584895  -0.004334  -0.017676
    23  H   -0.000056   0.000095   0.373176  -0.004334   0.587436  -0.021573
    24  H   -0.000056   0.002296   0.364428  -0.017676  -0.021573   0.647168
 Mulliken charges:
               1
     1  C   -0.175445
     2  C    0.009212
     3  O   -0.294445
     4  C   -0.207138
     5  C    0.017027
     6  H    0.057177
     7  H    0.057619
     8  H    0.062882
     9  N   -0.185935
    10  H    0.145386
    11  H    0.145439
    12  Cl  -0.136276
    13  C    0.096624
    14  H    0.049351
    15  H    0.068620
    16  H    0.021125
    17  C    0.056329
    18  H    0.012479
    19  H    0.041053
    20  H    0.011441
    21  C   -0.011108
    22  H    0.067677
    23  H    0.059628
    24  H    0.031279
 Sum of Mulliken charges =  -0.00000
 Mulliken charges with hydrogens summed into heavy atoms:
               1
     1  C   -0.175445
     2  C    0.009212
     3  O   -0.294445
     4  C   -0.207138
     5  C    0.194704
     9  N    0.104889
    12  Cl  -0.136276
    13  C    0.235719
    17  C    0.121303
    21  C    0.147477
 Electronic spatial extent (au):  <R**2>=           1862.3241
 Charge=             -0.0000 electrons
 Dipole moment (field-independent basis, Debye):
    X=              2.3622    Y=              6.1357    Z=             -3.0011  Tot=              7.2273
 Quadrupole moment (field-independent basis, Debye-Ang):
   XX=            -72.0826   YY=            -64.3460   ZZ=            -69.2869
   XY=              1.2624   XZ=              5.0169   YZ=              0.9569
 Traceless Quadrupole moment (field-independent basis, Debye-Ang):
   XX=             -3.5108   YY=              4.2259   ZZ=             -0.7151
   XY=              1.2624   XZ=              5.0169   YZ=              0.9569
 Octapole moment (field-independent basis, Debye-Ang**2):
  XXX=             13.1063  YYY=             22.0886  ZZZ=             -1.7663  XYY=              9.9260
  XXY=             16.3675  XXZ=            -15.9898  XZZ=             13.8602  YZZ=              8.5185
  YYZ=             -4.0436  XYZ=             -8.8515
 Hexadecapole moment (field-independent basis, Debye-Ang**3):
 XXXX=          -1146.0162 YYYY=           -741.4884 ZZZZ=           -474.1926 XXXY=             -1.8283
 XXXZ=             20.0546 YYYX=             12.7028 YYYZ=            -12.9463 ZZZX=             -3.1622
 ZZZY=            -12.4878 XXYY=           -314.5185 XXZZ=           -287.4714 YYZZ=           -208.0811
 XXYZ=             12.7312 YYXZ=             -4.6917 ZZXY=             -5.1014
 N-N= 6.650385212876D+02 E-N=-3.364281417858D+03  KE= 8.595338141121D+02
   1 Symmetry operations used in ECPInt.
 ECPInt:  NShTT=    5460 NPrTT=   19488 LenC2=    5399 LenP2D=   15048.
 LDataN:  DoStor=T MaxTD1= 5 Len=  102
 D1PCM: PCM CHGder 1st derivatives, ID1Alg=3 FixD1E=F DoIter=F DoCFld=F I1PDM=0.
 Calling FoFJK, ICntrl=      2127 FMM=F ISym2X=0 I1Cent= 0 IOpClX= 0 NMat=1 NMatS=1 NMatT=0.
 ***** Axes restored to original set *****
 -------------------------------------------------------------------
 Center     Atomic                   Forces (Hartrees/Bohr)
 Number     Number              X              Y              Z
 -------------------------------------------------------------------
      1        6          -0.005742082   -0.010567440    0.010896555
      2        6           0.010576639   -0.023228519    0.018989809
      3        8          -0.002409686    0.017815886   -0.011563550
      4        6          -0.035918102   -0.036844461    0.029466750
      5        6          -0.004322841   -0.005808292    0.005283972
      6        1           0.000390945    0.005563798   -0.002153303
      7        1          -0.004212110   -0.000387841   -0.000296662
      8        1           0.000016585    0.000442156    0.003299286
      9        7           0.053969291    0.048893602   -0.024647872
     10        1          -0.003912257   -0.007154543    0.005026096
     11        1          -0.003591882    0.001594030   -0.002888453
     12       17          -0.000961493    0.009957913   -0.002904545
     13        6           0.007291753   -0.001636202   -0.011149117
     14        1          -0.003676031   -0.000502048   -0.001878143
     15        1          -0.001952978   -0.001724642   -0.000870984
     16        1           0.003088881    0.001433492   -0.000929903
     17        6           0.003994437    0.008193343   -0.000624362
     18        1           0.004696223   -0.001327713   -0.001470177
     19        1          -0.001341060   -0.006709234   -0.002618256
     20        1          -0.005789380   -0.000011315   -0.004413079
     21        6           0.000933879   -0.000604605   -0.003562678
     22        1          -0.007018262    0.000736001   -0.000369454
     23        1          -0.004800127    0.001089004    0.003351748
     24        1           0.000689657    0.000787632   -0.003973679
 -------------------------------------------------------------------
 Cartesian Forces:  Max     0.053969291 RMS     0.012951853

 GradGradGradGradGradGradGradGradGradGradGradGradGradGradGradGradGradGrad
 Berny optimization.
 FormGI is forming the generalized inverse of G from B-inverse, IUseBI=4.
 Internal  Forces:  Max     0.052145196 RMS     0.007731356
 Search for a saddle point.
 Step number   1 out of a maximum of   50
 All quantities printed in internal units (Hartrees-Bohrs-Radians)
 Swapping is turned off.
 Second derivative matrix not updated -- first step.
 ITU=  0
     Eigenvalues ---   -0.03052  -0.00058  -0.00024   0.00011   0.00075
     Eigenvalues ---    0.00083   0.00167   0.00739   0.01180   0.01523
     Eigenvalues ---    0.03268   0.03442   0.03571   0.03612   0.03699
     Eigenvalues ---    0.03731   0.04376   0.04399   0.04576   0.04704
     Eigenvalues ---    0.04795   0.05385   0.07793   0.09298   0.10149
     Eigenvalues ---    0.10544   0.10869   0.10948   0.11169   0.11548
     Eigenvalues ---    0.12020   0.12245   0.12283   0.12557   0.12679
     Eigenvalues ---    0.12881   0.13191   0.14628   0.14886   0.14985
     Eigenvalues ---    0.16340   0.16532   0.18302   0.19543   0.23137
     Eigenvalues ---    0.25953   0.25965   0.26216   0.26258   0.26291
     Eigenvalues ---    0.26330   0.26397   0.26569   0.27095   0.27796
     Eigenvalues ---    0.28097   0.28206   0.28577   0.29451   0.37521
     Eigenvalues ---    0.38811   0.41313   0.44556   0.52917   0.69481
     Eigenvalues ---    0.80212
 Eigenvectors required to have negative eigenvalues:
                          R6        A19       A21       D6        A20
   1                   -0.74270  -0.33121   0.22146  -0.15632   0.14367
                          D34       D33       A11       D9        D38
   1                   -0.13107  -0.12230   0.12123  -0.11651   0.11219
 RFO step:  Lambda0=1.324362666D-02 Lambda=-4.52881085D-02.
 Linear search not attempted -- option 19 set.
 Maximum step size (   0.100) exceeded in Quadratic search.
    -- Step size scaled by   0.172
 Iteration  1 RMS(Cart)=  0.04582290 RMS(Int)=  0.00081831
 Iteration  2 RMS(Cart)=  0.00150900 RMS(Int)=  0.00014881
 Iteration  3 RMS(Cart)=  0.00000101 RMS(Int)=  0.00014880
 Iteration  4 RMS(Cart)=  0.00000000 RMS(Int)=  0.00014880
 Variable       Old X    -DE/DX   Delta X   Delta X   Delta X     New X
                                 (Linear)    (Quad)   (Total)
    R1        2.81560   0.00219   0.00000  -0.00834  -0.00834   2.80726
    R2        2.58395   0.00770   0.00000   0.00543   0.00543   2.58939
    R3        2.83024   0.00761   0.00000   0.00316   0.00316   2.83340
    R4        2.32382  -0.01664   0.00000  -0.00242  -0.00242   2.32139
    R5        2.84470   0.00962   0.00000   0.00766   0.00766   2.85236
    R6        3.54323   0.05215   0.00000  -0.01565  -0.01565   3.52758
    R7        3.42472  -0.00487   0.00000   0.00716   0.00716   3.43188
    R8        2.90432  -0.01499   0.00000  -0.00499  -0.00499   2.89934
    R9        2.06692   0.00490   0.00000   0.00279   0.00279   2.06971
   R10        2.06502   0.00411   0.00000   0.00318   0.00318   2.06820
   R11        2.06631   0.00327   0.00000   0.00220   0.00220   2.06851
   R12        2.77500   0.00315   0.00000  -0.00292  -0.00292   2.77208
   R13        1.94026  -0.00341   0.00000  -0.00336  -0.00336   1.93690
   R14        1.94604  -0.00402   0.00000  -0.00356  -0.00356   1.94248
   R15        2.06908   0.00211   0.00000   0.00153   0.00153   2.07060
   R16        2.07031   0.00104   0.00000   0.00144   0.00144   2.07175
   R17        2.07170   0.00305   0.00000   0.00122   0.00122   2.07291
   R18        2.06673   0.00474   0.00000   0.00199   0.00199   2.06872
   R19        2.06883   0.00617   0.00000   0.00261   0.00261   2.07143
   R20        2.06913   0.00682   0.00000   0.00328   0.00328   2.07241
   R21        2.06544   0.00530   0.00000   0.00225   0.00225   2.06769
   R22        2.06607   0.00428   0.00000   0.00151   0.00151   2.06758
   R23        2.06572   0.00373   0.00000   0.00034   0.00034   2.06606
    A1        2.05881   0.00400   0.00000   0.00502   0.00502   2.06383
    A2        2.00748   0.00241   0.00000   0.00509   0.00509   2.01257
    A3        2.21645  -0.00643   0.00000  -0.01013  -0.01013   2.20633
    A4        2.10545   0.01350   0.00000   0.01547   0.01547   2.12092
    A5        2.05519  -0.00003   0.00000   0.00033   0.00033   2.05552
    A6        2.12216  -0.01344   0.00000  -0.01566  -0.01566   2.10650
    A7        1.82512   0.02285   0.00000   0.03068   0.03071   1.85583
    A8        2.03143  -0.00188   0.00000  -0.00361  -0.00347   2.02796
    A9        2.12829  -0.00239   0.00000  -0.00432  -0.00460   2.12369
   A10        1.73583  -0.01236   0.00000  -0.02141  -0.02137   1.71445
   A11        1.72808  -0.01216   0.00000   0.00345   0.00337   1.73145
   A12        1.93225   0.00400   0.00000  -0.00240  -0.00245   1.92980
   A13        1.89846  -0.00147   0.00000  -0.00134  -0.00134   1.89712
   A14        1.89780  -0.00131   0.00000  -0.00095  -0.00095   1.89685
   A15        1.92465   0.00558   0.00000   0.00310   0.00310   1.92775
   A16        1.89637   0.00015   0.00000  -0.00073  -0.00073   1.89565
   A17        1.92329  -0.00150   0.00000  -0.00047  -0.00047   1.92282
   A18        1.92270  -0.00152   0.00000   0.00031   0.00031   1.92301
   A19        2.37870  -0.02134   0.00000  -0.06909  -0.06916   2.30954
   A20        1.81701  -0.00004   0.00000   0.01712   0.01643   1.83345
   A21        1.70149   0.00961   0.00000   0.03805   0.03834   1.73982
   A22        1.85410   0.01342   0.00000   0.01667   0.01611   1.87022
   A23        1.84858   0.00346   0.00000   0.01067   0.01140   1.85998
   A24        1.78344  -0.00179   0.00000   0.00361   0.00309   1.78653
   A25        1.95770  -0.00363   0.00000  -0.00214  -0.00215   1.95555
   A26        1.91983  -0.00170   0.00000  -0.00166  -0.00166   1.91816
   A27        1.93788  -0.00087   0.00000   0.00176   0.00176   1.93964
   A28        1.89738   0.00135   0.00000  -0.00434  -0.00435   1.89303
   A29        1.87215   0.00291   0.00000   0.00545   0.00545   1.87760
   A30        1.87628   0.00233   0.00000   0.00109   0.00109   1.87737
   A31        1.96752  -0.00114   0.00000  -0.00041  -0.00041   1.96711
   A32        1.92033   0.00485   0.00000   0.00394   0.00394   1.92426
   A33        1.94078   0.00158   0.00000   0.00193   0.00193   1.94271
   A34        1.89020  -0.00263   0.00000  -0.00270  -0.00270   1.88750
   A35        1.85656   0.00047   0.00000   0.00109   0.00109   1.85765
   A36        1.88533  -0.00354   0.00000  -0.00428  -0.00428   1.88105
   A37        1.90681   0.00370   0.00000   0.00203   0.00203   1.90884
   A38        1.90375  -0.00071   0.00000  -0.00212  -0.00213   1.90162
   A39        1.94308   0.00158   0.00000   0.00256   0.00256   1.94563
   A40        1.92230  -0.00451   0.00000  -0.00678  -0.00678   1.91552
   A41        1.89989  -0.00144   0.00000  -0.00090  -0.00091   1.89898
   A42        1.88803   0.00125   0.00000   0.00509   0.00508   1.89312
    D1       -1.22698   0.00578   0.00000   0.05457   0.05460  -1.17238
    D2        1.94404   0.00489   0.00000   0.04930   0.04926   1.99331
    D3        1.94433   0.00666   0.00000   0.05535   0.05538   1.99970
    D4       -1.16784   0.00577   0.00000   0.05007   0.05004  -1.11780
    D5       -1.59935  -0.00050   0.00000  -0.01869  -0.01868  -1.61803
    D6        2.78890   0.00121   0.00000  -0.01014  -0.01015   2.77875
    D7        0.33200   0.00011   0.00000   0.00697   0.00698   0.33898
    D8        1.50853  -0.00129   0.00000  -0.01923  -0.01923   1.48931
    D9       -0.38640   0.00041   0.00000  -0.01068  -0.01070  -0.39710
   D10       -2.84330  -0.00068   0.00000   0.00643   0.00644  -2.83686
   D11        2.83489   0.00021   0.00000  -0.00295  -0.00295   2.83194
   D12       -1.33643  -0.00049   0.00000  -0.00390  -0.00390  -1.34033
   D13        0.75168  -0.00073   0.00000  -0.00543  -0.00543   0.74625
   D14       -0.27385   0.00095   0.00000  -0.00243  -0.00243  -0.27628
   D15        1.83802   0.00026   0.00000  -0.00338  -0.00338   1.83464
   D16       -2.35706   0.00002   0.00000  -0.00491  -0.00491  -2.36197
   D17        1.94997   0.00271   0.00000  -0.01356  -0.01358   1.93640
   D18       -2.23109  -0.00098   0.00000  -0.02189  -0.02191  -2.25300
   D19       -0.14891   0.00108   0.00000  -0.01538  -0.01540  -0.16431
   D20       -1.16190   0.00132   0.00000  -0.01944  -0.01942  -1.18132
   D21        0.94023  -0.00237   0.00000  -0.02777  -0.02775   0.91248
   D22        3.02241  -0.00031   0.00000  -0.02127  -0.02125   3.00116
   D23        1.43741  -0.00049   0.00000  -0.01405  -0.01366   1.42375
   D24       -0.88115   0.00137   0.00000   0.01567   0.01593  -0.86522
   D25       -2.70722   0.00043   0.00000  -0.00276  -0.00297  -2.71019
   D26       -2.74106   0.00044   0.00000  -0.01590  -0.01571  -2.75678
   D27        1.22357   0.00231   0.00000   0.01382   0.01387   1.23744
   D28       -0.60250   0.00137   0.00000  -0.00461  -0.00503  -0.60754
   D29       -0.77029  -0.00140   0.00000  -0.02275  -0.02257  -0.79286
   D30       -3.08884   0.00046   0.00000   0.00698   0.00701  -3.08183
   D31        1.36827  -0.00047   0.00000  -0.01145  -0.01189   1.35638
   D32       -0.87411  -0.00550   0.00000  -0.01120  -0.01117  -0.88527
   D33        1.23994  -0.00741   0.00000  -0.01931  -0.01927   1.22067
   D34       -2.96856  -0.00615   0.00000  -0.01791  -0.01788  -2.98644
   D35        1.10719   0.01311   0.00000   0.02810   0.02807   1.13526
   D36       -3.06195   0.01121   0.00000   0.01999   0.01997  -3.04198
   D37       -0.98726   0.01246   0.00000   0.02139   0.02136  -0.96590
   D38        2.91807  -0.00466   0.00000   0.00543   0.00542   2.92349
   D39       -1.25107  -0.00657   0.00000  -0.00268  -0.00269  -1.25375
   D40        0.82362  -0.00531   0.00000  -0.00129  -0.00130   0.82232
   D41        3.04041   0.00285   0.00000   0.01847   0.01847   3.05887
   D42       -0.93519  -0.00338   0.00000  -0.01251  -0.01245  -0.94764
   D43        0.95247   0.00132   0.00000   0.00237   0.00231   0.95478
   D44       -1.14670   0.00363   0.00000   0.01848   0.01847  -1.12823
   D45        1.16088  -0.00259   0.00000  -0.01251  -0.01244   1.14844
   D46        3.04855   0.00210   0.00000   0.00237   0.00232   3.05086
   D47        0.94553   0.00190   0.00000   0.01748   0.01747   0.96300
   D48       -3.03006  -0.00433   0.00000  -0.01351  -0.01345  -3.04351
   D49       -1.14240   0.00037   0.00000   0.00137   0.00132  -1.14109
         Item               Value     Threshold  Converged?
 Maximum Force            0.052145     0.000450     NO 
 RMS     Force            0.007731     0.000300     NO 
 Maximum Displacement     0.156738     0.001800     NO 
 RMS     Displacement     0.045543     0.001200     NO 
 Predicted change in Energy=-5.756418D-03
 GradGradGradGradGradGradGradGradGradGradGradGradGradGradGradGradGradGrad

                          Input orientation:                          
 ---------------------------------------------------------------------
 Center     Atomic      Atomic             Coordinates (Angstroms)
 Number     Number       Type             X           Y           Z
 ---------------------------------------------------------------------
      1          6           0       -0.482056   -0.682744   -0.314341
      2          6           0       -1.808545   -0.357745    0.270142
      3          8           0       -2.158115   -0.806868    1.358778
      4          6           0        0.637917   -0.201702    0.311621
      5          6           0        0.506461    2.782268   -0.323107
      6          1           0        1.060771    3.497868   -0.939722
      7          1           0       -0.549158    2.815704   -0.610099
      8          1           0        0.592979    3.082572    0.725938
      9          7           0        1.037977    1.427469   -0.507147
     10          1           0        1.022570    1.230704   -1.512925
     11          1           0        2.045194    1.478217   -0.308266
     12         17           0        2.193442   -1.064993   -0.053322
     13          6           0        0.607860    0.259690    1.774556
     14          1           0       -0.207827    0.965684    1.966442
     15          1           0        0.481233   -0.605275    2.436164
     16          1           0        1.546556    0.754504    2.052553
     17          6           0       -0.518510   -1.487946   -1.578633
     18          1           0        0.423216   -1.443796   -2.135065
     19          1           0       -0.732776   -2.539018   -1.353035
     20          1           0       -1.298394   -1.125897   -2.259358
     21          6           0       -2.734757    0.522242   -0.533633
     22          1           0       -3.587450   -0.069383   -0.880202
     23          1           0       -3.086457    1.341245    0.100901
     24          1           0       -2.226751    0.950440   -1.401912
 ---------------------------------------------------------------------
                    Distance matrix (angstroms):
                    1          2          3          4          5
     1  C    0.000000
     2  C    1.485537   0.000000
     3  O    2.371478   1.228429   0.000000
     4  C    1.370244   2.451784   3.046400   0.000000
     5  C    3.603270   3.945995   4.776044   3.053561   0.000000
     6  H    4.499882   4.956056   5.845945   3.928292   1.095243
     7  H    3.511569   3.525856   4.425861   3.370972   1.094446
     8  H    4.051603   4.220290   4.805908   3.310609   1.094606
     9  N    2.607810   3.448747   4.323071   1.866715   1.466923
    10  H    2.713261   3.703743   4.745011   2.351322   2.022224
    11  H    3.325174   4.307739   5.066404   2.277458   2.017045
    12  Cl   2.715241   4.076853   4.582215   1.816071   4.209526
    13  C    2.537635   2.912645   2.993498   1.534263   3.282358
    14  H    2.827453   2.681641   2.704592   2.194654   3.008691
    15  H    2.915340   3.161646   2.857893   2.168203   4.369172
    16  H    3.432658   3.958635   4.079680   2.184216   3.292018
    17  C    1.499370   2.521808   3.432281   2.562188   4.567455
    18  H    2.171117   3.456195   4.390431   2.752302   4.598885
    19  H    2.141844   2.924027   3.519355   3.180083   5.559905
    20  H    2.155431   2.692338   3.732534   3.348637   4.720204
    21  C    2.564126   1.509404   2.383332   3.551546   3.956960
    22  H    3.215569   2.137977   2.756795   4.392229   5.020196
    23  H    3.324434   2.132666   2.656776   4.036836   3.894276
    24  H    2.625654   2.163795   3.273263   3.531281   3.462638
                    6          7          8          9         10
     6  H    0.000000
     7  H    1.779289   0.000000
     8  H    1.779247   1.777833   0.000000
     9  N    2.115229   2.111113   2.111371   0.000000
    10  H    2.338815   2.407832   2.937086   1.024961   0.000000
    11  H    2.333841   2.934389   2.398429   1.027917   1.599445
    12  Cl   4.784177   4.784524   4.513427   2.784497   2.961690
    13  C    4.249498   3.682184   3.011393   2.599014   3.452881
    14  H    4.057966   3.190243   2.580961   2.807831   3.700015
    15  H    5.344927   4.695159   4.066642   3.620095   4.388527
    16  H    4.088489   3.966141   2.844137   2.695106   3.635102
    17  C    5.268840   4.411395   5.237947   3.474245   3.125748
    18  H    5.123999   4.627567   5.357440   3.357412   2.810557
    19  H    6.311231   5.409133   6.138569   4.425394   4.161443
    20  H    5.355959   4.337930   5.495498   3.879247   3.390811
    21  C    4.839968   3.169016   4.383565   3.879905   3.946953
    22  H    5.859588   4.198559   5.476358   4.875891   4.831444
    23  H    4.788885   3.019509   4.118391   4.169906   4.415966
    24  H    4.184592   2.630684   4.126089   3.418569   3.263274
                   11         12         13         14         15
    11  H    0.000000
    12  Cl   2.560252   0.000000
    13  C    2.808716   2.758621   0.000000
    14  H    3.242390   3.737537   1.095716   0.000000
    15  H    3.784020   3.056230   1.096323   1.778581   0.000000
    16  H    2.519101   2.857226   1.096938   1.769144   1.769483
    17  C    4.121229   3.140087   3.945480   4.322543   4.230506
    18  H    3.808696   2.758776   4.268617   4.798559   4.647861
    19  H    4.994681   3.524877   4.405893   4.855660   4.423936
    20  H    4.665592   4.130766   4.671843   4.839570   5.048371
    21  C    4.879816   5.199726   4.070597   3.582233   4.520351
    22  H    5.869314   5.923992   4.975606   4.538348   5.276328
    23  H    5.149759   5.804403   4.197482   3.450768   4.687302
    24  H    4.441184   5.041703   4.313015   3.927098   4.948156
                   16         17         18         19         20
    16  H    0.000000
    17  C    4.741159   0.000000
    18  H    4.861128   1.094721   0.000000
    19  H    5.257440   1.096155   1.774091   0.000000
    20  H    5.497475   1.096670   1.755121   1.771512   0.000000
    21  C    5.007189   3.169326   4.050022   3.748420   2.785251
    22  H    5.969745   3.452321   4.421440   3.804186   2.873686
    23  H    5.061424   4.173669   5.007375   4.765520   3.854190
    24  H    5.119527   2.982456   3.645847   3.796138   2.430686
                   21         22         23         24
    21  C    0.000000
    22  H    1.094173   0.000000
    23  H    1.094118   1.789812   0.000000
    24  H    1.093312   1.778685   1.774900   0.000000
 Stoichiometry    C7H14ClNO
 Framework group  C1[X(C7H14ClNO)]
 Deg. of freedom    66
 Full point group                 C1      NOp   1
 Largest Abelian subgroup         C1      NOp   1
 Largest concise Abelian subgroup C1      NOp   1
                         Standard orientation:                         
 ---------------------------------------------------------------------
 Center     Atomic      Atomic             Coordinates (Angstroms)
 Number     Number       Type             X           Y           Z
 ---------------------------------------------------------------------
      1          6           0       -0.487950   -0.696757   -0.292546
      2          6           0       -1.812493   -0.341625    0.278670
      3          8           0       -2.167974   -0.752937    1.380257
      4          6           0        0.635193   -0.206132    0.320157
      5          6           0        0.531592    2.757305   -0.408915
      6          1           0        1.093369    3.448067   -1.046732
      7          1           0       -0.523181    2.791036   -0.698962
      8          1           0        0.618966    3.089880    0.630279
      9          7           0        1.051267    1.392681   -0.548925
     10          1           0        1.035854    1.164326   -1.548005
     11          1           0        2.058549    1.440731   -0.349706
     12         17           0        2.183554   -1.094355   -0.014136
     13          6           0        0.606717    0.301581    1.767700
     14          1           0       -0.202944    1.020528    1.935501
     15          1           0        0.471188   -0.540848    2.456081
     16          1           0        1.549322    0.796571    2.031809
     17          6           0       -0.529410   -1.541216   -1.530804
     18          1           0        0.413644   -1.523084   -2.086442
     19          1           0       -0.753482   -2.582671   -1.272505
     20          1           0       -1.304828   -1.193965   -2.224224
     21          6           0       -2.729376    0.520690   -0.554419
     22          1           0       -3.586730   -0.073993   -0.883828
     23          1           0       -3.074830    1.362465    0.053175
     24          1           0       -2.216037    0.916652   -1.434775
 ---------------------------------------------------------------------
 Rotational constants (GHZ):           1.2694566           0.8620006           0.7194847
 Standard basis: def2SVP (5D, 7F)
 There are   224 symmetry adapted cartesian basis functions of A   symmetry.
 There are   214 symmetry adapted basis functions of A   symmetry.
   214 basis functions,   360 primitive gaussians,   224 cartesian basis functions
    44 alpha electrons       44 beta electrons
       nuclear repulsion energy       665.3187781165 Hartrees.
 NAtoms=   24 NActive=   24 NUniq=   24 SFac= 1.00D+00 NAtFMM=   60 NAOKFM=F Big=F
 Integral buffers will be    131072 words long.
 Raffenetti 2 integral format.
 Two-electron integral symmetry is turned on.
 Nuclear repulsion after empirical dispersion term =      665.3011613126 Hartrees.
 ------------------------------------------------------------------------------
 Polarizable Continuum Model (PCM)
 =================================
 Model                : PCM.
 Atomic radii         : UFF (Universal Force Field).
 Polarization charges : Total charges.
 Charge compensation  : None.
 Solution method      : On-the-fly selection.
 Cavity type          : Scaled VdW (van der Waals Surface) (Alpha=1.100).
 Cavity algorithm     : GePol (No added spheres)
                        Default sphere list used, NSphG=   24.
                        Lebedev-Laikov grids with approx.  5.0 points / Ang**2.
                        Smoothing algorithm: York/Karplus (Gamma=1.0000).
                        Polarization charges: spherical gaussians, with
                                              point-specific exponents (IZeta= 3).
                        Self-potential: point-specific (ISelfS= 7).
                        Self-field    : sphere-specific E.n sum rule (ISelfD= 2).
 1st derivatives      : Analytical E(r).r(x)/FMM algorithm (CHGder, D1EAlg=3).
                        Cavity 1st derivative terms included.
 Solvent              : Toluene, Eps=   2.374100 Eps(inf)=   2.238315
 ------------------------------------------------------------------------------
 One-electron integrals computed using PRISM.
   1 Symmetry operations used in ECPInt.
 ECPInt:  NShTT=    5460 NPrTT=   19488 LenC2=    5397 LenP2D=   15042.
 LDataN:  DoStor=T MaxTD1= 4 Len=   56
 NBasis=   214 RedAO= T EigKep=  1.02D-03  NBF=   214
 NBsUse=   214 1.00D-06 EigRej= -1.00D+00 NBFU=   214
 Initial guess from the checkpoint file:  "TS-898_sqm.chk"
 B after Tr=    -0.000000   -0.000000   -0.000000
         Rot=    0.999826    0.017307   -0.000512    0.006993 Ang=   2.14 deg.
 ExpMin= 1.22D-01 ExpMax= 1.04D+04 ExpMxC= 1.57D+03 IAcc=3 IRadAn=         5 AccDes= 0.00D+00
 Harris functional with IExCor= 4639 and IRadAn=       5 diagonalized for initial guess.
 HarFok:  IExCor= 4639 AccDes= 0.00D+00 IRadAn=         5 IDoV= 1 UseB2=F ITyADJ=14
 ICtDFT=  3500011 ScaDFX=  1.000000  1.000000  1.000000  1.000000
 FoFCou: FMM=F IPFlag=           0 FMFlag=      100000 FMFlg1=           0
         NFxFlg=           0 DoJE=T BraDBF=F KetDBF=T FulRan=T
         wScrn=  0.000000 ICntrl=       500 IOpCl=  0 I1Cent=   200000004 NGrid=           0
         NMat0=    1 NMatS0=      1 NMatT0=    0 NMatD0=    1 NMtDS0=    0 NMtDT0=    0
 Petite list used in FoFCou.
 Requested convergence on RMS density matrix=1.00D-08 within 128 cycles.
 Requested convergence on MAX density matrix=1.00D-06.
 Requested convergence on             energy=1.00D-06.
 No special actions if energy rises.
 Inv3:  Mode=1 IEnd=     9208512.
 Iteration    1 A*A^-1 deviation from unit magnitude is 2.78D-15 for   1131.
 Iteration    1 A*A^-1 deviation from orthogonality  is 1.55D-15 for   1445    146.
 Iteration    1 A^-1*A deviation from unit magnitude is 3.11D-15 for    750.
 Iteration    1 A^-1*A deviation from orthogonality  is 1.33D-15 for   1465    193.
 Error on total polarization charges =  0.00629
 SCF Done:  E(RwB97XD) =  -864.699222547     A.U. after   14 cycles
            NFock= 14  Conv=0.67D-08     -V/T= 2.0061
   1 Symmetry operations used in ECPInt.
 ECPInt:  NShTT=    5460 NPrTT=   19488 LenC2=    5397 LenP2D=   15042.
 LDataN:  DoStor=T MaxTD1= 5 Len=  102
 D1PCM: PCM CHGder 1st derivatives, ID1Alg=3 FixD1E=F DoIter=F DoCFld=F I1PDM=0.
 Calling FoFJK, ICntrl=      2127 FMM=F ISym2X=0 I1Cent= 0 IOpClX= 0 NMat=1 NMatS=1 NMatT=0.
 ***** Axes restored to original set *****
 -------------------------------------------------------------------
 Center     Atomic                   Forces (Hartrees/Bohr)
 Number     Number              X              Y              Z
 -------------------------------------------------------------------
      1        6          -0.005892898   -0.007741253    0.008257119
      2        6           0.008088721   -0.018398849    0.016491639
      3        8          -0.001482600    0.014918434   -0.008648947
      4        6          -0.032075279   -0.031072164    0.027593586
      5        6          -0.005140447   -0.005546466    0.004373279
      6        1          -0.000007569    0.004157807   -0.001582625
      7        1          -0.003239309   -0.000836310   -0.000033921
      8        1           0.000158571   -0.000083309    0.002409803
      9        7           0.049379220    0.041899168   -0.021005128
     10        1          -0.004299383   -0.006716533    0.003368004
     11        1          -0.002392343    0.001254198   -0.001672862
     12       17          -0.000108623    0.008354044   -0.002459473
     13        6           0.006496673   -0.001578648   -0.009212308
     14        1          -0.002922591   -0.000667321   -0.001579714
     15        1          -0.001693311   -0.001092133   -0.001175475
     16        1           0.002623785    0.001270450   -0.001037701
     17        6           0.003175633    0.008512736   -0.001933781
     18        1           0.003897199   -0.001225775   -0.001315671
     19        1          -0.000939781   -0.005738846   -0.002180297
     20        1          -0.004776748   -0.000310123   -0.003661179
     21        6           0.000942019   -0.001726309   -0.003767086
     22        1          -0.006214509    0.000565768   -0.000286729
     23        1          -0.004042292    0.000796018    0.002944444
     24        1           0.000465862    0.001005415   -0.003884976
 -------------------------------------------------------------------
 Cartesian Forces:  Max     0.049379220 RMS     0.011327095

 GradGradGradGradGradGradGradGradGradGradGradGradGradGradGradGradGradGrad
 Berny optimization.
 FormGI is forming the generalized inverse of G from B-inverse, IUseBI=4.
 Internal  Forces:  Max     0.043366753 RMS     0.006522450
 Search for a saddle point.
 Step number   2 out of a maximum of   50
 All quantities printed in internal units (Hartrees-Bohrs-Radians)
 Swapping is turned off.
 Update second derivatives using D2CorX and points    1    2
 ITU=  0  0
     Eigenvalues ---   -0.05466  -0.00277  -0.00029   0.00016   0.00063
     Eigenvalues ---    0.00080   0.00166   0.00734   0.01189   0.01541
     Eigenvalues ---    0.03278   0.03410   0.03559   0.03613   0.03699
     Eigenvalues ---    0.03726   0.04374   0.04406   0.04575   0.04704
     Eigenvalues ---    0.05154   0.05382   0.08017   0.09281   0.10297
     Eigenvalues ---    0.10792   0.10942   0.11138   0.11206   0.11511
     Eigenvalues ---    0.12036   0.12218   0.12295   0.12558   0.12740
     Eigenvalues ---    0.12888   0.13252   0.14671   0.14927   0.15146
     Eigenvalues ---    0.16351   0.16993   0.18310   0.19567   0.23135
     Eigenvalues ---    0.25953   0.25963   0.26216   0.26259   0.26291
     Eigenvalues ---    0.26331   0.26403   0.26569   0.27095   0.27805
     Eigenvalues ---    0.28096   0.28203   0.28587   0.29493   0.37506
     Eigenvalues ---    0.38813   0.41307   0.44542   0.52930   0.69455
     Eigenvalues ---    0.80236
 Eigenvectors required to have negative eigenvalues:
                          R6        A19       A21       D1        D2
   1                   -0.67659  -0.36612   0.22205   0.20449   0.19052
                          D3        D4        A20       A11       D6
   1                    0.17621   0.16223   0.13181   0.12684  -0.12123
 RFO step:  Lambda0=3.132732717D-03 Lambda=-3.69570168D-02.
 Linear search not attempted -- option 19 set.
 Maximum step size (   0.100) exceeded in Quadratic search.
    -- Step size scaled by   0.200
 Iteration  1 RMS(Cart)=  0.05171559 RMS(Int)=  0.00135288
 Iteration  2 RMS(Cart)=  0.00211021 RMS(Int)=  0.00007948
 Iteration  3 RMS(Cart)=  0.00000302 RMS(Int)=  0.00007946
 Iteration  4 RMS(Cart)=  0.00000000 RMS(Int)=  0.00007946
 Variable       Old X    -DE/DX   Delta X   Delta X   Delta X     New X
                                 (Linear)    (Quad)   (Total)
    R1        2.80726   0.00249   0.00000  -0.00120  -0.00120   2.80606
    R2        2.58939   0.00790   0.00000   0.00207   0.00207   2.59146
    R3        2.83340   0.00697   0.00000   0.00432   0.00432   2.83772
    R4        2.32139  -0.01270   0.00000  -0.00122  -0.00122   2.32018
    R5        2.85236   0.00847   0.00000   0.00441   0.00441   2.85677
    R6        3.52758   0.04337   0.00000   0.07325   0.07325   3.60083
    R7        3.43188  -0.00357   0.00000  -0.00571  -0.00571   3.42616
    R8        2.89934  -0.01311   0.00000  -0.01238  -0.01238   2.88696
    R9        2.06971   0.00360   0.00000   0.00022   0.00022   2.06993
   R10        2.06820   0.00311   0.00000   0.00125   0.00125   2.06945
   R11        2.06851   0.00230   0.00000   0.00009   0.00009   2.06859
   R12        2.77208   0.00150   0.00000  -0.00533  -0.00533   2.76675
   R13        1.93690  -0.00195   0.00000  -0.00222  -0.00222   1.93468
   R14        1.94248  -0.00261   0.00000  -0.00415  -0.00415   1.93833
   R15        2.07060   0.00147   0.00000   0.00108   0.00108   2.07169
   R16        2.07175   0.00035   0.00000  -0.00141  -0.00141   2.07033
   R17        2.07291   0.00255   0.00000   0.00214   0.00214   2.07505
   R18        2.06872   0.00398   0.00000   0.00225   0.00225   2.07097
   R19        2.07143   0.00524   0.00000   0.00303   0.00303   2.07446
   R20        2.07241   0.00557   0.00000   0.00211   0.00211   2.07452
   R21        2.06769   0.00463   0.00000   0.00288   0.00288   2.07056
   R22        2.06758   0.00360   0.00000   0.00274   0.00274   2.07033
   R23        2.06606   0.00370   0.00000   0.00308   0.00308   2.06914
    A1        2.06383   0.00332   0.00000   0.00130   0.00130   2.06513
    A2        2.01257   0.00228   0.00000   0.00932   0.00932   2.02188
    A3        2.20633  -0.00562   0.00000  -0.01076  -0.01076   2.19557
    A4        2.12092   0.01078   0.00000   0.00614   0.00613   2.12705
    A5        2.05552  -0.00026   0.00000   0.00078   0.00077   2.05629
    A6        2.10650  -0.01049   0.00000  -0.00677  -0.00678   2.09972
    A7        1.85583   0.01750   0.00000  -0.00715  -0.00708   1.84875
    A8        2.02796  -0.00084   0.00000   0.00689   0.00670   2.03466
    A9        2.12369  -0.00161   0.00000   0.01118   0.01106   2.13474
   A10        1.71445  -0.01040   0.00000  -0.01579  -0.01578   1.69867
   A11        1.73145  -0.00913   0.00000  -0.00803  -0.00798   1.72347
   A12        1.92980   0.00264   0.00000   0.00143   0.00122   1.93102
   A13        1.89712  -0.00086   0.00000   0.00126   0.00127   1.89839
   A14        1.89685  -0.00077   0.00000   0.00133   0.00134   1.89818
   A15        1.92775   0.00443   0.00000   0.00559   0.00560   1.93334
   A16        1.89565   0.00043   0.00000   0.00155   0.00153   1.89717
   A17        1.92282  -0.00171   0.00000  -0.00581  -0.00582   1.91700
   A18        1.92301  -0.00156   0.00000  -0.00383  -0.00383   1.91918
   A19        2.30954  -0.02056   0.00000  -0.04292  -0.04298   2.26656
   A20        1.83345   0.00027   0.00000  -0.00010  -0.00031   1.83313
   A21        1.73982   0.00903   0.00000   0.01404   0.01432   1.75414
   A22        1.87022   0.01184   0.00000   0.01590   0.01541   1.88563
   A23        1.85998   0.00414   0.00000   0.01711   0.01722   1.87720
   A24        1.78653  -0.00155   0.00000   0.00689   0.00668   1.79321
   A25        1.95555  -0.00296   0.00000  -0.00150  -0.00150   1.95405
   A26        1.91816  -0.00162   0.00000  -0.00068  -0.00069   1.91748
   A27        1.93964  -0.00100   0.00000  -0.00212  -0.00212   1.93752
   A28        1.89303   0.00114   0.00000  -0.00295  -0.00296   1.89007
   A29        1.87760   0.00254   0.00000   0.00246   0.00246   1.88006
   A30        1.87737   0.00222   0.00000   0.00508   0.00508   1.88245
   A31        1.96711  -0.00080   0.00000   0.00113   0.00113   1.96824
   A32        1.92426   0.00400   0.00000   0.00230   0.00230   1.92656
   A33        1.94271   0.00158   0.00000   0.00432   0.00431   1.94702
   A34        1.88750  -0.00237   0.00000  -0.00413  -0.00413   1.88336
   A35        1.85765   0.00028   0.00000  -0.00037  -0.00038   1.85727
   A36        1.88105  -0.00306   0.00000  -0.00377  -0.00378   1.87727
   A37        1.90884   0.00336   0.00000   0.00532   0.00530   1.91414
   A38        1.90162  -0.00101   0.00000  -0.00556  -0.00555   1.89607
   A39        1.94563   0.00198   0.00000   0.00755   0.00754   1.95317
   A40        1.91552  -0.00393   0.00000  -0.00643  -0.00643   1.90909
   A41        1.89898  -0.00145   0.00000  -0.00137  -0.00141   1.89757
   A42        1.89312   0.00092   0.00000   0.00024   0.00025   1.89337
    D1       -1.17238   0.00635   0.00000   0.10091   0.10091  -1.07147
    D2        1.99331   0.00541   0.00000   0.09392   0.09389   2.08719
    D3        1.99970   0.00718   0.00000   0.10560   0.10563   2.10534
    D4       -1.11780   0.00624   0.00000   0.09861   0.09861  -1.01919
    D5       -1.61803  -0.00105   0.00000   0.00383   0.00381  -1.61422
    D6        2.77875   0.00118   0.00000   0.02407   0.02412   2.80286
    D7        0.33898  -0.00013   0.00000  -0.00592  -0.00598   0.33300
    D8        1.48931  -0.00181   0.00000  -0.00101  -0.00101   1.48830
    D9       -0.39710   0.00043   0.00000   0.01923   0.01930  -0.37780
[...]
    19  H    5.503640   4.352831   5.727765   4.257973   3.893850
    20  H    4.214647   3.200696   4.815460   3.605290   3.150967
    21  C    5.557403   3.853540   5.336208   4.908228   5.015698
    22  H    6.202303   4.437594   5.804039   5.703050   5.927927
    23  H    5.217648   3.652473   5.330109   4.901661   4.862444
    24  H    6.295474   4.672985   6.135530   5.392940   5.383191
                   11         12         13         14         15
    11  H    0.000000
    12  Cl   2.735770   0.000000
    13  C    2.755849   2.731748   0.000000
    14  H    3.134926   3.716241   1.095154   0.000000
    15  H    3.770185   3.032462   1.097645   1.757544   0.000000
    16  H    2.446909   2.771114   1.100225   1.817127   1.781357
    17  C    4.107662   3.129860   3.936163   4.301545   4.242892
    18  H    3.706937   2.647963   4.133574   4.663186   4.550059
    19  H    5.057774   3.563661   4.551910   4.992408   4.614426
    20  H    4.560639   4.103017   4.648630   4.805389   5.060263
    21  C    5.831637   5.172040   4.481634   4.322085   4.437913
    22  H    6.598031   6.060377   4.983746   4.653435   4.837556
    23  H    5.894227   5.519497   5.032270   4.824476   5.188832
    24  H    6.278286   5.137357   4.903967   4.960109   4.709190
                   16         17         18         19         20
    16  H    0.000000
    17  C    4.686189   0.000000
    18  H    4.658143   1.101192   0.000000
    19  H    5.341754   1.103922   1.756958   0.000000
    20  H    5.423284   1.102349   1.768457   1.771079   0.000000
    21  C    5.555527   2.854745   3.950645   2.840588   2.817550
    22  H    6.081408   3.942480   5.032880   3.902875   3.865348
    23  H    6.053558   2.773105   3.829341   2.914272   2.311760
    24  H    5.946826   2.808654   3.863700   2.370019   2.952381
                   21         22         23         24
    21  C    0.000000
    22  H    1.097481   0.000000
    23  H    1.102605   1.792767   0.000000
    24  H    1.100246   1.794958   1.766163   0.000000
 Stoichiometry    C7H14ClNO
 Framework group  C1[X(C7H14ClNO)]
 Deg. of freedom    66
 Full point group                 C1      NOp   1
 Largest Abelian subgroup         C1      NOp   1
 Largest concise Abelian subgroup C1      NOp   1
                         Standard orientation:                         
 ---------------------------------------------------------------------
 Center     Atomic      Atomic             Coordinates (Angstroms)
 Number     Number       Type             X           Y           Z
 ---------------------------------------------------------------------
      1          6           0       -0.600705   -0.429234   -0.190103
      2          6           0       -1.840293    0.091278    0.340630
      3          8           0       -1.955986    0.946064    1.225429
      4          6           0        0.639725   -0.021776    0.346944
      5          6           0        0.806040    2.146269   -1.266832
      6          1           0        1.117886    2.503567   -2.256715
      7          1           0       -0.264965    1.886513   -1.288913
      8          1           0        0.967226    2.930768   -0.522669
      9          7           0        1.537707    0.940935   -0.882378
     10          1           0        1.637084    0.296891   -1.661205
     11          1           0        2.478258    1.133096   -0.536966
     12         17           0        1.934564   -1.357306    0.456378
     13          6           0        0.746793    0.828386    1.585270
     14          1           0        0.150373    1.740013    1.473100
     15          1           0        0.321626    0.279235    2.435265
     16          1           0        1.799066    1.055497    1.812510
     17          6           0       -0.634567   -1.427077   -1.329881
     18          1           0        0.378412   -1.709004   -1.657011
     19          1           0       -1.131101   -2.372604   -1.050458
     20          1           0       -1.160023   -1.042272   -2.219260
     21          6           0       -3.114265   -0.497021   -0.264207
     22          1           0       -3.972571   -0.022427    0.228272
     23          1           0       -3.176269   -0.318274   -1.350458
     24          1           0       -3.165012   -1.586809   -0.121629
 ---------------------------------------------------------------------
 Rotational constants (GHZ):           1.3745688           0.8218467           0.7378301

 **********************************************************************

            Population analysis using the SCF Density.

 **********************************************************************

 Orbital symmetries:
       Occupied  (A) (A) (A) (A) (A) (A) (A) (A) (A) (A) (A) (A)
                 (A) (A) (A) (A) (A) (A) (A) (A) (A) (A) (A) (A)
                 (A) (A) (A) (A) (A) (A) (A) (A) (A) (A) (A) (A)
                 (A) (A) (A) (A) (A) (A) (A) (A)
       Virtual   (A) (A) (A) (A) (A) (A) (A) (A) (A) (A) (A) (A)
                 (A) (A) (A) (A) (A) (A) (A) (A) (A) (A) (A) (A)
                 (A) (A) (A) (A) (A) (A) (A) (A) (A) (A) (A) (A)
                 (A) (A) (A) (A) (A) (A) (A) (A) (A) (A) (A) (A)
                 (A) (A) (A) (A) (A) (A) (A) (A) (A) (A) (A) (A)
                 (A) (A) (A) (A) (A) (A) (A) (A) (A) (A) (A) (A)
                 (A) (A) (A) (A) (A) (A) (A) (A) (A) (A) (A) (A)
                 (A) (A) (A) (A) (A) (A) (A) (A) (A) (A) (A) (A)
                 (A) (A) (A) (A) (A) (A) (A) (A) (A) (A) (A) (A)
                 (A) (A) (A) (A) (A) (A) (A) (A) (A) (A) (A) (A)
                 (A) (A) (A) (A) (A) (A) (A) (A) (A) (A) (A) (A)
                 (A) (A) (A) (A) (A) (A) (A) (A) (A) (A) (A) (A)
                 (A) (A) (A) (A) (A) (A) (A) (A) (A) (A) (A) (A)
                 (A) (A) (A) (A) (A) (A) (A) (A) (A) (A) (A) (A)
                 (A) (A)
 The electronic state is 1-A.
 Alpha  occ. eigenvalues -- -101.65888 -19.18426 -14.53232 -10.40590 -10.35214
 Alpha  occ. eigenvalues --  -10.34270 -10.29618 -10.28472 -10.27322 -10.25551
 Alpha  occ. eigenvalues --   -9.56659  -7.31975  -7.31116  -7.31081  -1.07301
 Alpha  occ. eigenvalues --   -1.06428  -0.94667  -0.86155  -0.83068  -0.80280
 Alpha  occ. eigenvalues --   -0.78786  -0.73346  -0.67014  -0.65392  -0.60097
 Alpha  occ. eigenvalues --   -0.58282  -0.55990  -0.53730  -0.52040  -0.50905
 Alpha  occ. eigenvalues --   -0.49672  -0.49502  -0.48006  -0.46827  -0.46384
 Alpha  occ. eigenvalues --   -0.45016  -0.44036  -0.43995  -0.42735  -0.40603
 Alpha  occ. eigenvalues --   -0.38339  -0.37823  -0.28885  -0.25256
 Alpha virt. eigenvalues --    0.08313   0.08742   0.11139   0.14274   0.15235
 Alpha virt. eigenvalues --    0.16477   0.17209   0.19295   0.20015   0.21015
 Alpha virt. eigenvalues --    0.21202   0.22611   0.22913   0.24495   0.25030
 Alpha virt. eigenvalues --    0.25245   0.27085   0.28802   0.31566   0.31894
 Alpha virt. eigenvalues --    0.35596   0.38208   0.41095   0.45919   0.46493
 Alpha virt. eigenvalues --    0.48850   0.50396   0.50974   0.53236   0.53974
 Alpha virt. eigenvalues --    0.56523   0.57897   0.59108   0.60295   0.61838
 Alpha virt. eigenvalues --    0.63827   0.66862   0.68684   0.69539   0.71175
 Alpha virt. eigenvalues --    0.71924   0.72921   0.73358   0.73615   0.74050
 Alpha virt. eigenvalues --    0.74787   0.74986   0.75502   0.75977   0.76723
 Alpha virt. eigenvalues --    0.77418   0.78222   0.78582   0.79330   0.80208
 Alpha virt. eigenvalues --    0.80749   0.81698   0.83465   0.84620   0.85145
 Alpha virt. eigenvalues --    0.85604   0.86828   0.89472   0.90846   0.93756
 Alpha virt. eigenvalues --    0.94093   0.95246   0.96644   1.01469   1.03602
 Alpha virt. eigenvalues --    1.04597   1.08573   1.11125   1.13681   1.16871
 Alpha virt. eigenvalues --    1.19512   1.20843   1.25298   1.26425   1.28181
 Alpha virt. eigenvalues --    1.32487   1.35348   1.39052   1.40548   1.42339
 Alpha virt. eigenvalues --    1.43370   1.46086   1.46723   1.54471   1.56456
 Alpha virt. eigenvalues --    1.59360   1.61183   1.62869   1.63225   1.66444
 Alpha virt. eigenvalues --    1.67429   1.69243   1.72503   1.73060   1.76774
 Alpha virt. eigenvalues --    1.78659   1.82130   1.83073   1.84528   1.85324
 Alpha virt. eigenvalues --    1.87044   1.87664   1.89320   1.89806   1.91123
 Alpha virt. eigenvalues --    1.91678   1.92744   1.94668   1.94927   1.96711
 Alpha virt. eigenvalues --    1.99726   2.01265   2.04048   2.05755   2.06778
 Alpha virt. eigenvalues --    2.08435   2.09794   2.11877   2.14520   2.14957
 Alpha virt. eigenvalues --    2.18624   2.20601   2.22263   2.23001   2.30359
 Alpha virt. eigenvalues --    2.31960   2.35804   2.40095   2.40883   2.45276
 Alpha virt. eigenvalues --    2.46129   2.46846   2.50408   2.52518   2.55523
 Alpha virt. eigenvalues --    2.56660   2.58169   2.58789   2.64887   2.67074
 Alpha virt. eigenvalues --    2.69918   2.72959   2.75389   2.80973   2.81359
 Alpha virt. eigenvalues --    2.82871   2.84694   2.86505   2.92005   2.93921
 Alpha virt. eigenvalues --    3.00991   3.02115   3.02694   3.03201   3.05229
 Alpha virt. eigenvalues --    3.05563   3.07352   3.09245   3.12312   3.20126
 Alpha virt. eigenvalues --    3.24392   3.27575   3.48202   3.53614   3.76284
          Condensed to atoms (all electrons):
               1          2          3          4          5          6
     1  C    5.861019   0.225541  -0.124476   0.392830  -0.011815  -0.000797
     2  C    0.225541   4.717055   0.707562  -0.051027  -0.001038  -0.000040
     3  O   -0.124476   0.707562   7.825257  -0.018567  -0.000170   0.000011
     4  C    0.392830  -0.051027  -0.018567   5.326342  -0.030098   0.003043
     5  C   -0.011815  -0.001038  -0.000170  -0.030098   4.529468   0.403970
     6  H   -0.000797  -0.000040   0.000011   0.003043   0.403970   0.584439
     7  H    0.021146   0.007247   0.001101  -0.003318   0.401174  -0.018834
     8  H   -0.000909  -0.000216  -0.000303  -0.002077   0.406333  -0.019262
     9  N   -0.108365  -0.001531   0.000138   0.095936   0.311614  -0.015725
    10  H   -0.005100   0.000077  -0.000025  -0.004027  -0.015826  -0.009753
    11  H    0.008233  -0.000023  -0.000004  -0.005908  -0.016229  -0.002297
    12  Cl  -0.086531  -0.001481  -0.000002   0.265485   0.003021  -0.000165
    13  C   -0.057000   0.002026  -0.005170   0.379089   0.001097  -0.000018
    14  H   -0.027434   0.003461   0.025873   0.012158   0.004085   0.000023
    15  H   -0.012746   0.000497   0.003350  -0.001758  -0.000155   0.000006
    16  H    0.012136   0.001209   0.001873  -0.031848  -0.001459  -0.000016
    17  C    0.328632  -0.009134   0.004031  -0.071134  -0.000419   0.000116
    18  H   -0.024564   0.008129  -0.000070  -0.017812   0.000010  -0.000013
    19  H   -0.005882  -0.015491   0.000006   0.003316  -0.000057  -0.000002
    20  H   -0.015206  -0.016254   0.000025   0.003429   0.000607   0.000027
    21  C   -0.197531   0.424186  -0.086675   0.008034  -0.000133  -0.000001
    22  H    0.019243  -0.015338   0.013064  -0.000256   0.000000   0.000000
    23  H   -0.005422   0.002629   0.002186  -0.000186   0.000140  -0.000000
    24  H   -0.001989  -0.004236   0.002058   0.000490  -0.000003  -0.000000
               7          8          9         10         11         12
     1  C    0.021146  -0.000909  -0.108365  -0.005100   0.008233  -0.086531
     2  C    0.007247  -0.000216  -0.001531   0.000077  -0.000023  -0.001481
     3  O    0.001101  -0.000303   0.000138  -0.000025  -0.000004  -0.000002
     4  C   -0.003318  -0.002077   0.095936  -0.004027  -0.005908   0.265485
     5  C    0.401174   0.406333   0.311614  -0.015826  -0.016229   0.003021
     6  H   -0.018834  -0.019262  -0.015725  -0.009753  -0.002297  -0.000165
     7  H    0.546001  -0.015247  -0.030288  -0.001183   0.006392   0.000430
     8  H   -0.015247   0.569226  -0.020292   0.005556  -0.008896  -0.000004
     9  N   -0.030288  -0.020292   6.361560   0.340489   0.332932  -0.084613
    10  H   -0.001183   0.005556   0.340489   0.509733  -0.013036   0.008249
    11  H    0.006392  -0.008896   0.332932  -0.013036   0.515065   0.011608
    12  Cl   0.000430  -0.000004  -0.084613   0.008249   0.011608  17.094913
    13  C   -0.003444   0.005511  -0.042576   0.004520  -0.004489  -0.062308
    14  H    0.000337   0.001299  -0.000678  -0.000086  -0.000646   0.002939
    15  H    0.000002  -0.000127   0.003447  -0.000223  -0.000091   0.002612
    16  H    0.000002  -0.000096  -0.002556  -0.000096   0.004482   0.001683
    17  C   -0.002323   0.000038   0.001923   0.003838  -0.000410  -0.010778
    18  H   -0.000140  -0.000014  -0.001430   0.004791  -0.000213   0.015489
    19  H    0.000143   0.000002  -0.000401  -0.000106   0.000019   0.002480
    20  H   -0.000578  -0.000007   0.001739  -0.000372  -0.000062   0.000250
    21  C    0.000324  -0.000024  -0.000101  -0.000028   0.000009  -0.000112
    22  H   -0.000065   0.000001   0.000004   0.000000  -0.000000   0.000002
    23  H   -0.000507   0.000004   0.000034  -0.000003  -0.000001  -0.000002
    24  H    0.000034   0.000000  -0.000010   0.000002   0.000000   0.000013
              13         14         15         16         17         18
     1  C   -0.057000  -0.027434  -0.012746   0.012136   0.328632  -0.024564
     2  C    0.002026   0.003461   0.000497   0.001209  -0.009134   0.008129
     3  O   -0.005170   0.025873   0.003350   0.001873   0.004031  -0.000070
     4  C    0.379089   0.012158  -0.001758  -0.031848  -0.071134  -0.017812
     5  C    0.001097   0.004085  -0.000155  -0.001459  -0.000419   0.000010
     6  H   -0.000018   0.000023   0.000006  -0.000016   0.000116  -0.000013
     7  H   -0.003444   0.000337   0.000002   0.000002  -0.002323  -0.000140
     8  H    0.005511   0.001299  -0.000127  -0.000096   0.000038  -0.000014
     9  N   -0.042576  -0.000678   0.003447  -0.002556   0.001923  -0.001430
    10  H    0.004520  -0.000086  -0.000223  -0.000096   0.003838   0.004791
    11  H   -0.004489  -0.000646  -0.000091   0.004482  -0.000410  -0.000213
    12  Cl  -0.062308   0.002939   0.002612   0.001683  -0.010778   0.015489
    13  C    4.549206   0.362776   0.390886   0.368095   0.007009   0.001139
    14  H    0.362776   0.577055  -0.011440  -0.017574  -0.000167  -0.000087
    15  H    0.390886  -0.011440   0.573940  -0.020740   0.000016  -0.000023
    16  H    0.368095  -0.017574  -0.020740   0.660424  -0.000263  -0.000010
    17  C    0.007009  -0.000167   0.000016  -0.000263   4.549282   0.385742
    18  H    0.001139  -0.000087  -0.000023  -0.000010   0.385742   0.661225
    19  H   -0.000239  -0.000020   0.000057  -0.000004   0.376514  -0.020719
    20  H   -0.000239   0.000028  -0.000013   0.000009   0.380021  -0.024567
    21  C    0.000384   0.001145  -0.000020   0.000063   0.010942  -0.000391
    22  H   -0.000058  -0.000026   0.000010  -0.000003  -0.000526  -0.000018
    23  H    0.000034  -0.000076   0.000003  -0.000002   0.004325   0.000327
    24  H   -0.000040  -0.000021  -0.000021  -0.000004   0.002377   0.000184
              19         20         21         22         23         24
     1  C   -0.005882  -0.015206  -0.197531   0.019243  -0.005422  -0.001989
     2  C   -0.015491  -0.016254   0.424186  -0.015338   0.002629  -0.004236
     3  O    0.000006   0.000025  -0.086675   0.013064   0.002186   0.002058
     4  C    0.003316   0.003429   0.008034  -0.000256  -0.000186   0.000490
     5  C   -0.000057   0.000607  -0.000133   0.000000   0.000140  -0.000003
     6  H   -0.000002   0.000027  -0.000001   0.000000  -0.000000  -0.000000
     7  H    0.000143  -0.000578   0.000324  -0.000065  -0.000507   0.000034
     8  H    0.000002  -0.000007  -0.000024   0.000001   0.000004   0.000000
     9  N   -0.000401   0.001739  -0.000101   0.000004   0.000034  -0.000010
    10  H   -0.000106  -0.000372  -0.000028   0.000000  -0.000003   0.000002
    11  H    0.000019  -0.000062   0.000009  -0.000000  -0.000001   0.000000
    12  Cl   0.002480   0.000250  -0.000112   0.000002  -0.000002   0.000013
    13  C   -0.000239  -0.000239   0.000384  -0.000058   0.000034  -0.000040
    14  H   -0.000020   0.000028   0.001145  -0.000026  -0.000076  -0.000021
    15  H    0.000057  -0.000013  -0.000020   0.000010   0.000003  -0.000021
    16  H   -0.000004   0.000009   0.000063  -0.000003  -0.000002  -0.000004
    17  C    0.376514   0.380021   0.010942  -0.000526   0.004325   0.002377
    18  H   -0.020719  -0.024567  -0.000391  -0.000018   0.000327   0.000184
    19  H    0.649649  -0.028245   0.007482   0.000058  -0.002573   0.001301
    20  H   -0.028245   0.675946   0.005816   0.000099   0.001067  -0.002298
    21  C    0.007482   0.005816   4.780741   0.348344   0.353947   0.362622
    22  H    0.000058   0.000099   0.348344   0.628961  -0.014333  -0.013713
    23  H   -0.002573   0.001067   0.353947  -0.014333   0.640626  -0.016203
    24  H    0.001301  -0.002298   0.362622  -0.013713  -0.016203   0.625944
 Mulliken charges:
               1
     1  C   -0.183013
     2  C    0.016191
     3  O   -0.351072
     4  C   -0.252135
     5  C    0.015884
     6  H    0.075289
     7  H    0.091593
     8  H    0.079505
     9  N   -0.141250
    10  H    0.172610
    11  H    0.173563
    12  Cl  -0.163177
    13  C    0.103809
    14  H    0.067077
    15  H    0.072531
    16  H    0.024696
    17  C    0.040349
    18  H    0.013033
    19  H    0.032714
    20  H    0.018778
    21  C   -0.019024
    22  H    0.034550
    23  H    0.033986
    24  H    0.043515
 Sum of Mulliken charges =  -0.00000
 Mulliken charges with hydrogens summed into heavy atoms:
               1
     1  C   -0.183013
     2  C    0.016191
     3  O   -0.351072
     4  C   -0.252135
     5  C    0.262271
     9  N    0.204923
    12  Cl  -0.163177
    13  C    0.268113
    17  C    0.104874
    21  C    0.093026
 Electronic spatial extent (au):  <R**2>=           1847.4887
 Charge=             -0.0000 electrons
 Dipole moment (field-independent basis, Debye):
    X=              5.1201    Y=              2.5724    Z=             -4.7386  Tot=              7.4355
 Quadrupole moment (field-independent basis, Debye-Ang):
   XX=            -69.7193   YY=            -67.5264   ZZ=            -67.4635
   XY=             11.1944   XZ=              0.7766   YZ=             -4.7830
 Traceless Quadrupole moment (field-independent basis, Debye-Ang):
   XX=             -1.4829   YY=              0.7100   ZZ=              0.7729
   XY=             11.1944   XZ=              0.7766   YZ=             -4.7830
 Octapole moment (field-independent basis, Debye-Ang**2):
  XXX=             33.2587  YYY=             15.8218  ZZZ=             -7.5543  XYY=             11.9982
  XXY=              4.0666  XXZ=            -18.3108  XZZ=             17.1761  YZZ=              3.8336
  YYZ=             -7.5862  XYZ=              4.3790
 Hexadecapole moment (field-independent basis, Debye-Ang**3):
 XXXX=          -1245.6950 YYYY=           -624.8504 ZZZZ=           -469.8618 XXXY=             29.7449
 XXXZ=             -8.3282 YYYX=             10.4513 YYYZ=            -19.6365 ZZZX=            -12.1281
 ZZZY=            -22.1073 XXYY=           -317.2240 XXZZ=           -296.7360 YYZZ=           -188.4413
 XXYZ=            -18.2819 YYXZ=             -3.5498 ZZXY=              9.5899
 N-N= 6.704078564244D+02 E-N=-3.374891865427D+03  KE= 8.592787384988D+02


 I DO NOT DEFINE TIME, SPACE, PLACE, AND MOTION, AS BEING WELL KNOWN TO ALL.
                                            -- NEWTON (1642-1726), PRINCIPIA
 Error termination request processed by link 9999.
 Error termination via Lnk1e in /apps/gaussian/g16/C.01/g16/l9999.exe at Mon Dec 18 21:32:29 2023.
 Job cpu time:       0 days  2 hours 58 minutes  3.2 seconds.
 Elapsed time:       0 days  2 hours 58 minutes 45.0 seconds.
 File lengths (MBytes):  RWF=     89 Int=      0 D2E=      0 Chk=     10 Scr=      1
