Unloading slurm/anatra/current
  ERROR: No such file or directory on
    '/cm/local/modulefiles/slurm/anatra/current'
environment: line 0: unalias: gv: not found
environment: line 0: unalias: sl: not found
 Entering Gaussian System, Link 0=g16
 Initial command:
 /apps/gaussian/g16/C.01/g16/l1.exe "/local/jobs/1150736/Gau-1116864.inp" -scrdir="/local/jobs/1150736/"
 Entering Link 1 = /apps/gaussian/g16/C.01/g16/l1.exe PID=   1116866.
  
 Copyright (c) 1988-2019, Gaussian, Inc.  All Rights Reserved.
  
 This is part of the Gaussian(R) 16 program.  It is based on
 the Gaussian(R) 09 system (copyright 2009, Gaussian, Inc.),
 the Gaussian(R) 03 system (copyright 2003, Gaussian, Inc.),
 the Gaussian(R) 98 system (copyright 1998, Gaussian, Inc.),
 the Gaussian(R) 94 system (copyright 1995, Gaussian, Inc.),
 the Gaussian 92(TM) system (copyright 1992, Gaussian, Inc.),
 the Gaussian 90(TM) system (copyright 1990, Gaussian, Inc.),
 the Gaussian 88(TM) system (copyright 1988, Gaussian, Inc.),
 the Gaussian 86(TM) system (copyright 1986, Carnegie Mellon
 University), and the Gaussian 82(TM) system (copyright 1983,
 Carnegie Mellon University). Gaussian is a federally registered
 trademark of Gaussian, Inc.
  
 This software contains proprietary and confidential information,
 including trade secrets, belonging to Gaussian, Inc.
  
 This software is provided under written license and may be
 used, copied, transmitted, or stored only in accord with that
 written license.
  
 The following legend is applicable only to US Government
 contracts under FAR:
  
                    RESTRICTED RIGHTS LEGEND
  
 Use, reproduction and disclosure by the US Government is
 subject to restrictions as set forth in subparagraphs (a)
 and (c) of the Commercial Computer Software - Restricted
 Rights clause in FAR 52.227-19.
  
 Gaussian, Inc.
 340 Quinnipiac St., Bldg. 40, Wallingford CT 06492
  
  
 ---------------------------------------------------------------
 Warning -- This program may not be used in any manner that
 competes with the business of Gaussian, Inc. or will provide
 assistance to any competitor of Gaussian, Inc.  The licensee
 of this program is prohibited from giving any competitor of
 Gaussian, Inc. access to this program.  By using this program,
 the user acknowledges that Gaussian, Inc. is engaged in the
 business of creating and licensing software in the field of
 computational chemistry and represents and warrants to the
 licensee that it is not a competitor of Gaussian, Inc. and that
 it will not use this program in any manner prohibited above.
 ---------------------------------------------------------------
  

 Cite this work as:
 Gaussian 16, Revision C.01,
 M. J. Frisch, G. W. Trucks, H. B. Schlegel, G. E. Scuseria, 
 M. A. Robb, J. R. Cheeseman, G. Scalmani, V. Barone, 
 G. A. Petersson, H. Nakatsuji, X. Li, M. Caricato, A. V. Marenich, 
 J. Bloino, B. G. Janesko, R. Gomperts, B. Mennucci, H. P. Hratchian, 
 J. V. Ortiz, A. F. Izmaylov, J. L. Sonnenberg, D. Williams-Young, 
 F. Ding, F. Lipparini, F. Egidi, J. Goings, B. Peng, A. Petrone, 
 T. Henderson, D. Ranasinghe, V. G. Zakrzewski, J. Gao, N. Rega, 
 G. Zheng, W. Liang, M. Hada, M. Ehara, K. Toyota, R. Fukuda, 
 J. Hasegawa, M. Ishida, T. Nakajima, Y. Honda, O. Kitao, H. Nakai, 
 T. Vreven, K. Throssell, J. A. Montgomery, Jr., J. E. Peralta, 
 F. Ogliaro, M. J. Bearpark, J. J. Heyd, E. N. Brothers, K. N. Kudin, 
 V. N. Staroverov, T. A. Keith, R. Kobayashi, J. Normand, 
 K. Raghavachari, A. P. Rendell, J. C. Burant, S. S. Iyengar, 
 J. Tomasi, M. Cossi, J. M. Millam, M. Klene, C. Adamo, R. Cammi, 
 J. W. Ochterski, R. L. Martin, K. Morokuma, O. Farkas, 
 J. B. Foresman, and D. J. Fox, Gaussian, Inc., Wallingford CT, 2019.
 
 ******************************************
 Gaussian 16:  ES64L-G16RevC.01  3-Jul-2019
                18-Dec-2023 
 ******************************************
 %chk=TS-92_sqm.chk
 ----------------------------------------------------------------------
 # wb97xd def2svp geom=allchk scrf=(iefpcm,solvent=toluene) opt=(readfc
 ,ts,noeigen,maxcycles=50,maxstep=10)
 ----------------------------------------------------------------------
 1/5=1,6=50,8=10,10=3,11=1,18=20,26=3,29=7,38=1/1,3;
 2/9=110,12=2,40=1/2;
 3/5=43,7=101,11=2,14=-4,25=1,30=1,70=2201,71=1,72=13,74=-58/1,2,3;
 4//1;
 5/5=2,38=5,53=13/2;
 6/7=2,8=2,9=2,10=2,28=1/1;
 7//1,2,3,16;
 1/5=1,6=50,8=10,11=1,18=20,26=3/3(2);
 2/9=110/2;
 99//99;
 2/9=110/2;
 3/5=43,7=101,11=2,14=-2,25=1,30=1,70=2205,71=1,72=13,74=-58/1,2,3;
 4/5=5,16=3,69=1/1;
 5/5=2,38=5,53=13/2;
 7//1,2,3,16;
 1/5=1,6=50,8=10,11=1,18=20,26=3/3(-5);
 2/9=110/2;
 6/7=2,8=2,9=2,10=2,19=2,28=1/1;
 99/9=1/99;
 Structure from the checkpoint file:  "TS-92_sqm.chk"
 ---------
 TS-92.out
 ---------
 Charge =  0 Multiplicity = 1
 Redundant internal coordinates found in file.  (old form).
 C,0,-0.87928,-0.55459,-0.05744
 C,0,-2.31097,-0.56698,0.32688
 O,0,-2.83902,0.06048,1.22807
 C,0,0.05462,0.36056,0.34941
 C,0,-1.20942,2.68407,-1.2147
 H,0,-1.44793,3.29597,-0.34076
 H,0,-0.91365,3.34572,-2.03408
 H,0,-2.10567,2.13353,-1.51308
 N,0,-0.12177,1.7467,-0.90187
 H,0,0.12756,1.30557,-1.791
 H,0,0.70184,2.32093,-0.68976
 C,0,1.51057,-0.0897,0.14733
 C,0,1.9577,-0.60853,-1.08451
 C,0,3.28398,-1.01261,-1.2681
 C,0,4.19459,-0.90894,-0.22219
 C,0,3.77842,-0.4034,1.00528
 C,0,2.45111,0.00129,1.18729
 H,0,1.2763,-0.69856,-1.92641
 H,0,3.60229,-1.40804,-2.22904
 H,0,5.22512,-1.22389,-0.36147
 H,0,4.48414,-0.32546,1.82841
 H,0,2.16858,0.37496,2.16756
 C,0,-0.22294,1.22946,1.59871
 H,0,-1.17748,1.76087,1.54145
 H,0,-0.23226,0.60478,2.49917
 H,0,0.54738,1.99946,1.72671
 H,0,-0.61136,-1.35703,-0.73568
 O,0,-2.94387,-1.43371,-0.51091
 C,0,-4.34328,-1.55744,-0.25809
 H,0,-4.75678,-2.26592,-0.98121
 H,0,-4.51844,-1.94929,0.74876
 H,0,-4.84479,-0.59384,-0.39285
 Recover connectivity data from disk.

 GradGradGradGradGradGradGradGradGradGradGradGradGradGradGradGradGradGrad
 Berny optimization.
 Initialization pass.
 Force constant matrix read from checkpoint file:
 "TS-92_sqm.chk"
                           ----------------------------
                           !    Initial Parameters    !
                           ! (Angstroms and Degrees)  !
 --------------------------                            --------------------------
 ! Name  Definition              Value          Derivative Info.                !
 --------------------------------------------------------------------------------
 ! R1    R(1,2)                  1.4824         D2E/DX2 =    0.3674             !
 ! R2    R(1,4)                  1.3694         D2E/DX2 =    0.6494             !
 ! R3    R(1,27)                 1.0843         D2E/DX2 =    0.2757             !
 ! R4    R(2,3)                  1.2185         D2E/DX2 =    0.8159             !
 ! R5    R(2,28)                 1.3615         D2E/DX2 =    0.4546             !
 ! R6    R(4,9)                  1.8757         D2E/DX2 =    0.0265             !
 ! R7    R(4,12)                 1.5373         D2E/DX2 =    0.3293             !
 ! R8    R(4,23)                 1.5469         D2E/DX2 =    0.3247             !
 ! R9    R(5,6)                  1.0932         D2E/DX2 =    0.2697             !
 ! R10   R(5,7)                  1.0939         D2E/DX2 =    0.2674             !
 ! R11   R(5,8)                  1.0933         D2E/DX2 =    0.27               !
 ! R12   R(5,9)                  1.4695         D2E/DX2 =    0.4846             !
 ! R13   R(9,10)                 1.0234         D2E/DX2 =    0.2843             !
 ! R14   R(9,11)                 1.0262         D2E/DX2 =    0.2827             !
 ! R15   R(12,13)                1.4094         D2E/DX2 =    0.4384             !
 ! R16   R(12,17)                1.4051         D2E/DX2 =    0.4481             !
 ! R17   R(13,14)                1.3986         D2E/DX2 =    0.4614             !
 ! R18   R(13,18)                1.0868         D2E/DX2 =    0.2727             !
 ! R19   R(14,15)                1.3906         D2E/DX2 =    0.4842             !
 ! R20   R(14,19)                1.0868         D2E/DX2 =    0.2737             !
 ! R21   R(15,16)                1.3912         D2E/DX2 =    0.4822             !
 ! R22   R(15,20)                1.0865         D2E/DX2 =    0.2742             !
 ! R23   R(16,17)                1.3995         D2E/DX2 =    0.4592             !
 ! R24   R(16,21)                1.087          D2E/DX2 =    0.2736             !
 ! R25   R(17,22)                1.0865         D2E/DX2 =    0.2728             !
 ! R26   R(23,24)                1.094          D2E/DX2 =    0.2667             !
 ! R27   R(23,25)                1.096          D2E/DX2 =    0.2648             !
 ! R28   R(23,26)                1.0967         D2E/DX2 =    0.2649             !
 ! R29   R(28,29)                1.4274         D2E/DX2 =    0.4194             !
 ! R30   R(29,30)                1.0935         D2E/DX2 =    0.2654             !
 ! R31   R(29,31)                1.0945         D2E/DX2 =    0.263              !
 ! R32   R(29,32)                1.0946         D2E/DX2 =    0.2633             !
 ! A1    A(2,1,4)              125.9591         D2E/DX2 =    0.1194             !
 ! A2    A(2,1,27)             113.2418         D2E/DX2 =    0.0928             !
 ! A3    A(4,1,27)             120.7909         D2E/DX2 =    0.0932             !
 ! A4    A(1,2,3)              127.299          D2E/DX2 =    0.1254             !
 ! A5    A(1,2,28)             107.1418         D2E/DX2 =    0.1376             !
 ! A6    A(3,2,28)             125.5545         D2E/DX2 =    0.1384             !
 ! A7    A(1,4,9)              103.3877         D2E/DX2 =    0.023              !
 ! A8    A(1,4,12)             114.274          D2E/DX2 =    0.0361             !
 ! A9    A(1,4,23)             119.5363         D2E/DX2 =    0.0335             !
 ! A10   A(9,4,12)             102.5808         D2E/DX2 =    0.0212             !
 ! A11   A(9,4,23)              96.1304         D2E/DX2 =    0.0376             !
 ! A12   A(12,4,23)            116.1434         D2E/DX2 =    0.0351             !
 ! A13   A(6,5,7)              108.6171         D2E/DX2 =    0.0437             !
 ! A14   A(6,5,8)              108.7339         D2E/DX2 =    0.0434             !
 ! A15   A(6,5,9)              110.3856         D2E/DX2 =    0.1068             !
 ! A16   A(7,5,8)              108.771          D2E/DX2 =    0.0433             !
 ! A17   A(7,5,9)              110.1911         D2E/DX2 =    0.1122             !
 ! A18   A(8,5,9)              110.0975         D2E/DX2 =    0.1058             !
 ! A19   A(4,9,5)              133.0789         D2E/DX2 =    0.052              !
 ! A20   A(4,9,10)             103.7763         D2E/DX2 =    0.0448             !
 ! A21   A(4,9,11)             101.5466         D2E/DX2 =    0.0437             !
 ! A22   A(5,9,10)             105.6836         D2E/DX2 =    0.0632             !
 ! A23   A(5,9,11)             106.3253         D2E/DX2 =    0.0601             !
 ! A24   A(10,9,11)            103.0175         D2E/DX2 =    0.0128             !
 ! A25   A(4,12,13)            121.5435         D2E/DX2 =    0.1233             !
 ! A26   A(4,12,17)            121.1764         D2E/DX2 =    0.1289             !
 ! A27   A(13,12,17)           117.2801         D2E/DX2 =    0.081              !
 ! A28   A(12,13,14)           121.4613         D2E/DX2 =    0.0779             !
 ! A29   A(12,13,18)           120.572          D2E/DX2 =    0.0776             !
 ! A30   A(14,13,18)           117.965          D2E/DX2 =    0.0792             !
 ! A31   A(13,14,15)           120.0462         D2E/DX2 =    0.0761             !
 ! A32   A(13,14,19)           119.9305         D2E/DX2 =    0.0763             !
 ! A33   A(15,14,19)           120.0233         D2E/DX2 =    0.0764             !
 ! A34   A(14,15,16)           119.6562         D2E/DX2 =    0.0758             !
 ! A35   A(14,15,20)           120.201          D2E/DX2 =    0.0762             !
 ! A36   A(16,15,20)           120.1425         D2E/DX2 =    0.0762             !
 ! A37   A(15,16,17)           120.2339         D2E/DX2 =    0.0762             !
 ! A38   A(15,16,21)           119.9966         D2E/DX2 =    0.0765             !
 ! A39   A(17,16,21)           119.769          D2E/DX2 =    0.0764             !
 ! A40   A(12,17,16)           121.3218         D2E/DX2 =    0.0774             !
 ! A41   A(12,17,22)           121.0633         D2E/DX2 =    0.0792             !
 ! A42   A(16,17,22)           117.6084         D2E/DX2 =    0.0813             !
 ! A43   A(4,23,24)            112.777          D2E/DX2 =    0.0927             !
 ! A44   A(4,23,25)            110.177          D2E/DX2 =    0.0832             !
 ! A45   A(4,23,26)            111.2615         D2E/DX2 =    0.0926             !
 ! A46   A(24,23,25)           108.2072         D2E/DX2 =    0.041              !
 ! A47   A(24,23,26)           106.1367         D2E/DX2 =    0.0413             !
 ! A48   A(25,23,26)           108.0759         D2E/DX2 =    0.0395             !
 ! A49   A(2,28,29)            113.6984         D2E/DX2 =    0.295              !
 ! A50   A(28,29,30)           108.0438         D2E/DX2 =    0.109              !
 ! A51   A(28,29,31)           110.5394         D2E/DX2 =    0.1168             !
 ! A52   A(28,29,32)           110.5517         D2E/DX2 =    0.1178             !
 ! A53   A(30,29,31)           108.4114         D2E/DX2 =    0.0523             !
 ! A54   A(30,29,32)           108.4017         D2E/DX2 =    0.0526             !
 ! A55   A(31,29,32)           110.7988         D2E/DX2 =    0.0525             !
 ! D1    D(4,1,2,3)            -14.2205         D2E/DX2 =    0.011              !
 ! D2    D(4,1,2,28)           166.5336         D2E/DX2 =    0.0127             !
 ! D3    D(27,1,2,3)           166.8222         D2E/DX2 =    0.0114             !
 ! D4    D(27,1,2,28)          -12.4237         D2E/DX2 =    0.013              !
 ! D5    D(2,1,4,9)            -86.5301         D2E/DX2 =    0.0131             !
 ! D6    D(2,1,4,12)           162.8021         D2E/DX2 =    0.0096             !
 ! D7    D(2,1,4,23)            18.601          D2E/DX2 =    0.0103             !
 ! D8    D(27,1,4,9)            92.3545         D2E/DX2 =    0.0127             !
 ! D9    D(27,1,4,12)          -18.3133         D2E/DX2 =    0.0084             !
 ! D10   D(27,1,4,23)         -162.5144         D2E/DX2 =    0.0107             !
 ! D11   D(1,2,28,29)          179.7825         D2E/DX2 =    0.0203             !
 ! D12   D(3,2,28,29)            0.5198         D2E/DX2 =    0.0147             !
 ! D13   D(1,4,9,5)             65.0384         D2E/DX2 =    0.0149             !
 ! D14   D(1,4,9,10)           -62.575          D2E/DX2 =    0.0163             !
 ! D15   D(1,4,9,11)          -169.2416         D2E/DX2 =    0.0164             !
 ! D16   D(12,4,9,5)          -175.8772         D2E/DX2 =    0.0151             !
 ! D17   D(12,4,9,10)           56.5093         D2E/DX2 =    0.0166             !
 ! D18   D(12,4,9,11)          -50.1572         D2E/DX2 =    0.0168             !
 ! D19   D(23,4,9,5)           -57.3207         D2E/DX2 =    0.0151             !
 ! D20   D(23,4,9,10)          175.0659         D2E/DX2 =    0.0165             !
 ! D21   D(23,4,9,11)           68.3993         D2E/DX2 =    0.0167             !
 ! D22   D(1,4,12,13)           49.5163         D2E/DX2 =    0.0076             !
 ! D23   D(1,4,12,17)         -130.5307         D2E/DX2 =    0.007              !
 ! D24   D(9,4,12,13)          -61.6384         D2E/DX2 =    0.0136             !
 ! D25   D(9,4,12,17)          118.3146         D2E/DX2 =    0.0129             !
 ! D26   D(23,4,12,13)        -165.0197         D2E/DX2 =    0.0086             !
 ! D27   D(23,4,12,17)          14.9333         D2E/DX2 =    0.0081             !
 ! D28   D(1,4,23,24)          -53.5296         D2E/DX2 =    0.0114             !
 ! D29   D(1,4,23,25)           67.4902         D2E/DX2 =    0.0105             !
 ! D30   D(1,4,23,26)         -172.6623         D2E/DX2 =    0.0113             !
 ! D31   D(9,4,23,24)           55.6488         D2E/DX2 =    0.0129             !
 ! D32   D(9,4,23,25)          176.6686         D2E/DX2 =    0.0124             !
 ! D33   D(9,4,23,26)          -63.4839         D2E/DX2 =    0.0125             !
 ! D34   D(12,4,23,24)         162.9115         D2E/DX2 =    0.0112             !
 ! D35   D(12,4,23,25)         -76.0687         D2E/DX2 =    0.0103             !
 ! D36   D(12,4,23,26)          43.7788         D2E/DX2 =    0.0106             !
 ! D37   D(6,5,9,4)             60.5083         D2E/DX2 =    0.0086             !
 ! D38   D(6,5,9,10)          -172.5369         D2E/DX2 =    0.012              !
 ! D39   D(6,5,9,11)           -63.509          D2E/DX2 =    0.012              !
 ! D40   D(7,5,9,4)           -179.5226         D2E/DX2 =    0.0086             !
 ! D41   D(7,5,9,10)           -52.5678         D2E/DX2 =    0.0115             !
 ! D42   D(7,5,9,11)            56.4601         D2E/DX2 =    0.0118             !
 ! D43   D(8,5,9,4)            -59.546          D2E/DX2 =    0.0088             !
 ! D44   D(8,5,9,10)            67.4088         D2E/DX2 =    0.0118             !
 ! D45   D(8,5,9,11)           176.4367         D2E/DX2 =    0.0125             !
 ! D46   D(4,12,13,14)         179.7378         D2E/DX2 =    0.0063             !
 ! D47   D(4,12,13,18)           0.2201         D2E/DX2 =    0.0067             !
 ! D48   D(17,12,13,14)         -0.217          D2E/DX2 =    0.0063             !
 ! D49   D(17,12,13,18)       -179.7347         D2E/DX2 =    0.007              !
 ! D50   D(4,12,17,16)        -179.7762         D2E/DX2 =    0.0064             !
 ! D51   D(4,12,17,22)           1.1756         D2E/DX2 =    0.0067             !
 ! D52   D(13,12,17,16)          0.1788         D2E/DX2 =    0.0064             !
 ! D53   D(13,12,17,22)       -178.8694         D2E/DX2 =    0.0067             !
 ! D54   D(12,13,14,15)          0.0946         D2E/DX2 =    0.0082             !
 ! D55   D(12,13,14,19)       -179.9218         D2E/DX2 =    0.008              !
 ! D56   D(18,13,14,15)        179.6245         D2E/DX2 =    0.008              !
 ! D57   D(18,13,14,19)         -0.392          D2E/DX2 =    0.0087             !
 ! D58   D(13,14,15,16)          0.0735         D2E/DX2 =    0.0085             !
 ! D59   D(13,14,15,20)        179.8832         D2E/DX2 =    0.0081             !
 ! D60   D(19,14,15,16)       -179.9101         D2E/DX2 =    0.0079             !
 ! D61   D(19,14,15,20)         -0.1003         D2E/DX2 =    0.0089             !
 ! D62   D(14,15,16,17)         -0.1111         D2E/DX2 =    0.0084             !
 ! D63   D(14,15,16,21)        179.6361         D2E/DX2 =    0.0079             !
 ! D64   D(20,15,16,17)       -179.9209         D2E/DX2 =    0.0081             !
 ! D65   D(20,15,16,21)         -0.1738         D2E/DX2 =    0.0089             !
 ! D66   D(15,16,17,12)         -0.0186         D2E/DX2 =    0.0082             !
 ! D67   D(15,16,17,22)        179.0614         D2E/DX2 =    0.0077             !
 ! D68   D(21,16,17,12)       -179.7662         D2E/DX2 =    0.008              !
 ! D69   D(21,16,17,22)         -0.6863         D2E/DX2 =    0.0086             !
 ! D70   D(2,28,29,30)         179.6925         D2E/DX2 =    0.0204             !
 ! D71   D(2,28,29,31)         -61.8324         D2E/DX2 =    0.0199             !
 ! D72   D(2,28,29,32)          61.222          D2E/DX2 =    0.02               !
 --------------------------------------------------------------------------------
 Trust Radius=1.00D-01 FncErr=1.00D-07 GrdErr=1.00D-06 EigMax=2.50D+02 EigMin=1.00D-04
 Number of steps in this run=     50 maximum allowed number of steps=    192.
 Search for a saddle point of order  1.
 GradGradGradGradGradGradGradGradGradGradGradGradGradGradGradGradGradGrad

                          Input orientation:                          
 ---------------------------------------------------------------------
 Center     Atomic      Atomic             Coordinates (Angstroms)
 Number     Number       Type             X           Y           Z
 ---------------------------------------------------------------------
      1          6           0       -0.879280   -0.554590   -0.057440
      2          6           0       -2.310970   -0.566980    0.326880
      3          8           0       -2.839020    0.060480    1.228070
      4          6           0        0.054620    0.360560    0.349410
      5          6           0       -1.209420    2.684070   -1.214700
      6          1           0       -1.447930    3.295970   -0.340760
      7          1           0       -0.913650    3.345720   -2.034080
      8          1           0       -2.105670    2.133530   -1.513080
      9          7           0       -0.121770    1.746700   -0.901870
     10          1           0        0.127560    1.305570   -1.791000
     11          1           0        0.701840    2.320930   -0.689760
     12          6           0        1.510570   -0.089700    0.147330
     13          6           0        1.957700   -0.608530   -1.084510
     14          6           0        3.283980   -1.012610   -1.268100
     15          6           0        4.194590   -0.908940   -0.222190
     16          6           0        3.778420   -0.403400    1.005280
     17          6           0        2.451110    0.001290    1.187290
     18          1           0        1.276300   -0.698560   -1.926410
     19          1           0        3.602290   -1.408040   -2.229040
     20          1           0        5.225120   -1.223890   -0.361470
     21          1           0        4.484140   -0.325460    1.828410
     22          1           0        2.168580    0.374960    2.167560
     23          6           0       -0.222940    1.229460    1.598710
     24          1           0       -1.177480    1.760870    1.541450
     25          1           0       -0.232260    0.604780    2.499170
     26          1           0        0.547380    1.999460    1.726710
     27          1           0       -0.611360   -1.357030   -0.735680
     28          8           0       -2.943870   -1.433710   -0.510910
     29          6           0       -4.343280   -1.557440   -0.258090
     30          1           0       -4.756780   -2.265920   -0.981210
     31          1           0       -4.518440   -1.949290    0.748760
     32          1           0       -4.844790   -0.593840   -0.392850
 ---------------------------------------------------------------------
                    Distance matrix (angstroms):
                    1          2          3          4          5
     1  C    0.000000
     2  C    1.482428   0.000000
     3  O    2.423103   1.218477   0.000000
     4  C    1.369378   2.541034   3.038954   0.000000
     5  C    3.455020   3.762872   3.937759   3.072936   0.000000
     6  H    3.902620   4.014096   3.855484   3.369069   1.093197
     7  H    4.372723   4.778688   5.014127   3.940781   1.093912
     8  H    3.293768   3.274195   3.514149   3.358444   1.093338
     9  N    2.565701   3.414021   3.842321   1.875686   1.469526
    10  H    2.734804   3.733402   4.411987   2.340880   2.004969
    11  H    3.341913   4.295417   4.617943   2.311237   2.015030
    12  C    2.443243   3.855412   4.484360   1.537323   4.116706
    13  C    3.017654   4.496142   5.366947   2.572348   4.570428
    14  C    4.359841   5.834896   6.698770   3.864026   5.818843
    15  C    5.088896   6.537639   7.246703   4.367804   6.564916
    16  C    4.779791   6.129246   6.637419   3.857523   6.272107
    17  C    3.598590   4.872437   5.290618   2.564036   5.134817
    18  H    2.856624   4.238294   5.240491   2.791701   4.257643
    19  H    5.052593   6.496672   7.456449   4.728881   6.397406
    20  H    6.148504   7.595921   8.319050   5.454347   7.576507
    21  H    5.689921   6.963221   7.357855   4.720033   7.122809
    22  H    3.886404   4.933733   5.104664   2.788316   5.308724
    23  C    2.521200   3.033911   2.889250   1.546860   3.317274
    24  H    2.829616   2.859872   2.397968   2.213571   2.906834
    25  H    2.880803   3.226903   2.950789   2.182524   4.367049
    26  H    3.426620   4.088558   3.933954   2.196761   3.493842
    27  H    1.084297   2.154504   3.290611   2.138005   4.113104
    28  O    2.289327   1.361497   2.295136   3.598680   4.523245
    29  C    3.611823   2.335270   2.662543   4.836249   5.359719
    30  H    4.337857   3.252612   3.737761   5.640790   6.094316
    31  H    3.979778   2.638501   2.662586   5.138849   6.022692
    32  H    3.979863   2.634194   2.660569   5.046390   4.963471
                    6          7          8          9         10
     6  H    0.000000
     7  H    1.776306   0.000000
     8  H    1.777139   1.778133   0.000000
     9  N    2.115132   2.113253   2.111652   0.000000
    10  H    2.923535   2.303349   2.397931   1.023383   0.000000
    11  H    2.386214   2.338204   2.931738   1.026189   1.604208
    12  C    4.522578   4.736824   4.558169   2.671651   2.759822
    13  C    5.234176   4.978195   4.920726   3.147167   2.740861
    14  C    6.466436   6.099333   6.245522   4.398528   3.950996
    15  C    7.037994   6.890515   7.114513   5.113253   4.889371
    16  C    6.543080   6.731206   6.884814   4.844753   4.905970
    17  C    5.328449   5.734461   5.709876   3.745765   3.996279
    18  H    5.088417   4.600399   4.430496   2.997262   2.313974
    19  H    7.155280   6.559722   6.755451   5.057903   4.430497
    20  H    8.059725   7.833483   8.144873   6.140494   5.867439
    21  H    7.280763   7.585020   7.787027   5.741314   5.894080
    22  H    5.282340   5.998278   5.908375   4.068018   4.549944
    23  C    3.087492   4.260610   3.747700   2.555518   3.408633
    24  H    2.443847   3.919920   3.214120   2.661679   3.607721
    25  H    4.097018   5.341105   4.684538   3.589326   4.361896
    26  H    3.152242   4.253301   4.189617   2.724166   3.609988
    27  H    4.744072   4.888055   3.875735   3.146499   2.957895
    28  O    4.963533   5.411542   3.798964   4.269907   4.309985
    29  C    5.652033   6.241593   4.495015   5.399346   5.525853
    30  H    6.503329   6.882491   5.163955   6.131128   6.104759
    31  H    6.174774   6.983970   5.254217   5.976255   6.215288
    32  H    5.164493   5.802381   4.024455   5.295672   5.503349
                   11         12         13         14         15
    11  H    0.000000
    12  C    2.676920   0.000000
    13  C    3.211658   1.409447   0.000000
    14  C    4.256103   2.449528   1.398572   0.000000
    15  C    4.780166   2.830488   2.416096   1.390642   0.000000
    16  C    4.445276   2.444919   2.779266   2.404967   1.391205
    17  C    3.458900   1.405138   2.403416   2.783991   2.419685
    18  H    3.313099   2.173934   1.086833   2.136066   3.386007
    19  H    4.968623   3.429351   2.157276   1.086780   2.151132
    20  H    5.756178   3.917033   3.402571   2.152822   1.086547
    21  H    5.258360   3.423993   3.866281   3.391303   2.151569
    22  H    3.755317   2.174906   3.404068   3.869525   3.385856
    23  C    2.698818   2.617584   3.915746   5.054104   5.234788
    24  H    2.970490   3.548773   4.726423   5.957381   6.252795
    25  H    3.739918   3.008473   4.371591   5.401131   5.412407
    26  H    2.442648   2.790478   4.085777   5.052765   5.055605
    27  H    3.905636   2.624580   2.698519   3.946615   4.854030
    28  O    5.236460   4.699115   5.003531   6.287828   7.163543
    29  C    6.378192   6.048652   6.425399   7.713109   8.562538
    30  H    7.135872   6.729726   6.916781   8.142906   9.085402
    31  H    6.896045   6.337883   6.862864   8.113128   8.828475
    32  H    6.272890   6.398168   6.837578   8.186473   9.046480
                   16         17         18         19         20
    16  C    0.000000
    17  C    1.399519   0.000000
    18  H    3.865557   3.400749   0.000000
    19  H    3.391334   3.870754   2.450546   0.000000
    20  H    2.152708   3.405122   4.279975   2.480989   0.000000
    21  H    1.087041   2.156620   4.952587   4.290983   2.480283
    22  H    2.132680   1.086454   4.325413   4.956279   4.277236
    23  C    4.362255   2.971231   4.288526   6.020005   6.288290
    24  H    5.434380   4.048236   4.908756   6.863293   7.315954
    25  H    4.397009   3.047245   4.853886   6.411801   6.427308
    26  H    4.090699   2.812089   4.599557   6.049090   6.052415
    27  H    4.817730   3.862845   2.326947   4.470746   5.849979
    28  O    6.967751   5.835145   4.511532   6.767927   8.173050
    29  C    8.299995   7.119164   5.924580   8.187738   9.574770
    30  H    8.959060   7.861063   6.304607   8.495121  10.055259
    31  H    8.443546   7.250634   6.503835   8.666401   9.833401
    32  H    8.737894   7.488737   6.311142   8.682608  10.089650
                   21         22         23         24         25
    21  H    0.000000
    22  H    2.442832   0.000000
    23  C    4.962574   2.602523   0.000000
    24  H    6.040618   3.675443   1.093994   0.000000
    25  H    4.853833   2.434505   1.095965   1.774038   0.000000
    26  H    4.573147   2.337015   1.096666   1.751111   1.774730
    27  H    5.796793   4.376832   3.505735   3.902193   3.802193
    28  O    7.866128   6.048358   4.352750   4.187799   4.535290
    29  C    9.153939   7.212646   5.309588   4.926643   5.401682
    30  H    9.851596   8.052926   6.279281   5.948970   6.389464
    31  H    9.211347   7.220206   5.410932   5.055260   5.287584
    32  H    9.593485   7.528720   5.352778   4.768159   5.574576
                   26         27         28         29         30
    26  H    0.000000
    27  H    4.321119   0.000000
    28  O    5.383533   2.344569   0.000000
    29  C    6.364709   3.767689   1.427437   0.000000
    30  H    7.325327   4.250985   2.049487   1.093540   0.000000
    31  H    6.497041   4.221328   2.081313   1.094520   1.774784
    32  H    6.347695   4.315312   2.081542   1.094622   1.774758
                   31         32
    31  H    0.000000
    32  H    1.801950   0.000000
 Stoichiometry    C12H17NO2
 Framework group  C1[X(C12H17NO2)]
 Deg. of freedom    90
 Full point group                 C1      NOp   1
 Largest Abelian subgroup         C1      NOp   1
 Largest concise Abelian subgroup C1      NOp   1
                         Standard orientation:                         
 ---------------------------------------------------------------------
 Center     Atomic      Atomic             Coordinates (Angstroms)
 Number     Number       Type             X           Y           Z
 ---------------------------------------------------------------------
      1          6           0       -0.879280   -0.554589   -0.057441
      2          6           0       -2.310970   -0.566979    0.326879
      3          8           0       -2.839019    0.060481    1.228069
      4          6           0        0.054621    0.360560    0.349409
      5          6           0       -1.209419    2.684071   -1.214701
      6          1           0       -1.447929    3.295971   -0.340761
      7          1           0       -0.913649    3.345721   -2.034081
      8          1           0       -2.105669    2.133531   -1.513081
      9          7           0       -0.121769    1.746700   -0.901871
     10          1           0        0.127561    1.305570   -1.791001
     11          1           0        0.701841    2.320930   -0.689761
     12          6           0        1.510571   -0.089700    0.147329
     13          6           0        1.957700   -0.608530   -1.084511
     14          6           0        3.283980   -1.012611   -1.268101
     15          6           0        4.194590   -0.908941   -0.222191
     16          6           0        3.778420   -0.403401    1.005279
     17          6           0        2.451111    0.001290    1.187289
     18          1           0        1.276300   -0.698560   -1.926411
     19          1           0        3.602290   -1.408041   -2.229041
     20          1           0        5.225120   -1.223891   -0.361471
     21          1           0        4.484140   -0.325461    1.828409
     22          1           0        2.168581    0.374960    2.167559
     23          6           0       -0.222939    1.229460    1.598709
     24          1           0       -1.177479    1.760871    1.541449
     25          1           0       -0.232259    0.604780    2.499169
     26          1           0        0.547381    1.999460    1.726709
     27          1           0       -0.611360   -1.357029   -0.735681
     28          8           0       -2.943870   -1.433709   -0.510911
     29          6           0       -4.343280   -1.557438   -0.258091
     30          1           0       -4.756780   -2.265918   -0.981211
     31          1           0       -4.518440   -1.949288    0.748759
     32          1           0       -4.844790   -0.593838   -0.392851
 ---------------------------------------------------------------------
 Rotational constants (GHZ):           1.0108139           0.3191615           0.2988232
 Standard basis: def2SVP (5D, 7F)
 There are   310 symmetry adapted cartesian basis functions of A   symmetry.
 There are   295 symmetry adapted basis functions of A   symmetry.
   295 basis functions,   494 primitive gaussians,   310 cartesian basis functions
    56 alpha electrons       56 beta electrons
       nuclear repulsion energy       993.9113776794 Hartrees.
 NAtoms=   32 NActive=   32 NUniq=   32 SFac= 1.00D+00 NAtFMM=   60 NAOKFM=F Big=F
 Integral buffers will be    131072 words long.
 Raffenetti 2 integral format.
 Two-electron integral symmetry is turned on.
 Nuclear repulsion after empirical dispersion term =      993.8884676301 Hartrees.
 ------------------------------------------------------------------------------
 Polarizable Continuum Model (PCM)
 =================================
 Model                : PCM.
 Atomic radii         : UFF (Universal Force Field).
 Polarization charges : Total charges.
 Charge compensation  : None.
 Solution method      : On-the-fly selection.
 Cavity type          : Scaled VdW (van der Waals Surface) (Alpha=1.100).
 Cavity algorithm     : GePol (No added spheres)
                        Default sphere list used, NSphG=   32.
                        Lebedev-Laikov grids with approx.  5.0 points / Ang**2.
                        Smoothing algorithm: York/Karplus (Gamma=1.0000).
                        Polarization charges: spherical gaussians, with
                                              point-specific exponents (IZeta= 3).
                        Self-potential: point-specific (ISelfS= 7).
                        Self-field    : sphere-specific E.n sum rule (ISelfD= 2).
 1st derivatives      : Analytical E(r).r(x)/FMM algorithm (CHGder, D1EAlg=3).
                        Cavity 1st derivative terms included.
 Solvent              : Toluene, Eps=   2.374100 Eps(inf)=   2.238315
 ------------------------------------------------------------------------------
 One-electron integrals computed using PRISM.
   1 Symmetry operations used in ECPInt.
 ECPInt:  NShTT=   10011 NPrTT=   35491 LenC2=    9404 LenP2D=   24359.
 LDataN:  DoStor=T MaxTD1= 4 Len=   56
 NBasis=   295 RedAO= T EigKep=  2.84D-04  NBF=   295
 NBsUse=   295 1.00D-06 EigRej= -1.00D+00 NBFU=   295
 ExpMin= 1.22D-01 ExpMax= 2.27D+03 ExpMxC= 3.41D+02 IAcc=3 IRadAn=         5 AccDes= 0.00D+00
 Harris functional with IExCor= 4639 and IRadAn=       5 diagonalized for initial guess.
 HarFok:  IExCor= 4639 AccDes= 0.00D+00 IRadAn=         5 IDoV= 1 UseB2=F ITyADJ=14
 ICtDFT=  3500011 ScaDFX=  1.000000  1.000000  1.000000  1.000000
 FoFCou: FMM=F IPFlag=           0 FMFlag=      100000 FMFlg1=           0
         NFxFlg=           0 DoJE=T BraDBF=F KetDBF=T FulRan=T
         wScrn=  0.000000 ICntrl=       500 IOpCl=  0 I1Cent=   200000004 NGrid=           0
         NMat0=    1 NMatS0=      1 NMatT0=    0 NMatD0=    1 NMtDS0=    0 NMtDT0=    0
 Petite list used in FoFCou.
 Requested convergence on RMS density matrix=1.00D-08 within 128 cycles.
 Requested convergence on MAX density matrix=1.00D-06.
 Requested convergence on             energy=1.00D-06.
 No special actions if energy rises.
 Inv3:  Mode=1 IEnd=    15787308.
 Iteration    1 A*A^-1 deviation from unit magnitude is 2.89D-15 for     71.
 Iteration    1 A*A^-1 deviation from orthogonality  is 2.26D-15 for   1787   1644.
 Iteration    1 A^-1*A deviation from unit magnitude is 2.78D-15 for    580.
 Iteration    1 A^-1*A deviation from orthogonality  is 1.55D-15 for   2156   1454.
 Error on total polarization charges =  0.00642
 SCF Done:  E(RwB97XD) =  -671.952845291     A.U. after   14 cycles
            NFock= 14  Conv=0.67D-08     -V/T= 2.0106

 **********************************************************************

            Population analysis using the SCF Density.

 **********************************************************************

 Orbital symmetries:
       Occupied  (A) (A) (A) (A) (A) (A) (A) (A) (A) (A) (A) (A)
                 (A) (A) (A) (A) (A) (A) (A) (A) (A) (A) (A) (A)
                 (A) (A) (A) (A) (A) (A) (A) (A) (A) (A) (A) (A)
                 (A) (A) (A) (A) (A) (A) (A) (A) (A) (A) (A) (A)
                 (A) (A) (A) (A) (A) (A) (A) (A)
       Virtual   (A) (A) (A) (A) (A) (A) (A) (A) (A) (A) (A) (A)
                 (A) (A) (A) (A) (A) (A) (A) (A) (A) (A) (A) (A)
                 (A) (A) (A) (A) (A) (A) (A) (A) (A) (A) (A) (A)
                 (A) (A) (A) (A) (A) (A) (A) (A) (A) (A) (A) (A)
                 (A) (A) (A) (A) (A) (A) (A) (A) (A) (A) (A) (A)
                 (A) (A) (A) (A) (A) (A) (A) (A) (A) (A) (A) (A)
                 (A) (A) (A) (A) (A) (A) (A) (A) (A) (A) (A) (A)
                 (A) (A) (A) (A) (A) (A) (A) (A) (A) (A) (A) (A)
                 (A) (A) (A) (A) (A) (A) (A) (A) (A) (A) (A) (A)
                 (A) (A) (A) (A) (A) (A) (A) (A) (A) (A) (A) (A)
                 (A) (A) (A) (A) (A) (A) (A) (A) (A) (A) (A) (A)
                 (A) (A) (A) (A) (A) (A) (A) (A) (A) (A) (A) (A)
                 (A) (A) (A) (A) (A) (A) (A) (A) (A) (A) (A) (A)
                 (A) (A) (A) (A) (A) (A) (A) (A) (A) (A) (A) (A)
                 (A) (A) (A) (A) (A) (A) (A) (A) (A) (A) (A) (A)
                 (A) (A) (A) (A) (A) (A) (A) (A) (A) (A) (A) (A)
                 (A) (A) (A) (A) (A) (A) (A) (A) (A) (A) (A) (A)
                 (A) (A) (A) (A) (A) (A) (A) (A) (A) (A) (A) (A)
                 (A) (A) (A) (A) (A) (A) (A) (A) (A) (A) (A) (A)
                 (A) (A) (A) (A) (A) (A) (A) (A) (A) (A) (A)
 The electronic state is 1-A.
 Alpha  occ. eigenvalues --  -19.26853 -19.20285 -14.48687 -10.38659 -10.34874
 Alpha  occ. eigenvalues --  -10.34027 -10.33147 -10.32049 -10.30928 -10.30772
 Alpha  occ. eigenvalues --  -10.30739 -10.30675 -10.30483 -10.28710 -10.23508
 Alpha  occ. eigenvalues --   -1.15902  -1.06801  -1.03020  -0.95870  -0.89458
 Alpha  occ. eigenvalues --   -0.84300  -0.82951  -0.80736  -0.78174  -0.76084
 Alpha  occ. eigenvalues --   -0.70642  -0.69593  -0.65712  -0.62383  -0.61978
 Alpha  occ. eigenvalues --   -0.59828  -0.57144  -0.55873  -0.55490  -0.54643
 Alpha  occ. eigenvalues --   -0.54266  -0.53637  -0.51926  -0.51444  -0.50781
 Alpha  occ. eigenvalues --   -0.49034  -0.48152  -0.47251  -0.46210  -0.46000
 Alpha  occ. eigenvalues --   -0.45189  -0.44008  -0.42695  -0.42596  -0.41540
 Alpha  occ. eigenvalues --   -0.41134  -0.36054  -0.33802  -0.33729  -0.32148
 Alpha  occ. eigenvalues --   -0.24425
 Alpha virt. eigenvalues --    0.03845   0.05328   0.10420   0.11623   0.14494
 Alpha virt. eigenvalues --    0.15875   0.16117   0.17448   0.18151   0.18736
 Alpha virt. eigenvalues --    0.19163   0.20494   0.21254   0.21478   0.22080
 Alpha virt. eigenvalues --    0.22728   0.23443   0.23713   0.24383   0.24754
 Alpha virt. eigenvalues --    0.25617   0.25839   0.27200   0.28277   0.29682
 Alpha virt. eigenvalues --    0.32344   0.35654   0.36562   0.38308   0.38653
 Alpha virt. eigenvalues --    0.39535   0.41102   0.42414   0.43281   0.45631
 Alpha virt. eigenvalues --    0.47151   0.49381   0.49422   0.50016   0.50908
 Alpha virt. eigenvalues --    0.52666   0.53897   0.54469   0.55477   0.55760
 Alpha virt. eigenvalues --    0.56550   0.57445   0.57987   0.58193   0.60797
 Alpha virt. eigenvalues --    0.62703   0.63143   0.64390   0.66124   0.66925
 Alpha virt. eigenvalues --    0.67303   0.68533   0.69610   0.70344   0.71873
 Alpha virt. eigenvalues --    0.72676   0.72849   0.73474   0.73796   0.74440
 Alpha virt. eigenvalues --    0.75015   0.75393   0.75522   0.75706   0.76217
 Alpha virt. eigenvalues --    0.76871   0.77245   0.78097   0.78372   0.79035
 Alpha virt. eigenvalues --    0.80200   0.81401   0.81531   0.82080   0.82995
 Alpha virt. eigenvalues --    0.83699   0.84417   0.84950   0.86362   0.87429
 Alpha virt. eigenvalues --    0.88172   0.90735   0.90989   0.92243   0.93358
 Alpha virt. eigenvalues --    0.97728   0.99615   0.99866   1.00888   1.04093
 Alpha virt. eigenvalues --    1.06604   1.07763   1.11536   1.13240   1.13971
 Alpha virt. eigenvalues --    1.14523   1.20394   1.21305   1.21866   1.27017
 Alpha virt. eigenvalues --    1.27797   1.28457   1.31230   1.32886   1.33496
 Alpha virt. eigenvalues --    1.35221   1.37151   1.37436   1.38141   1.39525
 Alpha virt. eigenvalues --    1.40964   1.42233   1.45463   1.47331   1.49243
 Alpha virt. eigenvalues --    1.51292   1.53291   1.56545   1.60417   1.60918
 Alpha virt. eigenvalues --    1.61879   1.64909   1.65520   1.66364   1.68318
 Alpha virt. eigenvalues --    1.70702   1.71824   1.74655   1.75263   1.76701
 Alpha virt. eigenvalues --    1.78314   1.79809   1.81001   1.82086   1.82845
 Alpha virt. eigenvalues --    1.83267   1.84361   1.84596   1.85227   1.86017
 Alpha virt. eigenvalues --    1.86685   1.86904   1.88737   1.89661   1.89952
 Alpha virt. eigenvalues --    1.91443   1.93778   1.94745   1.95781   1.96608
 Alpha virt. eigenvalues --    1.98144   1.98637   2.00392   2.00668   2.01051
 Alpha virt. eigenvalues --    2.03447   2.04116   2.04899   2.06031   2.06917
 Alpha virt. eigenvalues --    2.08616   2.09680   2.11607   2.12670   2.14296
 Alpha virt. eigenvalues --    2.15865   2.17524   2.18834   2.19799   2.21119
 Alpha virt. eigenvalues --    2.22342   2.24991   2.26019   2.27080   2.31288
 Alpha virt. eigenvalues --    2.33215   2.36066   2.37637   2.38373   2.39865
 Alpha virt. eigenvalues --    2.40199   2.41541   2.42868   2.43500   2.44326
 Alpha virt. eigenvalues --    2.44954   2.47150   2.50526   2.51907   2.53234
 Alpha virt. eigenvalues --    2.57558   2.60625   2.63062   2.64980   2.68476
 Alpha virt. eigenvalues --    2.70411   2.72210   2.73438   2.74993   2.76916
 Alpha virt. eigenvalues --    2.77238   2.78238   2.79455   2.82062   2.83100
 Alpha virt. eigenvalues --    2.83457   2.84087   2.86541   2.88702   2.90556
 Alpha virt. eigenvalues --    2.93955   2.95855   2.97179   2.98099   3.01421
 Alpha virt. eigenvalues --    3.05572   3.05882   3.06255   3.07053   3.08032
 Alpha virt. eigenvalues --    3.11781   3.13099   3.17745   3.20770   3.22631
 Alpha virt. eigenvalues --    3.30294   3.32705   3.34493   3.35309   3.51794
 Alpha virt. eigenvalues --    3.54360   3.71146   3.77931   3.79660
          Condensed to atoms (all electrons):
               1          2          3          4          5          6
     1  C    5.495750   0.363437  -0.097126   0.408288   0.003282   0.000326
     2  C    0.363437   4.451939   0.665625  -0.017181   0.001746  -0.000328
     3  O   -0.097126   0.665625   7.803062  -0.012617   0.000462  -0.000357
     4  C    0.408288  -0.017181  -0.012617   5.281882  -0.005589  -0.002806
     5  C    0.003282   0.001746   0.000462  -0.005589   4.495451   0.403718
     6  H    0.000326  -0.000328  -0.000357  -0.002806   0.403718   0.588305
     7  H   -0.001366   0.000003   0.000023   0.001974   0.406634  -0.023386
     8  H    0.008203   0.002708  -0.000419  -0.002356   0.402047  -0.016161
     9  N   -0.138782  -0.005282   0.000304   0.007567   0.316740  -0.024179
    10  H    0.002810  -0.000811  -0.000017   0.000869  -0.023588   0.007401
    11  H    0.008655   0.000077  -0.000017  -0.003565  -0.021267  -0.005737
    12  C   -0.059740   0.006950  -0.000137   0.289051   0.002521  -0.000003
    13  C   -0.010591  -0.000087  -0.000001  -0.088604  -0.000060   0.000031
    14  C    0.000606  -0.000000   0.000000   0.010046   0.000011   0.000000
    15  C    0.000030  -0.000000  -0.000000  -0.001371   0.000000   0.000000
    16  C   -0.000493   0.000006   0.000000   0.016375   0.000002   0.000000
    17  C    0.002761  -0.000149   0.000004  -0.078988  -0.000026  -0.000014
    18  H    0.004762   0.000005   0.000000  -0.013023  -0.000037  -0.000005
    19  H   -0.000006  -0.000000   0.000000  -0.000214  -0.000000  -0.000000
    20  H    0.000000   0.000000   0.000000   0.000022   0.000000   0.000000
    21  H    0.000002  -0.000000   0.000000  -0.000212  -0.000000  -0.000000
    22  H    0.000285  -0.000062  -0.000006  -0.028427  -0.000000  -0.000003
    23  C   -0.043469  -0.010295   0.003085   0.376993  -0.000880   0.004310
    24  H   -0.022065   0.004529   0.016716   0.006632   0.001783   0.002866
    25  H   -0.006887   0.001058   0.000921   0.005785  -0.000025  -0.000281
    26  H    0.010312   0.000590   0.000934  -0.023343  -0.001504   0.000214
    27  H    0.396436  -0.023398   0.004328  -0.052428  -0.000025  -0.000007
    28  O   -0.132222   0.355870  -0.069403   0.001059  -0.000144  -0.000004
    29  C    0.012806  -0.034348   0.001151  -0.000188  -0.000012   0.000001
    30  H    0.000008   0.005176   0.000801   0.000015  -0.000000   0.000000
    31  H    0.001355  -0.003805   0.006830  -0.000128  -0.000003   0.000000
    32  H    0.000273  -0.004493   0.007010   0.000281   0.000026  -0.000001
               7          8          9         10         11         12
     1  C   -0.001366   0.008203  -0.138782   0.002810   0.008655  -0.059740
     2  C    0.000003   0.002708  -0.005282  -0.000811   0.000077   0.006950
     3  O    0.000023  -0.000419   0.000304  -0.000017  -0.000017  -0.000137
     4  C    0.001974  -0.002356   0.007567   0.000869  -0.003565   0.289051
     5  C    0.406634   0.402047   0.316740  -0.023588  -0.021267   0.002521
     6  H   -0.023386  -0.016161  -0.024179   0.007401  -0.005737  -0.000003
     7  H    0.620789  -0.025959  -0.014781  -0.009574  -0.010129  -0.000179
     8  H   -0.025959   0.585336  -0.027871  -0.003902   0.008181   0.000216
     9  N   -0.014781  -0.027871   6.520445   0.328430   0.312128  -0.031712
    10  H   -0.009574  -0.003902   0.328430   0.553681  -0.010631  -0.007612
    11  H   -0.010129   0.008181   0.312128  -0.010631   0.569868   0.003905
    12  C   -0.000179   0.000216  -0.031712  -0.007612   0.003905   5.331771
    13  C   -0.000007  -0.000087  -0.006030   0.008468  -0.001578   0.296888
    14  C   -0.000000  -0.000000  -0.000212  -0.000155  -0.000213   0.061709
    15  C   -0.000000   0.000000  -0.000009   0.000033   0.000028  -0.138159
    16  C    0.000000  -0.000000  -0.000131  -0.000012  -0.000082   0.060311
    17  C   -0.000008   0.000014  -0.001542   0.000115   0.002088   0.348833
    18  H   -0.000019   0.000034  -0.002630   0.003716   0.000225  -0.074145
    19  H    0.000000   0.000000   0.000005   0.000004  -0.000002   0.014335
    20  H   -0.000000  -0.000000   0.000000  -0.000001  -0.000000  -0.001374
    21  H    0.000000  -0.000000   0.000001   0.000000  -0.000001   0.014445
    22  H   -0.000000   0.000000   0.000143  -0.000023  -0.000003  -0.053434
    23  C   -0.000281  -0.000232  -0.049529   0.003979  -0.001543  -0.070998
    24  H    0.000112  -0.000428  -0.001725   0.000209  -0.001033   0.007737
    25  H    0.000013  -0.000010   0.004647  -0.000257  -0.000232  -0.009087
    26  H    0.000023  -0.000068   0.003380  -0.000143   0.002029  -0.015751
    27  H    0.000001   0.000014  -0.000697   0.000929  -0.000014  -0.021995
    28  O    0.000001   0.000046   0.000173   0.000012  -0.000003  -0.000084
    29  C   -0.000000   0.000024  -0.000010  -0.000001   0.000000   0.000006
    30  H   -0.000000  -0.000001   0.000000  -0.000000   0.000000  -0.000000
    31  H    0.000000   0.000001   0.000003  -0.000000  -0.000000   0.000000
    32  H   -0.000000   0.000067  -0.000014   0.000002   0.000000   0.000001
              13         14         15         16         17         18
     1  C   -0.010591   0.000606   0.000030  -0.000493   0.002761   0.004762
     2  C   -0.000087  -0.000000  -0.000000   0.000006  -0.000149   0.000005
     3  O   -0.000001   0.000000  -0.000000   0.000000   0.000004   0.000000
     4  C   -0.088604   0.010046  -0.001371   0.016375  -0.078988  -0.013023
     5  C   -0.000060   0.000011   0.000000   0.000002  -0.000026  -0.000037
     6  H    0.000031   0.000000   0.000000   0.000000  -0.000014  -0.000005
     7  H   -0.000007  -0.000000  -0.000000   0.000000  -0.000008  -0.000019
     8  H   -0.000087  -0.000000   0.000000  -0.000000   0.000014   0.000034
     9  N   -0.006030  -0.000212  -0.000009  -0.000131  -0.001542  -0.002630
    10  H    0.008468  -0.000155   0.000033  -0.000012   0.000115   0.003716
    11  H   -0.001578  -0.000213   0.000028  -0.000082   0.002088   0.000225
    12  C    0.296888   0.061709  -0.138159   0.060311   0.348833  -0.074145
    13  C    5.132668   0.351247   0.065512  -0.127751   0.033453   0.445184
    14  C    0.351247   4.987325   0.311789   0.067258  -0.115830  -0.049951
    15  C    0.065512   0.311789   5.068935   0.310056   0.064460   0.013105
    16  C   -0.127751   0.067258   0.310056   5.036901   0.325546  -0.001617
    17  C    0.033453  -0.115830   0.064460   0.325546   5.051553   0.011787
    18  H    0.445184  -0.049951   0.013105  -0.001617   0.011787   0.652768
    19  H   -0.062084   0.448748  -0.067764   0.012763  -0.001771  -0.012411
    20  H    0.012715  -0.064993   0.448428  -0.063612   0.012645  -0.000224
    21  H   -0.001763   0.012753  -0.068700   0.448149  -0.060618   0.000021
    22  H    0.013345  -0.001742   0.013429  -0.064564   0.446929  -0.000150
    23  C    0.009982  -0.000244   0.000063  -0.000350   0.005824   0.000273
    24  H   -0.000068  -0.000000   0.000002  -0.000043   0.000068  -0.000012
    25  H   -0.000484   0.000021  -0.000022   0.000469   0.001768   0.000000
    26  H   -0.000464  -0.000026  -0.000058   0.000442   0.003852  -0.000027
    27  H    0.003534   0.000764  -0.000081   0.000032  -0.000471   0.001498
    28  O   -0.000046  -0.000000  -0.000000   0.000000   0.000000  -0.000060
    29  C    0.000001   0.000000  -0.000000   0.000000  -0.000000   0.000000
    30  H    0.000000  -0.000000   0.000000  -0.000000  -0.000000   0.000000
    31  H   -0.000000  -0.000000  -0.000000   0.000000   0.000000  -0.000000
    32  H    0.000000  -0.000000   0.000000   0.000000  -0.000000  -0.000000
              19         20         21         22         23         24
     1  C   -0.000006   0.000000   0.000002   0.000285  -0.043469  -0.022065
     2  C   -0.000000   0.000000  -0.000000  -0.000062  -0.010295   0.004529
     3  O    0.000000   0.000000   0.000000  -0.000006   0.003085   0.016716
     4  C   -0.000214   0.000022  -0.000212  -0.028427   0.376993   0.006632
     5  C   -0.000000   0.000000  -0.000000  -0.000000  -0.000880   0.001783
     6  H   -0.000000   0.000000  -0.000000  -0.000003   0.004310   0.002866
     7  H    0.000000  -0.000000   0.000000  -0.000000  -0.000281   0.000112
     8  H    0.000000  -0.000000  -0.000000   0.000000  -0.000232  -0.000428
     9  N    0.000005   0.000000   0.000001   0.000143  -0.049529  -0.001725
    10  H    0.000004  -0.000001   0.000000  -0.000023   0.003979   0.000209
    11  H   -0.000002  -0.000000  -0.000001  -0.000003  -0.001543  -0.001033
    12  C    0.014335  -0.001374   0.014445  -0.053434  -0.070998   0.007737
    13  C   -0.062084   0.012715  -0.001763   0.013345   0.009982  -0.000068
    14  C    0.448748  -0.064993   0.012753  -0.001742  -0.000244  -0.000000
    15  C   -0.067764   0.448428  -0.068700   0.013429   0.000063   0.000002
    16  C    0.012763  -0.063612   0.448149  -0.064564  -0.000350  -0.000043
    17  C   -0.001771   0.012645  -0.060618   0.446929   0.005824   0.000068
    18  H   -0.012411  -0.000224   0.000021  -0.000150   0.000273  -0.000012
    19  H    0.653514  -0.011103  -0.000218   0.000019   0.000003  -0.000000
    20  H   -0.011103   0.651848  -0.011033  -0.000223  -0.000000  -0.000000
    21  H   -0.000218  -0.011033   0.652897  -0.012274  -0.000004  -0.000000
    22  H    0.000019  -0.000223  -0.012274   0.653284   0.014964  -0.000061
    23  C    0.000003  -0.000000  -0.000004   0.014964   4.558428   0.374475
    24  H   -0.000000  -0.000000  -0.000000  -0.000061   0.374475   0.591537
    25  H   -0.000000  -0.000000   0.000003   0.000877   0.381149  -0.012631
    26  H    0.000000  -0.000000   0.000027  -0.000616   0.373133  -0.024379
    27  H    0.000035  -0.000001   0.000001  -0.000034   0.008480  -0.000166
    28  O    0.000000  -0.000000   0.000000  -0.000000   0.000297   0.000174
    29  C   -0.000000   0.000000  -0.000000  -0.000000  -0.000007  -0.000019
    30  H   -0.000000  -0.000000   0.000000   0.000000  -0.000001   0.000000
    31  H    0.000000  -0.000000  -0.000000  -0.000000   0.000011  -0.000024
    32  H   -0.000000  -0.000000  -0.000000   0.000000  -0.000035   0.000042
              25         26         27         28         29         30
     1  C   -0.006887   0.010312   0.396436  -0.132222   0.012806   0.000008
     2  C    0.001058   0.000590  -0.023398   0.355870  -0.034348   0.005176
     3  O    0.000921   0.000934   0.004328  -0.069403   0.001151   0.000801
     4  C    0.005785  -0.023343  -0.052428   0.001059  -0.000188   0.000015
     5  C   -0.000025  -0.001504  -0.000025  -0.000144  -0.000012  -0.000000
     6  H   -0.000281   0.000214  -0.000007  -0.000004   0.000001   0.000000
     7  H    0.000013   0.000023   0.000001   0.000001  -0.000000  -0.000000
     8  H   -0.000010  -0.000068   0.000014   0.000046   0.000024  -0.000001
     9  N    0.004647   0.003380  -0.000697   0.000173  -0.000010   0.000000
    10  H   -0.000257  -0.000143   0.000929   0.000012  -0.000001  -0.000000
    11  H   -0.000232   0.002029  -0.000014  -0.000003   0.000000   0.000000
    12  C   -0.009087  -0.015751  -0.021995  -0.000084   0.000006  -0.000000
    13  C   -0.000484  -0.000464   0.003534  -0.000046   0.000001   0.000000
    14  C    0.000021  -0.000026   0.000764  -0.000000   0.000000  -0.000000
    15  C   -0.000022  -0.000058  -0.000081  -0.000000  -0.000000   0.000000
    16  C    0.000469   0.000442   0.000032   0.000000   0.000000  -0.000000
    17  C    0.001768   0.003852  -0.000471   0.000000  -0.000000  -0.000000
    18  H    0.000000  -0.000027   0.001498  -0.000060   0.000000   0.000000
    19  H   -0.000000   0.000000   0.000035   0.000000  -0.000000  -0.000000
    20  H   -0.000000  -0.000000  -0.000001  -0.000000   0.000000  -0.000000
    21  H    0.000003   0.000027   0.000001   0.000000  -0.000000   0.000000
    22  H    0.000877  -0.000616  -0.000034  -0.000000  -0.000000   0.000000
    23  C    0.381149   0.373133   0.008480   0.000297  -0.000007  -0.000001
    24  H   -0.012631  -0.024379  -0.000166   0.000174  -0.000019   0.000000
    25  H    0.600096  -0.024160  -0.000058   0.000001  -0.000002  -0.000000
    26  H   -0.024160   0.685093  -0.000216   0.000009  -0.000001  -0.000000
    27  H   -0.000058  -0.000216   0.672659   0.013640  -0.000405  -0.000249
    28  O    0.000001   0.000009   0.013640   8.008536   0.269713  -0.021711
    29  C   -0.000002  -0.000001  -0.000405   0.269713   4.402878   0.396209
    30  H   -0.000000  -0.000000  -0.000249  -0.021711   0.396209   0.632417
    31  H    0.000007   0.000000   0.000009  -0.029046   0.404996  -0.026094
    32  H   -0.000004  -0.000000   0.000083  -0.029189   0.403593  -0.026789
              31         32
     1  C    0.001355   0.000273
     2  C   -0.003805  -0.004493
     3  O    0.006830   0.007010
     4  C   -0.000128   0.000281
     5  C   -0.000003   0.000026
     6  H    0.000000  -0.000001
     7  H    0.000000  -0.000000
     8  H    0.000001   0.000067
     9  N    0.000003  -0.000014
    10  H   -0.000000   0.000002
    11  H   -0.000000   0.000000
    12  C    0.000000   0.000001
    13  C   -0.000000   0.000000
    14  C   -0.000000  -0.000000
    15  C   -0.000000   0.000000
    16  C    0.000000   0.000000
    17  C    0.000000  -0.000000
    18  H   -0.000000  -0.000000
    19  H    0.000000  -0.000000
    20  H   -0.000000  -0.000000
    21  H   -0.000000  -0.000000
    22  H   -0.000000   0.000000
    23  C    0.000011  -0.000035
    24  H   -0.000024   0.000042
    25  H    0.000007  -0.000004
    26  H    0.000000  -0.000000
    27  H    0.000009   0.000083
    28  O   -0.029046  -0.029189
    29  C    0.404996   0.403593
    30  H   -0.026094  -0.026789
    31  H    0.636495  -0.031393
    32  H   -0.031393   0.645863
 Mulliken charges:
               1
     1  C   -0.207641
     2  C    0.240520
     3  O   -0.331156
     4  C   -0.075798
     5  C    0.018736
     6  H    0.066097
     7  H    0.056114
     8  H    0.070603
     9  N   -0.188829
    10  H    0.146068
    11  H    0.148865
    12  C    0.045732
    13  C   -0.073324
    14  C   -0.018909
    15  C   -0.019707
    16  C   -0.019654
    17  C   -0.052283
    18  H    0.020932
    19  H    0.026149
    20  H    0.026903
    21  H    0.026523
    22  H    0.018345
    23  C    0.062418
    24  H    0.055773
    25  H    0.057325
    26  H    0.010719
    27  H   -0.002197
    28  O   -0.367619
    29  C    0.143614
    30  H    0.040218
    31  H    0.040785
    32  H    0.034679
 Sum of Mulliken charges =  -0.00000
 Mulliken charges with hydrogens summed into heavy atoms:
               1
     1  C   -0.209838
     2  C    0.240520
     3  O   -0.331156
     4  C   -0.075798
     5  C    0.211550
     9  N    0.106103
    12  C    0.045732
    13  C   -0.052392
    14  C    0.007240
    15  C    0.007197
    16  C    0.006868
    17  C   -0.033938
    23  C    0.186234
    28  O   -0.367619
    29  C    0.259297
 Electronic spatial extent (au):  <R**2>=           3986.1057
 Charge=             -0.0000 electrons
 Dipole moment (field-independent basis, Debye):
    X=              3.1354    Y=              3.9679    Z=             -3.5500  Tot=              6.1788
 Quadrupole moment (field-independent basis, Debye-Ang):
   XX=            -86.2339   YY=            -82.6344   ZZ=            -85.6149
   XY=             -0.1118   XZ=              6.6211   YZ=             -3.3601
 Traceless Quadrupole moment (field-independent basis, Debye-Ang):
   XX=             -1.4061   YY=              2.1933   ZZ=             -0.7872
   XY=             -0.1118   XZ=              6.6211   YZ=             -3.3601
 Octapole moment (field-independent basis, Debye-Ang**2):
  XXX=            -17.2012  YYY=             34.5092  ZZZ=            -11.8995  XYY=            -23.2633
  XXY=            -27.4412  XXZ=            -18.4384  XZZ=             10.4013  YZZ=              6.2584
  YYZ=            -12.1106  XYZ=             11.0219
 Hexadecapole moment (field-independent basis, Debye-Ang**3):
 XXXX=          -3367.0910 YYYY=           -862.3832 ZZZZ=           -606.0093 XXXY=             43.2786
 XXXZ=             90.9448 YYYX=             27.8763 YYYZ=            -27.8119 ZZZX=             11.9727
 ZZZY=             -8.7298 XXYY=           -742.0700 XXZZ=           -721.0891 YYZZ=           -242.2727
 XXYZ=              8.0760 YYXZ=             -9.6403 ZZXY=             -2.4336
 N-N= 9.938884676301D+02 E-N=-3.550225251122D+03  KE= 6.649199628316D+02
   1 Symmetry operations used in ECPInt.
 ECPInt:  NShTT=   10011 NPrTT=   35491 LenC2=    9404 LenP2D=   24359.
 LDataN:  DoStor=T MaxTD1= 5 Len=  102
 D1PCM: PCM CHGder 1st derivatives, ID1Alg=3 FixD1E=F DoIter=F DoCFld=F I1PDM=0.
 Calling FoFJK, ICntrl=      2127 FMM=F ISym2X=0 I1Cent= 0 IOpClX= 0 NMat=1 NMatS=1 NMatT=0.
 ***** Axes restored to original set *****
 -------------------------------------------------------------------
 Center     Atomic                   Forces (Hartrees/Bohr)
 Number     Number              X              Y              Z
 -------------------------------------------------------------------
      1        6          -0.043053786   -0.029566398    0.013314830
      2        6           0.054511466    0.002323645   -0.012315594
      3        8          -0.013380988   -0.005356493   -0.007684293
      4        6           0.001896309   -0.003969351    0.031093506
      5        6          -0.002815578   -0.006855413    0.008484215
      6        1          -0.000737119    0.000798132    0.003128722
      7        1          -0.000835846    0.003061146   -0.003500946
      8        1          -0.002833274   -0.003211101    0.000294347
      9        7           0.030374253    0.042163372   -0.029305584
     10        1           0.000029683   -0.005905014    0.004455363
     11        1           0.000063241   -0.000042023   -0.001921238
     12        6          -0.005492527    0.011228865   -0.003792528
     13        6           0.004352172    0.001502110    0.003693538
     14        6          -0.008104045    0.002804536    0.004040439
     15        6           0.000434214    0.000295636    0.001520014
     16        6          -0.007947597   -0.000321542   -0.002854350
     17        6           0.003205324   -0.000950345   -0.002650876
     18        1          -0.004514782   -0.000253650   -0.002318117
     19        1           0.000345283   -0.001194439   -0.003599455
     20        1           0.003928563   -0.000966671   -0.000642856
     21        1           0.001748052    0.000389674    0.003124013
     22        1          -0.003032049    0.002201018    0.001949167
     23        6           0.007991023   -0.002384507   -0.009727929
     24        1          -0.003442783   -0.006200276   -0.001678124
     25        1          -0.001333764   -0.001439179    0.000759848
     26        1           0.005326783    0.000414303    0.000016160
     27        1           0.003018467   -0.001134446   -0.004809745
     28        8          -0.026259234    0.003534891    0.012123476
     29        6           0.009031796   -0.003900776   -0.005260793
     30        1           0.002485826   -0.002254488   -0.003307890
     31        1          -0.002449562    0.002006587    0.004139321
     32        1          -0.002509522    0.003182196    0.003233359
 -------------------------------------------------------------------
 Cartesian Forces:  Max     0.054511466 RMS     0.011588336

 GradGradGradGradGradGradGradGradGradGradGradGradGradGradGradGradGradGrad
 Berny optimization.
 FormGI is forming the generalized inverse of G from B-inverse, IUseBI=4.
 Internal  Forces:  Max     0.033678525 RMS     0.006758613
 Search for a saddle point.
 Step number   1 out of a maximum of   50
 All quantities printed in internal units (Hartrees-Bohrs-Radians)
 Swapping is turned off.
 Second derivative matrix not updated -- first step.
 ITU=  0
     Eigenvalues ---   -0.02665   0.00019   0.00065   0.00072   0.00118
     Eigenvalues ---    0.00226   0.00327   0.00702   0.01104   0.01177
     Eigenvalues ---    0.01261   0.01490   0.01554   0.01688   0.01928
     Eigenvalues ---    0.02454   0.02547   0.02812   0.02909   0.03024
     Eigenvalues ---    0.03372   0.03481   0.03622   0.03679   0.03721
     Eigenvalues ---    0.04546   0.05451   0.05793   0.06167   0.06176
     Eigenvalues ---    0.06586   0.08470   0.08853   0.09221   0.10151
     Eigenvalues ---    0.10779   0.10899   0.10985   0.11052   0.11094
     Eigenvalues ---    0.11410   0.11562   0.11727   0.11842   0.12123
     Eigenvalues ---    0.12593   0.13432   0.13947   0.14568   0.14797
     Eigenvalues ---    0.14837   0.15179   0.15689   0.15877   0.16228
     Eigenvalues ---    0.16628   0.18809   0.19926   0.23486   0.25806
     Eigenvalues ---    0.25921   0.26081   0.26088   0.26165   0.26335
     Eigenvalues ---    0.26487   0.26550   0.26910   0.27304   0.27347
     Eigenvalues ---    0.27739   0.28082   0.28188   0.28224   0.28244
     Eigenvalues ---    0.28518   0.29537   0.32332   0.36107   0.37662
     Eigenvalues ---    0.41788   0.51081   0.52684   0.52718   0.54146
     Eigenvalues ---    0.54271   0.55686   0.68964   0.69869   0.86482
 Eigenvectors required to have negative eigenvalues:
                          R6        A19       A21       D10       D26
   1                    0.78721   0.29072  -0.17839  -0.13754   0.13419
                          A20       D27       D34       A11       D30
   1                   -0.13394   0.12673  -0.12366  -0.12027   0.11745
 RFO step:  Lambda0=1.687586392D-03 Lambda=-3.96554852D-02.
 Linear search not attempted -- option 19 set.
 Maximum step size (   0.100) exceeded in Quadratic search.
    -- Step size scaled by   0.204
 Iteration  1 RMS(Cart)=  0.02566054 RMS(Int)=  0.00040681
 Iteration  2 RMS(Cart)=  0.00082230 RMS(Int)=  0.00007223
 Iteration  3 RMS(Cart)=  0.00000048 RMS(Int)=  0.00007223
 Variable       Old X    -DE/DX   Delta X   Delta X   Delta X     New X
                                 (Linear)    (Quad)   (Total)
    R1        2.80138  -0.02304   0.00000  -0.02468  -0.02468   2.77670
    R2        2.58775   0.03368   0.00000   0.01499   0.01499   2.60274
    R3        2.04902   0.00459   0.00000   0.00284   0.00284   2.05187
    R4        2.30259  -0.00264   0.00000   0.00384   0.00384   2.30643
    R5        2.57286   0.00080   0.00000   0.00503   0.00503   2.57788
    R6        3.54453   0.03224   0.00000   0.00011   0.00011   3.54464
    R7        2.90512  -0.01839   0.00000  -0.00822  -0.00822   2.89689
    R8        2.92314  -0.01552   0.00000  -0.00850  -0.00850   2.91464
    R9        2.06584   0.00311   0.00000   0.00251   0.00251   2.06835
   R10        2.06719   0.00425   0.00000   0.00259   0.00259   2.06978
   R11        2.06611   0.00386   0.00000   0.00343   0.00343   2.06954
   R12        2.77700  -0.00041   0.00000  -0.00373  -0.00373   2.77328
   R13        1.93391  -0.00132   0.00000  -0.00290  -0.00290   1.93101
   R14        1.93922  -0.00037   0.00000  -0.00306  -0.00306   1.93616
   R15        2.66347  -0.00619   0.00000  -0.00114  -0.00114   2.66233
   R16        2.65533  -0.00446   0.00000  -0.00085  -0.00085   2.65447
   R17        2.64292  -0.00532   0.00000  -0.00235  -0.00235   2.64057
   R18        2.05382   0.00465   0.00000   0.00330   0.00330   2.05712
   R19        2.62793   0.00370   0.00000   0.00132   0.00132   2.62925
   R20        2.05372   0.00372   0.00000   0.00264   0.00264   2.05635
   R21        2.62900   0.00189   0.00000   0.00037   0.00037   2.62936
   R22        2.05328   0.00409   0.00000   0.00239   0.00239   2.05566
   R23        2.64471  -0.00429   0.00000  -0.00167  -0.00167   2.64304
   R24        2.05421   0.00353   0.00000   0.00256   0.00256   2.05677
   R25        2.05310   0.00330   0.00000   0.00223   0.00223   2.05533
   R26        2.06735   0.00008   0.00000   0.00090   0.00090   2.06825
   R27        2.07107   0.00146   0.00000   0.00209   0.00209   2.07317
   R28        2.07240   0.00403   0.00000   0.00233   0.00233   2.07473
   R29        2.69746  -0.00655   0.00000  -0.00592  -0.00592   2.69155
   R30        2.06649   0.00271   0.00000   0.00176   0.00176   2.06825
   R31        2.06834   0.00348   0.00000   0.00256   0.00256   2.07090
   R32        2.06854   0.00356   0.00000   0.00258   0.00258   2.07111
    A1        2.19840  -0.00182   0.00000  -0.00105  -0.00105   2.19735
    A2        1.97644   0.00350   0.00000   0.00919   0.00919   1.98563
    A3        2.10820  -0.00169   0.00000  -0.00814  -0.00814   2.10006
    A4        2.22179   0.00813   0.00000   0.01005   0.01005   2.23184
    A5        1.86998   0.02013   0.00000   0.02060   0.02060   1.89058
    A6        2.19134  -0.02826   0.00000  -0.03063  -0.03063   2.16071
    A7        1.80446   0.01266   0.00000   0.02403   0.02407   1.82852
    A8        1.99446   0.00030   0.00000   0.00011   0.00022   1.99467
    A9        2.08630  -0.00200   0.00000  -0.00625  -0.00641   2.07989
   A10        1.79037  -0.01054   0.00000  -0.02045  -0.02045   1.76992
   A11        1.67779  -0.00113   0.00000   0.00539   0.00538   1.68317
   A12        2.02708   0.00082   0.00000   0.00007   0.00005   2.02714
   A13        1.89573  -0.00028   0.00000   0.00033   0.00032   1.89605
   A14        1.89776   0.00063   0.00000  -0.00088  -0.00089   1.89688
   A15        1.92659  -0.00136   0.00000  -0.00097  -0.00098   1.92561
   A16        1.89841  -0.00014   0.00000   0.00011   0.00011   1.89853
   A17        1.92320   0.00385   0.00000   0.00424   0.00424   1.92744
   A18        1.92156  -0.00269   0.00000  -0.00283  -0.00283   1.91874
   A19        2.32267  -0.02714   0.00000  -0.06367  -0.06368   2.25898
   A20        1.81124   0.00248   0.00000   0.01330   0.01295   1.82419
   A21        1.77232   0.01069   0.00000   0.02970   0.02981   1.80213
   A22        1.84453   0.01339   0.00000   0.01684   0.01649   1.86102
   A23        1.85573   0.00702   0.00000   0.01323   0.01355   1.86928
   A24        1.79799  -0.00272   0.00000   0.00346   0.00306   1.80105
   A25        2.12133  -0.00352   0.00000  -0.00248  -0.00248   2.11885
   A26        2.11493  -0.00144   0.00000   0.00060   0.00060   2.11552
   A27        2.04692   0.00496   0.00000   0.00188   0.00188   2.04881
   A28        2.11990  -0.00147   0.00000  -0.00099  -0.00099   2.11891
   A29        2.10438  -0.00127   0.00000  -0.00212  -0.00213   2.10225
   A30        2.05888   0.00274   0.00000   0.00313   0.00313   2.06201
   A31        2.09520   0.00016   0.00000   0.00072   0.00072   2.09592
   A32        2.09318  -0.00092   0.00000  -0.00085  -0.00085   2.09233
   A33        2.09480   0.00076   0.00000   0.00013   0.00013   2.09493
   A34        2.08840  -0.00188   0.00000  -0.00120  -0.00120   2.08720
   A35        2.09790   0.00089   0.00000   0.00040   0.00041   2.09831
   A36        2.09688   0.00099   0.00000   0.00079   0.00079   2.09767
   A37        2.09848  -0.00001   0.00000   0.00086   0.00086   2.09934
   A38        2.09433   0.00073   0.00000   0.00019   0.00019   2.09453
   A39        2.09036  -0.00072   0.00000  -0.00105  -0.00105   2.08931
   A40        2.11746  -0.00176   0.00000  -0.00129  -0.00129   2.11618
   A41        2.11295  -0.00170   0.00000  -0.00242  -0.00242   2.11054
   A42        2.05265   0.00345   0.00000   0.00370   0.00370   2.05635
   A43        1.96833  -0.00599   0.00000  -0.00546  -0.00547   1.96286
   A44        1.92295  -0.00006   0.00000  -0.00043  -0.00044   1.92251
   A45        1.94188  -0.00112   0.00000   0.00114   0.00114   1.94302
   A46        1.88857   0.00078   0.00000  -0.00490  -0.00492   1.88365
   A47        1.85243   0.00588   0.00000   0.01018   0.01019   1.86262
   A48        1.88628   0.00098   0.00000  -0.00022  -0.00022   1.88606
   A49        1.98441   0.00978   0.00000   0.00699   0.00699   1.99140
   A50        1.88572  -0.00548   0.00000  -0.00696  -0.00695   1.87877
   A51        1.92928   0.00263   0.00000   0.00368   0.00369   1.93296
   A52        1.92949   0.00218   0.00000   0.00327   0.00328   1.93277
   A53        1.89214   0.00244   0.00000   0.00469   0.00470   1.89684
   A54        1.89197   0.00256   0.00000   0.00501   0.00502   1.89699
   A55        1.93380  -0.00436   0.00000  -0.00957  -0.00957   1.92424
    D1       -0.24819   0.00194   0.00000   0.01654   0.01655  -0.23164
    D2        2.90656   0.00203   0.00000   0.01497   0.01496   2.92152
    D3        2.91160   0.00289   0.00000   0.01700   0.01701   2.92861
    D4       -0.21683   0.00299   0.00000   0.01543   0.01543  -0.20141
    D5       -1.51024  -0.00232   0.00000  -0.00762  -0.00758  -1.51781
    D6        2.84143   0.00271   0.00000   0.00266   0.00264   2.84407
    D7        0.32465   0.00375   0.00000   0.01209   0.01206   0.33671
    D8        1.61189  -0.00329   0.00000  -0.00794  -0.00790   1.60399
    D9       -0.31963   0.00174   0.00000   0.00234   0.00232  -0.31730
   D10       -2.83641   0.00278   0.00000   0.01177   0.01174  -2.82467
   D11        3.13780  -0.00105   0.00000  -0.00479  -0.00481   3.13298
   D12        0.00907  -0.00129   0.00000  -0.00671  -0.00669   0.00239
   D13        1.13513  -0.00046   0.00000  -0.00780  -0.00753   1.12760
   D14       -1.09214   0.00115   0.00000   0.01072   0.01087  -1.08127
   D15       -2.95382  -0.00005   0.00000  -0.00621  -0.00629  -2.96011
   D16       -3.06964   0.00060   0.00000  -0.00648  -0.00637  -3.07601
   D17        0.98627   0.00220   0.00000   0.01205   0.01204   0.99831
   D18       -0.87541   0.00101   0.00000  -0.00488  -0.00513  -0.88054
   D19       -1.00043  -0.00145   0.00000  -0.00971  -0.00961  -1.01005
   D20        3.05548   0.00015   0.00000   0.00882   0.00879   3.06427
   D21        1.19379  -0.00105   0.00000  -0.00811  -0.00837   1.18542
   D22        0.86422   0.00318   0.00000   0.00508   0.00512   0.86934
   D23       -2.27819   0.00367   0.00000   0.00723   0.00727  -2.27092
   D24       -1.07579  -0.00578   0.00000  -0.01148  -0.01149  -1.08728
   D25        2.06498  -0.00529   0.00000  -0.00933  -0.00933   2.05565
   D26       -2.88014   0.00113   0.00000  -0.00639  -0.00642  -2.88656
   D27        0.26063   0.00162   0.00000  -0.00423  -0.00427   0.25637
   D28       -0.93427  -0.00274   0.00000  -0.00398  -0.00396  -0.93822
   D29        1.17793  -0.00588   0.00000  -0.01428  -0.01424   1.16369
   D30       -3.01353  -0.00541   0.00000  -0.01410  -0.01407  -3.02759
   D31        0.97126   0.01099   0.00000   0.02612   0.02609   0.99735
   D32        3.08345   0.00786   0.00000   0.01582   0.01581   3.09926
   D33       -1.10800   0.00832   0.00000   0.01600   0.01598  -1.09202
   D34        2.84334  -0.00148   0.00000   0.00566   0.00564   2.84898
   D35       -1.32765  -0.00461   0.00000  -0.00463  -0.00464  -1.33229
   D36        0.76408  -0.00415   0.00000  -0.00445  -0.00447   0.75961
   D37        1.05607   0.00134   0.00000   0.00842   0.00845   1.06452
   D38       -3.01134  -0.00449   0.00000  -0.01250  -0.01251  -3.02385
   D39       -1.10844   0.00072   0.00000   0.00348   0.00347  -1.10497
   D40       -3.13326   0.00259   0.00000   0.01092   0.01095  -3.12231
   D41       -0.91748  -0.00324   0.00000  -0.01000  -0.01001  -0.92749
   D42        0.98541   0.00197   0.00000   0.00598   0.00597   0.99139
   D43       -1.03927   0.00315   0.00000   0.01196   0.01198  -1.02730
   D44        1.17651  -0.00268   0.00000  -0.00897  -0.00898   1.16752
   D45        3.07940   0.00253   0.00000   0.00701   0.00700   3.08640
   D46        3.13702   0.00084   0.00000   0.00254   0.00254   3.13955
   D47        0.00384   0.00017   0.00000   0.00000   0.00001   0.00385
   D48       -0.00379   0.00037   0.00000   0.00046   0.00046  -0.00332
   D49       -3.13696  -0.00030   0.00000  -0.00207  -0.00207  -3.13903
   D50       -3.13769  -0.00105   0.00000  -0.00329  -0.00329  -3.14098
   D51        0.02052  -0.00080   0.00000  -0.00279  -0.00279   0.01773
   D52        0.00312  -0.00059   0.00000  -0.00122  -0.00122   0.00190
   D53       -3.12186  -0.00033   0.00000  -0.00072  -0.00072  -3.12258
   D54        0.00165  -0.00007   0.00000   0.00017   0.00017   0.00182
   D55       -3.14023  -0.00017   0.00000  -0.00041  -0.00041  -3.14063
   D56        3.13504   0.00057   0.00000   0.00262   0.00262   3.13766
   D57       -0.00684   0.00047   0.00000   0.00204   0.00204  -0.00480
   D58        0.00128  -0.00004   0.00000  -0.00008  -0.00008   0.00121
   D59        3.13955   0.00003   0.00000  -0.00013  -0.00013   3.13943
   D60       -3.14002   0.00006   0.00000   0.00050   0.00050  -3.13952
   D61       -0.00175   0.00013   0.00000   0.00045   0.00045  -0.00130
   D62       -0.00194  -0.00017   0.00000  -0.00067  -0.00067  -0.00261
   D63        3.13524   0.00005   0.00000  -0.00024  -0.00024   3.13500
   D64       -3.14021  -0.00024   0.00000  -0.00062  -0.00062  -3.14084
   D65       -0.00303  -0.00003   0.00000  -0.00019  -0.00019  -0.00322
   D66       -0.00032   0.00051   0.00000   0.00136   0.00136   0.00103
   D67        3.12521   0.00022   0.00000   0.00082   0.00082   3.12603
   D68       -3.13751   0.00029   0.00000   0.00092   0.00092  -3.13659
   D69       -0.01198  -0.00001   0.00000   0.00038   0.00038  -0.01160
   D70        3.13623  -0.00001   0.00000  -0.00013  -0.00013   3.13610
   D71       -1.07918   0.00116   0.00000   0.00348   0.00347  -1.07570
   D72        1.06853  -0.00107   0.00000  -0.00389  -0.00389   1.06464
         Item               Value     Threshold  Converged?
 Maximum Force            0.033679     0.000450     NO 
 RMS     Force            0.006759     0.000300     NO 
 Maximum Displacement     0.089568     0.001800     NO 
 RMS     Displacement     0.025803     0.001200     NO 
 Predicted change in Energy=-7.199550D-03
 GradGradGradGradGradGradGradGradGradGradGradGradGradGradGradGradGradGrad

                          Input orientation:                          
 ---------------------------------------------------------------------
 Center     Atomic      Atomic             Coordinates (Angstroms)
 Number     Number       Type             X           Y           Z
 ---------------------------------------------------------------------
      1          6           0       -0.883727   -0.556572   -0.072783
      2          6           0       -2.304483   -0.564323    0.301966
      3          8           0       -2.850402    0.079336    1.183621
      4          6           0        0.053588    0.367267    0.333356
      5          6           0       -1.194118    2.668483   -1.188651
      6          1           0       -1.432414    3.255575   -0.296173
      7          1           0       -0.939751    3.356144   -2.002322
      8          1           0       -2.080331    2.093390   -1.477196
      9          7           0       -0.074373    1.759572   -0.917055
     10          1           0        0.173749    1.326638   -1.808780
     11          1           0        0.741557    2.341736   -0.704710
     12          6           0        1.506491   -0.081684    0.139667
     13          6           0        1.956313   -0.601951   -1.089896
     14          6           0        3.281234   -1.008956   -1.267258
     15          6           0        4.188615   -0.907351   -0.217420
     16          6           0        3.767579   -0.400021    1.007869
     17          6           0        2.441626    0.008676    1.183938
     18          1           0        1.274213   -0.691906   -1.933493
     19          1           0        3.602276   -1.406480   -2.228005
     20          1           0        5.220087   -1.225421   -0.352431
     21          1           0        4.470118   -0.323259    1.835608
     22          1           0        2.152182    0.385171    2.162418
     23          6           0       -0.231127    1.228436    1.580838
     24          1           0       -1.188990    1.754003    1.516459
     25          1           0       -0.251475    0.598172    2.478570
     26          1           0        0.541419    1.995823    1.721088
     27          1           0       -0.603848   -1.362654   -0.744245
     28          8           0       -2.956572   -1.448132   -0.507099
     29          6           0       -4.351020   -1.561405   -0.240026
     30          1           0       -4.766308   -2.286707   -0.946664
     31          1           0       -4.522805   -1.926171    0.778979
     32          1           0       -4.854015   -0.599011   -0.388289
[...]
 Alpha virt. eigenvalues --    0.72145   0.72730   0.73024   0.73499   0.74139
 Alpha virt. eigenvalues --    0.74548   0.74944   0.75681   0.76103   0.76292
 Alpha virt. eigenvalues --    0.77105   0.77389   0.78177   0.78841   0.79206
 Alpha virt. eigenvalues --    0.80388   0.80923   0.81464   0.82653   0.82870
 Alpha virt. eigenvalues --    0.83277   0.84145   0.85579   0.86565   0.87225
 Alpha virt. eigenvalues --    0.87796   0.88649   0.90767   0.91621   0.92238
 Alpha virt. eigenvalues --    0.96567   1.00048   1.02096   1.04412   1.05423
 Alpha virt. eigenvalues --    1.07285   1.11406   1.13800   1.15031   1.15773
 Alpha virt. eigenvalues --    1.17427   1.19840   1.22677   1.25044   1.25812
 Alpha virt. eigenvalues --    1.27947   1.28413   1.32214   1.32695   1.33325
 Alpha virt. eigenvalues --    1.34605   1.36545   1.38098   1.39324   1.39568
 Alpha virt. eigenvalues --    1.41047   1.41988   1.47076   1.48233   1.50930
 Alpha virt. eigenvalues --    1.53798   1.55595   1.57329   1.60899   1.62555
 Alpha virt. eigenvalues --    1.63849   1.65381   1.66970   1.69488   1.70557
 Alpha virt. eigenvalues --    1.73083   1.74395   1.76681   1.77488   1.77622
 Alpha virt. eigenvalues --    1.79707   1.80377   1.81705   1.82752   1.83445
 Alpha virt. eigenvalues --    1.83676   1.84418   1.84511   1.85638   1.86322
 Alpha virt. eigenvalues --    1.86728   1.87999   1.88626   1.89235   1.91513
 Alpha virt. eigenvalues --    1.92579   1.93729   1.94643   1.95526   1.97274
 Alpha virt. eigenvalues --    1.97774   1.99424   1.99976   2.00860   2.02508
 Alpha virt. eigenvalues --    2.03457   2.04715   2.05945   2.06397   2.07064
 Alpha virt. eigenvalues --    2.08976   2.09407   2.10794   2.12576   2.13767
 Alpha virt. eigenvalues --    2.14714   2.16180   2.19330   2.20312   2.22414
 Alpha virt. eigenvalues --    2.23374   2.23963   2.26066   2.27511   2.28600
 Alpha virt. eigenvalues --    2.33825   2.36712   2.37712   2.38684   2.40128
 Alpha virt. eigenvalues --    2.40760   2.42302   2.43053   2.44412   2.44686
 Alpha virt. eigenvalues --    2.45619   2.47572   2.49865   2.51059   2.52046
 Alpha virt. eigenvalues --    2.59183   2.59902   2.62244   2.63716   2.67406
 Alpha virt. eigenvalues --    2.70193   2.71182   2.72494   2.74727   2.76746
 Alpha virt. eigenvalues --    2.78017   2.79304   2.79563   2.80898   2.81697
 Alpha virt. eigenvalues --    2.83303   2.84769   2.86930   2.90981   2.92062
 Alpha virt. eigenvalues --    2.93003   2.96238   2.97112   2.99030   3.02811
 Alpha virt. eigenvalues --    3.03711   3.05201   3.05715   3.08234   3.10865
 Alpha virt. eigenvalues --    3.12547   3.13519   3.16734   3.20630   3.23764
 Alpha virt. eigenvalues --    3.28500   3.31531   3.32977   3.34254   3.47253
 Alpha virt. eigenvalues --    3.58516   3.71035   3.74295   3.83064
          Condensed to atoms (all electrons):
               1          2          3          4          5          6
     1  C    5.683642   0.389424  -0.126555   0.249166   0.005490  -0.000082
     2  C    0.389424   4.440329   0.601344  -0.019853   0.001190  -0.000344
     3  O   -0.126555   0.601344   7.932513   0.010359  -0.028508  -0.000291
     4  C    0.249166  -0.019853   0.010359   5.520269  -0.037195  -0.013033
     5  C    0.005490   0.001190  -0.028508  -0.037195   4.621322   0.399375
     6  H   -0.000082  -0.000344  -0.000291  -0.013033   0.399375   0.578987
     7  H   -0.000984   0.000098   0.000713   0.005635   0.390738  -0.021655
     8  H   -0.004459  -0.002266   0.063624  -0.004440   0.359931  -0.009578
     9  N   -0.083485  -0.007307  -0.000102   0.089745   0.285418  -0.015964
    10  H    0.011123  -0.001049  -0.000377   0.000469  -0.012766   0.005421
    11  H    0.008417  -0.000138  -0.000101  -0.002949  -0.016668  -0.007739
    12  C   -0.039238   0.007451   0.000256   0.177391   0.007625   0.000037
    13  C   -0.018778   0.000074  -0.000008  -0.092191  -0.000193   0.000080
    14  C    0.000777  -0.000020  -0.000000   0.013478   0.000023  -0.000000
    15  C    0.000002   0.000000  -0.000000  -0.001617  -0.000002   0.000000
    16  C   -0.000581   0.000005  -0.000000   0.019773   0.000009   0.000001
    17  C    0.008213  -0.000231   0.000001  -0.082839  -0.000161  -0.000102
    18  H    0.013385   0.000091  -0.000009  -0.011308   0.000004  -0.000004
    19  H   -0.000011  -0.000000   0.000000  -0.000290  -0.000000  -0.000000
    20  H    0.000001   0.000000   0.000000   0.000019   0.000000   0.000000
    21  H    0.000005  -0.000000   0.000000  -0.000265  -0.000000   0.000000
    22  H    0.000659  -0.000026   0.000003  -0.032502  -0.000063  -0.000035
    23  C   -0.043454  -0.012292  -0.022331   0.388202   0.012793   0.014825
    24  H   -0.033030   0.005647   0.039366   0.013821   0.006559  -0.002807
    25  H   -0.001174  -0.000671  -0.000076  -0.009110  -0.000028  -0.000085
    26  H    0.009930   0.000697   0.000261  -0.008357  -0.004991   0.000375
    27  H    0.388581  -0.001067   0.004651  -0.063581   0.000097  -0.000011
    28  O   -0.135611   0.367855  -0.081918   0.004745  -0.000098  -0.000003
    29  C    0.010379  -0.039060  -0.002271  -0.000372   0.000048  -0.000001
    30  H    0.000300   0.005607   0.000970   0.000007   0.000000  -0.000000
    31  H    0.000203  -0.002630   0.002861   0.000052   0.000010  -0.000000
    32  H    0.001626  -0.008127   0.018778  -0.000019  -0.000096   0.000003
               7          8          9         10         11         12
     1  C   -0.000984  -0.004459  -0.083485   0.011123   0.008417  -0.039238
     2  C    0.000098  -0.002266  -0.007307  -0.001049  -0.000138   0.007451
     3  O    0.000713   0.063624  -0.000102  -0.000377  -0.000101   0.000256
     4  C    0.005635  -0.004440   0.089745   0.000469  -0.002949   0.177391
     5  C    0.390738   0.359931   0.285418  -0.012766  -0.016668   0.007625
     6  H   -0.021655  -0.009578  -0.015964   0.005421  -0.007739   0.000037
     7  H    0.591382  -0.008320  -0.016153  -0.008192  -0.004153  -0.000383
     8  H   -0.008320   0.511833  -0.008795  -0.004100   0.003989   0.000794
     9  N   -0.016153  -0.008795   6.316543   0.325697   0.322191  -0.033750
    10  H   -0.008192  -0.004100   0.325697   0.499772  -0.007924  -0.010258
    11  H   -0.004153   0.003989   0.322191  -0.007924   0.522612  -0.003477
    12  C   -0.000383   0.000794  -0.033750  -0.010258  -0.003477   5.464755
    13  C   -0.000069  -0.000004  -0.007359   0.009923  -0.002202   0.295017
    14  C   -0.000000  -0.000002  -0.000508   0.000049  -0.000215   0.064157
    15  C    0.000000   0.000000   0.000081   0.000019  -0.000030  -0.140939
    16  C   -0.000000  -0.000001  -0.000362   0.000003  -0.000163   0.061802
    17  C    0.000003  -0.000018  -0.001358  -0.000544   0.006027   0.343945
    18  H   -0.000011  -0.000022  -0.003839   0.004366   0.000664  -0.075566
    19  H    0.000000   0.000000   0.000006  -0.000002   0.000001   0.014428
    20  H   -0.000000   0.000000   0.000000  -0.000000  -0.000001  -0.001495
    21  H    0.000000   0.000000   0.000002   0.000000   0.000006   0.014598
    22  H    0.000001   0.000008   0.000369  -0.000035   0.000289  -0.054593
    23  C   -0.000492  -0.006524  -0.063911   0.008108  -0.001348  -0.064151
    24  H    0.000217  -0.002179  -0.009469   0.000232  -0.000029   0.005846
    25  H   -0.000007   0.000206   0.006241  -0.000301  -0.000277  -0.009093
    26  H    0.000212   0.000415   0.000710  -0.000632   0.001699  -0.015906
    27  H    0.000024  -0.000150   0.002919   0.000399  -0.000173  -0.008235
    28  O    0.000004   0.000467   0.000000  -0.000061   0.000001  -0.000062
    29  C   -0.000001  -0.000279   0.000000  -0.000001  -0.000000   0.000004
    30  H   -0.000000   0.000004  -0.000000   0.000000   0.000000  -0.000001
    31  H   -0.000000  -0.000092   0.000002  -0.000001  -0.000000   0.000001
    32  H   -0.000001   0.000584  -0.000003   0.000005  -0.000000  -0.000001
              13         14         15         16         17         18
     1  C   -0.018778   0.000777   0.000002  -0.000581   0.008213   0.013385
     2  C    0.000074  -0.000020   0.000000   0.000005  -0.000231   0.000091
     3  O   -0.000008  -0.000000  -0.000000  -0.000000   0.000001  -0.000009
     4  C   -0.092191   0.013478  -0.001617   0.019773  -0.082839  -0.011308
     5  C   -0.000193   0.000023  -0.000002   0.000009  -0.000161   0.000004
     6  H    0.000080  -0.000000   0.000000   0.000001  -0.000102  -0.000004
     7  H   -0.000069  -0.000000   0.000000  -0.000000   0.000003  -0.000011
     8  H   -0.000004  -0.000002   0.000000  -0.000001  -0.000018  -0.000022
     9  N   -0.007359  -0.000508   0.000081  -0.000362  -0.001358  -0.003839
    10  H    0.009923   0.000049   0.000019   0.000003  -0.000544   0.004366
    11  H   -0.002202  -0.000215  -0.000030  -0.000163   0.006027   0.000664
    12  C    0.295017   0.064157  -0.140939   0.061802   0.343945  -0.075566
    13  C    5.162186   0.324738   0.071588  -0.128574   0.025425   0.450175
    14  C    0.324738   5.023302   0.297870   0.073218  -0.120280  -0.053195
    15  C    0.071588   0.297870   5.076902   0.305579   0.067540   0.012613
    16  C   -0.128574   0.073218   0.305579   5.056712   0.305629  -0.001723
    17  C    0.025425  -0.120280   0.067540   0.305629   5.073972   0.011521
    18  H    0.450175  -0.053195   0.012613  -0.001723   0.011521   0.635863
    19  H   -0.062393   0.448608  -0.067356   0.012388  -0.001644  -0.011683
    20  H    0.012510  -0.063929   0.447890  -0.063027   0.012590  -0.000187
    21  H   -0.001699   0.012314  -0.067505   0.446024  -0.059896   0.000019
    22  H    0.013209  -0.001823   0.013196  -0.066239   0.450138  -0.000146
    23  C    0.013410  -0.000431   0.000102  -0.000447   0.006083   0.000666
    24  H   -0.000101   0.000007   0.000002  -0.000036   0.000464   0.000039
    25  H    0.000243   0.000015  -0.000052   0.000605  -0.000989  -0.000017
    26  H   -0.001197  -0.000018  -0.000025   0.000710   0.005256  -0.000070
    27  H   -0.005776   0.001090  -0.000133   0.000015   0.000674   0.000541
    28  O   -0.000036  -0.000000  -0.000000   0.000000   0.000000  -0.000051
    29  C    0.000001   0.000000  -0.000000   0.000000  -0.000000  -0.000002
    30  H    0.000000   0.000000   0.000000  -0.000000   0.000000   0.000001
    31  H   -0.000000  -0.000000   0.000000  -0.000000   0.000000  -0.000000
    32  H    0.000000   0.000000  -0.000000   0.000000  -0.000000  -0.000001
              19         20         21         22         23         24
     1  C   -0.000011   0.000001   0.000005   0.000659  -0.043454  -0.033030
     2  C   -0.000000   0.000000  -0.000000  -0.000026  -0.012292   0.005647
     3  O    0.000000   0.000000   0.000000   0.000003  -0.022331   0.039366
     4  C   -0.000290   0.000019  -0.000265  -0.032502   0.388202   0.013821
     5  C   -0.000000   0.000000  -0.000000  -0.000063   0.012793   0.006559
     6  H   -0.000000   0.000000   0.000000  -0.000035   0.014825  -0.002807
     7  H    0.000000  -0.000000   0.000000   0.000001  -0.000492   0.000217
     8  H    0.000000   0.000000   0.000000   0.000008  -0.006524  -0.002179
     9  N    0.000006   0.000000   0.000002   0.000369  -0.063911  -0.009469
    10  H   -0.000002  -0.000000   0.000000  -0.000035   0.008108   0.000232
    11  H    0.000001  -0.000001   0.000006   0.000289  -0.001348  -0.000029
    12  C    0.014428  -0.001495   0.014598  -0.054593  -0.064151   0.005846
    13  C   -0.062393   0.012510  -0.001699   0.013209   0.013410  -0.000101
    14  C    0.448608  -0.063929   0.012314  -0.001823  -0.000431   0.000007
    15  C   -0.067356   0.447890  -0.067505   0.013196   0.000102   0.000002
    16  C    0.012388  -0.063027   0.446024  -0.066239  -0.000447  -0.000036
    17  C   -0.001644   0.012590  -0.059896   0.450138   0.006083   0.000464
    18  H   -0.011683  -0.000187   0.000019  -0.000146   0.000666   0.000039
    19  H    0.646945  -0.010549  -0.000208   0.000022   0.000004  -0.000000
    20  H   -0.010549   0.644384  -0.010584  -0.000205   0.000000   0.000000
    21  H   -0.000208  -0.010584   0.648921  -0.011920  -0.000008  -0.000001
    22  H    0.000022  -0.000205  -0.011920   0.652644   0.017890  -0.000028
    23  C    0.000004   0.000000  -0.000008   0.017890   4.592418   0.362530
    24  H   -0.000000   0.000000  -0.000001  -0.000028   0.362530   0.578693
    25  H    0.000000  -0.000000   0.000016   0.000390   0.389923  -0.011049
    26  H    0.000000  -0.000000   0.000019  -0.000256   0.364009  -0.026190
    27  H    0.000057  -0.000001   0.000000  -0.000004   0.002938  -0.000136
    28  O    0.000000  -0.000000   0.000000   0.000000  -0.000334   0.000558
    29  C   -0.000000   0.000000  -0.000000  -0.000000   0.000017   0.000026
    30  H   -0.000000   0.000000   0.000000  -0.000000   0.000001  -0.000001
    31  H    0.000000  -0.000000   0.000000  -0.000000  -0.000014   0.000062
    32  H    0.000000  -0.000000  -0.000000  -0.000000   0.000027  -0.000114
              25         26         27         28         29         30
     1  C   -0.001174   0.009930   0.388581  -0.135611   0.010379   0.000300
     2  C   -0.000671   0.000697  -0.001067   0.367855  -0.039060   0.005607
     3  O   -0.000076   0.000261   0.004651  -0.081918  -0.002271   0.000970
     4  C   -0.009110  -0.008357  -0.063581   0.004745  -0.000372   0.000007
     5  C   -0.000028  -0.004991   0.000097  -0.000098   0.000048   0.000000
     6  H   -0.000085   0.000375  -0.000011  -0.000003  -0.000001  -0.000000
     7  H   -0.000007   0.000212   0.000024   0.000004  -0.000001  -0.000000
     8  H    0.000206   0.000415  -0.000150   0.000467  -0.000279   0.000004
     9  N    0.006241   0.000710   0.002919   0.000000   0.000000  -0.000000
    10  H   -0.000301  -0.000632   0.000399  -0.000061  -0.000001   0.000000
    11  H   -0.000277   0.001699  -0.000173   0.000001  -0.000000   0.000000
    12  C   -0.009093  -0.015906  -0.008235  -0.000062   0.000004  -0.000001
    13  C    0.000243  -0.001197  -0.005776  -0.000036   0.000001   0.000000
    14  C    0.000015  -0.000018   0.001090  -0.000000   0.000000   0.000000
    15  C   -0.000052  -0.000025  -0.000133  -0.000000  -0.000000   0.000000
    16  C    0.000605   0.000710   0.000015   0.000000   0.000000  -0.000000
    17  C   -0.000989   0.005256   0.000674   0.000000  -0.000000   0.000000
    18  H   -0.000017  -0.000070   0.000541  -0.000051  -0.000002   0.000001
    19  H    0.000000   0.000000   0.000057   0.000000  -0.000000  -0.000000
    20  H   -0.000000  -0.000000  -0.000001  -0.000000   0.000000   0.000000
    21  H    0.000016   0.000019   0.000000   0.000000  -0.000000   0.000000
    22  H    0.000390  -0.000256  -0.000004   0.000000  -0.000000  -0.000000
    23  C    0.389923   0.364009   0.002938  -0.000334   0.000017   0.000001
    24  H   -0.011049  -0.026190  -0.000136   0.000558   0.000026  -0.000001
    25  H    0.600195  -0.022440   0.000510  -0.000006  -0.000004  -0.000000
    26  H   -0.022440   0.678778  -0.000160   0.000000  -0.000001  -0.000000
    27  H    0.000510  -0.000160   0.667219   0.010072  -0.000184  -0.000256
    28  O   -0.000006   0.000000   0.010072   8.009160   0.289405  -0.027001
    29  C   -0.000004  -0.000001  -0.000184   0.289405   4.401701   0.395175
    30  H   -0.000000  -0.000000  -0.000256  -0.027001   0.395175   0.649321
    31  H    0.000002   0.000001   0.000017  -0.031070   0.403339  -0.030925
    32  H   -0.000000  -0.000001   0.000101  -0.031204   0.394535  -0.024330
              31         32
     1  C    0.000203   0.001626
     2  C   -0.002630  -0.008127
     3  O    0.002861   0.018778
     4  C    0.000052  -0.000019
     5  C    0.000010  -0.000096
     6  H   -0.000000   0.000003
     7  H   -0.000000  -0.000001
     8  H   -0.000092   0.000584
     9  N    0.000002  -0.000003
    10  H   -0.000001   0.000005
    11  H   -0.000000  -0.000000
    12  C    0.000001  -0.000001
    13  C   -0.000000   0.000000
    14  C   -0.000000   0.000000
    15  C    0.000000  -0.000000
    16  C   -0.000000   0.000000
    17  C    0.000000  -0.000000
    18  H   -0.000000  -0.000001
    19  H    0.000000   0.000000
    20  H   -0.000000  -0.000000
    21  H    0.000000  -0.000000
    22  H   -0.000000  -0.000000
    23  C   -0.000014   0.000027
    24  H    0.000062  -0.000114
    25  H    0.000002  -0.000000
    26  H    0.000001  -0.000001
    27  H    0.000017   0.000101
    28  O   -0.031070  -0.031204
    29  C    0.403339   0.394535
    30  H   -0.030925  -0.024330
    31  H    0.671801  -0.037173
    32  H   -0.037173   0.659966
 Mulliken charges:
               1
     1  C   -0.293878
     2  C    0.275273
     3  O   -0.413153
     4  C   -0.113210
     5  C    0.010140
     6  H    0.072630
     7  H    0.071393
     8  H    0.109375
     9  N   -0.097559
    10  H    0.180659
    11  H    0.181693
    12  C   -0.000957
    13  C   -0.057998
    14  C   -0.019223
    15  C   -0.015725
    16  C   -0.021321
    17  C   -0.049418
    18  H    0.027882
    19  H    0.031676
    20  H    0.032583
    21  H    0.030160
    22  H    0.019058
    23  C    0.041792
    24  H    0.071100
    25  H    0.057034
    26  H    0.017171
    27  H   -0.000039
    28  O   -0.374812
    29  C    0.147546
    30  H    0.031127
    31  H    0.023557
    32  H    0.025445
 Sum of Mulliken charges =  -0.00000
 Mulliken charges with hydrogens summed into heavy atoms:
               1
     1  C   -0.293917
     2  C    0.275273
     3  O   -0.413153
     4  C   -0.113210
     5  C    0.263537
     9  N    0.264793
    12  C   -0.000957
    13  C   -0.030116
    14  C    0.012452
    15  C    0.016859
    16  C    0.008839
    17  C   -0.030360
    23  C    0.187097
    28  O   -0.374812
    29  C    0.227675
 Electronic spatial extent (au):  <R**2>=           3905.4877
 Charge=             -0.0000 electrons
 Dipole moment (field-independent basis, Debye):
    X=              6.0700    Y=              4.3947    Z=             -3.3588  Tot=              8.2122
 Quadrupole moment (field-independent basis, Debye-Ang):
   XX=            -94.0380   YY=            -83.3485   ZZ=            -83.2906
   XY=              1.5459   XZ=              2.2661   YZ=             -2.6385
 Traceless Quadrupole moment (field-independent basis, Debye-Ang):
   XX=             -7.1457   YY=              3.5439   ZZ=              3.6018
   XY=              1.5459   XZ=              2.2661   YZ=             -2.6385
 Octapole moment (field-independent basis, Debye-Ang**2):
  XXX=             23.7579  YYY=             32.8082  ZZZ=            -12.6913  XYY=             -1.8384
  XXY=            -27.2807  XXZ=             -0.4258  XZZ=             -4.6256  YZZ=             11.5842
  YYZ=            -18.2363  XYZ=             12.5601
 Hexadecapole moment (field-independent basis, Debye-Ang**3):
 XXXX=          -3494.4807 YYYY=           -915.8676 ZZZZ=           -445.8965 XXXY=             58.8734
 XXXZ=             43.7989 YYYX=              2.1439 YYYZ=            -20.8581 ZZZX=              0.2095
 ZZZY=            -16.8610 XXYY=           -768.7488 XXZZ=           -689.9738 YYZZ=           -217.9629
 XXYZ=             17.4654 YYXZ=            -10.7222 ZZXY=              2.8881
 N-N= 1.009473206512D+03 E-N=-3.581055830006D+03  KE= 6.648327558411D+02


 IT IS WELL TO REMEMBER THAT MAN IS A PART OF NATURE AND THAT HIS WORKS,
 WHATEVER THEY MAY BE, ARE NO MORE "UNNATURAL" THAN 
 THE FLIGHT OF AN EAGLE OR THE PASSAGE OF A TORNADO.

                                    -- CHARLES MCCARRY IN "THE GREAT SOUTHWEST"
 Error termination request processed by link 9999.
 Error termination via Lnk1e in /apps/gaussian/g16/C.01/g16/l9999.exe at Tue Dec 19 01:12:11 2023.
 Job cpu time:       0 days  5 hours 54 minutes 23.7 seconds.
 Elapsed time:       0 days  5 hours 55 minutes 56.4 seconds.
 File lengths (MBytes):  RWF=    154 Int=      0 D2E=      0 Chk=     14 Scr=      1
