 Entering Gaussian System, Link 0=g16
 Input=da-1_2_freq.gjf
 Output=da-1_2_freq.out
 Initial command:
 /opt/gaussian16/g16/l1.exe "/tmp/Gau-1944128.inp" -scrdir="/tmp/"
 Entering Link 1 = /opt/gaussian16/g16/l1.exe PID=   1944130.
  
 Copyright (c) 1988,1990,1992,1993,1995,1998,2003,2009,2016,
            Gaussian, Inc.  All Rights Reserved.
  
 This is part of the Gaussian(R) 16 program.  It is based on
 the Gaussian(R) 09 system (copyright 2009, Gaussian, Inc.),
 the Gaussian(R) 03 system (copyright 2003, Gaussian, Inc.),
 the Gaussian(R) 98 system (copyright 1998, Gaussian, Inc.),
 the Gaussian(R) 94 system (copyright 1995, Gaussian, Inc.),
 the Gaussian 92(TM) system (copyright 1992, Gaussian, Inc.),
 the Gaussian 90(TM) system (copyright 1990, Gaussian, Inc.),
 the Gaussian 88(TM) system (copyright 1988, Gaussian, Inc.),
 the Gaussian 86(TM) system (copyright 1986, Carnegie Mellon
 University), and the Gaussian 82(TM) system (copyright 1983,
 Carnegie Mellon University). Gaussian is a federally registered
 trademark of Gaussian, Inc.
  
 This software contains proprietary and confidential information,
 including trade secrets, belonging to Gaussian, Inc.
  
 This software is provided under written license and may be
 used, copied, transmitted, or stored only in accord with that
 written license.
  
 The following legend is applicable only to US Government
 contracts under FAR:
  
                    RESTRICTED RIGHTS LEGEND
  
 Use, reproduction and disclosure by the US Government is
 subject to restrictions as set forth in subparagraphs (a)
 and (c) of the Commercial Computer Software - Restricted
 Rights clause in FAR 52.227-19.
  
 Gaussian, Inc.
 340 Quinnipiac St., Bldg. 40, Wallingford CT 06492
  
  
 ---------------------------------------------------------------
 Warning -- This program may not be used in any manner that
 competes with the business of Gaussian, Inc. or will provide
 assistance to any competitor of Gaussian, Inc.  The licensee
 of this program is prohibited from giving any competitor of
 Gaussian, Inc. access to this program.  By using this program,
 the user acknowledges that Gaussian, Inc. is engaged in the
 business of creating and licensing software in the field of
 computational chemistry and represents and warrants to the
 licensee that it is not a competitor of Gaussian, Inc. and that
 it will not use this program in any manner prohibited above.
 ---------------------------------------------------------------
  

 Cite this work as:
 Gaussian 16, Revision A.03,
 M. J. Frisch, G. W. Trucks, H. B. Schlegel, G. E. Scuseria, 
 M. A. Robb, J. R. Cheeseman, G. Scalmani, V. Barone, 
 G. A. Petersson, H. Nakatsuji, X. Li, M. Caricato, A. V. Marenich, 
 J. Bloino, B. G. Janesko, R. Gomperts, B. Mennucci, H. P. Hratchian, 
 J. V. Ortiz, A. F. Izmaylov, J. L. Sonnenberg, D. Williams-Young, 
 F. Ding, F. Lipparini, F. Egidi, J. Goings, B. Peng, A. Petrone, 
 T. Henderson, D. Ranasinghe, V. G. Zakrzewski, J. Gao, N. Rega, 
 G. Zheng, W. Liang, M. Hada, M. Ehara, K. Toyota, R. Fukuda, 
 J. Hasegawa, M. Ishida, T. Nakajima, Y. Honda, O. Kitao, H. Nakai, 
 T. Vreven, K. Throssell, J. A. Montgomery, Jr., J. E. Peralta, 
 F. Ogliaro, M. J. Bearpark, J. J. Heyd, E. N. Brothers, K. N. Kudin, 
 V. N. Staroverov, T. A. Keith, R. Kobayashi, J. Normand, 
 K. Raghavachari, A. P. Rendell, J. C. Burant, S. S. Iyengar, 
 J. Tomasi, M. Cossi, J. M. Millam, M. Klene, C. Adamo, R. Cammi, 
 J. W. Ochterski, R. L. Martin, K. Morokuma, O. Farkas, 
 J. B. Foresman, and D. J. Fox, Gaussian, Inc., Wallingford CT, 2016.
 
 ******************************************
 Gaussian 16:  ES64L-G16RevA.03 25-Dec-2016
                18-Jan-2024 
 ******************************************
 %chk=da-1_2_freq.chk
 %nprocshared=12
 Will use up to   12 processors via shared memory.
 %mem=48GB
 ----------------------------------------------------------------------
 # external=("~/scripts/MiMe6 -H 'am1' -EF 'wb97xd def2svp' -c 12 -m 48
 GB",nodelete) freq=noraman iop(7/33=1)
 ----------------------------------------------------------------------
 1/10=4,18=10,30=1,38=1/1,3;
 2/12=2,17=6,18=5,40=1/2;
 3/11=9,25=1,30=1,41=9900000,43=2,71=2,140=1/1;
 4/20=17,22=2,24=3,113=1,114=1,124=20000/2;
 6/7=2,8=2,9=2,10=2/1;
 7/8=1,25=1,33=1,44=-1/16;
 1/10=4,18=10,30=1/3;
 99//99;
 -----
 *****
 -----
 Symbolic Z-matrix:
 Charge =  0 Multiplicity = 1
 O                     1.4571    1.0277   -0.4703 
 C                    -0.2447    1.596     0.2715 
 C                     0.5243   -1.1064    1.1767 
 C                    -0.9704    0.443     0.8253 
 C                     1.7089   -0.117    -0.8424 
 C                     1.2547   -1.2973   -0.0698 
 H                     2.2458   -0.3433   -1.7784 
 H                     1.0475   -0.4791    1.9054 
 H                     1.2246   -2.2497   -0.583 
 H                     0.1869    2.2996    0.9795 
 H                    -0.5702    1.9784   -0.6958 
 H                    -1.207     0.503     1.8865 
 C                    -2.0063   -0.2391   -0.0068 
 O                    -1.9637   -0.3005   -1.2288 
 H                     0.0393   -1.9945    1.5795 
 H                    -2.818    -0.7085    0.5735 
 

 GradGradGradGradGradGradGradGradGradGradGradGradGradGradGradGradGradGrad
 Berny optimization.
 Initialization pass.
 Trust Radius=3.00D-01 FncErr=1.00D-07 GrdErr=1.00D-07 EigMax=2.50D+02 EigMin=1.00D-04
 Number of steps in this run=      2 maximum allowed number of steps=      2.
 GradGradGradGradGradGradGradGradGradGradGradGradGradGradGradGradGradGrad

                          Input orientation:                          
 ---------------------------------------------------------------------
 Center     Atomic      Atomic             Coordinates (Angstroms)
 Number     Number       Type             X           Y           Z
 ---------------------------------------------------------------------
      1          8           0        1.457100    1.027700   -0.470300
      2          6           0       -0.244700    1.596000    0.271500
      3          6           0        0.524300   -1.106400    1.176700
      4          6           0       -0.970400    0.443000    0.825300
      5          6           0        1.708900   -0.117000   -0.842400
      6          6           0        1.254700   -1.297300   -0.069800
      7          1           0        2.245800   -0.343300   -1.778400
      8          1           0        1.047500   -0.479100    1.905400
      9          1           0        1.224600   -2.249700   -0.583000
     10          1           0        0.186900    2.299600    0.979500
     11          1           0       -0.570200    1.978400   -0.695800
     12          1           0       -1.207000    0.503000    1.886500
     13          6           0       -2.006300   -0.239100   -0.006800
     14          8           0       -1.963700   -0.300500   -1.228800
     15          1           0        0.039300   -1.994500    1.579500
     16          1           0       -2.818000   -0.708500    0.573500
 ---------------------------------------------------------------------
                    Distance matrix (angstroms):
                    1          2          3          4          5
     1  O    0.000000
     2  C    1.941483   0.000000
     3  C    2.852562   2.951900   0.000000
     4  C    2.813043   1.470627   2.181341   0.000000
     5  C    1.229715   2.826959   2.541447   3.205226   0.000000
     6  C    2.367909   3.276564   1.457288   2.963261   1.481997
     7  H    2.052514   3.763717   3.504069   4.212062   1.102529
     8  H    2.842916   2.940315   1.094645   2.467550   2.849381
     9  H    3.287569   4.204571   2.212261   3.748595   2.202327
    10  H    2.309341   1.087472   3.428347   2.193190   3.387589
    11  H    2.250472   1.089885   3.770965   2.198035   3.099434
    12  H    3.595448   2.174602   2.468073   1.088910   4.041506
    13  C    3.716820   2.558960   2.925204   1.493566   3.809967
    14  O    3.747174   2.966913   3.553315   2.399742   3.697427
    15  H    3.917337   3.831868   1.089126   2.744033   3.489723
    16  H    4.730792   3.467535   3.419524   2.191570   4.779903
                    6          7          8          9         10
     6  C    0.000000
     7  H    2.193561   0.000000
     8  H    2.147975   3.876177   0.000000
     9  H    1.082287   2.471071   3.059170   0.000000
    10  H    3.896013   4.339355   3.052720   4.920809   0.000000
    11  H    3.801624   3.806858   3.927149   4.594656   1.866280
    12  H    3.623280   5.105834   2.459197   4.425886   2.448138
    13  C    3.428976   4.607578   3.611067   3.848796   3.496843
    14  O    3.563003   4.245443   4.349992   3.792321   4.032640
    15  H    2.164134   4.344030   1.849085   2.479207   4.338327
    16  H    4.165022   5.595255   4.094957   4.478326   4.271174
                   11         12         13         14         15
    11  H    0.000000
    12  H    3.041479   0.000000
    13  C    2.730277   2.184989   0.000000
    14  O    2.723842   3.305042   1.224283   0.000000
    15  H    4.618703   2.808028   3.127660   3.842941   0.000000
    16  H    3.726011   2.405623   1.102697   2.035824   3.290896
                   16
    16  H    0.000000
 Stoichiometry    C6H8O2
 Framework group  C1[X(C6H8O2)]
 Deg. of freedom    42
 Full point group                 C1      NOp   1
 Largest Abelian subgroup         C1      NOp   1
 Largest concise Abelian subgroup C1      NOp   1
                         Standard orientation:                         
 ---------------------------------------------------------------------
 Center     Atomic      Atomic             Coordinates (Angstroms)
 Number     Number       Type             X           Y           Z
 ---------------------------------------------------------------------
      1          8           0        1.456663    1.150187   -0.166589
      2          6           0       -0.295156    1.484708    0.600602
      3          6           0        0.577324   -1.309812    0.978956
      4          6           0       -0.980385    0.214072    0.881122
      5          6           0        1.777583    0.115798   -0.749039
      6          6           0        1.357444   -1.214233   -0.248222
      7          1           0        2.355984    0.105909   -1.687615
      8          1           0        1.043980   -0.820927    1.840043
      9          1           0        1.392065   -2.043889   -0.942352
     10          1           0        0.076943    2.048562    1.452780
     11          1           0       -0.606967    2.040330   -0.283653
     12          1           0       -1.254887    0.048655    1.921800
     13          6           0       -1.952636   -0.329229   -0.114011
     14          8           0       -1.866360   -0.140930   -1.320646
     15          1           0        0.124155   -2.280601    1.174920
     16          1           0       -2.758742   -0.939929    0.325510
 ---------------------------------------------------------------------
 Rotational constants (GHZ):           2.7622736           1.6518644           1.4942764
 Standard basis: STO-3G (5D, 7F)
 There are    48 symmetry adapted cartesian basis functions of A   symmetry.
 There are    48 symmetry adapted basis functions of A   symmetry.
    48 basis functions,   144 primitive gaussians,    48 cartesian basis functions
    30 alpha electrons       30 beta electrons
       nuclear repulsion energy       354.7323196843 Hartrees.
 NAtoms=   16 NActive=   16 NUniq=   16 SFac= 1.00D+00 NAtFMM=   60 NAOKFM=F Big=F
 Integral buffers will be    131072 words long.
 Raffenetti 1 integral format.
 Two-electron integral symmetry is turned on.
 External calculation of energy, first and second derivatives.
 Running external command "~/scripts/MiMe6 -H 'am1' -EF 'wb97xd def2svp' -c 12 -m 48GB R"
         input file       "/tmp/Gau-1944130.EIn"
         output file      "/tmp/Gau-1944130.EOu"
         message file     "/tmp/Gau-1944130.EMs"
         fchk file        "/tmp/Gau-1944130.EFC"
         mat. el file     "/tmp/Gau-1944130.EUF"
 Read checkpoint file Gau-1944130_H.chk
 Write formatted file Gau-1944130_H.fchk
 FChkPn:  Initial coordinates match /B/.

deriv: 2

spelevel: wb97xd def2svp
gradlevel: wb97xd def2svp
hesslevel: am1

runspe: False
runforce: True
runfreq: True

Running Gaussian ...

Parsing files ...
True
SPE file: Gau-1944130_F.out
FORCE file: Gau-1944130_F.out
HESS file: Gau-1944130_H.fchk

 ExternalExternalExternalExternalExternalExternalExternalExternalExternalExternal
 Output from external command:
 "~/scripts/MiMe6 -H 'am1' -EF 'wb97xd def2svp' -c 12 -m 48GB R /tmp/Gau-1944130.EIn /tmp/Gau-1944130.EOu /tmp/Gau-1944130.EMs /tmp/Gau-1944130.EFC /tmp/Gau-1944130.EUF"
  
 --------------------------------------------------
 Force calculation at wb97xd def2svp
 Hessian calculation at am1
 ExternalExternalExternalExternalExternalExternalExternalExternalExternalExternal

 Recovered energy= -383.350862788     dipole=      0.111200000000     -0.472700000000      2.721500000000
 Energy=    -383.350863     NIter=   0.
 Dipole moment=       0.111200      -0.472700       2.721500
 FrcOut:
 IF    =        73 IFX   =       121 IFXYZ =       169
 IFFX  =       217 IFFFX =      1393 IFLen =        48
 IFFLen=      1176 IFFFLn=         0 IEDerv=      1393
 LEDerv=      2357 IFroze=      4328 ICStrt=      9217
 Dipole        = 1.11200000D-01-4.72700000D-01 2.72150000D+00
 VibFq2-Diag1:  N=     48 IV=          17 MDV=  6442433263 NE2=   134217359
 Full mass-weighted force constant matrix:
 Low frequencies --- -891.9918 -161.0518 -146.8102   -0.0363   -0.0250    0.0199
 Low frequencies ---   50.2840   64.2133  109.7322
 OrtVCM:  Ph=1 IPass= 1 DotMx1= 0.00D+00
 OrtVCM:  IS=    1 I=    1 IndO=    1 Dot= 1.00D+00 DotN= 1.00D+00 ElMax1= 3.78D-01 ElMax1N= 3.78D-01
 OrtVCM:  Ph=2 NNew=    0 IAdd=    2 IPass= 1 DotMx2= 0.00D+00
 OrtVCM:  IS=    1 I=    2 IndO=    2 Dot= 1.00D+00 DotN= 1.00D+00 ElMax1= 3.78D-01 ElMax1N= 3.78D-01
 OrtVCM:  Ph=2 NNew=    0 IAdd=    3 IPass= 1 DotMx2= 0.00D+00
 OrtVCM:  IS=    1 I=    3 IndO=    3 Dot= 1.00D+00 DotN= 1.00D+00 ElMax1= 3.78D-01 ElMax1N= 3.78D-01
 OrtVCM:  Ph=2 NNew=    0 IAdd=    4 IPass= 1 DotMx2= 4.16D-17
 OrtVCM:  IS=    1 I=    4 IndO=    4 Dot= 1.00D+00 DotN= 1.00D+00 ElMax1= 3.77D-01 ElMax1N= 3.77D-01
 OrtVCM:  Ph=2 NNew=    0 IAdd=    5 IPass= 1 DotMx2= 4.30D-16
 OrtVCM:  IS=    1 I=    5 IndO=    5 Dot= 1.00D+00 DotN= 1.00D+00 ElMax1= 4.27D-01 ElMax1N= 4.27D-01
 OrtVCM:  Ph=2 NNew=    0 IAdd=    6 IPass= 1 DotMx2= 1.11D-16
 OrtVCM:  IS=    1 I=    6 IndO=    6 Dot= 1.00D+00 DotN= 1.00D+00 ElMax1= 4.16D-01 ElMax1N= 4.16D-01
 OrtVCM:  Ph=1 IPass= 1 DotMx1= 4.27D-01
 OrtVCM:  Ph=1 IPass= 2 DotMx1= 2.09D-16
 OrtVCM:  IS=    1 I=    1 IndO=    7 Dot= 7.95D-01 DotN= 7.95D-01 ElMax1= 7.95D-01 ElMax1N= 7.95D-01
 OrtVCM:  Ph=2 NNew=    0 IAdd=    2 IPass= 1 DotMx2= 8.82D-02
 OrtVCM:  Ph=2 NNew=    0 IAdd=    2 IPass= 2 DotMx2= 6.94D-18
 OrtVCM:  IS=    1 I=    2 IndO=    8 Dot= 7.46D-01 DotN= 7.46D-01 ElMax1= 7.46D-01 ElMax1N= 7.46D-01
 OrtVCM:  Ph=2 NNew=    0 IAdd=    3 IPass= 1 DotMx2= 1.71D-02
 OrtVCM:  Ph=2 NNew=    0 IAdd=    3 IPass= 2 DotMx2= 3.47D-18
 OrtVCM:  IS=    1 I=    3 IndO=    9 Dot= 6.35D-01 DotN= 6.35D-01 ElMax1= 6.35D-01 ElMax1N= 6.35D-01
 OrtVCM:  Ph=2 NNew=    0 IAdd=    4 IPass= 1 DotMx2= 2.11D-01
 OrtVCM:  Ph=2 NNew=    0 IAdd=    4 IPass= 2 DotMx2= 1.11D-16
 OrtVCM:  IS=    1 I=    4 IndO=   10 Dot= 7.38D-01 DotN= 7.38D-01 ElMax1= 7.38D-01 ElMax1N= 7.38D-01
 OrtVCM:  Ph=2 NNew=    0 IAdd=    5 IPass= 1 DotMx2= 1.12D-01
 OrtVCM:  Ph=2 NNew=    0 IAdd=    5 IPass= 2 DotMx2= 3.47D-17
 OrtVCM:  IS=    1 I=    5 IndO=   11 Dot= 8.46D-01 DotN= 8.46D-01 ElMax1= 8.46D-01 ElMax1N= 8.46D-01
 OrtVCM:  Ph=2 NNew=    0 IAdd=    6 IPass= 1 DotMx2= 2.88D-01
 OrtVCM:  Ph=2 NNew=    0 IAdd=    6 IPass= 2 DotMx2= 8.33D-17
 OrtVCM:  IS=    1 I=    6 IndO=   12 Dot= 6.57D-01 DotN= 6.57D-01 ElMax1= 6.57D-01 ElMax1N= 6.57D-01
 OrtVCM:  Ph=2 NNew=    0 IAdd=    7 IPass= 1 DotMx2= 8.60D-02
 OrtVCM:  Ph=2 NNew=    0 IAdd=    7 IPass= 2 DotMx2= 2.08D-17
 OrtVCM:  IS=    1 I=    7 IndO=   13 Dot= 7.66D-01 DotN= 7.66D-01 ElMax1= 7.66D-01 ElMax1N= 7.66D-01
 OrtVCM:  Ph=2 NNew=    0 IAdd=    8 IPass= 1 DotMx2= 1.83D-01
 OrtVCM:  Ph=2 NNew=    0 IAdd=    8 IPass= 2 DotMx2= 9.02D-17
 OrtVCM:  IS=    1 I=    8 IndO=   14 Dot= 7.06D-01 DotN= 7.06D-01 ElMax1= 7.06D-01 ElMax1N= 7.06D-01
 OrtVCM:  Ph=2 NNew=    0 IAdd=    9 IPass= 1 DotMx2= 1.06D-01
 OrtVCM:  Ph=2 NNew=    0 IAdd=    9 IPass= 2 DotMx2= 3.47D-17
 OrtVCM:  IS=    1 I=    9 IndO=   15 Dot= 7.43D-01 DotN= 7.43D-01 ElMax1= 7.43D-01 ElMax1N= 7.43D-01
 OrtVCM:  Ph=2 NNew=    0 IAdd=   10 IPass= 1 DotMx2= 2.07D-01
 OrtVCM:  Ph=2 NNew=    0 IAdd=   10 IPass= 2 DotMx2= 9.02D-17
 OrtVCM:  IS=    1 I=   10 IndO=   16 Dot= 7.52D-01 DotN= 7.52D-01 ElMax1= 7.52D-01 ElMax1N= 7.52D-01
 OrtVCM:  Ph=2 NNew=    0 IAdd=   11 IPass= 1 DotMx2= 2.65D-01
 OrtVCM:  Ph=2 NNew=    0 IAdd=   11 IPass= 2 DotMx2= 8.50D-17
 OrtVCM:  IS=    1 I=   11 IndO=   17 Dot= 6.29D-01 DotN= 6.29D-01 ElMax1= 6.29D-01 ElMax1N= 6.29D-01
 OrtVCM:  Ph=2 NNew=    0 IAdd=   12 IPass= 1 DotMx2= 2.06D-01
 OrtVCM:  Ph=2 NNew=    0 IAdd=   12 IPass= 2 DotMx2= 4.16D-17
 OrtVCM:  IS=    1 I=   12 IndO=   18 Dot= 7.81D-01 DotN= 7.81D-01 ElMax1= 7.81D-01 ElMax1N= 7.81D-01
 OrtVCM:  Ph=2 NNew=    0 IAdd=   13 IPass= 1 DotMx2= 1.71D-01
 OrtVCM:  Ph=2 NNew=    0 IAdd=   13 IPass= 2 DotMx2= 6.94D-17
 OrtVCM:  IS=    1 I=   13 IndO=   19 Dot= 7.84D-01 DotN= 7.84D-01 ElMax1= 7.84D-01 ElMax1N= 7.84D-01
 OrtVCM:  Ph=2 NNew=    0 IAdd=   14 IPass= 1 DotMx2= 2.87D-01
 OrtVCM:  Ph=2 NNew=    0 IAdd=   14 IPass= 2 DotMx2= 1.11D-16
 OrtVCM:  IS=    1 I=   14 IndO=   20 Dot= 5.38D-01 DotN= 5.38D-01 ElMax1= 5.38D-01 ElMax1N= 5.38D-01
 OrtVCM:  Ph=2 NNew=    0 IAdd=   15 IPass= 1 DotMx2= 3.12D-01
 OrtVCM:  Ph=2 NNew=    0 IAdd=   15 IPass= 2 DotMx2= 8.67D-17
 OrtVCM:  IS=    1 I=   15 IndO=   21 Dot= 4.95D-01 DotN= 4.95D-01 ElMax1= 4.95D-01 ElMax1N= 4.95D-01
 OrtVCM:  Ph=2 NNew=    0 IAdd=   16 IPass= 1 DotMx2= 1.96D-01
 OrtVCM:  Ph=2 NNew=    0 IAdd=   16 IPass= 2 DotMx2= 5.55D-17
 OrtVCM:  IS=    1 I=   16 IndO=   22 Dot= 7.00D-01 DotN= 7.00D-01 ElMax1= 7.00D-01 ElMax1N= 7.00D-01
 OrtVCM:  Ph=2 NNew=    0 IAdd=   17 IPass= 1 DotMx2= 5.19D-01
 OrtVCM:  Ph=2 NNew=    0 IAdd=   17 IPass= 2 DotMx2= 3.47D-16
 OrtVCM:  IS=    1 I=   17 IndO=   23 Dot= 3.45D-01 DotN= 3.45D-01 ElMax1= 3.45D-01 ElMax1N= 3.45D-01
 OrtVCM:  Ph=2 NNew=    0 IAdd=   18 IPass= 1 DotMx2= 4.27D-01
 OrtVCM:  Ph=2 NNew=    0 IAdd=   18 IPass= 2 DotMx2= 6.94D-17
 OrtVCM:  IS=    1 I=   18 IndO=   24 Dot= 3.57D-01 DotN= 3.57D-01 ElMax1= 3.57D-01 ElMax1N= 3.57D-01
 OrtVCM:  Ph=2 NNew=    0 IAdd=   19 IPass= 1 DotMx2= 9.14D-02
 OrtVCM:  Ph=2 NNew=    0 IAdd=   19 IPass= 2 DotMx2= 2.08D-17
 OrtVCM:  IS=    1 I=   19 IndO=   25 Dot= 9.52D-01 DotN= 9.52D-01 ElMax1= 9.52D-01 ElMax1N= 9.52D-01
 OrtVCM:  Ph=2 NNew=    0 IAdd=   20 IPass= 1 DotMx2= 4.24D-01
 OrtVCM:  Ph=2 NNew=    0 IAdd=   20 IPass= 2 DotMx2= 1.39D-16
 OrtVCM:  IS=    1 I=   20 IndO=   26 Dot= 6.75D-01 DotN= 6.75D-01 ElMax1= 6.75D-01 ElMax1N= 6.75D-01
 OrtVCM:  Ph=2 NNew=    0 IAdd=   21 IPass= 1 DotMx2= 3.40D-01
 OrtVCM:  Ph=2 NNew=    0 IAdd=   21 IPass= 2 DotMx2= 8.33D-17
 OrtVCM:  IS=    1 I=   21 IndO=   27 Dot= 7.68D-01 DotN= 7.68D-01 ElMax1= 7.68D-01 ElMax1N= 7.68D-01
 OrtVCM:  Ph=2 NNew=    0 IAdd=   22 IPass= 1 DotMx2= 1.84D-01
 OrtVCM:  Ph=2 NNew=    0 IAdd=   22 IPass= 2 DotMx2= 5.55D-17
 OrtVCM:  IS=    1 I=   22 IndO=   28 Dot= 8.71D-01 DotN= 8.71D-01 ElMax1= 8.71D-01 ElMax1N= 8.71D-01
 OrtVCM:  Ph=2 NNew=    0 IAdd=   23 IPass= 1 DotMx2= 2.83D-01
 OrtVCM:  Ph=2 NNew=    0 IAdd=   23 IPass= 2 DotMx2= 1.53D-16
 OrtVCM:  IS=    1 I=   23 IndO=   29 Dot= 7.66D-01 DotN= 7.66D-01 ElMax1= 7.66D-01 ElMax1N= 7.66D-01
 OrtVCM:  Ph=2 NNew=    0 IAdd=   24 IPass= 1 DotMx2= 2.73D-01
 OrtVCM:  Ph=2 NNew=    0 IAdd=   24 IPass= 2 DotMx2= 6.94D-17
 OrtVCM:  IS=    1 I=   24 IndO=   30 Dot= 8.36D-01 DotN= 8.36D-01 ElMax1= 8.36D-01 ElMax1N= 8.36D-01
 OrtVCM:  Ph=2 NNew=    0 IAdd=   25 IPass= 1 DotMx2= 1.73D-01
 OrtVCM:  Ph=2 NNew=    0 IAdd=   25 IPass= 2 DotMx2= 9.71D-17
 OrtVCM:  IS=    1 I=   25 IndO=   31 Dot= 8.78D-01 DotN= 8.78D-01 ElMax1= 8.78D-01 ElMax1N= 8.78D-01
 OrtVCM:  Ph=2 NNew=    0 IAdd=   26 IPass= 1 DotMx2= 3.29D-01
 OrtVCM:  Ph=2 NNew=    0 IAdd=   26 IPass= 2 DotMx2= 1.11D-16
 OrtVCM:  IS=    1 I=   26 IndO=   32 Dot= 6.82D-01 DotN= 6.82D-01 ElMax1= 6.82D-01 ElMax1N= 6.82D-01
 OrtVCM:  Ph=2 NNew=    0 IAdd=   27 IPass= 1 DotMx2= 3.45D-01
 OrtVCM:  Ph=2 NNew=    0 IAdd=   27 IPass= 2 DotMx2= 8.33D-17
 OrtVCM:  IS=    1 I=   27 IndO=   33 Dot= 6.96D-01 DotN= 6.96D-01 ElMax1= 6.96D-01 ElMax1N= 6.96D-01
 OrtVCM:  Ph=2 NNew=    0 IAdd=   28 IPass= 1 DotMx2= 2.47D-01
 OrtVCM:  Ph=2 NNew=    0 IAdd=   28 IPass= 2 DotMx2= 6.94D-17
 OrtVCM:  IS=    1 I=   28 IndO=   34 Dot= 6.61D-01 DotN= 6.61D-01 ElMax1= 6.61D-01 ElMax1N= 6.61D-01
 OrtVCM:  Ph=2 NNew=    0 IAdd=   29 IPass= 1 DotMx2= 1.99D-01
 OrtVCM:  Ph=2 NNew=    0 IAdd=   29 IPass= 2 DotMx2= 1.04D-16
 OrtVCM:  IS=    1 I=   29 IndO=   35 Dot= 7.55D-01 DotN= 7.55D-01 ElMax1= 7.55D-01 ElMax1N= 7.55D-01
 OrtVCM:  Ph=2 NNew=    0 IAdd=   30 IPass= 1 DotMx2= 2.13D-01
 OrtVCM:  Ph=2 NNew=    0 IAdd=   30 IPass= 2 DotMx2= 5.55D-17
 OrtVCM:  IS=    1 I=   30 IndO=   36 Dot= 7.42D-01 DotN= 7.42D-01 ElMax1= 7.42D-01 ElMax1N= 7.42D-01
 OrtVCM:  Ph=2 IPass= 1 DotMx1= 3.08D-01
 OrtVCM:  Ph=2 IPass= 2 DotMx1= 1.75D-16
 OrtVCM:  IS=   31 I=   31 IndO=   37 Dot= 6.20D-01 DotN= 6.20D-01 ElMax1= 6.20D-01 ElMax1N= 6.20D-01
 OrtVCM:  Ph=2 NNew=   30 IAdd=   32 IPass= 1 DotMx2= 2.18D-01
 OrtVCM:  Ph=2 NNew=   30 IAdd=   32 IPass= 2 DotMx2= 1.39D-17
 OrtVCM:  IS=   31 I=   32 IndO=   38 Dot= 8.32D-01 DotN= 8.32D-01 ElMax1= 8.32D-01 ElMax1N= 8.32D-01
 OrtVCM:  Ph=2 NNew=   30 IAdd=   33 IPass= 1 DotMx2= 1.11D-01
 OrtVCM:  Ph=2 NNew=   30 IAdd=   33 IPass= 2 DotMx2= 2.78D-17
 OrtVCM:  IS=   31 I=   33 IndO=   39 Dot= 7.24D-01 DotN= 7.24D-01 ElMax1= 7.24D-01 ElMax1N= 7.24D-01
 OrtVCM:  Ph=2 NNew=   30 IAdd=   34 IPass= 1 DotMx2= 2.05D-01
 OrtVCM:  Ph=2 NNew=   30 IAdd=   34 IPass= 2 DotMx2= 8.33D-17
 OrtVCM:  IS=   31 I=   34 IndO=   40 Dot= 6.25D-01 DotN= 6.25D-01 ElMax1= 6.25D-01 ElMax1N= 6.25D-01
 OrtVCM:  Ph=2 NNew=   30 IAdd=   35 IPass= 1 DotMx2= 1.96D-01
 OrtVCM:  Ph=2 NNew=   30 IAdd=   35 IPass= 2 DotMx2= 4.16D-17
 OrtVCM:  IS=   31 I=   35 IndO=   41 Dot= 7.16D-01 DotN= 7.16D-01 ElMax1= 7.16D-01 ElMax1N= 7.16D-01
 OrtVCM:  Ph=2 NNew=   30 IAdd=   36 IPass= 1 DotMx2= 1.03D-01
 OrtVCM:  Ph=2 NNew=   30 IAdd=   36 IPass= 2 DotMx2= 4.86D-17
 OrtVCM:  IS=   31 I=   36 IndO=   42 Dot= 9.31D-01 DotN= 9.31D-01 ElMax1= 9.31D-01 ElMax1N= 9.31D-01
 OrtVCM:  Ph=2 NNew=   30 IAdd=   37 IPass= 1 DotMx2= 3.91D-01
 OrtVCM:  Ph=2 NNew=   30 IAdd=   37 IPass= 2 DotMx2= 1.94D-16
 OrtVCM:  IS=   31 I=   37 IndO=   43 Dot= 3.28D-01 DotN= 3.28D-01 ElMax1= 3.28D-01 ElMax1N= 3.28D-01
 OrtVCM:  Ph=2 NNew=   30 IAdd=   38 IPass= 1 DotMx2= 3.19D-01
 OrtVCM:  Ph=2 NNew=   30 IAdd=   38 IPass= 2 DotMx2= 4.16D-17
 OrtVCM:  IS=   31 I=   38 IndO=   44 Dot= 2.97D-01 DotN= 2.97D-01 ElMax1= 3.57D-01 ElMax1N= 3.57D-01
 OrtVCM:  Ph=2 NNew=   30 IAdd=   39 IPass= 1 DotMx2= 9.60D-02
 OrtVCM:  Ph=2 NNew=   30 IAdd=   39 IPass= 2 DotMx2= 4.86D-17
 OrtVCM:  IS=   31 I=   39 IndO=   45 Dot= 5.83D-01 DotN= 5.83D-01 ElMax1= 5.83D-01 ElMax1N= 5.83D-01
 OrtVCM:  Ph=2 NNew=   30 IAdd=   40 IPass= 1 DotMx2= 3.23D-01
 OrtVCM:  Ph=2 NNew=   30 IAdd=   40 IPass= 2 DotMx2= 6.33D-17
 OrtVCM:  IS=   31 I=   40 IndO=   46 Dot= 3.65D-02 DotN= 3.65D-02 ElMax1= 1.17D-01 ElMax1N= 1.17D-01
 OrtVCM:  Ph=2 NNew=   30 IAdd=   41 IPass= 1 DotMx2= 2.56D-01
 OrtVCM:  Ph=2 NNew=   30 IAdd=   41 IPass= 2 DotMx2= 1.18D-16
 OrtVCM:  IS=   31 I=   41 IndO=   47 Dot= 2.92D-02 DotN= 2.92D-02 ElMax1= 1.22D-01 ElMax1N= 1.22D-01
 OrtVCM:  Ph=2 NNew=   30 IAdd=   42 IPass= 1 DotMx2= 5.80D-01
 OrtVCM:  Ph=2 NNew=   30 IAdd=   42 IPass= 2 DotMx2= 1.11D-16
 OrtVCM:  IS=   31 I=   42 IndO=    0 Dot= 2.85D-31 DotN= 2.85D-31 ElMax1= 1.86D-16 ElMax1N= 1.86D-16
 SchOr2:  IPass= 1 Test2A= 1.00D-01 IOff=     0 NDo=    42 NNew=    41
 OrtVCM:  Ph=1 IPass= 1 DotMx1= 3.40D-01
 OrtVCM:  Ph=1 IPass= 2 DotMx1= 3.19D-16
 OrtVCM:  IS=    1 I=    1 IndO=   48 Dot= 3.84D-01 DotN= 3.84D-01 ElMax1= 3.84D-01 ElMax1N= 3.84D-01
 SchOr2:  IPass= 1 Test2A= 1.00D-01 IOff=    42 NDo=     1 NNew=     1
 VibFq2-Diag2:  N=     42 IV=          17 MDV=  6442433263 NE2=   153391267
 ******    3 imaginary frequencies (negative Signs) ****** 
 Dipole derivative wrt mode   1:  0.00000D+00  0.00000D+00  0.00000D+00
 Dipole derivative wrt mode   2:  0.00000D+00  0.00000D+00  0.00000D+00
 Dipole derivative wrt mode   3:  0.00000D+00  0.00000D+00  0.00000D+00
 Dipole derivative wrt mode   4:  0.00000D+00  0.00000D+00  0.00000D+00
 Dipole derivative wrt mode   5:  0.00000D+00  0.00000D+00  0.00000D+00
 Dipole derivative wrt mode   6:  0.00000D+00  0.00000D+00  0.00000D+00
 Dipole derivative wrt mode   7:  0.00000D+00  0.00000D+00  0.00000D+00
 Dipole derivative wrt mode   8:  0.00000D+00  0.00000D+00  0.00000D+00
 Dipole derivative wrt mode   9:  0.00000D+00  0.00000D+00  0.00000D+00
 Dipole derivative wrt mode  10:  0.00000D+00  0.00000D+00  0.00000D+00
 Dipole derivative wrt mode  11:  0.00000D+00  0.00000D+00  0.00000D+00
 Dipole derivative wrt mode  12:  0.00000D+00  0.00000D+00  0.00000D+00
 Dipole derivative wrt mode  13:  0.00000D+00  0.00000D+00  0.00000D+00
 Dipole derivative wrt mode  14:  0.00000D+00  0.00000D+00  0.00000D+00
 Dipole derivative wrt mode  15:  0.00000D+00  0.00000D+00  0.00000D+00
 Dipole derivative wrt mode  16:  0.00000D+00  0.00000D+00  0.00000D+00
 Dipole derivative wrt mode  17:  0.00000D+00  0.00000D+00  0.00000D+00
 Dipole derivative wrt mode  18:  0.00000D+00  0.00000D+00  0.00000D+00
 Dipole derivative wrt mode  19:  0.00000D+00  0.00000D+00  0.00000D+00
 Dipole derivative wrt mode  20:  0.00000D+00  0.00000D+00  0.00000D+00
 Dipole derivative wrt mode  21:  0.00000D+00  0.00000D+00  0.00000D+00
 Dipole derivative wrt mode  22:  0.00000D+00  0.00000D+00  0.00000D+00
 Dipole derivative wrt mode  23:  0.00000D+00  0.00000D+00  0.00000D+00
 Dipole derivative wrt mode  24:  0.00000D+00  0.00000D+00  0.00000D+00
 Dipole derivative wrt mode  25:  0.00000D+00  0.00000D+00  0.00000D+00
 Dipole derivative wrt mode  26:  0.00000D+00  0.00000D+00  0.00000D+00
 Dipole derivative wrt mode  27:  0.00000D+00  0.00000D+00  0.00000D+00
 Dipole derivative wrt mode  28:  0.00000D+00  0.00000D+00  0.00000D+00
 Dipole derivative wrt mode  29:  0.00000D+00  0.00000D+00  0.00000D+00
 Dipole derivative wrt mode  30:  0.00000D+00  0.00000D+00  0.00000D+00
 Dipole derivative wrt mode  31:  0.00000D+00  0.00000D+00  0.00000D+00
 Dipole derivative wrt mode  32:  0.00000D+00  0.00000D+00  0.00000D+00
 Dipole derivative wrt mode  33:  0.00000D+00  0.00000D+00  0.00000D+00
 Dipole derivative wrt mode  34:  0.00000D+00  0.00000D+00  0.00000D+00
 Dipole derivative wrt mode  35:  0.00000D+00  0.00000D+00  0.00000D+00
 Dipole derivative wrt mode  36:  0.00000D+00  0.00000D+00  0.00000D+00
 Dipole derivative wrt mode  37:  0.00000D+00  0.00000D+00  0.00000D+00
 Dipole derivative wrt mode  38:  0.00000D+00  0.00000D+00  0.00000D+00
 Dipole derivative wrt mode  39:  0.00000D+00  0.00000D+00  0.00000D+00
 Dipole derivative wrt mode  40:  0.00000D+00  0.00000D+00  0.00000D+00
 Dipole derivative wrt mode  41:  0.00000D+00  0.00000D+00  0.00000D+00
 Dipole derivative wrt mode  42:  0.00000D+00  0.00000D+00  0.00000D+00
 Diagonal vibrational polarizability:
        0.0000000       0.0000000       0.0000000
 NorSel:  MapVib=      1      2      3      4      5      6      7      8      9     10
 NorSel:  MapVib=     11     12     13     14     15     16     17     18     19     20
 NorSel:  MapVib=     21     22     23     24     25     26     27     28     29     30
 NorSel:  MapVib=     31     32     33     34     35     36     37     38     39     40
 NorSel:  MapVib=     41     42
 Harmonic frequencies (cm**-1), IR intensities (KM/Mole), Raman scattering
 activities (A**4/AMU), depolarization ratios for plane and unpolarized
 incident light, reduced masses (AMU), force constants (mDyne/A),
 and normal coordinates:
                      1                      2                      3
                      A                      A                      A
 Frequencies --   -891.9546              -152.9953               -81.8125
 Red. masses --      6.3736                 4.1972                 3.2751
 Frc consts  --      2.9876                 0.0579                 0.0129
 IR Inten    --      0.0000                 0.0000                 0.0000
  Atom  AN      X      Y      Z        X      Y      Z        X      Y      Z
     1   8    -0.18   0.06   0.10    -0.12   0.02  -0.17     0.19  -0.04   0.19
     2   6     0.35  -0.05  -0.16    -0.02  -0.04  -0.03    -0.03   0.05  -0.10
     3   6    -0.26   0.21   0.04     0.04  -0.03   0.07    -0.02   0.06   0.01
     4   6     0.21  -0.28  -0.00     0.00  -0.05  -0.02     0.03   0.04  -0.04
     5   6    -0.12  -0.08   0.03     0.11  -0.05   0.09    -0.07   0.02  -0.04
     6   6     0.05   0.10  -0.07     0.10  -0.04   0.12    -0.08   0.02  -0.04
     7   1    -0.05   0.18   0.08     0.31  -0.13   0.20    -0.27   0.05  -0.16
     8   1     0.24  -0.24   0.06    -0.03  -0.00   0.09     0.05   0.09  -0.04
     9   1     0.24  -0.08   0.17     0.19  -0.06   0.15    -0.17   0.01  -0.04
    10   1     0.02  -0.00  -0.03     0.02  -0.05  -0.04    -0.16   0.17  -0.13
    11   1    -0.19   0.03   0.06    -0.08  -0.03  -0.00     0.09  -0.09  -0.23
    12   1    -0.25   0.35  -0.01    -0.00  -0.05  -0.02    -0.00   0.12  -0.03
    13   6     0.01  -0.02   0.00     0.07  -0.12  -0.04     0.11  -0.17  -0.01
    14   8    -0.00   0.01   0.01    -0.16   0.29   0.01    -0.14   0.04   0.01
    15   1    -0.16   0.13  -0.08     0.04  -0.04   0.05    -0.01   0.07   0.08
    16   1    -0.02   0.04   0.01     0.39  -0.60  -0.12     0.43  -0.58   0.01
                      4                      5                      6
                      A                      A                      A
 Frequencies --    110.5273               204.9870               209.5262
 Red. masses --      4.7479                 2.7370                 5.2405
 Frc consts  --      0.0342                 0.0678                 0.1355
 IR Inten    --      0.0000                 0.0000                 0.0000
  Atom  AN      X      Y      Z        X      Y      Z        X      Y      Z
     1   8    -0.04   0.01  -0.13    -0.04  -0.06   0.09     0.28   0.06  -0.13
     2   6    -0.05   0.01   0.14     0.03  -0.06  -0.01    -0.04  -0.17   0.17
     3   6    -0.06   0.05   0.09     0.21   0.02   0.12    -0.08   0.26   0.07
     4   6    -0.01  -0.02   0.09    -0.01  -0.05  -0.05    -0.04  -0.21   0.01
     5   6    -0.21  -0.04  -0.12    -0.14  -0.01  -0.07     0.12  -0.01  -0.07
     6   6    -0.16  -0.01   0.02     0.08  -0.04   0.04    -0.03   0.09   0.05
     7   1    -0.41  -0.13  -0.24    -0.43   0.06  -0.24     0.05  -0.19  -0.11
     8   1     0.04   0.07   0.03     0.17   0.30  -0.01     0.09   0.19   0.03
     9   1    -0.25  -0.04   0.06     0.15  -0.11   0.14    -0.15   0.02   0.13
    10   1     0.01  -0.04   0.14     0.00  -0.09   0.03     0.07  -0.34   0.23
    11   1    -0.05   0.04   0.16     0.01   0.00   0.03     0.07  -0.06   0.21
    12   1    -0.11  -0.04   0.07     0.01  -0.12  -0.06    -0.18  -0.23  -0.02
    13   6     0.18  -0.10  -0.05    -0.07   0.08  -0.07    -0.14  -0.03  -0.05
    14   8     0.31   0.10  -0.01    -0.04   0.08  -0.07    -0.10  -0.00  -0.04
    15   1    -0.03   0.06   0.19     0.42  -0.02   0.37    -0.11   0.28   0.14
    16   1     0.28  -0.37  -0.24    -0.19   0.23  -0.07    -0.28   0.15  -0.06
                      7                      8                      9
                      A                      A                      A
 Frequencies --    286.8782               339.3757               407.1565
 Red. masses --      3.4477                 3.0184                 1.7999
 Frc consts  --      0.1672                 0.2048                 0.1758
 IR Inten    --      0.0000                 0.0000                 0.0000
  Atom  AN      X      Y      Z        X      Y      Z        X      Y      Z
     1   8    -0.00  -0.09   0.06    -0.12  -0.16   0.05     0.05  -0.02  -0.01
     2   6    -0.16  -0.08  -0.16     0.02   0.08   0.15    -0.04   0.04   0.03
     3   6     0.01   0.11  -0.06     0.01   0.21  -0.08    -0.10  -0.00  -0.08
     4   6    -0.07  -0.08   0.10    -0.06   0.09   0.01    -0.03   0.03   0.02
     5   6     0.09  -0.02  -0.03     0.09  -0.06  -0.03    -0.04  -0.01  -0.07
     6   6     0.04  -0.01  -0.08     0.04  -0.06  -0.10     0.18  -0.01   0.06
     7   1     0.21   0.06   0.04     0.31   0.09   0.11    -0.36  -0.01  -0.27
     8   1     0.10   0.17  -0.13     0.10   0.42  -0.24    -0.29  -0.05   0.04
     9   1     0.03  -0.05  -0.03     0.09  -0.14   0.02     0.65  -0.18   0.30
    10   1    -0.24   0.23  -0.34     0.13  -0.13   0.24    -0.04   0.03   0.03
    11   1    -0.17  -0.42  -0.38     0.06   0.28   0.26     0.01   0.03   0.01
    12   1    -0.05   0.05   0.12    -0.13   0.06  -0.01    -0.06   0.05   0.02
    13   6    -0.09  -0.00   0.07     0.04  -0.02  -0.02    -0.01  -0.00   0.02
    14   8     0.16   0.14   0.11    -0.03  -0.06  -0.03     0.00   0.01   0.02
    15   1     0.02   0.14   0.06    -0.02   0.28   0.18    -0.11  -0.04  -0.26
    16   1    -0.23   0.09  -0.09     0.18  -0.21  -0.00     0.01  -0.05   0.01
                     10                     11                     12
                      A                      A                      A
 Frequencies --    490.5932               619.4756               654.5950
 Red. masses --      2.9739                 1.4761                 1.9019
 Frc consts  --      0.4217                 0.3338                 0.4802
 IR Inten    --      0.0000                 0.0000                 0.0000
  Atom  AN      X      Y      Z        X      Y      Z        X      Y      Z
     1   8    -0.01  -0.05  -0.00     0.04   0.07  -0.01    -0.01   0.02  -0.03
     2   6    -0.23   0.15   0.06    -0.02   0.02  -0.01     0.02  -0.06   0.07
     3   6    -0.02   0.04   0.02    -0.05  -0.02  -0.06    -0.01  -0.02  -0.02
     4   6     0.24  -0.11  -0.03     0.05  -0.03  -0.04    -0.01  -0.01   0.16
     5   6     0.01  -0.05   0.01    -0.05  -0.01   0.08    -0.01   0.00  -0.00
     6   6     0.01  -0.04   0.01    -0.08  -0.05  -0.04    -0.02  -0.00  -0.02
     7   1    -0.02  -0.06  -0.01     0.13  -0.07   0.18     0.08   0.00   0.05
     8   1     0.23  -0.20   0.04    -0.18   0.49  -0.27    -0.06   0.13  -0.07
     9   1    -0.07  -0.05   0.01     0.41  -0.15   0.11     0.16  -0.05   0.04
    10   1    -0.32   0.28  -0.00     0.01  -0.04   0.02    -0.30   0.37  -0.08
    11   1    -0.34   0.05   0.04    -0.10   0.09   0.06     0.20  -0.50  -0.28
    12   1     0.33  -0.30  -0.03     0.15  -0.09  -0.02    -0.38   0.15   0.09
    13   6     0.10   0.07  -0.02    -0.00  -0.01   0.02     0.13   0.09  -0.04
    14   8    -0.05   0.00  -0.04     0.02   0.01   0.03    -0.07  -0.04  -0.08
    15   1    -0.22   0.12  -0.04     0.38  -0.14   0.36     0.18  -0.09   0.09
    16   1    -0.06   0.36   0.11    -0.03   0.03   0.03     0.10   0.15   0.03
                     13                     14                     15
                      A                      A                      A
 Frequencies --    709.0735               755.8090               800.9675
 Red. masses --      2.1804                 1.3538                 1.4082
 Frc consts  --      0.6459                 0.4556                 0.5323
 IR Inten    --      0.0000                 0.0000                 0.0000
  Atom  AN      X      Y      Z        X      Y      Z        X      Y      Z
     1   8     0.03   0.11  -0.04    -0.00   0.02   0.02    -0.06  -0.01  -0.00
     2   6     0.01   0.02   0.02     0.01  -0.08  -0.03     0.04  -0.08   0.01
     3   6     0.07   0.03  -0.06    -0.02   0.03  -0.03    -0.05   0.04  -0.05
     4   6    -0.04   0.01  -0.00    -0.03   0.03   0.07     0.04   0.02  -0.07
     5   6    -0.08  -0.05   0.17    -0.01   0.01   0.04     0.02   0.04   0.01
     6   6     0.09  -0.16  -0.05     0.01  -0.03   0.02     0.01  -0.01   0.07
     7   1    -0.33  -0.08  -0.01    -0.17  -0.01  -0.05    -0.20   0.02  -0.12
     8   1     0.44  -0.03  -0.21    -0.01   0.10  -0.08    -0.33   0.29  -0.05
     9   1    -0.06  -0.00  -0.24    -0.01   0.02  -0.03    -0.24   0.11  -0.09
    10   1    -0.24   0.08   0.09     0.52  -0.05  -0.29    -0.30  -0.01   0.12
    11   1     0.18  -0.02  -0.07    -0.42  -0.15   0.05     0.47  -0.15  -0.18
    12   1    -0.17   0.15  -0.01     0.31  -0.38   0.08     0.32  -0.32  -0.06
    13   6    -0.05  -0.03  -0.00     0.05   0.07  -0.01     0.04  -0.01   0.02
    14   8     0.01   0.00   0.01    -0.02  -0.02  -0.04     0.01   0.01   0.03
    15   1    -0.45   0.33   0.10    -0.22   0.15   0.02    -0.11   0.09   0.02
    16   1    -0.05  -0.04  -0.03     0.17  -0.10  -0.01    -0.02   0.11   0.09
                     16                     17                     18
                      A                      A                      A
 Frequencies --    856.2898               914.9291               945.5173
 Red. masses --      1.2280                 1.6098                 1.8440
 Frc consts  --      0.5305                 0.7940                 0.9713
 IR Inten    --      0.0000                 0.0000                 0.0000
  Atom  AN      X      Y      Z        X      Y      Z        X      Y      Z
     1   8    -0.00   0.00   0.01    -0.01   0.00   0.01    -0.05  -0.02  -0.02
     2   6     0.02  -0.03   0.01    -0.08  -0.08  -0.08     0.01   0.03   0.01
     3   6     0.05   0.00   0.03     0.02  -0.03   0.00    -0.01  -0.03   0.02
     4   6    -0.02   0.04  -0.02    -0.01   0.01   0.00     0.01   0.00   0.00
     5   6    -0.04   0.01  -0.03     0.01   0.04  -0.01     0.20  -0.00   0.08
     6   6    -0.09   0.03  -0.03    -0.04  -0.00  -0.00    -0.12   0.07  -0.04
     7   1     0.25  -0.00   0.15    -0.04   0.03  -0.04    -0.70   0.01  -0.47
     8   1     0.25  -0.20   0.04    -0.00   0.07  -0.04     0.25  -0.05  -0.10
     9   1     0.49  -0.20   0.29     0.19  -0.04   0.07     0.30   0.00   0.06
    10   1    -0.14   0.04   0.04     0.15  -0.47   0.10     0.04   0.09  -0.04
    11   1     0.24  -0.10  -0.11     0.09   0.24   0.08     0.01  -0.03  -0.02
    12   1     0.27  -0.30  -0.01    -0.21   0.32   0.01    -0.01   0.03  -0.00
    13   6    -0.02   0.00  -0.00     0.17  -0.03   0.02    -0.04  -0.02  -0.01
    14   8     0.01  -0.00   0.00    -0.03   0.02   0.01     0.00  -0.00  -0.00
    15   1    -0.35   0.18  -0.07    -0.33   0.16   0.04     0.07  -0.04   0.16
    16   1     0.04  -0.07  -0.01    -0.17   0.48   0.15    -0.02  -0.05  -0.04
                     19                     20                     21
                      A                      A                      A
 Frequencies --    965.8884               971.6299              1022.3464
 Red. masses --      1.8387                 1.9132                 1.4999
 Frc consts  --      1.0107                 1.0642                 0.9237
 IR Inten    --      0.0000                 0.0000                 0.0000
  Atom  AN      X      Y      Z        X      Y      Z        X      Y      Z
     1   8     0.01   0.00  -0.00    -0.00   0.01   0.01     0.01   0.00  -0.01
     2   6    -0.08  -0.07  -0.08     0.02   0.01   0.02     0.02   0.00  -0.07
     3   6    -0.01   0.00   0.01    -0.12  -0.14   0.06    -0.10   0.02  -0.00
     4   6     0.01  -0.05  -0.01     0.03  -0.01  -0.01    -0.10   0.05   0.08
     5   6     0.02  -0.01   0.01     0.04   0.11  -0.14     0.00  -0.02  -0.01
     6   6     0.00   0.00  -0.01     0.06  -0.04   0.05     0.05   0.00   0.01
     7   1    -0.07  -0.01  -0.04     0.19   0.22  -0.03     0.01   0.00  -0.01
     8   1     0.07  -0.04  -0.01     0.29   0.14  -0.29     0.45  -0.27  -0.09
     9   1     0.00   0.00  -0.01    -0.00   0.10  -0.12    -0.04   0.05  -0.05
    10   1    -0.33  -0.36   0.25     0.02   0.08  -0.03    -0.29  -0.11   0.16
    11   1     0.13   0.24   0.07    -0.03  -0.05  -0.01     0.05   0.24   0.08
    12   1    -0.03   0.11   0.01    -0.05   0.08  -0.01     0.35  -0.27   0.13
    13   6    -0.00   0.22   0.05    -0.04   0.01  -0.00     0.06  -0.04  -0.01
    14   8     0.02  -0.04   0.01     0.01  -0.00  -0.00    -0.02   0.01  -0.02
    15   1     0.08  -0.04   0.02    -0.35   0.13   0.66     0.38  -0.19   0.14
    16   1     0.52  -0.49   0.05     0.04  -0.11  -0.03    -0.13   0.19  -0.03
                     22                     23                     24
                      A                      A                      A
 Frequencies --   1060.7909              1126.8355              1130.8470
 Red. masses --      1.2067                 1.6522                 1.6504
 Frc consts  --      0.8000                 1.2360                 1.2435
 IR Inten    --      0.0000                 0.0000                 0.0000
  Atom  AN      X      Y      Z        X      Y      Z        X      Y      Z
     1   8    -0.02  -0.01   0.00    -0.01   0.02   0.00     0.01  -0.07  -0.00
     2   6    -0.08   0.02   0.02    -0.01   0.06  -0.05     0.01   0.01  -0.01
     3   6    -0.05   0.03  -0.02     0.03  -0.01   0.02     0.04  -0.04  -0.05
     4   6     0.05  -0.01  -0.01     0.04  -0.06   0.17     0.02  -0.02   0.05
     5   6    -0.04   0.00   0.02     0.03   0.03  -0.01    -0.06  -0.07   0.02
     6   6     0.02   0.01   0.02    -0.01  -0.05  -0.03    -0.00   0.16   0.07
     7   1     0.03  -0.04   0.06    -0.02   0.17  -0.03     0.05  -0.44   0.09
     8   1     0.27  -0.17  -0.05    -0.33   0.14   0.11     0.04   0.22  -0.20
     9   1     0.04   0.07  -0.05    -0.10  -0.16   0.10     0.28   0.54  -0.38
    10   1     0.56  -0.19  -0.14     0.04  -0.10   0.05    -0.08   0.01   0.03
    11   1     0.57  -0.14  -0.29     0.34   0.23  -0.04     0.01   0.09   0.04
    12   1    -0.02   0.02  -0.02     0.48   0.25   0.32     0.14   0.15   0.11
    13   6    -0.02   0.00  -0.00    -0.06  -0.02  -0.04    -0.02  -0.01  -0.01
    14   8     0.00  -0.00   0.00    -0.02  -0.01  -0.06    -0.01  -0.00  -0.02
    15   1     0.22  -0.10   0.03    -0.13   0.06  -0.04    -0.18   0.11   0.04
    16   1     0.02  -0.03   0.01    -0.13  -0.12  -0.31    -0.04  -0.04  -0.10
                     25                     26                     27
                      A                      A                      A
 Frequencies --   1192.0166              1224.1617              1314.3615
 Red. masses --      1.3695                 1.3737                 1.7132
 Frc consts  --      1.1465                 1.2129                 1.7437
 IR Inten    --      0.0000                 0.0000                 0.0000
  Atom  AN      X      Y      Z        X      Y      Z        X      Y      Z
     1   8    -0.01   0.00   0.01    -0.01   0.01   0.01     0.03  -0.02  -0.05
     2   6    -0.01  -0.10   0.06     0.02   0.04  -0.03    -0.01   0.03   0.03
     3   6    -0.01   0.02  -0.06     0.03  -0.06  -0.11    -0.00  -0.06   0.02
     4   6     0.04   0.06  -0.05     0.00  -0.03   0.03    -0.08  -0.04  -0.04
     5   6    -0.01   0.03  -0.00     0.00   0.01  -0.00    -0.04  -0.13   0.06
     6   6    -0.01  -0.00   0.05     0.00   0.08   0.06     0.04   0.13  -0.03
     7   1     0.01  -0.13   0.02    -0.01  -0.27   0.01    -0.01   0.82   0.04
     8   1     0.22  -0.09  -0.11     0.19   0.12  -0.28     0.05   0.20  -0.15
     9   1    -0.12  -0.15   0.23    -0.43  -0.36   0.56    -0.16  -0.04   0.16
    10   1    -0.08   0.02   0.01     0.01   0.01  -0.01     0.07   0.02  -0.01
    11   1    -0.20  -0.19   0.06     0.06   0.12  -0.00     0.03  -0.10  -0.07
    12   1     0.45   0.67   0.17    -0.24  -0.20  -0.06     0.23   0.13   0.06
    13   6    -0.03  -0.02  -0.02     0.00   0.01   0.01     0.03   0.01   0.00
    14   8     0.00   0.01  -0.02    -0.00  -0.00   0.01     0.00   0.00   0.00
    15   1     0.11  -0.04  -0.04    -0.07   0.02  -0.01    -0.10   0.00  -0.01
    16   1     0.02   0.01   0.07    -0.03  -0.03  -0.09     0.09   0.07   0.20
                     28                     29                     30
                      A                      A                      A
 Frequencies --   1336.4376              1341.4368              1353.8842
 Red. masses --      1.2559                 1.2845                 1.5163
 Frc consts  --      1.3216                 1.3618                 1.6376
 IR Inten    --      0.0000                 0.0000                 0.0000
  Atom  AN      X      Y      Z        X      Y      Z        X      Y      Z
     1   8    -0.01   0.01   0.02     0.00  -0.00  -0.01     0.00  -0.00  -0.00
     2   6    -0.01   0.01   0.01    -0.01  -0.07  -0.02     0.01   0.04  -0.04
     3   6    -0.00  -0.01   0.01     0.01   0.01  -0.01     0.00  -0.01  -0.00
     4   6    -0.07  -0.05  -0.00     0.03   0.00   0.04     0.09   0.08   0.09
     5   6     0.01   0.00   0.00    -0.00   0.02  -0.01    -0.00  -0.01   0.00
     6   6     0.05   0.04  -0.09    -0.05  -0.05   0.08    -0.00   0.01   0.00
     7   1    -0.02  -0.42  -0.01     0.02   0.27   0.00     0.01   0.08   0.01
     8   1    -0.20  -0.13   0.19     0.17   0.14  -0.17    -0.01   0.05  -0.03
     9   1    -0.08  -0.08   0.05     0.08   0.07  -0.06    -0.02   0.00   0.01
    10   1     0.07   0.19  -0.14    -0.01   0.36  -0.28    -0.10  -0.49   0.36
    11   1     0.15   0.15   0.04     0.19   0.45   0.23    -0.22  -0.33  -0.17
    12   1     0.15   0.04   0.07    -0.12  -0.06  -0.00    -0.15  -0.15  -0.01
    13   6    -0.02  -0.01  -0.03    -0.05  -0.03  -0.03    -0.10  -0.06  -0.06
    14   8     0.02   0.01  -0.02     0.02   0.01  -0.02     0.02   0.02  -0.04
    15   1    -0.05   0.07   0.34     0.04  -0.07  -0.34    -0.01  -0.00  -0.02
    16   1     0.25   0.12   0.59     0.16   0.04   0.39     0.18   0.06   0.55
                     31                     32                     33
                      A                      A                      A
 Frequencies --   1367.8238              1406.2240              1969.1730
 Red. masses --      1.4935                 3.9562                10.3527
 Frc consts  --      1.6464                 4.6093                23.6523
 IR Inten    --      0.0000                 0.0000                 0.0000
  Atom  AN      X      Y      Z        X      Y      Z        X      Y      Z
     1   8     0.01  -0.02  -0.02     0.01  -0.01  -0.00     0.11  -0.43  -0.23
     2   6    -0.02  -0.08  -0.01     0.09   0.18  -0.02     0.09   0.04  -0.05
     3   6     0.03   0.02  -0.11     0.10   0.07  -0.21    -0.05   0.02   0.05
     4   6     0.09   0.08   0.03    -0.16  -0.21  -0.02    -0.01  -0.08   0.01
     5   6    -0.03  -0.04   0.03     0.02   0.05  -0.05    -0.19   0.57   0.33
     6   6    -0.00   0.05   0.02    -0.15  -0.12   0.23     0.05   0.01  -0.09
     7   1    -0.00   0.34   0.03     0.02   0.30  -0.04    -0.21   0.06   0.33
     8   1    -0.22  -0.41   0.29    -0.03  -0.41   0.17     0.07  -0.03   0.02
     9   1    -0.01   0.01   0.06     0.18   0.16  -0.09    -0.02  -0.13   0.15
    10   1    -0.06   0.09  -0.09     0.05  -0.10   0.16    -0.09   0.02   0.03
    11   1     0.03   0.18   0.13    -0.10  -0.19  -0.17    -0.13   0.04   0.05
    12   1    -0.17  -0.07  -0.06     0.14   0.13   0.10    -0.07   0.05   0.02
    13   6    -0.03  -0.02  -0.01     0.04   0.03   0.01     0.00   0.01  -0.00
    14   8    -0.00  -0.00  -0.00     0.01   0.00  -0.00    -0.00  -0.00   0.00
    15   1     0.02   0.15   0.61     0.09   0.14   0.25    -0.01  -0.01  -0.02
    16   1    -0.08  -0.04  -0.14     0.17   0.06   0.31     0.02  -0.01   0.01
                     34                     35                     36
                      A                      A                      A
 Frequencies --   2073.7201              3167.1706              3168.2509
 Red. masses --     11.2877                 1.0737                 1.0759
 Frc consts  --     28.5993                 6.3457                 6.3630
 IR Inten    --      0.0000                 0.0000                 0.0000
  Atom  AN      X      Y      Z        X      Y      Z        X      Y      Z
     1   8     0.00  -0.00  -0.00     0.00  -0.00  -0.00     0.00   0.00  -0.00
     2   6    -0.01  -0.01   0.01     0.00   0.00   0.00    -0.00  -0.00   0.00
     3   6    -0.01   0.01   0.00     0.00   0.00   0.00     0.00  -0.00  -0.00
     4   6     0.00   0.00  -0.04    -0.00  -0.00  -0.00    -0.00   0.00  -0.00
     5   6    -0.00   0.00   0.00     0.00  -0.00  -0.00     0.04  -0.00  -0.07
     6   6     0.00   0.00  -0.01    -0.00  -0.00  -0.00     0.00   0.00  -0.00
     7   1    -0.01  -0.00  -0.00    -0.01   0.00   0.02    -0.52   0.02   0.85
     8   1     0.02  -0.01   0.00    -0.00  -0.00  -0.01     0.00   0.00   0.01
     9   1     0.01  -0.01   0.00     0.00   0.00   0.00     0.00  -0.02  -0.02
    10   1     0.00   0.03  -0.02     0.00   0.00   0.00     0.00   0.00   0.00
    11   1     0.01   0.01   0.00    -0.00   0.00  -0.00     0.00  -0.00   0.00
    12   1    -0.14  -0.08  -0.04    -0.02  -0.01   0.05     0.00  -0.00   0.00
    13   6    -0.02  -0.09   0.73    -0.05  -0.04   0.04     0.00   0.00  -0.00
    14   8     0.04   0.09  -0.53    -0.00  -0.00  -0.00     0.00   0.00  -0.00
    15   1     0.00  -0.00   0.00    -0.00  -0.00   0.00    -0.00  -0.01   0.00
    16   1    -0.25  -0.18   0.22     0.72   0.55  -0.42    -0.02  -0.01   0.01
                     37                     38                     39
                      A                      A                      A
 Frequencies --   3196.2031              3232.9458              3244.3438
 Red. masses --      1.0894                 1.0851                 1.0624
 Frc consts  --      6.5572                 6.6821                 6.5887
 IR Inten    --      0.0000                 0.0000                 0.0000
  Atom  AN      X      Y      Z        X      Y      Z        X      Y      Z
     1   8     0.00  -0.00  -0.00    -0.00   0.00   0.00     0.00   0.00   0.00
     2   6    -0.00   0.00  -0.00    -0.02   0.03  -0.07    -0.00   0.00  -0.00
     3   6    -0.04  -0.05  -0.06     0.00   0.00   0.00    -0.03  -0.06   0.03
     4   6    -0.00   0.00   0.00    -0.01  -0.01   0.04     0.00  -0.00  -0.00
     5   6    -0.00   0.00   0.00    -0.00  -0.00   0.00     0.00   0.00  -0.00
     6   6    -0.00   0.00   0.00     0.00   0.00   0.00    -0.00   0.00   0.00
     7   1     0.00  -0.00  -0.01     0.00   0.00  -0.00    -0.00   0.00   0.01
     8   1     0.38   0.45   0.77    -0.01  -0.01  -0.01    -0.10  -0.13  -0.17
     9   1     0.00  -0.07  -0.06     0.00  -0.01  -0.01     0.00  -0.02  -0.02
    10   1    -0.00  -0.00  -0.00     0.06   0.11   0.12     0.01   0.01   0.01
    11   1     0.00  -0.01   0.01     0.23  -0.44   0.69     0.01  -0.02   0.03
    12   1     0.01   0.01  -0.03     0.11   0.08  -0.46    -0.00  -0.00   0.01
    13   6    -0.00  -0.00   0.00    -0.00  -0.00   0.00     0.00   0.00  -0.00
    14   8    -0.00   0.00   0.00    -0.00   0.00  -0.00     0.00   0.00  -0.00
    15   1     0.09   0.18  -0.07    -0.01  -0.03   0.01     0.43   0.85  -0.17
    16   1     0.01   0.00  -0.00     0.02   0.01  -0.01    -0.00  -0.00   0.00
                     40                     41                     42
                      A                      A                      A
 Frequencies --   3251.4952              3259.5510              3294.7366
 Red. masses --      1.0733                 1.0719                 1.0798
 Frc consts  --      6.6856                 6.7099                 6.9064
 IR Inten    --      0.0000                 0.0000                 0.0000
  Atom  AN      X      Y      Z        X      Y      Z        X      Y      Z
     1   8    -0.00   0.00   0.00     0.00  -0.00  -0.00    -0.00   0.00   0.00
     2   6    -0.00   0.03  -0.02    -0.03  -0.04  -0.05    -0.00   0.00   0.00
     3   6     0.00  -0.00  -0.00     0.00   0.00  -0.00    -0.00  -0.01  -0.01
     4   6     0.01   0.01  -0.06     0.00   0.00  -0.02    -0.00   0.00   0.00
     5   6    -0.00  -0.00   0.00    -0.00   0.00   0.00     0.00  -0.00  -0.00
     6   6    -0.00   0.00   0.00    -0.00  -0.00  -0.00     0.00  -0.06  -0.05
     7   1     0.00   0.00  -0.00    -0.00   0.00  -0.00    -0.02  -0.00   0.02
     8   1     0.01   0.01   0.02     0.01   0.01   0.01     0.03   0.03   0.06
     9   1     0.00  -0.01  -0.01    -0.00   0.01   0.01    -0.04   0.76   0.63
    10   1    -0.07  -0.08  -0.15     0.34   0.50   0.75    -0.01  -0.01  -0.01
    11   1     0.14  -0.26   0.42    -0.03   0.02  -0.09     0.00  -0.01   0.01
    12   1    -0.20  -0.14   0.80    -0.06  -0.04   0.23     0.00  -0.00  -0.00
    13   6     0.00   0.00  -0.00     0.00   0.00  -0.00     0.00   0.00   0.00
    14   8     0.00   0.00   0.00     0.00  -0.00   0.00    -0.00  -0.00  -0.00
    15   1    -0.01  -0.02   0.00    -0.00  -0.01   0.00     0.02   0.04  -0.01
    16   1    -0.03  -0.02   0.01    -0.01  -0.01   0.00    -0.00  -0.00   0.00

 -------------------
 - Thermochemistry -
 -------------------
 Temperature   298.150 Kelvin.  Pressure   1.00000 Atm.
 Atom     1 has atomic number  8 and mass  15.99491
 Atom     2 has atomic number  6 and mass  12.00000
 Atom     3 has atomic number  6 and mass  12.00000
 Atom     4 has atomic number  6 and mass  12.00000
 Atom     5 has atomic number  6 and mass  12.00000
 Atom     6 has atomic number  6 and mass  12.00000
 Atom     7 has atomic number  1 and mass   1.00783
 Atom     8 has atomic number  1 and mass   1.00783
 Atom     9 has atomic number  1 and mass   1.00783
 Atom    10 has atomic number  1 and mass   1.00783
 Atom    11 has atomic number  1 and mass   1.00783
 Atom    12 has atomic number  1 and mass   1.00783
 Atom    13 has atomic number  6 and mass  12.00000
 Atom    14 has atomic number  8 and mass  15.99491
 Atom    15 has atomic number  1 and mass   1.00783
 Atom    16 has atomic number  1 and mass   1.00783
 Molecular mass:   112.05243 amu.
 Principal axes and moments of inertia in atomic units:
                           1         2         3
     Eigenvalues --   653.353521092.548031207.76931
           X            0.99904  -0.01876  -0.03971
           Y            0.01849   0.99980  -0.00702
           Z            0.03983   0.00628   0.99919
 This molecule is an asymmetric top.
 Rotational symmetry number  1.
 Warning -- assumption of classical behavior for rotation
           may cause significant error
 Rotational temperatures (Kelvin)      0.13257     0.07928     0.07171
 Rotational constants (GHZ):           2.76227     1.65186     1.49428
    3 imaginary frequencies ignored.
 Zero-point vibrational energy     328841.3 (Joules/Mol)
                                   78.59496 (Kcal/Mol)
 Warning -- explicit consideration of   8 degrees of freedom as
           vibrations may cause significant error
 Vibrational temperatures:    159.02   294.93   301.46   412.75   488.29
          (Kelvin)            585.81   705.85   891.29   941.82  1020.20
                             1087.44  1152.41  1232.01  1316.38  1360.39
                             1389.70  1397.96  1470.93  1526.24  1621.26
                             1627.04  1715.05  1761.30  1891.07  1922.84
                             1930.03  1947.94  1967.99  2023.24  2833.20
                             2983.62  4556.85  4558.41  4598.62  4651.49
                             4667.89  4678.18  4689.77  4740.39
 
 Zero-point correction=                           0.125249 (Hartree/Particle)
 Thermal correction to Energy=                    0.132239
 Thermal correction to Enthalpy=                  0.133183
 Thermal correction to Gibbs Free Energy=         0.093906
 Sum of electronic and zero-point Energies=           -383.225614
 Sum of electronic and thermal Energies=              -383.218624
 Sum of electronic and thermal Enthalpies=            -383.217680
 Sum of electronic and thermal Free Energies=         -383.256957
 
                     E (Thermal)             CV                S
                      KCal/Mol        Cal/Mol-Kelvin    Cal/Mol-Kelvin
 Total                   82.981             26.338             82.666
 Electronic               0.000              0.000              0.000
 Translational            0.889              2.981             40.057
 Rotational               0.889              2.981             28.246
 Vibrational             81.203             20.376             14.362
 Vibration     1          0.606              1.941              3.260
 Vibration     2          0.640              1.833              2.088
 Vibration     3          0.642              1.826              2.048
 Vibration     4          0.684              1.698              1.492
 Vibration     5          0.719              1.597              1.215
 Vibration     6          0.772              1.455              0.937
 Vibration     7          0.846              1.271              0.682
 Vibration     8          0.979              0.991              0.417
                       Q            Log10(Q)             Ln(Q)
 Total Bot       0.640446D-43        -43.193518        -99.456750
 Total V=0       0.261212D+15         14.416992         33.196352
 Vib (Bot)       0.413299D-56        -56.383735       -129.828348
 Vib (Bot)    1  0.185283D+01          0.267836          0.616715
 Vib (Bot)    2  0.970846D+00         -0.012850         -0.029588
 Vib (Bot)    3  0.948109D+00         -0.023142         -0.053286
 Vib (Bot)    4  0.667730D+00         -0.175399         -0.403872
 Vib (Bot)    5  0.547352D+00         -0.261733         -0.602663
 Vib (Bot)    6  0.435453D+00         -0.361059         -0.831368
 Vib (Bot)    7  0.337795D+00         -0.471347         -1.085317
 Vib (Bot)    8  0.236202D+00         -0.626716         -1.443068
 Vib (V=0)       0.168568D+02          1.226775          2.824753
 Vib (V=0)    1  0.241911D+01          0.383656          0.883400
 Vib (V=0)    2  0.159204D+01          0.201953          0.465013
 Vib (V=0)    3  0.157187D+01          0.196417          0.452268
 Vib (V=0)    4  0.133418D+01          0.125216          0.288320
 Vib (V=0)    5  0.124135D+01          0.093893          0.216196
 Vib (V=0)    6  0.116304D+01          0.065594          0.151036
 Vib (V=0)    7  0.110341D+01          0.042737          0.098407
 Vib (V=0)    8  0.105298D+01          0.022422          0.051628
 Electronic      0.100000D+01          0.000000          0.000000
 Translational   0.466215D+08          7.668586         17.657571
 Rotational      0.332378D+06          5.521632         12.714027
 Write normal modes, IRwNMS=   765 IRotNM=-1 NVibU=    42.
 Forces in standard orientation:
 -------------------------------------------------------------------
 Center     Atomic                   Forces (Hartrees/Bohr)
 Number     Number              X              Y              Z
 -------------------------------------------------------------------
      1        8           0.003355006   -0.040093698   -0.017947692
      2        6           0.015384965    0.052618788    0.002609252
      3        6          -0.033762142   -0.017529440    0.043013270
      4        6          -0.013526322   -0.022049147    0.011659684
      5        6           0.017514435    0.087899437   -0.019019954
      6        6           0.013864705   -0.046575212   -0.017287409
      7        1           0.002312156   -0.008691136    0.004777277
      8        1           0.009083358   -0.004661806   -0.001552898
      9        1           0.001099999    0.005523841    0.005535805
     10        1          -0.002951655   -0.001774142    0.000482798
     11        1          -0.002596357   -0.000183621    0.001713687
     12        1          -0.000861489    0.000885134   -0.004620039
     13        6          -0.024981390   -0.016151548    0.020396433
     14        8           0.002874151    0.003709577   -0.025698143
     15        1           0.006587229    0.000732092   -0.002787736
     16        1           0.006603351    0.006340880   -0.001274335
 -------------------------------------------------------------------
 Cartesian Forces:  Max     0.087899437 RMS     0.021673989
 ***** Axes restored to original set *****
 Rotating derivatives, DoTrsp=F IDiff=-2 LEDeriv=   2356 LFDPrp=       0 LDFDPr=       0.
 -------------------------------------------------------------------
 Center     Atomic                   Forces (Hartrees/Bohr)
 Number     Number              X              Y              Z
 -------------------------------------------------------------------
      1        8          -0.000889665    0.042989829    0.009589756
      2        6          -0.017691260   -0.051241754    0.008575791
      3        6           0.032606798    0.006862943   -0.046765389
      4        6           0.013935932    0.018567655   -0.016312770
      5        6          -0.020384530   -0.081331990    0.036937832
      6        6          -0.011134781    0.049725083    0.007985470
      7        1          -0.002144649    0.007664424   -0.006353060
      8        1          -0.008803803    0.005326047    0.000881817
      9        1          -0.001567510   -0.006457468   -0.004267550
     10        1           0.003000679    0.001492007   -0.000928861
     11        1           0.002526325   -0.000292793   -0.001800962
     12        1           0.001019634    0.000014916    0.004672313
     13        6           0.024748504    0.010477005   -0.024056200
     14        8          -0.001929395    0.001653691    0.025999212
     15        1          -0.006487349    0.000170303    0.003095855
     16        1          -0.006804931   -0.005619897    0.002746746
 -------------------------------------------------------------------
 Cartesian Forces:  Max     0.081331990 RMS     0.021673989
 Z-matrix is all fixed cartesians, so copy forces.
 Force constants in Cartesian coordinates: 
                1             2             3             4             5 
      1  0.552339D-01
      2 -0.111278D+00  0.914755D+00
      3 -0.602953D-01  0.234176D+00  0.104117D+00
      4  0.711783D-01 -0.137262D+00 -0.627070D-01  0.168728D+00
      5 -0.834508D-02 -0.148201D-01  0.100158D-02  0.161213D+00  0.504199D+00
      6 -0.476345D-01  0.728172D-01  0.285561D-01  0.188732D+00 -0.370857D-01
      7 -0.417633D-01  0.716209D-01  0.390247D-01  0.776513D-01  0.169881D-01
      8  0.319939D-01 -0.592387D-01 -0.280586D-01 -0.569194D-01 -0.188716D-01
      9  0.146101D-01 -0.313570D-01 -0.177062D-01 -0.247682D-01 -0.699728D-03
     10 -0.605240D-02 -0.213814D-01 -0.587428D-02 -0.144659D+00 -0.102575D+00
     11 -0.705445D-01  0.106664D+00  0.498575D-01  0.296368D-01 -0.203424D+00
     12  0.267670D-01 -0.302566D-01 -0.185830D-01  0.448796D-02  0.613890D-01
     13 -0.101833D+00  0.211754D+00  0.802338D-01  0.271928D-01  0.118539D-01
     14  0.897245D-01 -0.740732D+00 -0.199999D+00  0.148965D+00  0.110581D-03
     15  0.759350D-01 -0.299347D+00 -0.129697D+00 -0.554151D-02 -0.529227D-02
     16  0.405654D-01 -0.538894D-01 -0.211627D-01 -0.443436D-01 -0.419078D-02
     17  0.151339D-01 -0.146210D+00 -0.831428D-02 -0.322263D-01 -0.331404D-02
     18 -0.412283D-01  0.931953D-01  0.606780D-01  0.678509D-01  0.930638D-02
     19  0.305035D-02  0.176745D-01  0.183293D-01 -0.236798D-04 -0.119225D-03
     20  0.305038D-01 -0.337822D-01 -0.436653D-01 -0.793271D-02 -0.478463D-03
     21  0.189455D-01 -0.253278D-01 -0.180434D-01 -0.195142D-02 -0.675805D-04
     22  0.464627D-02 -0.838799D-02 -0.460644D-02 -0.863971D-02 -0.138893D-02
     23 -0.445480D-02  0.680208D-02  0.283984D-02  0.830137D-02  0.130074D-02
     24  0.161736D-02 -0.360287D-02 -0.776147D-03 -0.353264D-02 -0.265122D-03
     25  0.704155D-02 -0.943715D-02 -0.169120D-02 -0.605621D-02 -0.122459D-02
     26 -0.139085D-02 -0.218627D-02  0.348350D-02  0.368552D-03  0.199418D-03
     27  0.403636D-02 -0.683366D-03 -0.304660D-02 -0.373241D-02 -0.817824D-03
     28 -0.410846D-02  0.102647D-01  0.825979D-02 -0.793942D-01 -0.783734D-01
     29  0.521679D-02 -0.802024D-02 -0.646353D-02 -0.815426D-01 -0.158746D+00
     30  0.486367D-02 -0.681581D-02 -0.500484D-02 -0.852923D-01 -0.125728D+00
     31 -0.208273D-01  0.180084D-01  0.350571D-02 -0.436064D-01  0.315101D-01
     32  0.121146D-01 -0.942530D-02 -0.139819D-02  0.211484D-01 -0.728613D-01
     33  0.135469D-02 -0.272543D-02 -0.111732D-02 -0.811495D-01  0.892229D-01
     34 -0.713265D-02  0.912103D-02  0.491466D-02  0.820702D-02 -0.239012D-02
     35  0.631726D-02 -0.100525D-01 -0.399074D-02 -0.202997D-01 -0.880910D-02
     36 -0.169044D-02  0.150223D-02  0.361792D-03  0.121070D-01  0.981644D-02
     37  0.368286D-03  0.237236D-02  0.284444D-02 -0.218152D-01 -0.211955D-01
     38  0.611936D-02 -0.542126D-02 -0.862499D-03 -0.341651D-01 -0.254592D-01
     39  0.726767D-02 -0.240189D-02 -0.217774D-04 -0.974574D-02 -0.229786D-02
     40  0.146954D-03 -0.338969D-03 -0.154067D-03 -0.115064D-02 -0.188588D-03
     41 -0.351215D-03  0.441929D-03  0.328214D-04  0.301659D-03 -0.488787D-03
     42 -0.344999D-02  0.330280D-03  0.152785D-04  0.615353D-02  0.241578D-02
     43 -0.107481D-02  0.178832D-02 -0.559418D-03 -0.697151D-03  0.267752D-04
     44  0.601130D-03  0.384557D-04  0.632207D-03  0.171894D-03 -0.266427D-03
     45 -0.816539D-03  0.458125D-03  0.561746D-04  0.316180D-03 -0.202529D-04
     46  0.559632D-03 -0.629335D-03 -0.605196D-04 -0.257056D-02 -0.160057D-02
     47 -0.135809D-02  0.118360D-02  0.729277D-03  0.241897D-03  0.172850D-02
     48 -0.281140D-03  0.376742D-04  0.207061D-03 -0.122754D-02 -0.878035D-03
                6             7             8             9            10 
      6  0.545628D+00
      7 -0.455702D-01  0.263963D+00
      8  0.361812D-01  0.252823D+00  0.434801D+00
      9  0.134625D-01 -0.654156D-01  0.243364D-01  0.567046D+00
     10  0.496328D-01  0.266831D-01 -0.345507D-01 -0.112574D-01  0.369488D+00
     11 -0.185862D-02 -0.977873D-01  0.656710D-01  0.293233D-01  0.239183D+00
     12 -0.108982D+00  0.337444D-01 -0.275108D-01 -0.219290D-01 -0.226660D-01
     13 -0.110693D-01 -0.320650D-01  0.231623D-02  0.308590D-01  0.735206D-02
     14 -0.825957D-01 -0.975630D-01  0.733906D-01  0.561485D-01  0.275672D-01
     15 -0.125748D-02  0.227973D-01  0.205475D-01 -0.286923D-01 -0.162843D-02
     16  0.231309D-01 -0.889059D-01 -0.308700D-01  0.854615D-01 -0.239984D-01
     17  0.204007D-01  0.380416D-01 -0.118205D+00 -0.480364D-01 -0.612057D-02
     18 -0.400427D-01  0.385403D-01  0.275321D-01 -0.248537D+00  0.299397D-01
     19  0.152618D-02  0.134648D-02 -0.729347D-03  0.132396D-02  0.234303D-02
     20  0.280405D-02  0.171228D-02 -0.482670D-02  0.331508D-03 -0.101337D-03
     21  0.181130D-02  0.341056D-02  0.823184D-03 -0.418896D-03  0.295476D-03
     22  0.478815D-02 -0.809344D-01 -0.948259D-01 -0.973735D-01 -0.142760D-01
     23 -0.383428D-02 -0.918989D-01 -0.124102D+00 -0.102669D+00  0.107028D-01
     24  0.151897D-02 -0.851213D-01 -0.114123D+00 -0.163308D+00 -0.622314D-02
     25  0.395772D-02  0.955849D-02  0.864139D-02  0.101611D-01 -0.309326D-02
     26 -0.886116D-03  0.168115D-02 -0.474031D-02 -0.998948D-02 -0.814761D-04
     27  0.219306D-02  0.982687D-02 -0.265261D-01 -0.227727D-01 -0.196244D-02
     28 -0.838311D-01 -0.200082D-02  0.120577D-02  0.604234D-03 -0.558954D-02
     29 -0.121056D+00  0.150660D-02 -0.137750D-02 -0.502777D-03 -0.189771D-01
     30 -0.163064D+00  0.125261D-02 -0.954416D-03 -0.288653D-03  0.399407D-02
     31 -0.876986D-01 -0.723623D-02  0.496834D-02  0.212597D-02  0.457255D-02
     32  0.933122D-01  0.367346D-02 -0.322471D-02 -0.898421D-03 -0.172166D-02
     33 -0.269807D+00  0.250095D-02 -0.142386D-02 -0.758585D-03  0.276791D-03
     34  0.130112D-01 -0.141614D-01  0.126919D-01  0.619891D-02 -0.405744D-01
     35  0.300721D-01  0.138653D-01 -0.110367D-01 -0.602824D-02 -0.382769D-02
     36 -0.193923D-01  0.315220D-02 -0.285224D-02 -0.528360D-03  0.589442D-01
     37 -0.732190D-02 -0.159009D-01  0.117540D-01 -0.127347D-02 -0.157853D+00
     38 -0.590371D-02 -0.173521D-02  0.506646D-02  0.168966D-02 -0.534146D-01
     39  0.161304D-01 -0.136413D-01  0.129278D-01  0.246113D-02 -0.375973D-01
     40 -0.551249D-04  0.284014D-03 -0.285043D-03  0.253780D-03  0.381461D-02
     41 -0.784941D-03  0.827345D-03 -0.113373D-02 -0.320239D-03 -0.112729D-01
     42 -0.550509D-02  0.696509D-02 -0.737230D-02 -0.257297D-02 -0.476928D-01
     43  0.462545D-03 -0.969727D-01 -0.107957D+00  0.484213D-01  0.117766D-02
     44 -0.178120D-03 -0.112781D+00 -0.232373D+00  0.887411D-01 -0.581316D-03
     45 -0.102077D-04  0.483981D-01  0.865835D-01 -0.754634D-01  0.294786D-03
     46 -0.206221D-02  0.452391D-03 -0.256963D-03  0.683745D-04 -0.193336D-01
     47 -0.140420D-02 -0.974647D-03  0.199748D-03 -0.698374D-04 -0.228474D-01
     48 -0.123923D-02  0.138590D-03 -0.112337D-03  0.474447D-05 -0.847809D-02
               11            12            13            14            15 
     11  0.270710D+00
     12  0.494632D-01  0.640239D+00
     13 -0.244483D-01  0.822230D-02  0.298079D+00
     14 -0.121115D+00  0.383539D-01 -0.179235D+00  0.978830D+00
     15  0.841028D-02 -0.243369D-02 -0.231858D+00  0.236018D+00  0.528768D+00
     16  0.550968D-01 -0.130553D-01 -0.885598D-01  0.101150D-01  0.364843D-01
     17  0.294726D-01 -0.130276D-01 -0.428549D-01 -0.135542D+00  0.865264D-01
     18 -0.815161D-01  0.271726D-01  0.925796D-02 -0.331364D-01 -0.141477D+00
     19  0.967936D-03  0.236023D-04 -0.107699D+00  0.204488D-01  0.103510D+00
     20  0.485211D-02 -0.135466D-02  0.226540D-01 -0.359768D-01 -0.364028D-01
     21  0.210544D-02 -0.540178D-03  0.104598D+00 -0.380708D-01 -0.228523D+00
     22  0.144876D-01 -0.982479D-02  0.975881D-03  0.116806D-01 -0.846429D-03
     23 -0.112460D-01  0.739989D-02 -0.335737D-03 -0.828699D-02  0.128351D-02
     24  0.610753D-02 -0.357689D-02  0.682743D-03  0.439977D-02 -0.139847D-02
     25  0.672022D-02 -0.205898D-02  0.346321D-02  0.250914D-03 -0.619988D-02
     26  0.127973D-03  0.574499D-04 -0.595118D-02 -0.334943D-01 -0.572051D-02
     27  0.475899D-02 -0.176910D-02  0.276077D-02  0.172124D-01  0.554424D-02
     28 -0.192289D-01 -0.501770D-02 -0.254821D-02 -0.206598D-02  0.124326D-02
     29 -0.192095D-01 -0.132229D-01  0.163969D-02  0.284036D-02 -0.122387D-02
     30  0.717117D-02  0.704964D-02  0.110264D-02  0.203751D-02 -0.791932D-03
     31 -0.190895D-01  0.130230D-01 -0.359142D-02 -0.101987D-01 -0.210080D-03
     32 -0.495571D-02  0.262829D-01  0.216634D-02  0.606207D-02 -0.118330D-03
     33  0.161321D-01 -0.136625D-01  0.106987D-02  0.220246D-02  0.900415D-03
     34 -0.148399D-01  0.713275D-01 -0.208566D-02 -0.111713D-01  0.866125D-03
     35 -0.123119D-01 -0.237676D-01  0.242228D-02  0.112048D-01 -0.124005D-02
     36 -0.149179D-01 -0.315579D+00 -0.166314D-03 -0.858360D-03  0.155339D-03
     37 -0.721996D-01 -0.679000D-01 -0.277950D-02 -0.582508D-02  0.722174D-03
     38 -0.108631D+00 -0.459949D-01  0.124088D-03  0.412007D-02 -0.391156D-03
     39 -0.415190D-01 -0.118253D+00 -0.679209D-03 -0.238194D-02  0.123560D-02
     40 -0.104495D-01 -0.404394D-01  0.691403D-03 -0.149727D-03  0.106569D-04
     41  0.727511D-02 -0.307417D-01  0.319764D-03 -0.205816D-03 -0.259482D-03
     42 -0.287147D-01 -0.747127D-01  0.823377D-03  0.304221D-02 -0.135226D-02
     43  0.380205D-02 -0.169452D-02  0.317366D-02 -0.316516D-02  0.497383D-02
     44 -0.296842D-02  0.987664D-03 -0.233072D-02  0.223537D-03 -0.275528D-02
     45  0.103358D-02 -0.319565D-03  0.408903D-02 -0.237858D-02 -0.805088D-03
     46 -0.213076D-01  0.506084D-02  0.233968D-03  0.623309D-03 -0.258607D-03
     47 -0.906269D-03  0.194278D-02 -0.947387D-04 -0.142470D-02 -0.352737D-04
     48 -0.583460D-02  0.587891D-02  0.745932D-04  0.764839D-05 -0.172400D-03
               16            17            18            19            20 
     16  0.238920D+00
     17  0.446924D-01  0.645378D+00
     18 -0.135539D+00  0.952346D-01  0.498285D+00
     19  0.151773D-02 -0.220530D-02  0.162147D-01  0.100320D+00
     20 -0.125590D-01 -0.104657D-02  0.225846D-01 -0.343057D-01  0.729128D-01
     21  0.145741D-01  0.548280D-02 -0.174336D-01 -0.140284D+00  0.553793D-01
     22 -0.240542D-02  0.298290D-02  0.201169D-01  0.290665D-03 -0.285684D-03
     23  0.700422D-02  0.251717D-02 -0.206919D-01 -0.236963D-03  0.212259D-03
     24 -0.508220D-02 -0.241553D-01 -0.257943D-01  0.923032D-04 -0.220668D-03
     25 -0.387543D-01 -0.145582D-01  0.375355D-02  0.342657D-03 -0.397503D-03
     26 -0.657055D-02 -0.270759D+00 -0.129859D+00 -0.384897D-03 -0.565985D-03
     27 -0.401287D-02 -0.134681D+00 -0.950536D-01  0.254202D-04  0.387425D-03
     28  0.883563D-03  0.373450D-03 -0.740896D-03 -0.343444D-03  0.502367D-03
     29 -0.105096D-02 -0.499650D-03  0.151730D-02 -0.157465D-04 -0.330844D-03
     30 -0.854053D-03 -0.352693D-03  0.110115D-02 -0.164201D-05 -0.184960D-03
     31  0.341658D-02  0.282509D-02 -0.574869D-02  0.360814D-03  0.351512D-03
     32 -0.200190D-02 -0.153213D-02  0.329528D-02 -0.266709D-03 -0.245811D-03
     33 -0.710754D-03 -0.874960D-03  0.117145D-02  0.249549D-04 -0.794456D-04
     34  0.398469D-02  0.327099D-02 -0.730217D-02  0.832118D-04  0.457357D-03
     35 -0.382932D-02 -0.333832D-02  0.761347D-02 -0.290607D-03 -0.519107D-03
     36 -0.340271D-03  0.906777D-04  0.111239D-03  0.235066D-03  0.141774D-03
     37  0.461004D-02  0.197460D-02 -0.603322D-02 -0.973764D-03 -0.139989D-03
     38  0.101848D-02 -0.425691D-03 -0.274119D-03 -0.105169D-02 -0.517560D-03
     39  0.399529D-02  0.244596D-02 -0.752060D-02 -0.141078D-02 -0.542388D-03
     40 -0.994970D-03  0.638749D-03 -0.696471D-03  0.102897D-03 -0.171206D-04
     41  0.701892D-05 -0.455683D-04  0.996898D-03 -0.190561D-05  0.522809D-05
     42 -0.283267D-02 -0.191228D-02  0.570036D-02  0.707378D-03  0.230558D-03
     43 -0.577136D-02 -0.119210D-01  0.111211D-01 -0.612439D-03 -0.394142D-03
     44 -0.328357D-02  0.325000D-02  0.494201D-02  0.413784D-03  0.233996D-03
     45  0.200121D-01  0.211909D-01 -0.185295D-01 -0.316362D-03  0.585536D-03
     46 -0.164108D-03 -0.479218D-04  0.493363D-03 -0.103542D-03 -0.480934D-04
     47  0.312524D-03  0.300775D-03 -0.736298D-03  0.999072D-04  0.729150D-04
     48 -0.693402D-04 -0.175993D-04  0.170155D-03 -0.126692D-05  0.558000D-05
               21            22            23            24            25 
     21  0.264232D+00
     22 -0.194218D-03  0.100345D+00
     23  0.353159D-04  0.912006D-01  0.149607D+00
     24  0.167177D-03  0.929562D-01  0.130027D+00  0.188101D+00
     25  0.273327D-03  0.134145D-02 -0.254418D-02  0.224441D-02  0.256586D-01
     26  0.517781D-03 -0.409094D-03  0.602249D-03 -0.516703D-04  0.121370D-01
     27 -0.487120D-03  0.247279D-02 -0.130721D-02 -0.167969D-02 -0.104018D-01
     28 -0.113265D-03  0.259396D-03 -0.249658D-03  0.825871D-04  0.133294D-03
     29 -0.700684D-04 -0.169337D-03  0.294438D-03 -0.831235D-04 -0.873783D-04
     30 -0.487558D-04 -0.907883D-04  0.137362D-03 -0.323191D-04 -0.516932D-04
     31  0.312908D-03  0.752346D-03 -0.576429D-03  0.184030D-03  0.557241D-03
     32 -0.220288D-03 -0.454938D-03  0.319094D-03 -0.120913D-03 -0.275443D-03
     33  0.138772D-04 -0.301753D-03  0.814732D-04 -0.354301D-04 -0.215635D-03
     34  0.176428D-03 -0.360298D-03 -0.232576D-03  0.414805D-03  0.597599D-03
     35 -0.275504D-03 -0.154880D-03  0.682049D-03 -0.372900D-03 -0.554271D-03
     36  0.807695D-04 -0.237942D-03  0.291771D-03  0.182965D-03  0.114445D-04
     37 -0.105583D-03  0.852186D-03 -0.122203D-02  0.169042D-03  0.567166D-03
     38 -0.277512D-03  0.119887D-02 -0.144186D-02  0.195883D-03  0.423469D-03
     39 -0.372969D-03  0.156927D-02 -0.172426D-02  0.275354D-03  0.133566D-02
     40 -0.551271D-04  0.101318D-03  0.979597D-04  0.367724D-04  0.219127D-03
     41 -0.716799D-04 -0.158665D-03  0.252035D-03 -0.300843D-04 -0.224982D-03
     42  0.154240D-03 -0.878398D-03  0.101371D-02 -0.183735D-03 -0.819843D-03
     43  0.179528D-03 -0.300058D-02 -0.155430D-01  0.148129D-02 -0.151500D-02
     44 -0.787019D-05 -0.152860D-01 -0.175818D-01  0.227165D-02  0.106494D-02
     45 -0.584205D-03 -0.756583D-02 -0.128842D-01  0.652569D-02 -0.275087D-03
     46 -0.615335D-04  0.516010D-04 -0.128870D-04 -0.212519D-05 -0.615592D-04
     47  0.437121D-04 -0.293624D-04  0.700477D-04  0.238042D-04  0.661984D-04
     48 -0.759202D-05  0.160806D-04  0.170085D-05  0.143041D-04 -0.233661D-04
               26            27            28            29            30 
     26  0.310859D+00
     27  0.142036D+00  0.117543D+00
     28 -0.116989D-03  0.217918D-04  0.893273D-01
     29 -0.607445D-04 -0.956699D-04  0.956016D-01  0.180659D+00
     30 -0.508879D-04 -0.989121D-04  0.894600D-01  0.137009D+00  0.181678D+00
     31 -0.161055D-03  0.339905D-03  0.223004D-02  0.484018D-03 -0.148302D-01
     32  0.498759D-04 -0.178707D-03 -0.528304D-02  0.667901D-02 -0.133076D-01
     33  0.197841D-03 -0.184284D-04 -0.984483D-02  0.219408D-02 -0.199579D-01
     34  0.307284D-05  0.443056D-03 -0.138988D-02  0.430320D-03  0.770298D-03
     35 -0.651192D-04 -0.479395D-03  0.719906D-03 -0.110188D-02 -0.795456D-04
     36 -0.444512D-04 -0.626406D-05  0.185888D-04  0.395334D-03  0.454607D-03
     37  0.353940D-03  0.467025D-03  0.330536D-02 -0.302434D-02 -0.730544D-03
     38  0.804554D-04  0.230539D-03 -0.437935D-02 -0.955487D-03  0.152870D-02
     39  0.134619D-03  0.937801D-03 -0.255195D-03  0.190049D-02 -0.221269D-02
     40 -0.190256D-03  0.117400D-03 -0.428692D-03  0.437395D-03  0.387017D-04
     41 -0.948165D-04 -0.207396D-03  0.149346D-03  0.284154D-03 -0.263588D-03
     42 -0.146718D-03 -0.637887D-03  0.223455D-04  0.134249D-03  0.101682D-02
     43  0.741199D-03 -0.345680D-03  0.617426D-04  0.380123D-04  0.000000D+00
     44  0.717392D-04  0.316117D-03 -0.479012D-04 -0.209265D-04 -0.581210D-04
     45  0.342428D-03 -0.613775D-03 -0.179989D-04  0.365715D-04  0.704803D-05
     46 -0.286294D-04 -0.563512D-04 -0.398103D-03 -0.486333D-03  0.370188D-03
     47 -0.246537D-04  0.351889D-04  0.927254D-03 -0.434857D-03 -0.880939D-04
     48 -0.201759D-04 -0.344113D-04  0.108346D-03 -0.468910D-03  0.192466D-03
               31            32            33            34            35 
     31  0.624804D-01
     32 -0.271669D-01  0.818935D-01
     33  0.868357D-01 -0.107205D+00  0.303102D+00
     34  0.141122D-02 -0.228897D-02 -0.131576D-02  0.528432D-01
     35 -0.231497D-02 -0.150701D-02  0.149146D-02  0.109608D-01  0.369696D-01
     36  0.764647D-03  0.391317D-03 -0.301726D-03 -0.657180D-01  0.145054D-01
     37 -0.113612D-02 -0.116071D-03  0.164217D-02  0.153106D-02 -0.161307D-03
     38  0.162253D-02 -0.195263D-02 -0.682856D-04 -0.330400D-02  0.609562D-03
     39  0.231959D-02  0.478922D-03  0.192728D-02 -0.200939D-01 -0.150213D-01
     40  0.194671D-03  0.342571D-03  0.342236D-04 -0.221615D-02 -0.246131D-02
     41  0.211700D-03  0.470650D-03  0.749463D-03 -0.226524D-02 -0.239677D-03
     42 -0.903189D-03 -0.320491D-03 -0.131506D-02 -0.313645D-02 -0.209870D-02
     43  0.206962D-03  0.701957D-05 -0.132776D-03 -0.115138D-03  0.229820D-03
     44 -0.736575D-04 -0.704203D-05  0.117978D-03  0.127203D-03 -0.287528D-03
     45  0.382353D-04  0.122444D-04 -0.272105D-04 -0.906206D-04  0.320197D-04
     46  0.214049D-03  0.123826D-03 -0.679110D-04 -0.622317D-03 -0.621265D-03
     47 -0.400235D-03  0.237599D-03 -0.129942D-04 -0.570454D-03 -0.197723D-03
     48 -0.586369D-04 -0.571397D-05 -0.114322D-03 -0.466048D-03 -0.360704D-03
[...]
 Linear search not attempted -- first point.
 B after Tr=     0.005923   -0.001515    0.004034
         Rot=    1.000000   -0.000780    0.000385    0.000329 Ang=  -0.11 deg.
 Variable       Old X    -DE/DX   Delta X   Delta X   Delta X     New X
                                 (Linear)    (Quad)   (Total)
    X1        2.75352  -0.00089   0.00000   0.04034   0.04822   2.80174
    Y1        1.94207   0.04299   0.00000   0.03371   0.03170   1.97377
    Z1       -0.88874   0.00959   0.00000   0.02921   0.03848  -0.85026
    X2       -0.46242  -0.01769   0.00000  -0.00186   0.00558  -0.45683
    Y2        3.01600  -0.05124   0.00000  -0.10634  -0.10834   2.90766
    Z2        0.51306   0.00858   0.00000  -0.00737   0.00085   0.51391
    X3        0.99078   0.03261   0.00000   0.06362   0.06652   1.05730
    Y3       -2.09079   0.00686   0.00000   0.01664   0.01106  -2.07973
    Z3        2.22364  -0.04677   0.00000  -0.06219  -0.06059   2.16305
    X4       -1.83379   0.01394   0.00000   0.00971   0.01500  -1.81879
    Y4        0.83715   0.01857   0.00000   0.01029   0.00755   0.84470
    Z4        1.55959  -0.01631   0.00000  -0.01022  -0.00627   1.55332
    X5        3.22935  -0.02038   0.00000  -0.06380  -0.05690   3.17245
    Y5       -0.22110  -0.08133   0.00000  -0.05844  -0.05969  -0.28078
    Z5       -1.59191   0.03694   0.00000   0.08558   0.09161  -1.50029
    X6        2.37104  -0.01113   0.00000  -0.04793  -0.04347   2.32757
    Y6       -2.45154   0.04973   0.00000   0.04956   0.04675  -2.40480
    Z6       -0.13190   0.00799   0.00000  -0.01123  -0.00916  -0.14106
    X7        4.24395  -0.00214   0.00000  -0.09594  -0.08782   4.15612
    Y7       -0.64874   0.00766   0.00000   0.05005   0.05104  -0.59770
    Z7       -3.36069  -0.00635   0.00000   0.00431   0.01061  -3.35008
    X8        1.97949  -0.00880   0.00000  -0.08739  -0.08476   1.89473
    Y8       -0.90537   0.00533   0.00000   0.08912   0.08077  -0.82460
    Z8        3.60068   0.00088   0.00000  -0.01920  -0.01499   3.58569
    X9        2.31416  -0.00157   0.00000  -0.03159  -0.02760   2.28656
    Y9       -4.25132  -0.00646   0.00000   0.01370   0.01242  -4.23889
    Z9       -1.10171  -0.00427   0.00000  -0.01386  -0.01468  -1.11639
   X10        0.35319   0.00300   0.00000   0.00499   0.01236   0.36555
   Y10        4.34561   0.00149   0.00000  -0.03841  -0.04298   4.30263
   Z10        1.85099  -0.00093   0.00000  -0.04758  -0.03655   1.81444
   X11       -1.07752   0.00253   0.00000   0.03758   0.04694  -1.03058
   Y11        3.73863  -0.00029   0.00000  -0.05696  -0.05572   3.68291
   Z11       -1.31487  -0.00180   0.00000  -0.01467  -0.00569  -1.32056
   X12       -2.28090   0.00102   0.00000   0.02965   0.03343  -2.24747
   Y12        0.95053   0.00001   0.00000  -0.02228  -0.02789   0.92264
   Z12        3.56497   0.00467   0.00000   0.01022   0.01397   3.57894
   X13       -3.79136   0.02475   0.00000   0.04851   0.05416  -3.73720
   Y13       -0.45183   0.01048   0.00000   0.00767   0.00864  -0.44319
   Z13       -0.01285  -0.02406   0.00000  -0.00584  -0.00537  -0.01822
   X14       -3.71086  -0.00193   0.00000   0.00151   0.00885  -3.70201
   Y14       -0.56786   0.00165   0.00000   0.01141   0.01594  -0.55192
   Z14       -2.32210   0.02600   0.00000   0.01333   0.01365  -2.30844
   X15        0.07427  -0.00649   0.00000  -0.01635  -0.01515   0.05911
   Y15       -3.76906   0.00017   0.00000   0.05962   0.05343  -3.71563
   Z15        2.98482   0.00310   0.00000  -0.00560  -0.00732   2.97750
   X16       -5.32525  -0.00680   0.00000   0.02045   0.02465  -5.30060
   Y16       -1.33887  -0.00562   0.00000  -0.02499  -0.02469  -1.36356
   Z16        1.08376   0.00275   0.00000  -0.00637  -0.00855   1.07521
         Item               Value     Threshold  Converged?
 Maximum Force            0.081332     0.000450     NO 
 RMS     Force            0.021674     0.000300     NO 
 Maximum Displacement     0.108341     0.001800     NO 
 RMS     Displacement     0.042992     0.001200     NO 
 Predicted change in Energy=-1.692501D-02
 GradGradGradGradGradGradGradGradGradGradGradGradGradGradGradGradGradGrad


 Test job not archived.
 1\1\GINC-CHPC-LINUX-10\Freq\RExternal='~/scripts/MiMe6 -H 'am1' -EF 'w
 b97xd def2svp' -c 12 -m 48GB'\ZDO\C6H8O2\JP2658\18-Jan-2024\0\\# exter
 nal=("~/scripts/MiMe6 -H 'am1' -EF 'wb97xd def2svp' -c 12 -m 48GB",nod
 elete) freq=noraman iop(7/33=1)\\*****\\0,1\O,1.4571,1.0277,-0.4703\C,
 -0.2447,1.596,0.2715\C,0.5243,-1.1064,1.1767\C,-0.9704,0.443,0.8253\C,
 1.7089,-0.117,-0.8424\C,1.2547,-1.2973,-0.0698\H,2.2458,-0.3433,-1.778
 4\H,1.0475,-0.4791,1.9054\H,1.2246,-2.2497,-0.583\H,0.1869,2.2996,0.97
 95\H,-0.5702,1.9784,-0.6958\H,-1.207,0.503,1.8865\C,-2.0063,-0.2391,-0
 .0068\O,-1.9637,-0.3005,-1.2288\H,0.0393,-1.9945,1.5795\H,-2.818,-0.70
 85,0.5735\\Version=ES64L-G16RevA.03\HF=-383.3508628\RMSD=0.000e+00\RMS
 F=2.167e-02\ZeroPoint=0.125249\Thermal=0.1322385\Dipole=0.2071296,0.07
 62379,2.7556593\PG=C01 [X(C6H8O2)]\NImag=3\\0.05523393,-0.11127828,0.9
 1475549,-0.06029528,0.23417592,0.10411695,0.07117835,-0.13726239,-0.06
 270698,0.16872779,-0.00834508,-0.01482012,0.00100158,0.16121267,0.5041
 9889,-0.04763446,0.07281722,0.02855607,0.18873167,-0.03708573,0.545628
 37,-0.04176331,0.07162090,0.03902467,0.07765132,0.01698809,-0.04557016
 ,0.26396301,0.03199391,-0.05923866,-0.02805858,-0.05691935,-0.01887162
 ,0.03618116,0.25282298,0.43480117,0.01461006,-0.03135696,-0.01770625,-
 0.02476819,-0.00069973,0.01346250,-0.06541562,0.02433642,0.56704618,-0
 .00605240,-0.02138145,-0.00587428,-0.14465874,-0.10257492,0.04963279,0
 .02668310,-0.03455068,-0.01125736,0.36948784,-0.07054447,0.10666408,0.
 04985748,0.02963675,-0.20342396,-0.00185862,-0.09778727,0.06567103,0.0
 2932335,0.23918262,0.27071038,0.02676696,-0.03025663,-0.01858296,0.004
 48796,0.06138901,-0.10898176,0.03374444,-0.02751084,-0.02192905,-0.022
 66600,0.04946322,0.64023870,-0.10183311,0.21175376,0.08023375,0.027192
 84,0.01185385,-0.01106926,-0.03206501,0.00231623,0.03085904,0.00735206
 ,-0.02444828,0.00822230,0.29807893,0.08972452,-0.74073230,-0.19999876,
 0.14896473,0.00011058,-0.08259569,-0.09756301,0.07339056,0.05614846,0.
 02756719,-0.12111547,0.03835390,-0.17923471,0.97882999,0.07593499,-0.2
 9934723,-0.12969689,-0.00554151,-0.00529227,-0.00125748,0.02279732,0.0
 2054753,-0.02869235,-0.00162843,0.00841028,-0.00243369,-0.23185827,0.2
 3601762,0.52876840,0.04056539,-0.05388943,-0.02116268,-0.04434359,-0.0
 0419078,0.02313094,-0.08890589,-0.03086999,0.08546147,-0.02399843,0.05
 509683,-0.01305531,-0.08855976,0.01011502,0.03648430,0.23892016,0.0151
 3390,-0.14620983,-0.00831428,-0.03222626,-0.00331404,0.02040072,0.0380
 4162,-0.11820510,-0.04803638,-0.00612057,0.02947255,-0.01302757,-0.042
 85489,-0.13554203,0.08652641,0.04469242,0.64537818,-0.04122830,0.09319
 526,0.06067796,0.06785091,0.00930638,-0.04004269,0.03854030,0.02753215
 ,-0.24853732,0.02993974,-0.08151609,0.02717263,0.00925796,-0.03313644,
 -0.14147670,-0.13553920,0.09523455,0.49828481,0.00305035,0.01767455,0.
 01832930,-0.00002368,-0.00011922,0.00152618,0.00134648,-0.00072935,0.0
 0132396,0.00234303,0.00096794,0.00002360,-0.10769914,0.02044882,0.1035
 1036,0.00151773,-0.00220530,0.01621471,0.10031955,0.03050381,-0.033782
 21,-0.04366531,-0.00793271,-0.00047846,0.00280405,0.00171228,-0.004826
 70,0.00033151,-0.00010134,0.00485211,-0.00135466,0.02265396,-0.0359768
 2,-0.03640281,-0.01255897,-0.00104657,0.02258461,-0.03430571,0.0729128
 3,0.01894553,-0.02532781,-0.01804340,-0.00195142,-0.00006758,0.0018113
 0,0.00341056,0.00082318,-0.00041890,0.00029548,0.00210544,-0.00054018,
 0.10459775,-0.03807083,-0.22852301,0.01457413,0.00548280,-0.01743356,-
 0.14028403,0.05537934,0.26423212,0.00464627,-0.00838799,-0.00460644,-0
 .00863971,-0.00138893,0.00478815,-0.08093439,-0.09482586,-0.09737352,-
 0.01427602,0.01448763,-0.00982479,0.00097588,0.01168056,-0.00084643,-0
 .00240542,0.00298290,0.02011690,0.00029067,-0.00028568,-0.00019422,0.1
 0034532,-0.00445480,0.00680208,0.00283984,0.00830137,0.00130074,-0.003
 83428,-0.09189890,-0.12410216,-0.10266911,0.01070284,-0.01124600,0.007
 39989,-0.00033574,-0.00828699,0.00128351,0.00700422,0.00251717,-0.0206
 9190,-0.00023696,0.00021226,0.00003532,0.09120062,0.14960650,0.0016173
 6,-0.00360287,-0.00077615,-0.00353264,-0.00026512,0.00151897,-0.085121
 28,-0.11412338,-0.16330778,-0.00622314,0.00610753,-0.00357689,0.000682
 74,0.00439977,-0.00139847,-0.00508220,-0.02415531,-0.02579432,0.000092
 30,-0.00022067,0.00016718,0.09295624,0.13002697,0.18810102,0.00704155,
 -0.00943715,-0.00169120,-0.00605621,-0.00122459,0.00395772,0.00955849,
 0.00864139,0.01016107,-0.00309326,0.00672022,-0.00205898,0.00346321,0.
 00025091,-0.00619988,-0.03875426,-0.01455819,0.00375355,0.00034266,-0.
 00039750,0.00027333,0.00134145,-0.00254418,0.00224441,0.02565855,-0.00
 139085,-0.00218627,0.00348350,0.00036855,0.00019942,-0.00088612,0.0016
 8115,-0.00474031,-0.00998948,-0.00008148,0.00012797,0.00005745,-0.0059
 5118,-0.03349433,-0.00572051,-0.00657055,-0.27075868,-0.12985905,-0.00
 038490,-0.00056599,0.00051778,-0.00040909,0.00060225,-0.00005167,0.012
 13697,0.31085880,0.00403636,-0.00068337,-0.00304660,-0.00373241,-0.000
 81782,0.00219306,0.00982687,-0.02652613,-0.02277270,-0.00196244,0.0047
 5899,-0.00176910,0.00276077,0.01721239,0.00554424,-0.00401287,-0.13468
 120,-0.09505359,0.00002542,0.00038743,-0.00048712,0.00247279,-0.001307
 21,-0.00167969,-0.01040176,0.14203593,0.11754350,-0.00410846,0.0102647
 4,0.00825979,-0.07939422,-0.07837339,-0.08383105,-0.00200082,0.0012057
 7,0.00060423,-0.00558954,-0.01922893,-0.00501770,-0.00254821,-0.002065
 98,0.00124326,0.00088356,0.00037345,-0.00074090,-0.00034344,0.00050237
 ,-0.00011326,0.00025940,-0.00024966,0.00008259,0.00013329,-0.00011699,
 0.00002179,0.08932732,0.00521679,-0.00802024,-0.00646353,-0.08154259,-
 0.15874573,-0.12105580,0.00150660,-0.00137750,-0.00050278,-0.01897707,
 -0.01920949,-0.01322286,0.00163969,0.00284036,-0.00122387,-0.00105096,
 -0.00049965,0.00151730,-0.00001575,-0.00033084,-0.00007007,-0.00016934
 ,0.00029444,-0.00008312,-0.00008738,-0.00006074,-0.00009567,0.09560161
 ,0.18065933,0.00486367,-0.00681581,-0.00500484,-0.08529228,-0.12572796
 ,-0.16306386,0.00125261,-0.00095442,-0.00028865,0.00399407,0.00717117,
 0.00704964,0.00110264,0.00203751,-0.00079193,-0.00085405,-0.00035269,0
 .00110115,-0.00000164,-0.00018496,-0.00004876,-0.00009079,0.00013736,-
 0.00003232,-0.00005169,-0.00005089,-0.00009891,0.08946003,0.13700853,0
 .18167837,-0.02082728,0.01800840,0.00350571,-0.04360644,0.03151014,-0.
 08769864,-0.00723623,0.00496834,0.00212597,0.00457255,-0.01908947,0.01
 302296,-0.00359142,-0.01019868,-0.00021008,0.00341658,0.00282509,-0.00
 574869,0.00036081,0.00035151,0.00031291,0.00075235,-0.00057643,0.00018
 403,0.00055724,-0.00016105,0.00033990,0.00223004,0.00048402,-0.0148301
 9,0.06248043,0.01211459,-0.00942530,-0.00139819,0.02114837,-0.07286133
 ,0.09331220,0.00367346,-0.00322471,-0.00089842,-0.00172166,-0.00495571
 ,0.02628288,0.00216634,0.00606207,-0.00011833,-0.00200190,-0.00153213,
 0.00329528,-0.00026671,-0.00024581,-0.00022029,-0.00045494,0.00031909,
 -0.00012091,-0.00027544,0.00004988,-0.00017871,-0.00528304,0.00667901,
 -0.01330760,-0.02716694,0.08189352,0.00135469,-0.00272543,-0.00111732,
 -0.08114947,0.08922286,-0.26980680,0.00250095,-0.00142386,-0.00075859,
 0.00027679,0.01613214,-0.01366253,0.00106987,0.00220246,0.00090041,-0.
 00071075,-0.00087496,0.00117145,0.00002495,-0.00007945,0.00001388,-0.0
 0030175,0.00008147,-0.00003543,-0.00021563,0.00019784,-0.00001843,-0.0
 0984483,0.00219408,-0.01995789,0.08683569,-0.10720464,0.30310182,-0.00
 713265,0.00912103,0.00491466,0.00820702,-0.00239012,0.01301123,-0.0141
 6141,0.01269191,0.00619891,-0.04057443,-0.01483986,0.07132749,-0.00208
 566,-0.01117127,0.00086613,0.00398469,0.00327099,-0.00730217,0.0000832
 1,0.00045736,0.00017643,-0.00036030,-0.00023258,0.00041480,0.00059760,
 0.00000307,0.00044306,-0.00138988,0.00043032,0.00077030,0.00141122,-0.
 00228897,-0.00131576,0.05284318,0.00631726,-0.01005247,-0.00399074,-0.
 02029971,-0.00880910,0.03007212,0.01386529,-0.01103666,-0.00602824,-0.
 00382769,-0.01231195,-0.02376763,0.00242228,0.01120482,-0.00124005,-0.
 00382932,-0.00333832,0.00761347,-0.00029061,-0.00051911,-0.00027550,-0
 .00015488,0.00068205,-0.00037290,-0.00055427,-0.00006512,-0.00047940,0
 .00071991,-0.00110188,-0.00007955,-0.00231497,-0.00150701,0.00149146,0
 .01096078,0.03696965,-0.00169044,0.00150223,0.00036179,0.01210704,0.00
 981644,-0.01939229,0.00315220,-0.00285224,-0.00052836,0.05894420,-0.01
 491789,-0.31557914,-0.00016631,-0.00085836,0.00015534,-0.00034027,0.00
 009068,0.00011124,0.00023507,0.00014177,0.00008077,-0.00023794,0.00029
 177,0.00018297,0.00001144,-0.00004445,-0.00000626,0.00001859,0.0003953
 3,0.00045461,0.00076465,0.00039132,-0.00030173,-0.06571799,0.01450539,
 0.36188895,0.00036829,0.00237236,0.00284444,-0.02181522,-0.02119550,-0
 .00732190,-0.01590093,0.01175400,-0.00127347,-0.15785317,-0.07219959,-
 0.06790004,-0.00277950,-0.00582508,0.00072217,0.00461004,0.00197460,-0
 .00603322,-0.00097376,-0.00013999,-0.00010558,0.00085219,-0.00122203,0
 .00016904,0.00056717,0.00035394,0.00046702,0.00330536,-0.00302434,-0.0
 0073054,-0.00113612,-0.00011607,0.00164217,0.00153106,-0.00016131,-0.0
 0442104,0.42932374,0.00611936,-0.00542126,-0.00086250,-0.03416511,-0.0
 2545918,-0.00590371,-0.00173521,0.00506646,0.00168966,-0.05341459,-0.1
 0863120,-0.04599493,0.00012409,0.00412007,-0.00039116,0.00101848,-0.00
 042569,-0.00027412,-0.00105169,-0.00051756,-0.00027751,0.00119887,-0.0
 0144186,0.00019588,0.00042347,0.00008046,0.00023054,-0.00437935,-0.000
 95549,0.00152870,0.00162253,-0.00195263,-0.00006829,-0.00330400,0.0006
 0956,-0.00691450,0.16354706,0.28306854,0.00726767,-0.00240189,-0.00002
 178,-0.00974574,-0.00229786,0.01613038,-0.01364126,0.01292781,0.002461
 13,-0.03759734,-0.04151904,-0.11825306,-0.00067921,-0.00238194,0.00123
 560,0.00399529,0.00244596,-0.00752060,-0.00141078,-0.00054239,-0.00037
 297,0.00156927,-0.00172426,0.00027535,0.00133566,0.00013462,0.00093780
 ,-0.00025520,0.00190049,-0.00221269,0.00231959,0.00047892,0.00192728,-
 0.02009389,-0.01502129,-0.02582318,-0.06784497,0.03453294,1.25414625,0
 .00014695,-0.00033897,-0.00015407,-0.00115064,-0.00018859,-0.00005512,
 0.00028401,-0.00028504,0.00025378,0.00381461,-0.01044954,-0.04043941,0
 .00069140,-0.00014973,0.00001066,-0.00099497,0.00063875,-0.00069647,0.
 00010290,-0.00001712,-0.00005513,0.00010132,0.00009796,0.00003677,0.00
 021913,-0.00019026,0.00011740,-0.00042869,0.00043740,0.00003870,0.0001
 9467,0.00034257,0.00003422,-0.00221615,-0.00246131,-0.00201306,-0.0551
 0544,-0.00129800,0.03779709,0.05255333,-0.00035121,0.00044193,0.000032
 82,0.00030166,-0.00048879,-0.00078494,0.00082734,-0.00113373,-0.000320
 24,-0.01127287,0.00727511,-0.03074165,0.00031976,-0.00020582,-0.000259
 48,0.00000702,-0.00004557,0.00099690,-0.00000191,0.00000523,-0.0000716
 8,-0.00015867,0.00025204,-0.00003008,-0.00022498,-0.00009482,-0.000207
 40,0.00014935,0.00028415,-0.00026359,0.00021170,0.00047065,0.00074946,
 -0.00226524,-0.00023968,-0.00127426,0.00019994,-0.05106080,-0.04737991
 ,0.02193763,0.02976515,-0.00344999,0.00033028,0.00001528,0.00615353,0.
 00241578,-0.00550509,0.00696509,-0.00737230,-0.00257297,-0.04769276,-0
 .02871470,-0.07471269,0.00082338,0.00304221,-0.00135226,-0.00283267,-0
 .00191228,0.00570036,0.00070738,0.00023056,0.00015424,-0.00087840,0.00
 101371,-0.00018374,-0.00081984,-0.00014672,-0.00063789,0.00002235,0.00
 013425,0.00101682,-0.00090319,-0.00032049,-0.00131506,-0.00313645,-0.0
 0209870,-0.00135089,0.05664239,-0.03383766,-1.02689002,-0.03242735,0.0
 6153377,1.16768092,-0.00107481,0.00178832,-0.00055942,-0.00069715,0.00
 002678,0.00046254,-0.09697270,-0.10795678,0.04842130,0.00117766,0.0038
 0205,-0.00169452,0.00317366,-0.00316516,0.00497383,-0.00577136,-0.0119
 2103,0.01112113,-0.00061244,-0.00039414,0.00017953,-0.00300058,-0.0155
 4299,0.00148129,-0.00151500,0.00074120,-0.00034568,0.00006174,0.000038
 01,-0.00000071,0.00020696,0.00000702,-0.00013278,-0.00011514,0.0002298
 2,-0.00016364,0.00065571,0.00061812,0.00010385,-0.00022614,-0.00001823
 ,0.00012927,0.10468497,0.00060113,0.00003846,0.00063221,0.00017189,-0.
 00026643,-0.00017812,-0.11278062,-0.23237327,0.08874106,-0.00058132,-0
 .00296842,0.00098766,-0.00233072,0.00022354,-0.00275528,-0.00328357,0.
 00325000,0.00494201,0.00041378,0.00023400,-0.00000787,-0.01528597,-0.0
 1758184,0.00227165,0.00106494,0.00007174,0.00031612,-0.00004790,-0.000
 02093,-0.00005812,-0.00007366,-0.00000704,0.00011798,0.00012720,-0.000
 28753,0.00001254,0.00026753,0.00000670,0.00039169,-0.00005404,-0.00008
 848,-0.00028255,0.13180298,0.24978467,-0.00081654,0.00045812,0.0000561
 7,0.00031618,-0.00002025,-0.00001021,0.04839811,0.08658352,-0.07546340
 ,0.00029479,0.00103358,-0.00031957,0.00408903,-0.00237858,-0.00080509,
 0.02001207,0.02119088,-0.01852948,-0.00031636,0.00058554,-0.00058420,-
 0.00756583,-0.01288421,0.00652569,-0.00027509,0.00034243,-0.00061377,-
 0.00001800,0.00003657,0.00000705,0.00003824,0.00001224,-0.00002721,-0.
 00009062,0.00003202,-0.00000931,-0.00003732,0.00015825,0.00000370,-0.0
 0002177,-0.00003194,0.00002815,-0.06399990,-0.09511069,0.08972410,0.00
 055963,-0.00062934,-0.00006052,-0.00257056,-0.00160057,-0.00206221,0.0
 0045239,-0.00025696,0.00006837,-0.01933361,-0.02130764,0.00506084,0.00
 023397,0.00062331,-0.00025861,-0.00016411,-0.00004792,0.00049336,-0.00
 010354,-0.00004809,-0.00006153,0.00005160,-0.00001289,-0.00000213,-0.0
 0006156,-0.00002863,-0.00005635,-0.00039810,-0.00048633,0.00037019,0.0
 0021405,0.00012383,-0.00006791,-0.00062232,-0.00062127,-0.00048221,-0.
 18564817,-0.07532473,0.09687800,0.00201187,-0.00966163,0.02069843,0.00
 002495,-0.00001159,-0.00000709,0.20535388,-0.00135809,0.00118360,0.000
 72928,0.00024190,0.00172850,-0.00140420,-0.00097465,0.00019975,-0.0000
 6984,-0.02284745,-0.00090627,0.00194278,-0.00009474,-0.00142470,-0.000
 03527,0.00031252,0.00030078,-0.00073630,0.00009991,0.00007291,0.000043
 71,-0.00002936,0.00007005,0.00002380,0.00006620,-0.00002465,0.00003519
 ,0.00092725,-0.00043486,-0.00008809,-0.00040023,0.00023760,-0.00001299
 ,-0.00057045,-0.00019772,-0.00028572,-0.07658367,-0.09708860,0.0604562
 1,-0.00802354,0.01486275,0.00598499,-0.00005557,-0.00001466,-0.0000080
 0,0.10929051,0.08143559,-0.00028114,0.00003767,0.00020706,-0.00122754,
 -0.00087803,-0.00123923,0.00013859,-0.00011234,0.00000474,-0.00847809,
 -0.00583460,0.00587891,0.00007459,0.00000765,-0.00017240,-0.00006934,-
 0.00001760,0.00017015,-0.00000127,0.00000558,-0.00000759,0.00001608,0.
 00000170,0.00001430,-0.00002337,-0.00002018,-0.00003441,0.00010835,-0.
 00046891,0.00019247,-0.00005864,-0.00000571,-0.00011432,-0.00046605,-0
 .00036070,-0.00024447,0.09318196,0.05619018,-0.09602063,0.03757284,0.0
 1805137,-0.06007685,0.00002359,-0.00002055,0.00001748,-0.12051031,-0.0
 6657606,0.15142429\\0.00088967,-0.04298983,-0.00958976,0.01769126,0.05
 124175,-0.00857579,-0.03260680,-0.00686294,0.04676539,-0.01393593,-0.0
 1856766,0.01631277,0.02038453,0.08133199,-0.03693783,0.01113478,-0.049
 72508,-0.00798547,0.00214465,-0.00766442,0.00635306,0.00880380,-0.0053
 2605,-0.00088182,0.00156751,0.00645747,0.00426755,-0.00300068,-0.00149
 201,0.00092886,-0.00252633,0.00029279,0.00180096,-0.00101963,-0.000014
 92,-0.00467231,-0.02474850,-0.01047700,0.02405620,0.00192940,-0.001653
 69,-0.02599921,0.00648735,-0.00017030,-0.00309586,0.00680493,0.0056199
 0,-0.00274675\\\@


 Life may have no meaning.  Or even worse, it may have a
 meaning of which I disapprove.
                                 -- Ashleigh Brilliant
 Job cpu time:       0 days  0 hours  3 minutes 12.7 seconds.
 Elapsed time:       0 days  0 hours  0 minutes 17.5 seconds.
 File lengths (MBytes):  RWF=      6 Int=      0 D2E=      0 Chk=      1 Scr=      1
 Normal termination of Gaussian 16 at Thu Jan 18 14:26:34 2024.
