 Entering Gaussian System, Link 0=g16
 Input=da-1_2_OLD.gjf
 Output=da-1_2_OLD.out
 Initial command:
 /opt/gaussian16/g16/l1.exe "/tmp/Gau-1893360.inp" -scrdir="/tmp/"
 Entering Link 1 = /opt/gaussian16/g16/l1.exe PID=   1893362.
  
 Copyright (c) 1988,1990,1992,1993,1995,1998,2003,2009,2016,
            Gaussian, Inc.  All Rights Reserved.
  
 This is part of the Gaussian(R) 16 program.  It is based on
 the Gaussian(R) 09 system (copyright 2009, Gaussian, Inc.),
 the Gaussian(R) 03 system (copyright 2003, Gaussian, Inc.),
 the Gaussian(R) 98 system (copyright 1998, Gaussian, Inc.),
 the Gaussian(R) 94 system (copyright 1995, Gaussian, Inc.),
 the Gaussian 92(TM) system (copyright 1992, Gaussian, Inc.),
 the Gaussian 90(TM) system (copyright 1990, Gaussian, Inc.),
 the Gaussian 88(TM) system (copyright 1988, Gaussian, Inc.),
 the Gaussian 86(TM) system (copyright 1986, Carnegie Mellon
 University), and the Gaussian 82(TM) system (copyright 1983,
 Carnegie Mellon University). Gaussian is a federally registered
 trademark of Gaussian, Inc.
  
 This software contains proprietary and confidential information,
 including trade secrets, belonging to Gaussian, Inc.
  
 This software is provided under written license and may be
 used, copied, transmitted, or stored only in accord with that
 written license.
  
 The following legend is applicable only to US Government
 contracts under FAR:
  
                    RESTRICTED RIGHTS LEGEND
  
 Use, reproduction and disclosure by the US Government is
 subject to restrictions as set forth in subparagraphs (a)
 and (c) of the Commercial Computer Software - Restricted
 Rights clause in FAR 52.227-19.
  
 Gaussian, Inc.
 340 Quinnipiac St., Bldg. 40, Wallingford CT 06492
  
  
 ---------------------------------------------------------------
 Warning -- This program may not be used in any manner that
 competes with the business of Gaussian, Inc. or will provide
 assistance to any competitor of Gaussian, Inc.  The licensee
 of this program is prohibited from giving any competitor of
 Gaussian, Inc. access to this program.  By using this program,
 the user acknowledges that Gaussian, Inc. is engaged in the
 business of creating and licensing software in the field of
 computational chemistry and represents and warrants to the
 licensee that it is not a competitor of Gaussian, Inc. and that
 it will not use this program in any manner prohibited above.
 ---------------------------------------------------------------
  

 Cite this work as:
 Gaussian 16, Revision A.03,
 M. J. Frisch, G. W. Trucks, H. B. Schlegel, G. E. Scuseria, 
 M. A. Robb, J. R. Cheeseman, G. Scalmani, V. Barone, 
 G. A. Petersson, H. Nakatsuji, X. Li, M. Caricato, A. V. Marenich, 
 J. Bloino, B. G. Janesko, R. Gomperts, B. Mennucci, H. P. Hratchian, 
 J. V. Ortiz, A. F. Izmaylov, J. L. Sonnenberg, D. Williams-Young, 
 F. Ding, F. Lipparini, F. Egidi, J. Goings, B. Peng, A. Petrone, 
 T. Henderson, D. Ranasinghe, V. G. Zakrzewski, J. Gao, N. Rega, 
 G. Zheng, W. Liang, M. Hada, M. Ehara, K. Toyota, R. Fukuda, 
 J. Hasegawa, M. Ishida, T. Nakajima, Y. Honda, O. Kitao, H. Nakai, 
 T. Vreven, K. Throssell, J. A. Montgomery, Jr., J. E. Peralta, 
 F. Ogliaro, M. J. Bearpark, J. J. Heyd, E. N. Brothers, K. N. Kudin, 
 V. N. Staroverov, T. A. Keith, R. Kobayashi, J. Normand, 
 K. Raghavachari, A. P. Rendell, J. C. Burant, S. S. Iyengar, 
 J. Tomasi, M. Cossi, J. M. Millam, M. Klene, C. Adamo, R. Cammi, 
 J. W. Ochterski, R. L. Martin, K. Morokuma, O. Farkas, 
 J. B. Foresman, and D. J. Fox, Gaussian, Inc., Wallingford CT, 2016.
 
 ******************************************
 Gaussian 16:  ES64L-G16RevA.03 25-Dec-2016
                18-Jan-2024 
 ******************************************
 %chk=da-1_2_OLD.chk
 %nprocshared=12
 Will use up to   12 processors via shared memory.
 %mem=48GB
 ------------------------------
 # am1 freq=noraman iop(7/33=1)
 ------------------------------
 1/10=4,30=1,38=1/1,3;
 2/12=2,17=6,18=5,40=1/2;
 3/5=2,25=1,41=700000,71=2,140=1/1,2,3;
 4/35=1/1;
 5/5=2,35=1,38=5,98=1/2;
 8/6=4,10=90,11=11/1;
 11/6=1,8=1,9=11,15=111,16=1/1,2,10;
 10/6=1/2;
 6/7=2,8=2,9=2,10=2,28=1/1;
 7/8=1,10=1,25=1,33=1/1,2,3,16;
 1/10=4,30=1/3;
 99//99;
 -----
 *****
 -----
 Symbolic Z-matrix:
 Charge =  0 Multiplicity = 1
 O                     1.4571    1.0277   -0.4703 
 C                    -0.2447    1.596     0.2715 
 C                     0.5243   -1.1064    1.1767 
 C                    -0.9704    0.443     0.8253 
 C                     1.7089   -0.117    -0.8424 
 C                     1.2547   -1.2973   -0.0698 
 H                     2.2458   -0.3433   -1.7784 
 H                     1.0475   -0.4791    1.9054 
 H                     1.2246   -2.2497   -0.583 
 H                     0.1869    2.2996    0.9795 
 H                    -0.5702    1.9784   -0.6958 
 H                    -1.207     0.503     1.8865 
 C                    -2.0063   -0.2391   -0.0068 
 O                    -1.9637   -0.3005   -1.2288 
 H                     0.0393   -1.9945    1.5795 
 H                    -2.818    -0.7085    0.5735 
 

 GradGradGradGradGradGradGradGradGradGradGradGradGradGradGradGradGradGrad
 Berny optimization.
 Initialization pass.
 Trust Radius=3.00D-01 FncErr=1.00D-07 GrdErr=1.00D-07 EigMax=2.50D+02 EigMin=1.00D-04
 Number of steps in this run=      2 maximum allowed number of steps=      2.
 GradGradGradGradGradGradGradGradGradGradGradGradGradGradGradGradGradGrad

                          Input orientation:                          
 ---------------------------------------------------------------------
 Center     Atomic      Atomic             Coordinates (Angstroms)
 Number     Number       Type             X           Y           Z
 ---------------------------------------------------------------------
      1          8           0        1.457100    1.027700   -0.470300
      2          6           0       -0.244700    1.596000    0.271500
      3          6           0        0.524300   -1.106400    1.176700
      4          6           0       -0.970400    0.443000    0.825300
      5          6           0        1.708900   -0.117000   -0.842400
      6          6           0        1.254700   -1.297300   -0.069800
      7          1           0        2.245800   -0.343300   -1.778400
      8          1           0        1.047500   -0.479100    1.905400
      9          1           0        1.224600   -2.249700   -0.583000
     10          1           0        0.186900    2.299600    0.979500
     11          1           0       -0.570200    1.978400   -0.695800
     12          1           0       -1.207000    0.503000    1.886500
     13          6           0       -2.006300   -0.239100   -0.006800
     14          8           0       -1.963700   -0.300500   -1.228800
     15          1           0        0.039300   -1.994500    1.579500
     16          1           0       -2.818000   -0.708500    0.573500
 ---------------------------------------------------------------------
                    Distance matrix (angstroms):
                    1          2          3          4          5
     1  O    0.000000
     2  C    1.941483   0.000000
     3  C    2.852562   2.951900   0.000000
     4  C    2.813043   1.470627   2.181341   0.000000
     5  C    1.229715   2.826959   2.541447   3.205226   0.000000
     6  C    2.367909   3.276564   1.457288   2.963261   1.481997
     7  H    2.052514   3.763717   3.504069   4.212062   1.102529
     8  H    2.842916   2.940315   1.094645   2.467550   2.849381
     9  H    3.287569   4.204571   2.212261   3.748595   2.202327
    10  H    2.309341   1.087472   3.428347   2.193190   3.387589
    11  H    2.250472   1.089885   3.770965   2.198035   3.099434
    12  H    3.595448   2.174602   2.468073   1.088910   4.041506
    13  C    3.716820   2.558960   2.925204   1.493566   3.809967
    14  O    3.747174   2.966913   3.553315   2.399742   3.697427
    15  H    3.917337   3.831868   1.089126   2.744033   3.489723
    16  H    4.730792   3.467535   3.419524   2.191570   4.779903
                    6          7          8          9         10
     6  C    0.000000
     7  H    2.193561   0.000000
     8  H    2.147975   3.876177   0.000000
     9  H    1.082287   2.471071   3.059170   0.000000
    10  H    3.896013   4.339355   3.052720   4.920809   0.000000
    11  H    3.801624   3.806858   3.927149   4.594656   1.866280
    12  H    3.623280   5.105834   2.459197   4.425886   2.448138
    13  C    3.428976   4.607578   3.611067   3.848796   3.496843
    14  O    3.563003   4.245443   4.349992   3.792321   4.032640
    15  H    2.164134   4.344030   1.849085   2.479207   4.338327
    16  H    4.165022   5.595255   4.094957   4.478326   4.271174
                   11         12         13         14         15
    11  H    0.000000
    12  H    3.041479   0.000000
    13  C    2.730277   2.184989   0.000000
    14  O    2.723842   3.305042   1.224283   0.000000
    15  H    4.618703   2.808028   3.127660   3.842941   0.000000
    16  H    3.726011   2.405623   1.102697   2.035824   3.290896
                   16
    16  H    0.000000
 Stoichiometry    C6H8O2
 Framework group  C1[X(C6H8O2)]
 Deg. of freedom    42
 Full point group                 C1      NOp   1
 Largest Abelian subgroup         C1      NOp   1
 Largest concise Abelian subgroup C1      NOp   1
                         Standard orientation:                         
 ---------------------------------------------------------------------
 Center     Atomic      Atomic             Coordinates (Angstroms)
 Number     Number       Type             X           Y           Z
 ---------------------------------------------------------------------
      1          8           0        1.456663    1.150187   -0.166589
      2          6           0       -0.295156    1.484708    0.600602
      3          6           0        0.577324   -1.309812    0.978956
      4          6           0       -0.980385    0.214072    0.881122
      5          6           0        1.777583    0.115798   -0.749039
      6          6           0        1.357444   -1.214233   -0.248222
      7          1           0        2.355984    0.105909   -1.687615
      8          1           0        1.043980   -0.820927    1.840043
      9          1           0        1.392065   -2.043889   -0.942352
     10          1           0        0.076943    2.048562    1.452780
     11          1           0       -0.606967    2.040330   -0.283653
     12          1           0       -1.254887    0.048655    1.921800
     13          6           0       -1.952636   -0.329229   -0.114011
     14          8           0       -1.866360   -0.140930   -1.320646
     15          1           0        0.124155   -2.280601    1.174920
     16          1           0       -2.758742   -0.939929    0.325510
 ---------------------------------------------------------------------
 Rotational constants (GHZ):           2.7622736           1.6518644           1.4942764
 Standard basis: VSTO-6G (5D, 7F)
 There are    40 symmetry adapted cartesian basis functions of A   symmetry.
 There are    40 symmetry adapted basis functions of A   symmetry.
    40 basis functions,   240 primitive gaussians,    40 cartesian basis functions
    22 alpha electrons       22 beta electrons
       nuclear repulsion energy       224.5431099901 Hartrees.
 Integral buffers will be    131072 words long.
 Regular integral format.
 Two-electron integral symmetry is turned off.
 Do NDO integrals.
 One-electron integrals computed using PRISM.
 NBasis=    40 RedAO= F EigKep=  0.00D+00  NBF=    40
 NBsUse=    40 1.00D-04 EigRej=  0.00D+00 NBFU=    40
 Simple Huckel Guess.
 Keep J ints in memory in canonical form, NReq=863363.
 Overlap will be assumed to be unity.
 Requested convergence on RMS density matrix=1.00D-08 within 128 cycles.
 Requested convergence on MAX density matrix=1.00D-06.
 Requested convergence on             energy=1.00D-06.
 No special actions if energy rises.
 SCF Done:  E(RAM1) =  0.320534255504E-01 A.U. after   17 cycles
            NFock= 16  Conv=0.86D-08     -V/T= 1.0004
 Range of M.O.s used for correlation:     1    40
 NBasis=    40 NAE=    22 NBE=    22 NFC=     0 NFV=     0
 NROrb=     40 NOA=    22 NOB=    22 NVA=    18 NVB=    18
 Symmetrizing basis deriv contribution to polar:
 IMax=3 JMax=2 DiffMx= 0.00D+00
 G2DrvN: will do    17 centers at a time, making    1 passes.
 Calling FoFCou, ICntrl=  3107 FMM=F I1Cent=   0 AccDes= 0.00D+00.
 End of G2Drv F.D. properties file   721 does not exist.
 End of G2Drv F.D. properties file   722 does not exist.
 End of G2Drv F.D. properties file   788 does not exist.
          IDoAtm=1111111111111111
          Differentiating once with respect to electric field.
                with respect to dipole field.
          Differentiating once with respect to nuclear coordinates.
          Electric field/nuclear overlap derivatives assumed to be zero.
 Keep J ints in memory in canonical form, NReq=864914.
          There are    51 degrees of freedom in the 1st order CPHF.  IDoFFX=5 NUNeed=    51.
 LinEq1:  Iter=  0 NonCon=    51 RMS=3.13D-01 Max=4.03D+00 NDo=    51
 AX will form    51 AO Fock derivatives at one time.
 LinEq1:  Iter=  1 NonCon=    51 RMS=6.03D-02 Max=3.20D-01 NDo=    51
 LinEq1:  Iter=  2 NonCon=    51 RMS=1.44D-02 Max=1.16D-01 NDo=    51
 LinEq1:  Iter=  3 NonCon=    51 RMS=3.38D-03 Max=2.50D-02 NDo=    51
 LinEq1:  Iter=  4 NonCon=    51 RMS=5.80D-04 Max=3.82D-03 NDo=    51
 LinEq1:  Iter=  5 NonCon=    51 RMS=1.46D-04 Max=1.82D-03 NDo=    51
 LinEq1:  Iter=  6 NonCon=    51 RMS=3.17D-05 Max=2.40D-04 NDo=    51
 LinEq1:  Iter=  7 NonCon=    51 RMS=5.25D-06 Max=2.85D-05 NDo=    51
 LinEq1:  Iter=  8 NonCon=    41 RMS=8.33D-07 Max=5.17D-06 NDo=    51
 LinEq1:  Iter=  9 NonCon=     4 RMS=1.37D-07 Max=1.01D-06 NDo=    51
 LinEq1:  Iter= 10 NonCon=     3 RMS=2.54D-08 Max=1.87D-07 NDo=    51
 LinEq1:  Iter= 11 NonCon=     0 RMS=3.99D-09 Max=1.98D-08 NDo=    51
 Linear equations converged to 1.000D-08 1.000D-07 after    11 iterations.
 Isotropic polarizability for W=    0.000000       70.81 Bohr**3.
 End of Minotr F.D. properties file   721 does not exist.
 End of Minotr F.D. properties file   722 does not exist.
 End of Minotr F.D. properties file   788 does not exist.

 **********************************************************************

            Population analysis using the SCF density.

 **********************************************************************

 Orbital symmetries:
       Occupied  (A) (A) (A) (A) (A) (A) (A) (A) (A) (A) (A) (A)
                 (A) (A) (A) (A) (A) (A) (A) (A) (A) (A)
       Virtual   (A) (A) (A) (A) (A) (A) (A) (A) (A) (A) (A) (A)
                 (A) (A) (A) (A) (A) (A)
 The electronic state is 1-A.
 Alpha  occ. eigenvalues --   -1.45234  -1.42881  -1.22407  -1.16966  -0.95395
 Alpha  occ. eigenvalues --   -0.94654  -0.78166  -0.72180  -0.63925  -0.63903
 Alpha  occ. eigenvalues --   -0.58921  -0.58059  -0.55418  -0.53629  -0.52128
 Alpha  occ. eigenvalues --   -0.51145  -0.48645  -0.47510  -0.40487  -0.38918
 Alpha  occ. eigenvalues --   -0.37619  -0.31289
 Alpha virt. eigenvalues --   -0.00958   0.00110   0.05575   0.08549   0.12293
 Alpha virt. eigenvalues --    0.13190   0.14885   0.15319   0.15602   0.15678
 Alpha virt. eigenvalues --    0.15974   0.17064   0.17421   0.17992   0.18512
 Alpha virt. eigenvalues --    0.19528   0.24362   0.24495
          Condensed to atoms (all electrons):
               1          2          3          4          5          6
     1  O    6.306131   0.000000   0.000000   0.000000   0.000000   0.000000
     2  C    0.000000   3.956705   0.000000   0.000000   0.000000   0.000000
     3  C    0.000000   0.000000   4.025641   0.000000   0.000000   0.000000
     4  C    0.000000   0.000000   0.000000   4.371618   0.000000   0.000000
     5  C    0.000000   0.000000   0.000000   0.000000   3.816779   0.000000
     6  C    0.000000   0.000000   0.000000   0.000000   0.000000   4.356873
     7  H    0.000000   0.000000   0.000000   0.000000   0.000000   0.000000
     8  H    0.000000   0.000000   0.000000   0.000000   0.000000   0.000000
     9  H    0.000000   0.000000   0.000000   0.000000   0.000000   0.000000
    10  H    0.000000   0.000000   0.000000   0.000000   0.000000   0.000000
    11  H    0.000000   0.000000   0.000000   0.000000   0.000000   0.000000
    12  H    0.000000   0.000000   0.000000   0.000000   0.000000   0.000000
    13  C    0.000000   0.000000   0.000000   0.000000   0.000000   0.000000
    14  O    0.000000   0.000000   0.000000   0.000000   0.000000   0.000000
    15  H    0.000000   0.000000   0.000000   0.000000   0.000000   0.000000
    16  H    0.000000   0.000000   0.000000   0.000000   0.000000   0.000000
               7          8          9         10         11         12
     1  O    0.000000   0.000000   0.000000   0.000000   0.000000   0.000000
     2  C    0.000000   0.000000   0.000000   0.000000   0.000000   0.000000
     3  C    0.000000   0.000000   0.000000   0.000000   0.000000   0.000000
     4  C    0.000000   0.000000   0.000000   0.000000   0.000000   0.000000
     5  C    0.000000   0.000000   0.000000   0.000000   0.000000   0.000000
     6  C    0.000000   0.000000   0.000000   0.000000   0.000000   0.000000
     7  H    0.885981   0.000000   0.000000   0.000000   0.000000   0.000000
     8  H    0.000000   0.888064   0.000000   0.000000   0.000000   0.000000
     9  H    0.000000   0.000000   0.863179   0.000000   0.000000   0.000000
    10  H    0.000000   0.000000   0.000000   0.880633   0.000000   0.000000
    11  H    0.000000   0.000000   0.000000   0.000000   0.868448   0.000000
    12  H    0.000000   0.000000   0.000000   0.000000   0.000000   0.870302
    13  C    0.000000   0.000000   0.000000   0.000000   0.000000   0.000000
    14  O    0.000000   0.000000   0.000000   0.000000   0.000000   0.000000
    15  H    0.000000   0.000000   0.000000   0.000000   0.000000   0.000000
    16  H    0.000000   0.000000   0.000000   0.000000   0.000000   0.000000
              13         14         15         16
     1  O    0.000000   0.000000   0.000000   0.000000
     2  C    0.000000   0.000000   0.000000   0.000000
     3  C    0.000000   0.000000   0.000000   0.000000
     4  C    0.000000   0.000000   0.000000   0.000000
     5  C    0.000000   0.000000   0.000000   0.000000
     6  C    0.000000   0.000000   0.000000   0.000000
     7  H    0.000000   0.000000   0.000000   0.000000
     8  H    0.000000   0.000000   0.000000   0.000000
     9  H    0.000000   0.000000   0.000000   0.000000
    10  H    0.000000   0.000000   0.000000   0.000000
    11  H    0.000000   0.000000   0.000000   0.000000
    12  H    0.000000   0.000000   0.000000   0.000000
    13  C    3.786598   0.000000   0.000000   0.000000
    14  O    0.000000   6.308264   0.000000   0.000000
    15  H    0.000000   0.000000   0.896939   0.000000
    16  H    0.000000   0.000000   0.000000   0.917846
 Mulliken charges:
               1
     1  O   -0.306131
     2  C    0.043295
     3  C   -0.025641
     4  C   -0.371618
     5  C    0.183221
     6  C   -0.356873
     7  H    0.114019
     8  H    0.111936
     9  H    0.136821
    10  H    0.119367
    11  H    0.131552
    12  H    0.129698
    13  C    0.213402
    14  O   -0.308264
    15  H    0.103061
    16  H    0.082154
 Sum of Mulliken charges =  -0.00000
 Mulliken charges with hydrogens summed into heavy atoms:
               1
     1  O   -0.306131
     2  C    0.294214
     3  C    0.189357
     4  C   -0.241919
     5  C    0.297239
     6  C   -0.220052
    13  C    0.295556
    14  O   -0.308264
 APT charges:
               1
     1  O   -0.482555
     2  C    0.225279
     3  C    0.540525
     4  C   -0.927868
     5  C    0.530958
     6  C   -0.710658
     7  H    0.090554
     8  H    0.002862
     9  H    0.128401
    10  H    0.075738
    11  H    0.091610
    12  H    0.137839
    13  C    0.870976
    14  O   -0.633140
    15  H    0.061229
    16  H   -0.001746
 Sum of APT charges =   0.00000
 APT charges with hydrogens summed into heavy atoms:
               1
     1  O   -0.482555
     2  C    0.392626
     3  C    0.604616
     4  C   -0.790029
     5  C    0.621512
     6  C   -0.582257
    13  C    0.869230
    14  O   -0.633140
 Charge=             -0.0000 electrons
 Dipole moment (field-independent basis, Debye):
    X=             -0.1483    Y=             -0.5343    Z=              2.4494  Tot=              2.5114
 N-N= 2.245431099901D+02 E-N=-3.292201642446D+02  KE=-8.841237758929D+01
  Exact polarizability:  74.695   0.583  74.009 -16.783   1.556  63.737
 Approx polarizability:  53.311   0.530  63.903 -17.801   0.394  53.743
 SCFChk:  SCF convergence  8.56D-09 required  1.00D-08
 Use density number 0.
  NNHCO=     0 NNPyr=     0 NCTC=     0               EPep=         0.000000000
    EC=       165.684120692  ECS=         2.623262636   EG=         0.524910632
   EHC=         0.000000000  EAt=       -53.222767539  AtH=         2.488048490
 EPDDG=         0.000000000  ECC=       168.832293961 EAtT=        55.710816029
 Entering OneElI...
 Calculate overlap and kinetic energy integrals
    NBasis =  40  MinDer = 2  MaxDer = 2
 Requested accuracy = 0.1000D-12
 PrmmSu-InSpLW:  IPartL=    0 NPrtUS=   12 NPrtUL=    1 DoSpLW=F IThBeg=    0 IThEnd=   11 NThAct=   12.
 PrsmSu:  NPrtUS=  12 ThrOK=T IAlg=1 NPAlg=1 LenDen=           0 ISkipM=0 DoSpLW=F IThBeg=    0 IThEnd=   11.
 Prism:   IPart=     0 DynPar=F LinDyn=F Incr=           1.
 PRISM was handed   536780216 working-precision words and   300 shell-pairs
 PRISM was handed   536780216 working-precision words and   300 shell-pairs
 PRISM was handed   536780216 working-precision words and   300 shell-pairs
 PRISM was handed   536780216 working-precision words and   300 shell-pairs
 PRISM was handed   536780216 working-precision words and   300 shell-pairs
 PRISM was handed   536780216 working-precision words and   300 shell-pairs
 PRISM was handed   536780216 working-precision words and   300 shell-pairs
 PRISM was handed   536780216 working-precision words and   300 shell-pairs
 PRISM was handed   536780216 working-precision words and   300 shell-pairs
 PRISM was handed   536780216 working-precision words and   300 shell-pairs
 PRISM was handed   536780216 working-precision words and   300 shell-pairs
 PRISM was handed   536780216 working-precision words and   300 shell-pairs
 IPart=  8 NShTot=          17 NBatch=          14 AvBLen=         1.2
 IPart= 11 NShTot=          13 NBatch=          10 AvBLen=         1.3
 IPart=  9 NShTot=          17 NBatch=          14 AvBLen=         1.2
 IPart=  6 NShTot=          21 NBatch=          18 AvBLen=         1.2
 IPart=  5 NShTot=          22 NBatch=          19 AvBLen=         1.2
 IPart= 10 NShTot=          16 NBatch=          13 AvBLen=         1.2
 IPart=  7 NShTot=          20 NBatch=          17 AvBLen=         1.2
 IPart=  4 NShTot=          23 NBatch=          20 AvBLen=         1.2
 IPart=  3 NShTot=          29 NBatch=          22 AvBLen=         1.3
 IPart=  2 NShTot=          31 NBatch=          22 AvBLen=         1.4
 IPart=  0 NShTot=          51 NBatch=          39 AvBLen=         1.3
 IPart=  1 NShTot=          40 NBatch=          30 AvBLen=         1.3
 PrSmSu:  NxtVal=             13.
 Use density number 0.
 Entering OneElI...
 Calculate potential energy integrals
    NBasis =  40  MinDer = 2  MaxDer = 2
 Requested accuracy = 0.1000D-12
 PrmmSu-InSpLW:  IPartL=    0 NPrtUS=   12 NPrtUL=    1 DoSpLW=F IThBeg=    0 IThEnd=   11 NThAct=   12.
 PrsmSu:  NPrtUS=  12 ThrOK=T IAlg=1 NPAlg=1 LenDen=           0 ISkipM=0 DoSpLW=F IThBeg=    0 IThEnd=   11.
 Prism:   IPart=     0 DynPar=F LinDyn=F Incr=           1.
 PRISM was handed   536858422 working-precision words and    16 shell-pairs
 PRISM was handed   536858422 working-precision words and    16 shell-pairs
 PRISM was handed   536858422 working-precision words and    16 shell-pairs
 PRISM was handed   536858422 working-precision words and    16 shell-pairs
 PRISM was handed   536858422 working-precision words and    16 shell-pairs
 PRISM was handed   536858422 working-precision words and    16 shell-pairs
 PRISM was handed   536858422 working-precision words and    16 shell-pairs
 PRISM was handed   536858422 working-precision words and    16 shell-pairs
 PRISM was handed   536858422 working-precision words and    16 shell-pairs
 PRISM was handed   536858422 working-precision words and    16 shell-pairs
 IPart= 11 NShTot=           0 NBatch=           0 AvBLen=         0.0
 IPart=  8 NShTot=           0 NBatch=           0 AvBLen=         0.0
 PRISM was handed   536858422 working-precision words and    16 shell-pairs
 PRISM was handed   536858422 working-precision words and    16 shell-pairs
 IPart= 10 NShTot=           0 NBatch=           0 AvBLen=         0.0
 IPart=  9 NShTot=           0 NBatch=           0 AvBLen=         0.0
 IPart=  0 NShTot=          32 NBatch=           2 AvBLen=        16.0
 IPart=  6 NShTot=          32 NBatch=           2 AvBLen=        16.0
 IPart=  7 NShTot=          32 NBatch=           2 AvBLen=        16.0
 IPart=  3 NShTot=          32 NBatch=           2 AvBLen=        16.0
 IPart=  5 NShTot=          32 NBatch=           2 AvBLen=        16.0
 IPart=  1 NShTot=          32 NBatch=           2 AvBLen=        16.0
 IPart=  2 NShTot=          32 NBatch=           2 AvBLen=        16.0
 IPart=  4 NShTot=          32 NBatch=           2 AvBLen=        16.0
 PrSmSu:  NxtVal=             13.
 Polarizability after L701:
                1             2             3 
      1  0.746945D+02
      2  0.582628D+00  0.740089D+02
      3 -0.167831D+02  0.155580D+01  0.637372D+02
 Dipole Derivatives after L701:
                 1             2             3             4             5 
      1  -0.441567D+00 -0.191910D+00 -0.168049D+00  0.243504D+00 -0.176757D+00
      2  -0.201190D+00 -0.677096D+00 -0.234390D+00  0.481883D+00  0.395395D+00
      3   0.784745D-01  0.132632D+00 -0.329001D+00 -0.890771D-02  0.109978D+00
                 6             7             8             9            10 
      1  -0.745874D-01  0.967607D+00 -0.651549D+00 -0.358241D+00 -0.130377D+01
      2  -0.110328D+00 -0.317780D+00  0.339603D+00 -0.714507D-01 -0.541584D-01
      3   0.369372D-01 -0.145288D+00  0.736419D-01  0.314364D+00 -0.347091D-01
                11            12            13            14            15 
      1   0.485666D+00 -0.293303D+00  0.389799D+00  0.772127D+00 -0.438765D-01
      2  -0.108155D+01  0.289179D-01 -0.171380D+00  0.781391D+00  0.109527D+00
      3  -0.326867D+00 -0.398275D+00 -0.191934D+00 -0.559773D+00  0.421684D+00
                16            17            18            19            20 
      1  -0.949937D+00 -0.442848D+00  0.598775D+00  0.163010D+00  0.106760D-01
      2   0.156906D+00 -0.452153D+00  0.431011D-01  0.840437D-01  0.187922D-01
      3   0.153852D+00  0.373586D+00 -0.729884D+00 -0.126566D-01  0.252487D-01
                21            22            23            24            25 
      1   0.111274D-01 -0.481026D-01  0.877343D-01 -0.819580D-02  0.955172D-01
      2   0.743153D-01  0.750889D-02 -0.390245D-01  0.691668D-02 -0.749238D-01
      3   0.898598D-01  0.547784D-01  0.457953D-01  0.957125D-01  0.570793D-01
                26            27            28            29            30 
      1  -0.580701D-01 -0.115787D-01  0.462769D-01 -0.130634D-01 -0.185169D-02
      2   0.161563D+00  0.494714D-01  0.617996D-01  0.923229D-01  0.112467D+00
      3   0.445223D-01  0.128122D+00  0.577824D-01  0.408609D-01  0.886146D-01
                31            32            33            34            35 
      1   0.812866D-01 -0.322401D-01  0.260439D-01  0.127423D+00 -0.894819D-01
      2  -0.498403D-01  0.114734D+00 -0.135835D+00 -0.117477D+00  0.161508D+00
      3  -0.307262D-01 -0.196865D-01  0.788081D-01 -0.276685D-01 -0.536355D-02
                36            37            38            39            40 
      1  -0.105643D+00  0.101011D+01  0.466798D+00  0.100292D+01 -0.465008D+00
      2  -0.628619D-02  0.244466D+00  0.417210D+00  0.174325D+00 -0.662595D-01
      3   0.124585D+00  0.161440D+00  0.320671D-01  0.118561D+01 -0.148950D-01
                41            42            43            44            45 
      1  -0.609787D-01 -0.516629D+00  0.875798D-01 -0.247473D-01  0.497961D-02
      2  -0.351659D+00 -0.268035D-01  0.421961D-01  0.950523D-01  0.739466D-03
      3   0.977709D-01 -0.108275D+01 -0.608979D-01 -0.332803D-01  0.105531D-02
                46            47            48 
      1  -0.368708D-02 -0.813231D-01 -0.619365D-01
      2  -0.257509D-01  0.239209D-01 -0.146834D-01
      3  -0.357226D-01 -0.311734D-01 -0.254730D-01
 Hessian after L701:
                1             2             3             4             5 
      1  0.336471D+00
      2 -0.143742D+00  0.876571D+00
      3  0.471640D+00  0.500358D-01  0.139274D+01
      4  0.343227D+00 -0.233985D+00 -0.336103D+00  0.321447D+00
      5 -0.107743D+00 -0.334037D+00  0.334132D-01  0.265166D-01  0.764271D+00
      6 -0.298374D+00  0.101560D+00 -0.179272D+00  0.389037D+00 -0.177509D+00
      7 -0.148228D+00  0.155165D+00  0.116833D-01  0.260256D-01 -0.211285D-01
      8  0.121118D+00  0.842754D-01 -0.148333D+00 -0.992078D-01  0.669458D-01
      9 -0.200636D-01 -0.151525D+00 -0.104917D+00 -0.254504D-01 -0.310421D-01
     10  0.138729D+00  0.924694D-01 -0.136012D+00 -0.324755D+00  0.562910D-01
     11  0.343992D-01 -0.874960D-02  0.201622D-01  0.197436D+00 -0.165027D+00
     12 -0.110608D+00 -0.565399D-01 -0.106301D+00 -0.301621D-01 -0.343405D-01
     13 -0.650581D+00  0.436415D-01  0.278168D-01  0.457001D-01 -0.529312D-01
     14 -0.791869D-01 -0.593751D+00  0.464950D-01  0.834738D-01 -0.551792D-02
     15  0.318349D-02 -0.488262D-01 -0.625466D+00 -0.388565D-01  0.434584D-01
     16 -0.176237D+00 -0.249869D-01 -0.289095D-01 -0.640356D-01 -0.749305D-01
     17  0.509213D-01  0.165104D+00 -0.296911D-01 -0.111791D+00  0.324392D-01
     18 -0.389043D-01  0.683348D-01 -0.153792D+00  0.387266D-01  0.500611D-01
     19 -0.372180D-01 -0.197112D-01 -0.251940D-01  0.343840D-02 -0.634310D-02
     20 -0.649407D-02 -0.411467D-01  0.178423D-01 -0.134184D-01 -0.651306D-02
     21 -0.227769D-01  0.357504D-01 -0.111878D-01 -0.133904D-01  0.435886D-02
     22 -0.229566D-01  0.747528D-03 -0.140921D-01 -0.165226D-01 -0.179514D-01
     23  0.307790D-02  0.150562D-01 -0.349852D-01 -0.664933D-02  0.122026D-01
     24 -0.693617D-02 -0.412363D-01  0.795759D-02  0.587223D-02 -0.141419D-01
     25 -0.117799D-01 -0.750843D-02 -0.306282D-02 -0.931403D-02 -0.790921D-02
     26 -0.955548D-03  0.270634D-01  0.154958D-01 -0.480870D-02  0.638922D-02
     27  0.434134D-02  0.113547D-01 -0.186696D-01 -0.633712D-02  0.377992D-02
     28 -0.105708D-01 -0.211257D-01 -0.434914D-01 -0.139194D+00 -0.345643D-01
     29 -0.254027D-01 -0.371687D-01  0.286883D-01 -0.375736D-01 -0.173133D+00
     30 -0.478183D-01  0.283351D-01  0.425725D-02 -0.595799D-01 -0.817209D-01
     31  0.359681D-01 -0.307732D-01  0.130634D-01 -0.116605D+00  0.335790D-01
     32 -0.361688D-01 -0.409315D-01 -0.513833D-02  0.219519D-01 -0.171211D+00
     33  0.982537D-02 -0.637441D-02 -0.550662D-01 -0.480648D-01  0.788854D-01
     34  0.101451D-02  0.181606D-01 -0.122334D-01 -0.100547D-01  0.184469D-01
     35  0.169715D-01 -0.199318D-01 -0.131482D-01  0.232634D-03 -0.180113D-01
     36 -0.194944D-01 -0.790180D-02 -0.147779D-02 -0.123396D-01 -0.203841D-01
     37  0.796461D-01  0.639167D-01  0.126923D-02 -0.182785D-01  0.893672D-01
     38  0.666341D-01 -0.378179D-01 -0.246543D-02  0.773104D-01 -0.259520D-02
     39  0.641856D-02 -0.390582D-02 -0.607947D-01  0.235861D-01  0.330186D-01
     40  0.121939D+00  0.875749D-01  0.800429D-01 -0.339824D-01  0.884729D-01
     41  0.882348D-01 -0.667006D-01  0.315633D-01  0.878475D-01 -0.250047D-01
     42  0.768027D-01  0.316960D-01 -0.727834D-01  0.111899D+00  0.114170D+00
     43 -0.963486D-02  0.122367D-01 -0.426836D-02 -0.859463D-02 -0.251945D-02
     44  0.111186D-01  0.145067D-01 -0.978570D-02 -0.234139D-02  0.132317D-01
     45 -0.475216D-02 -0.993279D-02 -0.828902D-02  0.697505D-03 -0.330177D-02
     46  0.102106D-01  0.791856D-02 -0.214828D-02  0.149873D-02  0.133473D-01
     47  0.721983D-02 -0.234376D-02 -0.148048D-03  0.150063D-01  0.556999D-02
     48 -0.248199D-02 -0.825162D-03 -0.693970D-02  0.464339D-03  0.129392D-02
                6             7             8             9            10 
      6  0.130086D+01
      7 -0.324501D-01  0.635726D+00
      8  0.227235D-02  0.396159D+00  0.715591D+00
      9 -0.526202D-01  0.137354D+00  0.291743D+00  0.998789D+00
     10 -0.999357D-02  0.521847D-01 -0.212007D+00 -0.467354D-02  0.594471D+00
     11 -0.908169D-01 -0.285333D+00  0.650088D-01  0.287457D-01  0.713805D-01
     12 -0.355987D+00  0.290022D-01 -0.236324D-01 -0.182375D+00 -0.646487D-01
     13 -0.686670D-01 -0.750403D-01  0.546253D-01 -0.519303D-01  0.637189D-01
     14 -0.294168D-01 -0.430491D-01  0.226034D-01 -0.209750D-01  0.286065D-01
     15 -0.497447D-01 -0.784691D-01 -0.535891D-01  0.452427D-02 -0.653273D-01
     16  0.155740D-03 -0.236816D+00 -0.366415D-01 -0.109128D+00  0.242386D-01
     17  0.579679D-01  0.434222D-01 -0.398524D+00 -0.366543D-01 -0.977292D-01
     18 -0.770923D-01 -0.144328D+00  0.341396D-01 -0.221312D+00 -0.368646D-01
     19 -0.853219D-02 -0.201909D-02  0.506033D-02 -0.967917D-02  0.743820D-02
     20  0.713890D-02  0.705398D-02 -0.107348D-01 -0.910362D-02 -0.559666D-03
     21  0.220558D-02 -0.716548D-02 -0.858989D-02  0.575564D-02 -0.906513D-02
     22  0.122097D-01 -0.132398D+00 -0.464076D-01 -0.695329D-01  0.361140D-02
     23 -0.169663D-01 -0.464817D-01 -0.152312D+00 -0.567041D-01 -0.123632D-01
     24 -0.819815D-02 -0.564694D-01 -0.676231D-01 -0.235240D+00  0.178376D-01
     25  0.869233D-03 -0.137011D-01 -0.156234D-02 -0.108944D-01 -0.237229D-02
     26  0.414898D-02 -0.901407D-02 -0.221757D-01  0.170877D-01 -0.953070D-02
     27 -0.200988D-02 -0.119274D-01  0.795895D-03 -0.428296D-02 -0.101972D-01
     28 -0.577080D-01 -0.126810D-01 -0.322620D-02  0.205427D-03 -0.205930D-01
     29 -0.770897D-01 -0.308068D-02  0.166549D-01  0.336936D-02  0.158067D-01
     30 -0.238702D+00  0.919655D-03  0.294091D-02 -0.110849D-01  0.998843D-02
     31 -0.525552D-01 -0.139605D-01 -0.212613D-02  0.530444D-02 -0.280648D-01
     32  0.822952D-01 -0.349105D-02  0.741058D-02 -0.793821D-02  0.956778D-02
     33 -0.246157D+00  0.543227D-02 -0.840085D-02 -0.684974D-02 -0.786547D-02
     34 -0.869663D-02 -0.689188D-02 -0.145452D-01 -0.905339D-02 -0.128240D+00
     35 -0.716114D-03 -0.126518D-01 -0.143704D-01  0.616187D-02 -0.158148D-01
     36 -0.156640D-01 -0.119320D-01  0.914086D-02 -0.189026D-01  0.389036D-01
     37  0.287272D-01  0.487155D-01 -0.422400D-01  0.578384D-01 -0.233385D+00
     38  0.291086D-01 -0.524909D-01 -0.476981D-01 -0.209115D-01  0.543014D-01
     39 -0.678865D-01  0.425396D-01 -0.986233D-02 -0.413836D-01  0.136398D+00
     40  0.105860D+00  0.199955D-01 -0.448932D-01  0.890956D-01 -0.137928D+00
     41  0.110681D+00 -0.454475D-01 -0.502701D-01 -0.428715D-01  0.247540D-01
     42  0.103906D-01  0.961851D-01 -0.496126D-01  0.876334D-02  0.134001D+00
     43  0.818111D-03 -0.159534D+00 -0.704775D-01  0.146521D-01 -0.122702D-01
     44 -0.344721D-02 -0.752868D-01 -0.271314D+00  0.313517D-01 -0.211647D-01
     45 -0.765196D-02  0.137471D-01  0.293575D-01 -0.128371D+00  0.262558D-02
     46 -0.701961D-03  0.186220D-01 -0.362762D-02  0.595661D-02  0.321727D-02
     47  0.788343D-03 -0.434599D-02 -0.110916D-01 -0.734111D-03  0.159919D-01
     48 -0.124667D-01  0.588229D-02 -0.749131D-03 -0.104960D-01  0.489071D-02
               11            12            13            14            15 
     11  0.909855D+00
     12 -0.628173D-01  0.119920D+01
     13 -0.230024D-01 -0.674490D-01  0.990860D+00
     14 -0.186033D+00  0.166630D-01 -0.100742D+00  0.105919D+01
     15 -0.154506D-01 -0.170579D-01  0.149996D+00  0.132936D+00  0.138106D+01
     16 -0.262844D-01 -0.694764D-01 -0.324594D+00  0.109855D+00 -0.212060D-02
     17  0.137405D-01  0.309807D-01  0.583454D-01 -0.868590D-01 -0.465679D-01
     18 -0.331981D-01 -0.436024D-01 -0.343958D-01 -0.165611D+00 -0.346722D+00
     19  0.393779D-03 -0.896924D-02 -0.173553D+00 -0.354924D-02  0.651324D-01
     20 -0.237505D-02 -0.759903D-04 -0.167935D-02 -0.111964D+00  0.806262D-02
     21  0.342705D-02  0.139238D-03  0.667119D-01  0.637851D-02 -0.236225D+00
     22 -0.788292D-02  0.150224D-01 -0.137879D-01  0.155569D-01 -0.873005D-02
     23 -0.293333D-01 -0.573536D-02  0.362161D-02 -0.211086D-01 -0.131665D-01
     24 -0.671946D-02 -0.197882D-01 -0.979007D-02 -0.957938D-02  0.187499D-01
     25 -0.305402D-02 -0.872063D-02 -0.256550D-01  0.157574D-01 -0.457885D-02
     26 -0.747052D-03  0.774223D-02  0.887248D-02  0.434585D-02 -0.856933D-02
     27  0.126666D-01 -0.407901D-02  0.196909D-02  0.149763D-01 -0.252283D-01
     28  0.164926D-01  0.198091D-02 -0.604147D-02 -0.108257D-01 -0.865581D-02
     29  0.416537D-02 -0.122660D-02 -0.703110D-02  0.113307D-02  0.101798D-01
     30  0.195725D-01 -0.266066D-01 -0.818343D-02  0.133049D-01  0.102926D-02
     31 -0.954932D-02  0.673545D-03  0.423253D-02 -0.271602D-01 -0.662928D-02
     32  0.660634D-02 -0.967424D-02 -0.152136D-01  0.522405D-02  0.408967D-02
     33 -0.210217D-01 -0.172788D-01 -0.297979D-02  0.605853D-02 -0.110420D-01
     34 -0.294485D-01  0.491726D-01  0.203520D-02 -0.115176D-01 -0.105508D-01
     35 -0.107840D+00  0.250251D-01  0.201136D-02  0.422653D-02  0.881923D-03
     36  0.328736D-01 -0.294498D+00 -0.883419D-02  0.758765D-03  0.152233D-02
     37  0.417835D-01  0.103145D+00  0.509026D-01  0.391117D-02 -0.157727D-01
     38 -0.314076D+00  0.536150D-01  0.992996D-02 -0.276451D-01 -0.147530D-02
     39  0.589712D-01 -0.232147D+00 -0.158595D-01 -0.373058D-02 -0.296313D-01
     40  0.240227D-01  0.141351D+00  0.105691D+00  0.105974D-01  0.268250D-01
     41 -0.190715D+00  0.534790D-01  0.110352D-01 -0.622891D-01  0.160005D-02
     42  0.551674D-01  0.150553D+00  0.275755D-01  0.492075D-02 -0.586717D-01
     43 -0.164781D-01  0.156544D-02 -0.834722D-03  0.499062D-02 -0.270700D-02
     44  0.214373D-01 -0.521113D-02  0.600048D-02  0.354238D-02 -0.126702D-01
     45 -0.491998D-02 -0.218281D-01 -0.342032D-02 -0.123662D-01 -0.316107D-02
     46  0.151230D-01  0.181210D-01  0.694761D-02  0.328351D-02 -0.273892D-02
     47 -0.159126D-01  0.117494D-01  0.251583D-02 -0.509177D-02 -0.894629D-03
     48  0.336091D-02 -0.283445D-01 -0.255959D-02 -0.811232D-03 -0.393488D-02
               16            17            18            19            20 
     16  0.787990D+00
     17  0.139457D+00  0.677536D+00
     18  0.211172D+00  0.164735D+00  0.117791D+01
     19 -0.184194D-01  0.177390D-01 -0.992715D-02  0.199204D+00
     20  0.720278D-02 -0.137272D-01 -0.917284D-02  0.147258D-02  0.201687D+00
     21 -0.128993D-01 -0.259810D-01 -0.103639D-01  0.135968D-01 -0.101830D-01
     22 -0.399360D-01 -0.366535D-02  0.847274D-02 -0.892270D-03  0.168640D-03
     23  0.516340D-02 -0.252938D-01  0.400404D-02  0.148103D-03 -0.126731D-02
     24 -0.152273D-01 -0.845890D-03  0.115222D-01 -0.145436D-02 -0.128135D-02
     25 -0.128976D+00 -0.195568D-02  0.129535D-01 -0.315504D-02  0.437919D-02
     26  0.721083D-02 -0.239483D+00 -0.990243D-01  0.443556D-02  0.423591D-02
     27  0.716944D-02 -0.104492D+00 -0.198715D+00 -0.169845D-02 -0.338855D-02
     28 -0.486336D-02 -0.580590D-02 -0.403621D-02 -0.651908D-03 -0.328952D-03
     29 -0.725734D-02  0.712086D-02  0.950885D-02 -0.863342D-03 -0.808264D-03
     30 -0.435537D-02  0.768400D-02 -0.281205D-02 -0.137861D-02  0.961785D-03
     31  0.125166D-02 -0.652778D-02 -0.496527D-02  0.156963D-02 -0.168336D-02
     32 -0.124383D-01  0.710425D-02  0.220869D-02 -0.222491D-02 -0.698215D-03
     33 -0.833413D-03 -0.154164D-02 -0.755116D-02 -0.145302D-02  0.837191D-03
     34  0.847899D-02 -0.183329D-02 -0.184519D-01  0.404575D-03  0.451656D-03
     35 -0.104969D-01 -0.114021D-01  0.119092D-01 -0.274426D-03 -0.126335D-02
     36 -0.127545D-01  0.498413D-02  0.874669D-03 -0.973003D-03  0.362045D-04
     37  0.786172D-01 -0.301798D-01 -0.108969D-01  0.587943D-02  0.103001D-02
     38 -0.330055D-01 -0.420308D-01  0.240462D-02  0.387333D-03 -0.487631D-02
     39 -0.139170D-02  0.565262D-02 -0.565076D-01 -0.575038D-02 -0.102950D-02
     40  0.959696D-01 -0.583828D-01  0.583978D-01  0.181073D-01  0.157496D-02
     41 -0.586980D-01 -0.576188D-01 -0.200907D-01  0.145024D-02 -0.991788D-02
     42  0.563029D-01 -0.230803D-01 -0.531585D-01 -0.161411D-02  0.967469D-04
     43 -0.149652D-01  0.951327D-02 -0.246681D-01 -0.941460D-03  0.552924D-03
     44  0.168830D-01 -0.213798D-01 -0.197496D-01  0.146827D-02 -0.109810D-03
     45 -0.149116D-01 -0.337344D-02 -0.118497D-01 -0.150513D-02 -0.633610D-03
     46  0.122963D-01 -0.152734D-02 -0.228483D-02  0.811063D-03  0.277077D-03
     47 -0.103130D-02 -0.672538D-02 -0.454618D-03  0.408268D-03 -0.520881D-03
     48 -0.279307D-02  0.222673D-03 -0.682404D-02 -0.601731D-03 -0.107310D-03
               21            22            23            24            25 
     21  0.266081D+00
     22 -0.175537D-02  0.213467D+00
     23 -0.103852D-02  0.775020D-01  0.232066D+00
     24  0.241896D-02  0.357525D-01  0.141096D+00  0.233170D+00
     25 -0.146392D-02 -0.183444D-02 -0.327536D-02  0.904134D-03  0.175888D+00
     26 -0.324563D-02 -0.128464D-02 -0.127159D-02  0.363405D-02  0.312379D-01
     27 -0.469476D-02  0.161147D-02  0.232110D-02  0.220891D-02  0.232736D-01
     28 -0.138814D-02 -0.219539D-02 -0.292168D-02  0.401651D-03 -0.554281D-03
     29  0.105364D-02 -0.279897D-02  0.475465D-02 -0.108797D-02 -0.619686D-03
     30  0.496228D-03  0.238894D-03 -0.879218D-03 -0.323842D-02 -0.380212D-03
     31 -0.104055D-02 -0.495934D-04 -0.201234D-02  0.115965D-02  0.857540D-04
     32  0.690405D-03 -0.178762D-02  0.106451D-02 -0.189582D-02 -0.134692D-02
     33 -0.117903D-02  0.700265D-03 -0.172211D-02 -0.357965D-03 -0.435941D-03
     34 -0.861826D-03  0.644885D-02 -0.513473D-02 -0.100207D-03  0.616584D-03
     35 -0.408153D-03 -0.489976D-02 -0.334150D-02 -0.920510D-04 -0.143329D-02
     36  0.393358D-03 -0.751331D-03  0.536225D-03 -0.559589D-02 -0.134476D-02
     37 -0.430045D-02  0.888932D-02 -0.387560D-02  0.110596D-01  0.843168D-02
     38 -0.730256D-03 -0.186785D-02 -0.976707D-02 -0.186795D-02 -0.768606D-02
     39 -0.368277D-02  0.129994D-01 -0.379528D-02 -0.200465D-02 -0.247832D-02
     40 -0.235054D-02  0.248927D-02 -0.268094D-02  0.127308D-01  0.142424D-01
     41 -0.242532D-03 -0.270457D-02 -0.849282D-02 -0.298287D-02 -0.160286D-01
     42 -0.959833D-02  0.117394D-01 -0.197814D-02  0.470760D-02  0.256966D-02
     43 -0.115785D-02 -0.660626D-02 -0.422404D-02  0.275118D-02 -0.356278D-02
     44 -0.117427D-02 -0.280943D-02 -0.114416D-01  0.454378D-02  0.170877D-02
     45 -0.155404D-03 -0.540951D-02 -0.110453D-01 -0.535755D-02 -0.631643D-02
     46 -0.692178D-03  0.227381D-02  0.105795D-03  0.150826D-02  0.164025D-02
     47 -0.673304D-04  0.850840D-04 -0.151383D-02  0.794966D-04 -0.703217D-03
     48 -0.403442D-03  0.152368D-02  0.588912D-04 -0.953980D-03 -0.894008D-03
               26            27            28            29            30 
     26  0.233747D+00
     27  0.607467D-01  0.272497D+00
     28 -0.665279D-03 -0.312389D-03  0.207760D+00
     29  0.811124D-03  0.926700D-03  0.413955D-01  0.175421D+00
     30  0.966744D-03 -0.412840D-03  0.988249D-01 -0.209470D-02  0.297622D+00
     31 -0.136213D-02  0.146652D-03 -0.442258D-02  0.295157D-02 -0.485147D-02
     32  0.132445D-02  0.217212D-03 -0.302944D-02 -0.311731D-02 -0.822795D-02
     33  0.569136D-03 -0.998412D-03 -0.179174D-02  0.768684D-02 -0.121840D-01
     34 -0.992605D-03 -0.791587D-03 -0.301723D-02  0.665982D-02 -0.728372D-03
     35 -0.417328D-03  0.536282D-03  0.711390D-02  0.275040D-02 -0.259264D-02
     36  0.967436D-03  0.115511D-03 -0.142556D-02 -0.216581D-02 -0.479372D-02
     37 -0.757629D-02 -0.334638D-02  0.284402D-02  0.791065D-02  0.570573D-02
     38 -0.331614D-02  0.204352D-02  0.650507D-02  0.535686D-03  0.946974D-02
     39  0.198886D-02 -0.536856D-02  0.588174D-02  0.990972D-02 -0.618911D-02
     40 -0.161847D-01  0.349634D-02 -0.447526D-02  0.862329D-02  0.106541D-01
     41 -0.391794D-02 -0.206077D-02  0.836157D-02 -0.168218D-02  0.115294D-01
     42 -0.204586D-02 -0.135852D-01  0.105632D-01  0.119352D-01  0.494103D-02
     43  0.140487D-02 -0.644972D-02 -0.123811D-02  0.000000D+00  0.968065D-05
     44 -0.557405D-02 -0.696286D-03 -0.770420D-04  0.232693D-02  0.169787D-03
     45 -0.677275D-03  0.418131D-02 -0.285735D-04  0.266305D-03 -0.128515D-02
     46 -0.787081D-03 -0.947758D-03 -0.106693D-03  0.128082D-02  0.934666D-03
     47 -0.101444D-02  0.271893D-03  0.270066D-02  0.234874D-03  0.580146D-03
     48  0.215119D-03 -0.957426D-03  0.979775D-03  0.139871D-03 -0.103729D-02
               31            32            33            34            35 
     31  0.145053D+00
     32 -0.887126D-02  0.148279D+00
     33  0.355689D-01 -0.749313D-01  0.397371D+00
     34 -0.122987D-02 -0.626550D-03 -0.306582D-02  0.174154D+00
     35 -0.111505D-02 -0.157557D-02 -0.310530D-02  0.169672D-01  0.217009D+00
     36 -0.988884D-03 -0.409866D-02  0.123321D-02  0.105928D-02 -0.340978D-01
     37 -0.854771D-02  0.196159D-01 -0.460454D-04 -0.220584D-01  0.552362D-02
     38  0.212056D-01  0.149274D-01 -0.343936D-02  0.523631D-02 -0.262685D-01
     39  0.944528D-03 -0.291718D-02 -0.162482D-01  0.399212D-02  0.255631D-02
     40 -0.145615D-01  0.317905D-01  0.155322D-01 -0.191990D-01 -0.148066D-02
     41  0.318043D-01  0.222970D-01  0.279738D-01 -0.109920D-02 -0.187534D-01
     42  0.146337D-01  0.268633D-01 -0.209480D-01  0.588045D-02  0.830371D-03
     43 -0.785952D-03 -0.407710D-03  0.279579D-04 -0.169788D-02 -0.414679D-02
     44 -0.525397D-03  0.155567D-02 -0.791871D-03 -0.426101D-02  0.299932D-02
     45  0.183483D-03 -0.886185D-03 -0.776352D-03 -0.148160D-02  0.237353D-02
     46  0.663064D-04  0.268038D-02 -0.550393D-03 -0.763201D-03  0.349312D-02
     47  0.216585D-02  0.174062D-02 -0.682080D-03  0.353642D-02 -0.381047D-02
     48 -0.647373D-03 -0.656902D-03 -0.196867D-02  0.591125D-02  0.388542D-02
               36            37            38            39            40 
     36  0.309309D+00
     37  0.196200D-01  0.836787D+00
     38  0.113268D-01 -0.806993D-01  0.131630D+01
     39  0.176636D-02 -0.266448D+00 -0.130761D+00  0.143306D+01
     40  0.690532D-02 -0.627628D+00  0.281454D-02  0.564407D-02  0.500883D+00
     41  0.171597D-02  0.108920D-02 -0.633471D+00  0.200427D-01 -0.132198D+00
     42  0.290361D-01  0.238147D-01  0.344521D-01 -0.768323D+00 -0.545270D+00
     43 -0.153152D-02  0.300854D-02 -0.142378D-01  0.989678D-02 -0.362488D-02
     44  0.234702D-02 -0.145627D-01  0.252338D-03 -0.863562D-02 -0.105219D-01
     45 -0.343869D-02  0.969775D-02 -0.886401D-02 -0.755169D-02  0.123064D-01
     46  0.588201D-02 -0.213823D+00 -0.543374D-01  0.436243D-01 -0.379201D-01
     47  0.396116D-02 -0.550125D-01 -0.182456D+00  0.324965D-01  0.108689D-01
     48  0.121144D-03  0.399338D-01  0.280954D-01 -0.137104D+00 -0.212218D-01
               41            42            43            44            45 
     41  0.114720D+01
     42 -0.157997D+00  0.796107D+00
     43 -0.105277D-01  0.124720D-01  0.218169D+00
     44 -0.181304D-02 -0.136177D-01  0.971642D-01  0.253399D+00
     45 -0.133739D-01  0.250518D-02 -0.318936D-02  0.382134D-01  0.195402D+00
     46  0.121258D-01 -0.375545D-01  0.311390D-02 -0.279281D-02  0.175680D-02
     47 -0.388470D-01 -0.317998D-01 -0.284253D-02 -0.161861D-02 -0.836733D-03
     48 -0.189668D-01 -0.993858D-02  0.177848D-02 -0.846262D-03 -0.237271D-02
               46            47            48 
     46  0.191915D+00
     47  0.343693D-02  0.263401D+00
     48 -0.301644D-01 -0.143098D-01  0.223620D+00
 ICntrl=    100127.
 Calling FoFJK, ICntrl=    100127 FMM=F ISym2X=0 I1Cent= 0 IOpClX= 0 NMat=1 NMatS=1 NMatT=0.
 FoFJK:  IHMeth= 8 ICntrl=  100127 DoSepK=F KAlg= 0 I1Cent=           0 FoldK=F
 IRaf=         0 NMat=       1 IRICut=       1 DoRegI=T DoRafI=F ISym2E= 0 IDoP0=3 IntGTp=3.
 FoFCou: FMM=F IPFlag=           0 FMFlag=      100000 FMFlg1=         800
         NFxFlg=           0 DoJE=F BraDBF=F KetDBF=F FulRan=T
         wScrn=  0.000000 ICntrl=    100127 IOpCl=  0 I1Cent=           0 NGrid=           0
         NMat0=    1 NMatS0=      1 NMatT0=    0 NMatD0=    1 NMtDS0=    0 NMtDT0=    0
 Symmetry not used in FoFCou.
 FoFCou:  KetSym=F NOpSet=  1 NOpAb=1 NOp=  1.
 FoFCou:  CnvScl= 1.00D+00 Thresh= 1.00D-12 IAcrcy=      10.
 FoFCou: LinMIO=F DoNuc=F BraDBF=F KetDBF=F HaveP=T PDBF=F HaveZ=T HaveW=F
         NIJTC =       3 NIJTAt=       0 NIJTCD=       0 NIJTT =       3
         IJTBeg=       1 IJTEnd=       3 KLTBeg=       1 KLTEnd=       3
         IPTBeg=       1 IPTEnd=       3 IPTBCv=       1 IPTECv=       3
         IZTBeg=       1 IZTEnd=       3 IZTBCv=       1 IZTECv=       3
         IWTBeg=       4 IWTEnd=       3 IWTBCv=       4 IWTECv=       3
         INTBeg=       1 INTEnd=       0 IFTBCv=       1 IFTECv=       3
 NCel replicated for PrismC:     1
 CoulSu-InSpLW:  IPartL=    0 NPrtUS=   12 NPrtUL=    1 DoSpLW=F IThBeg=    0 IThEnd=   11 NThAct=   12.
 CoulSu:  IncDef=  1024 NBBP=            136 NTPThr=   100 NPartT=   12 Incr=           1 LDynOK=F GPUOK=F.
 CoulSu:  NPrtUS=  12 ThrOK=T IAlg=1 NPAlg=1 LenDen=           0 LWGrdD=           0 DoCopy=F ISkipM=0
          DoSpLW=F IThBeg=    0 IThEnd=   11.
 Enter PrismC:  IPart=  0 JobTyp=22 DoJE=F Cont=F.
 PrismC:  IPart=     0 DynPar=F LinDyn=F Incr=           1 UseFst=F UseS4=T ISplat=2.
 Enter PrismC:  IPart=  1 JobTyp=22 DoJE=F Cont=F.
 PrismC was handed   536862604 working-precision words and    16 shell-pairs
 Enter PrismC:  IPart=  4 JobTyp=22 DoJE=F Cont=F.
 PrismC:  IPart=     1 DynPar=F LinDyn=F Incr=           1 UseFst=F UseS4=T ISplat=2.
 PrismC was handed   536862604 working-precision words and    16 shell-pairs
 Enter PrismC:  IPart=  6 JobTyp=22 DoJE=F Cont=F.
 PrismC:  IPart=     4 DynPar=F LinDyn=F Incr=           1 UseFst=F UseS4=T ISplat=2.
 PrismC was handed   536862604 working-precision words and    16 shell-pairs
 Enter PrismC:  IPart=  9 JobTyp=22 DoJE=F Cont=F.
 PrismC:  IPart=     6 DynPar=F LinDyn=F Incr=           1 UseFst=F UseS4=T ISplat=2.
 PrismC was handed   536862604 working-precision words and    16 shell-pairs
 PrismC:  IPart=     9 DynPar=F LinDyn=F Incr=           1 UseFst=F UseS4=T ISplat=2.
 PrismC was handed   536862604 working-precision words and    16 shell-pairs
 Enter PrismC:  IPart=  7 JobTyp=22 DoJE=F Cont=F.
 PrismC:  IPart=     7 DynPar=F LinDyn=F Incr=           1 UseFst=F UseS4=T ISplat=2.
 PrismC was handed   536862604 working-precision words and    16 shell-pairs
 Enter PrismC:  IPart=  8 JobTyp=22 DoJE=F Cont=F.
 PrismC:  IPart=     8 DynPar=F LinDyn=F Incr=           1 UseFst=F UseS4=T ISplat=2.
 PrismC was handed   536862604 working-precision words and    16 shell-pairs
 Enter PrismC:  IPart=  3 JobTyp=22 DoJE=F Cont=F.
 Enter PrismC:  IPart= 10 JobTyp=22 DoJE=F Cont=F.
 PrismC:  IPart=     3 DynPar=F LinDyn=F Incr=           1 UseFst=F UseS4=T ISplat=2.
 PrismC was handed   536862604 working-precision words and    16 shell-pairs
 PrismC:  IPart=    10 DynPar=F LinDyn=F Incr=           1 UseFst=F UseS4=T ISplat=2.
 PrismC was handed   536862604 working-precision words and    16 shell-pairs
 Enter PrismC:  IPart= 11 JobTyp=22 DoJE=F Cont=F.
 Enter PrismC:  IPart=  2 JobTyp=22 DoJE=F Cont=F.
 Enter PrismC:  IPart=  5 JobTyp=22 DoJE=F Cont=F.
 PrismC:  IPart=    11 DynPar=F LinDyn=F Incr=           1 UseFst=F UseS4=T ISplat=2.
 PrismC was handed   536862604 working-precision words and    16 shell-pairs
 PrismC:  IPart=     2 DynPar=F LinDyn=F Incr=           1 UseFst=F UseS4=T ISplat=2.
 PrismC was handed   536862604 working-precision words and    16 shell-pairs
 PrismC:  IPart=     5 DynPar=F LinDyn=F Incr=           1 UseFst=F UseS4=T ISplat=2.
 PrismC was handed   536862604 working-precision words and    16 shell-pairs
 IPart=  7 NShTot=           7 NShNF=           7 NShFF=           0 MinMC=      51
           NShCPU=           7 NBCPU=           3 AvBCPU=         2.3
           NShGPU=           0 NBGPU=           0 AvBGPU=         0.0
 IPart=  6 NShTot=          11 NShNF=          11 NShFF=           0 MinMC=      51
           NShCPU=          11 NBCPU=           3 AvBCPU=         3.7
           NShGPU=           0 NBGPU=           0 AvBGPU=         0.0
 IPart=  3 NShTot=          12 NShNF=          12 NShFF=           0 MinMC=      51
           NShCPU=          12 NBCPU=           3 AvBCPU=         4.0
           NShGPU=           0 NBGPU=           0 AvBGPU=         0.0
 IPart=  9 NShTot=          13 NShNF=          13 NShFF=           0 MinMC=      51
           NShCPU=          13 NBCPU=           3 AvBCPU=         4.3
           NShGPU=           0 NBGPU=           0 AvBGPU=         0.0
 IPart= 10 NShTot=           9 NShNF=           9 NShFF=           0 MinMC=      51
           NShCPU=           9 NBCPU=           3 AvBCPU=         3.0
           NShGPU=           0 NBGPU=           0 AvBGPU=         0.0
 IPart= 11 NShTot=           9 NShNF=           9 NShFF=           0 MinMC=      51
           NShCPU=           9 NBCPU=           3 AvBCPU=         3.0
           NShGPU=           0 NBGPU=           0 AvBGPU=         0.0
 IPart=  4 NShTot=          11 NShNF=          11 NShFF=           0 MinMC=      51
           NShCPU=          11 NBCPU=           3 AvBCPU=         3.7
           NShGPU=           0 NBGPU=           0 AvBGPU=         0.0
 IPart=  1 NShTot=          12 NShNF=          12 NShFF=           0 MinMC=      51
           NShCPU=          12 NBCPU=           3 AvBCPU=         4.0
           NShGPU=           0 NBGPU=           0 AvBGPU=         0.0
 IPart=  0 NShTot=          16 NShNF=          16 NShFF=           0 MinMC=      51
           NShCPU=          16 NBCPU=           3 AvBCPU=         5.3
           NShGPU=           0 NBGPU=           0 AvBGPU=         0.0
 IPart=  5 NShTot=          11 NShNF=          11 NShFF=           0 MinMC=      51
           NShCPU=          11 NBCPU=           3 AvBCPU=         3.7
           NShGPU=           0 NBGPU=           0 AvBGPU=         0.0
 IPart=  2 NShTot=          12 NShNF=          12 NShFF=           0 MinMC=      51
           NShCPU=          12 NBCPU=           3 AvBCPU=         4.0
           NShGPU=           0 NBGPU=           0 AvBGPU=         0.0
 IPart=  8 NShTot=          13 NShNF=          13 NShFF=           0 MinMC=      51
           NShCPU=          13 NBCPU=           3 AvBCPU=         4.3
           NShGPU=           0 NBGPU=           0 AvBGPU=         0.0
 CoulSu:  NxtVal=             13 LenVP=      536862605 MinMC=      51.
 Polarizability after L703:
                1             2             3 
      1  0.746945D+02
      2  0.582628D+00  0.740089D+02
      3 -0.167831D+02  0.155580D+01  0.637372D+02
 Dipole Derivatives after L703:
                 1             2             3             4             5 
      1  -0.441567D+00 -0.191910D+00 -0.168049D+00  0.243504D+00 -0.176757D+00
      2  -0.201190D+00 -0.677096D+00 -0.234390D+00  0.481883D+00  0.395395D+00
      3   0.784745D-01  0.132632D+00 -0.329001D+00 -0.890771D-02  0.109978D+00
                 6             7             8             9            10 
      1  -0.745874D-01  0.967607D+00 -0.651549D+00 -0.358241D+00 -0.130377D+01
      2  -0.110328D+00 -0.317780D+00  0.339603D+00 -0.714507D-01 -0.541584D-01
      3   0.369372D-01 -0.145288D+00  0.736419D-01  0.314364D+00 -0.347091D-01
                11            12            13            14            15 
      1   0.485666D+00 -0.293303D+00  0.389799D+00  0.772127D+00 -0.438765D-01
      2  -0.108155D+01  0.289179D-01 -0.171380D+00  0.781391D+00  0.109527D+00
      3  -0.326867D+00 -0.398275D+00 -0.191934D+00 -0.559773D+00  0.421684D+00
                16            17            18            19            20 
      1  -0.949937D+00 -0.442848D+00  0.598775D+00  0.163010D+00  0.106760D-01
      2   0.156906D+00 -0.452153D+00  0.431011D-01  0.840437D-01  0.187922D-01
      3   0.153852D+00  0.373586D+00 -0.729884D+00 -0.126566D-01  0.252487D-01
                21            22            23            24            25 
      1   0.111274D-01 -0.481026D-01  0.877343D-01 -0.819580D-02  0.955172D-01
      2   0.743153D-01  0.750889D-02 -0.390245D-01  0.691668D-02 -0.749238D-01
      3   0.898598D-01  0.547784D-01  0.457953D-01  0.957125D-01  0.570793D-01
                26            27            28            29            30 
      1  -0.580701D-01 -0.115787D-01  0.462769D-01 -0.130634D-01 -0.185169D-02
      2   0.161563D+00  0.494714D-01  0.617996D-01  0.923229D-01  0.112467D+00
      3   0.445223D-01  0.128122D+00  0.577824D-01  0.408609D-01  0.886146D-01
                31            32            33            34            35 
      1   0.812866D-01 -0.322401D-01  0.260439D-01  0.127423D+00 -0.894819D-01
      2  -0.498403D-01  0.114734D+00 -0.135835D+00 -0.117477D+00  0.161508D+00
      3  -0.307262D-01 -0.196865D-01  0.788081D-01 -0.276685D-01 -0.536355D-02
                36            37            38            39            40 
      1  -0.105643D+00  0.101011D+01  0.466798D+00  0.100292D+01 -0.465008D+00
      2  -0.628619D-02  0.244466D+00  0.417210D+00  0.174325D+00 -0.662595D-01
      3   0.124585D+00  0.161440D+00  0.320671D-01  0.118561D+01 -0.148950D-01
                41            42            43            44            45 
      1  -0.609787D-01 -0.516629D+00  0.875798D-01 -0.247473D-01  0.497961D-02
      2  -0.351659D+00 -0.268035D-01  0.421961D-01  0.950523D-01  0.739466D-03
      3   0.977709D-01 -0.108275D+01 -0.608979D-01 -0.332803D-01  0.105531D-02
                46            47            48 
      1  -0.368708D-02 -0.813231D-01 -0.619365D-01
      2  -0.257509D-01  0.239209D-01 -0.146834D-01
      3  -0.357226D-01 -0.311734D-01 -0.254730D-01
 Hessian after L703:
                1             2             3             4             5 
      1  0.733183D-01
      2 -0.143184D+00  0.779567D+00
      3 -0.104001D+00  0.365860D+00  0.221221D+00
      4  0.819674D-01 -0.119801D+00 -0.868759D-01  0.141236D+00
      5  0.644038D-02 -0.325542D-01 -0.140832D-01  0.105812D+00  0.530042D+00
      6 -0.491472D-01  0.540637D-01  0.355011D-01  0.202409D+00 -0.285420D-01
      7 -0.488286D-01  0.637621D-01  0.533129D-01  0.817272D-01  0.306017D-01
      8  0.297153D-01 -0.419591D-01 -0.303534D-01 -0.474777D-01 -0.254396D-01
      9  0.215659D-01 -0.335462D-01 -0.279206D-01 -0.326869D-01 -0.874684D-02
     10 -0.186262D-02 -0.236959D-01 -0.128508D-01 -0.142828D+00 -0.109163D+00
     11 -0.817662D-01  0.935152D-01  0.699134D-01  0.319823D-01 -0.214704D+00
     12  0.125531D-01 -0.678870D-02 -0.962390D-02  0.688519D-02  0.360543D-01
     13 -0.124513D+00  0.229156D+00  0.139440D+00  0.194800D-01  0.139739D-01
     14  0.106327D+00 -0.604986D+00 -0.290826D+00  0.150379D+00  0.242457D-01
     15  0.114807D+00 -0.386147D+00 -0.242763D+00  0.263238D-01  0.203014D-03
     16  0.442689D-01 -0.422026D-01 -0.304141D-01 -0.453947D-01 -0.108542D-01
     17  0.337056D-01 -0.155283D+00 -0.525967D-01 -0.477150D-01 -0.130292D-01
     18 -0.404089D-01  0.454293D-01  0.660472D-01  0.586979D-01  0.174306D-01
     19 -0.821040D-03  0.155246D-01  0.247059D-01  0.397432D-03 -0.339344D-03
     20  0.287417D-01 -0.177792D-01 -0.418269D-01 -0.741461D-02 -0.125394D-02
     21  0.271230D-01 -0.239188D-01 -0.301750D-01 -0.356306D-02 -0.795183D-03
     22  0.538415D-02 -0.725385D-02 -0.612814D-02 -0.899689D-02 -0.278132D-02
     23 -0.492348D-02  0.613496D-02  0.389725D-02  0.852070D-02  0.237634D-02
     24  0.102777D-02 -0.235386D-02 -0.846897D-03 -0.219009D-02 -0.335340D-03
     25  0.747402D-02 -0.843917D-02 -0.328422D-02 -0.599909D-02 -0.222149D-02
     26 -0.188628D-02 -0.322529D-02  0.330829D-02  0.879030D-03  0.568569D-03
     27  0.411995D-02 -0.832815D-03 -0.244005D-02 -0.386182D-02 -0.138904D-02
     28 -0.534947D-02  0.868668D-02  0.105318D-01 -0.665002D-01 -0.531814D-01
     29  0.440967D-02 -0.474041D-02 -0.590030D-02 -0.561907D-01 -0.115221D+00
     30  0.620487D-02 -0.625355D-02 -0.704366D-02 -0.888589D-01 -0.121311D+00
     31 -0.224475D-01  0.165059D-01  0.632336D-02 -0.406410D-01  0.464558D-01
     32  0.111103D-01 -0.708946D-02 -0.209963D-02  0.348286D-01 -0.113254D+00
     33  0.308533D-02 -0.333570D-02 -0.183292D-02 -0.723315D-01  0.119542D+00
     34 -0.801279D-02  0.801204D-02  0.658216D-02  0.849701D-02 -0.429974D-02
     35  0.682297D-02 -0.852121D-02 -0.537633D-02 -0.225140D-01 -0.182376D-01
     36 -0.678838D-03 -0.129897D-03 -0.289331D-03  0.815268D-02  0.104272D-01
     37 -0.411551D-03  0.207110D-02  0.335831D-02 -0.184680D-01 -0.186938D-01
     38  0.478853D-02 -0.428172D-02 -0.145472D-02 -0.307506D-01 -0.242827D-01
     39  0.850764D-02 -0.289511D-02 -0.381485D-03 -0.173367D-01 -0.116843D-01
     40  0.302343D-03 -0.320197D-03 -0.215027D-03 -0.135942D-02 -0.330617D-03
     41  0.339736D-03  0.354528D-03  0.107650D-03 -0.956009D-03 -0.106354D-02
     42 -0.345518D-02  0.240324D-03 -0.527099D-04  0.609570D-02  0.358483D-02
     43 -0.114239D-02  0.180393D-02 -0.271633D-03 -0.731432D-03 -0.853970D-04
     44  0.685835D-03 -0.675992D-04  0.605655D-03  0.926642D-04 -0.216020D-03
     45 -0.755434D-03  0.458568D-03  0.229811D-03  0.318029D-03 -0.519323D-04
     46  0.672537D-03 -0.626001D-03 -0.212147D-03 -0.238507D-02 -0.133353D-02
     47 -0.132473D-02  0.912055D-03  0.826678D-03  0.325488D-03  0.202250D-02
     48 -0.545865D-03  0.149565D-03  0.365704D-03 -0.117885D-02 -0.303679D-03
                6             7             8             9            10 
      6  0.547276D+00
      7 -0.396865D-01  0.243939D+00
      8  0.245676D-01  0.252818D+00  0.452286D+00
      9  0.159547D-01 -0.268232D-01  0.644720D-02  0.569585D+00
     10  0.270537D-01  0.325815D-01 -0.323617D-01 -0.177933D-01  0.347358D+00
     11 -0.204221D-01 -0.105687D+00  0.560149D-01  0.413000D-01  0.243250D+00
     12 -0.995320D-01  0.158824D-01 -0.110781D-01 -0.181714D-01  0.145441D-01
     13 -0.348657D-02 -0.287040D-01 -0.901531D-02  0.267441D-01  0.672370D-02
     14 -0.726721D-01 -0.106690D+00  0.495079D-01  0.699518D-01  0.323439D-01
     15 -0.176797D-01  0.205289D-03  0.373378D-01 -0.817065D-02  0.488908D-02
     16  0.201271D-01 -0.936688D-01 -0.485219D-01  0.848661D-01 -0.269690D-01
     17  0.253374D-01  0.315418D-01 -0.120172D+00 -0.167970D-01 -0.147741D-01
     18 -0.292764D-01  0.496660D-01  0.539968D-01 -0.241808D+00  0.298042D-01
     19  0.129517D-02  0.112467D-02 -0.721041D-03  0.123705D-02  0.229352D-02
     20  0.198485D-02  0.127261D-02 -0.486393D-02 -0.484496D-03 -0.237240D-03
     21  0.216566D-02  0.375074D-02  0.292426D-04 -0.159857D-03  0.241336D-03
     22  0.414738D-02 -0.661175D-01 -0.684549D-01 -0.104862D+00 -0.149570D-01
     23 -0.315974D-02 -0.685291D-01 -0.889785D-01 -0.938435D-01  0.114350D-01
     24  0.800553D-03 -0.917990D-01 -0.104762D+00 -0.213248D+00 -0.468760D-02
     25  0.334453D-02  0.824719D-02  0.762176D-02  0.134978D-01 -0.327315D-02
     26 -0.101999D-02  0.170031D-03  0.201729D-02 -0.443143D-02  0.201939D-03
     27  0.176679D-02  0.124649D-01 -0.207232D-01 -0.282190D-01 -0.225361D-02
     28 -0.869870D-01 -0.219676D-02  0.105815D-02  0.795056D-03 -0.368034D-02
     29 -0.116680D+00  0.120367D-02 -0.950262D-03 -0.571969D-03 -0.180390D-01
     30 -0.219483D+00  0.150929D-02 -0.100042D-02 -0.519946D-03 -0.376579D-03
     31 -0.768219D-01 -0.780761D-02  0.429811D-02  0.286007D-02  0.519490D-02
     32  0.122951D+00  0.293319D-02 -0.235515D-02 -0.103571D-02 -0.206579D-02
     33 -0.232380D+00  0.298790D-02 -0.149836D-02 -0.105676D-02 -0.325512D-03
     34  0.117957D-01 -0.157884D-01  0.110856D-01  0.839515D-02 -0.442716D-01
     35  0.300953D-01  0.129790D-01 -0.784289D-02 -0.682498D-02 -0.182855D-01
     36 -0.102537D-01  0.551650D-02 -0.384598D-02 -0.209516D-02  0.663283D-01
     37 -0.121956D-01 -0.158079D-01  0.104544D-01  0.148844D-03 -0.148062D+00
     38 -0.155944D-01  0.203401D-03  0.257800D-02  0.166512D-02 -0.454124D-01
     39  0.116067D-01 -0.151499D-01  0.127142D-01  0.485653D-02 -0.465962D-01
     40  0.566995D-04 -0.244203D-05 -0.540106D-04  0.351433D-03  0.764954D-02
     41  0.960285D-04 -0.608330D-03  0.289978D-03  0.260307D-03 -0.131024D-02
     42 -0.472156D-02  0.744093D-02 -0.648079D-02 -0.371021D-02 -0.446379D-01
     43  0.438635D-03 -0.892053D-01 -0.110193D+00  0.216658D-01  0.105493D-02
     44 -0.197371D-03 -0.115002D+00 -0.270310D+00  0.467218D-01 -0.461957D-03
     45 -0.263337D-04  0.207609D-01  0.447276D-01 -0.452941D-01  0.199380D-03
     46 -0.234515D-02  0.505500D-03 -0.250601D-03  0.386621D-04 -0.169507D-01
     47 -0.809254D-03 -0.968973D-03  0.175557D-03 -0.646083D-04 -0.214243D-01
     48 -0.171872D-02 -0.356530D-04 -0.796286D-04 -0.241732D-04 -0.135407D-01
               11            12            13            14            15 
     11  0.286559D+00
     12 -0.161668D-01  0.646520D+00
     13 -0.192650D-01  0.276740D-02  0.334106D+00
     14 -0.125215D+00  0.144850D-01 -0.164701D+00  0.855222D+00
     15 -0.176285D-01  0.229394D-02 -0.289056D+00  0.287622D+00  0.616349D+00
     16  0.566707D-01 -0.280759D-02 -0.885344D-01  0.650159D-02  0.359299D-01
     17  0.498316D-01 -0.941791D-02 -0.450079D-01 -0.147985D+00  0.851979D-01
     18 -0.735968D-01  0.978407D-02  0.365469D-02 -0.338457D-01 -0.129059D+00
     19  0.716205D-03  0.337228D-03 -0.116844D+00 -0.451506D-02  0.110280D+00
     20  0.451294D-02 -0.319575D-03 -0.264518D-02 -0.292321D-01  0.906915D-02
     21  0.318346D-02 -0.151498D-03  0.111860D+00  0.738505D-02 -0.226123D+00
     22  0.159153D-01 -0.750275D-02  0.399288D-03  0.118857D-01  0.158264D-02
     23 -0.124281D-01  0.553763D-02 -0.495156D-04 -0.864181D-02 -0.248306D-03
     24  0.455353D-02 -0.171378D-02  0.522620D-03  0.333880D-02 -0.467056D-03
     25  0.667861D-02 -0.776994D-03  0.379095D-02  0.270474D-02 -0.553245D-02
     26 -0.597336D-03  0.216995D-03 -0.418022D-02 -0.343142D-01 -0.143447D-01
     27  0.514133D-02 -0.863906D-03  0.101549D-02  0.920096D-02  0.603639D-02
     28 -0.173530D-01 -0.838410D-02 -0.258817D-02 -0.260372D-02  0.732449D-03
     29 -0.184916D-01 -0.193134D-01  0.119088D-02  0.248458D-02 -0.453850D-03
     30  0.148566D-02  0.442255D-02  0.120483D-02  0.267124D-02 -0.396193D-03
     31 -0.211829D-01  0.821350D-02 -0.318691D-02 -0.104400D-01 -0.249934D-02
     32 -0.146417D-01  0.265635D-01  0.150663D-02  0.508382D-02  0.786265D-03
     33  0.152161D-01 -0.459892D-02  0.115015D-02  0.275513D-02  0.147415D-02
     34 -0.319193D-01  0.765973D-01 -0.164047D-02 -0.117101D-01 -0.152850D-02
     35 -0.189541D-01  0.398437D-01  0.181893D-02  0.107779D-01  0.104939D-02
     36  0.476922D-01 -0.305240D+00  0.188085D-03  0.926230D-03  0.137034D-03
     37 -0.579303D-01 -0.798494D-01 -0.247957D-02 -0.607109D-02 -0.621468D-03
     38 -0.961242D-01 -0.458918D-01 -0.522868D-04  0.430185D-02  0.270450D-03
     39 -0.405356D-01 -0.140551D+00 -0.708201D-03 -0.198483D-02  0.753902D-03
     40 -0.204156D-02 -0.372886D-01  0.655329D-03 -0.221823D-03  0.466677D-04
     41  0.155236D-01 -0.139190D-01  0.216037D-03 -0.800425D-03 -0.137826D-03
     42 -0.122307D-01 -0.867961D-01  0.797194D-03  0.318288D-02 -0.721582D-03
     43  0.422469D-02 -0.860753D-03  0.312622D-02 -0.392705D-02  0.453687D-02
     44 -0.310721D-02  0.323828D-03 -0.291720D-02  0.896177D-03 -0.228819D-02
     45  0.614981D-03 -0.580463D-04  0.382354D-02 -0.198415D-02 -0.143029D-02
     46 -0.222933D-01 -0.310439D-03  0.209089D-03  0.738751D-03 -0.966511D-04
     47 -0.169045D-02 -0.128580D-03 -0.289337D-04 -0.134188D-02 -0.288484D-03
     48 -0.851703D-02  0.428016D-02  0.826872D-04 -0.205086D-03 -0.230343D-03
               16            17            18            19            20 
     16  0.245091D+00
     17  0.507806D-01  0.607061D+00
     18 -0.141220D+00  0.113502D+00  0.530432D+00
     19  0.125002D-02 -0.536693D-02  0.149115D-01  0.113363D+00
     20 -0.159032D-01 -0.812386D-02  0.246546D-01 -0.378740D-02  0.584379D-01
     21  0.119393D-01  0.784637D-02 -0.100886D-01 -0.151793D+00  0.675433D-02
     22 -0.349135D-02 -0.965434D-03  0.221298D-01  0.319474D-03 -0.229005D-03
     23  0.786332D-02  0.104954D-01 -0.120682D-01 -0.249542D-03  0.226426D-03
     24 -0.157023D-02 -0.169181D-01 -0.326866D-01  0.591273D-04 -0.212182D-03
     25 -0.387734D-01 -0.914452D-03  0.121809D-01  0.370062D-03 -0.411099D-03
     26  0.825205D-02 -0.211828D+00 -0.153443D+00 -0.354735D-03 -0.774772D-03
     27  0.639684D-02 -0.158910D+00 -0.153965D+00 -0.378207D-04  0.315106D-03
     28  0.969081D-03  0.613285D-03 -0.711034D-03 -0.363958D-03  0.520221D-03
     29 -0.838157D-03 -0.676363D-03  0.108986D-02 -0.141685D-04 -0.247931D-03
     30 -0.103019D-02 -0.734984D-03  0.119234D-02 -0.587647D-05 -0.208330D-03
     31  0.357939D-02  0.421110D-02 -0.508042D-02  0.342959D-03  0.308533D-03
     32 -0.169942D-02 -0.180203D-02  0.237528D-02 -0.233018D-03 -0.174347D-03
     33 -0.948558D-03 -0.137505D-02  0.127854D-02 -0.733929D-05 -0.106647D-03
     34  0.425677D-02  0.508007D-02 -0.664674D-02  0.594924D-04  0.433503D-03
     35 -0.358357D-02 -0.466392D-02  0.618942D-02 -0.292580D-03 -0.463817D-03
     36 -0.949340D-03 -0.735609D-03  0.116476D-02  0.171436D-03  0.543508D-04
     37  0.450611D-02  0.321837D-02 -0.506588D-02 -0.863502D-03 -0.114657D-03
     38  0.392651D-03 -0.993329D-03  0.824516D-03 -0.757330D-03 -0.386930D-03
     39  0.443937D-02  0.407252D-02 -0.684903D-02 -0.158376D-02 -0.609855D-03
     40 -0.901616D-03  0.839072D-03 -0.812690D-03  0.822459D-04 -0.972422D-05
     41  0.523862D-03  0.424212D-03 -0.103325D-03 -0.134449D-03 -0.262469D-04
     42 -0.290759D-02 -0.309294D-02  0.513722D-02  0.679417D-03  0.223466D-03
     43 -0.599599D-02 -0.150724D-01  0.840780D-02 -0.605767D-03 -0.481912D-03
     44 -0.770267D-02 -0.370669D-02  0.821380D-02  0.433438D-03  0.870891D-04
     45  0.181643D-01  0.245900D-01 -0.113482D-01 -0.263877D-03  0.693668D-03
     46 -0.191118D-03 -0.174072D-03  0.492513D-03 -0.103410D-03 -0.425129D-04
     47  0.321964D-03  0.450807D-03 -0.645943D-03  0.886787D-04  0.622664D-04
     48 -0.157293D-04  0.313480D-04  0.471328D-04  0.134446D-04  0.184781D-04
               21            22            23            24            25 
     21  0.265664D+00
     22 -0.241884D-03  0.857236D-01
     23  0.306482D-04  0.652901D-01  0.105693D+00
     24  0.124200D-03  0.981329D-01  0.119226D+00  0.246636D+00
     25  0.196711D-03  0.132450D-02 -0.288182D-02  0.179950D-02  0.264256D-01
     26  0.458031D-03 -0.891098D-03  0.616683D-03  0.488273D-03 -0.258111D-02
     27 -0.305738D-03  0.250683D-02 -0.824675D-03 -0.167717D-02 -0.214874D-01
     28 -0.154074D-04  0.280417D-03 -0.268990D-03  0.436476D-04  0.143494D-03
     29 -0.116472D-03 -0.146283D-03  0.253113D-03 -0.256663D-04 -0.641895D-04
     30 -0.111155D-03 -0.119110D-03  0.183086D-03 -0.120145D-04 -0.551042D-04
     31  0.405125D-03  0.805670D-03 -0.586699D-03  0.101501D-03  0.573005D-03
     32 -0.253434D-03 -0.361978D-03  0.271592D-03 -0.619509D-04 -0.196993D-03
     33 -0.397323D-04 -0.357881D-03  0.111757D-03 -0.412513D-04 -0.250483D-03
     34  0.282613D-03 -0.343785D-03 -0.370627D-03  0.347710D-03  0.606786D-03
     35 -0.390007D-03 -0.135661D-03  0.658364D-03 -0.261482D-03 -0.500812D-03
     36  0.491989D-04 -0.303414D-03  0.366793D-03  0.190138D-03 -0.684473D-04
     37 -0.133825D-03  0.786663D-03 -0.106599D-02 -0.399695D-04  0.468292D-03
     38 -0.310607D-03  0.941765D-03 -0.108184D-02 -0.446339D-04  0.163321D-03
     39 -0.613860D-03  0.189979D-02 -0.197196D-02 -0.191394D-04  0.137286D-02
     40 -0.570109D-04  0.134012D-03  0.472342D-04  0.595785D-04  0.260856D-03
     41 -0.115812D-03  0.236083D-04  0.444700D-04  0.193588D-04 -0.395156D-04
     42  0.206365D-03 -0.931808D-03  0.102410D-02 -0.886423D-05 -0.806124D-03
     43  0.834000D-04 -0.130449D-02 -0.142177D-01 -0.180258D-02 -0.157839D-02
     44  0.153004D-03 -0.128031D-01 -0.157012D-01 -0.268260D-02  0.101616D-02
     45 -0.443970D-03 -0.996327D-02 -0.182716D-01  0.294899D-02 -0.121333D-03
     46 -0.770024D-04  0.532912D-04 -0.130878D-04 -0.475391D-05 -0.606361D-04
     47  0.584582D-04 -0.337993D-04  0.608438D-04  0.321482D-04  0.665341D-04
     48  0.292452D-05  0.106700D-04  0.115428D-04  0.218178D-04 -0.997443D-05
               26            27            28            29            30 
     26  0.247569D+00
     27  0.168253D+00  0.180066D+00
     28 -0.109783D-03  0.127189D-04  0.746324D-01
     29 -0.412071D-04 -0.849836D-04  0.681058D-01  0.132811D+00
     30 -0.449393D-04 -0.128649D-03  0.946329D-01  0.133064D+00  0.244221D+00
     31 -0.212203D-03  0.332111D-03  0.325743D-02  0.291269D-02 -0.130539D-01
     32  0.251203D-04 -0.161698D-03 -0.306833D-02  0.779281D-02 -0.832668D-02
     33  0.190225D-03 -0.943721D-05 -0.999413D-02  0.758811D-02 -0.220991D-01
     34 -0.601306D-04  0.484730D-03 -0.147017D-02  0.248249D-03  0.775278D-03
     35  0.152355D-04 -0.472709D-03  0.702325D-03 -0.106055D-02 -0.334725D-03
     36 -0.415549D-04 -0.958060D-04  0.780904D-04  0.921033D-04  0.493565D-03
     37  0.273092D-03  0.504809D-03  0.369628D-02 -0.267258D-02 -0.117294D-02
     38  0.609004D-04  0.754012D-04 -0.407817D-02 -0.197380D-02  0.140717D-02
     39  0.207336D-04  0.105623D-02 -0.996927D-03  0.184715D-02 -0.158530D-02
     40 -0.195574D-03  0.120557D-03 -0.456814D-03  0.386919D-03  0.825561D-04
     41 -0.576249D-04 -0.839846D-04  0.125201D-03  0.361985D-03 -0.392554D-03
     42 -0.690824D-04 -0.716808D-03 -0.837816D-05  0.133380D-04  0.967108D-03
     43  0.712254D-03 -0.254625D-03  0.625547D-04  0.392943D-04  0.122311D-04
     44 -0.908610D-05  0.460302D-03 -0.373056D-04 -0.156343D-04 -0.640757D-04
     45  0.479313D-03 -0.469567D-03 -0.260231D-04  0.324426D-04  0.000000D+00
     46 -0.173301D-04 -0.637245D-04 -0.436358D-03 -0.531548D-03  0.251033D-03
     47 -0.258488D-04  0.367729D-04  0.888288D-03 -0.285122D-03 -0.140325D-03
     48 -0.200015D-04 -0.341392D-04  0.296143D-03 -0.580600D-03  0.809858D-04
               31            32            33            34            35 
     31  0.593767D-01
     32 -0.410112D-01  0.129475D+00
     33  0.772780D-01 -0.140606D+00  0.258624D+00
     34  0.165307D-02 -0.183349D-02 -0.172933D-02  0.564694D-01
     35 -0.232199D-02 -0.201008D-02  0.100301D-02  0.265381D-01  0.465260D-01
     36  0.347606D-03  0.965040D-05 -0.405001D-04 -0.726739D-01 -0.524426D-01
     37 -0.134087D-02 -0.406623D-03  0.148311D-02  0.244949D-02  0.104911D-02
     38  0.118309D-02 -0.184577D-02 -0.734938D-03  0.761802D-03  0.393189D-02
     39  0.247368D-02 -0.212760D-03  0.202517D-02 -0.186054D-01 -0.971368D-02
     40  0.195639D-03  0.322901D-03  0.114596D-03 -0.180903D-02 -0.202471D-02
     41  0.336647D-03  0.343066D-03  0.110393D-02 -0.164325D-02  0.226065D-03
     42 -0.783890D-03 -0.656309D-05 -0.118844D-02 -0.344561D-02 -0.197710D-02
     43  0.212850D-03  0.433806D-04 -0.124312D-03 -0.124730D-03  0.265518D-03
     44 -0.743067D-04 -0.351425D-04  0.108044D-03  0.151296D-03 -0.267766D-03
     45  0.312131D-04  0.137305D-04 -0.499807D-05 -0.667820D-04 -0.161505D-04
     46  0.231702D-03  0.132251D-03 -0.295572D-04 -0.530971D-03 -0.517183D-03
     47 -0.382278D-03  0.216575D-03  0.392892D-04 -0.473878D-03 -0.113925D-03
     48 -0.126537D-03  0.644677D-04 -0.110952D-03 -0.564274D-03 -0.371368D-03
               36            37            38            39            40 
     36  0.348706D+00
     37 -0.297756D-02  0.418186D+00
     38 -0.943177D-03  0.185075D+00  0.323909D+00
     39 -0.300639D-01 -0.612292D-01 -0.153873D+00  0.122444D+01
     40 -0.242074D-02 -0.593915D-01 -0.150627D-01  0.707642D-01  0.539047D-01
     41 -0.109150D-02 -0.167880D-01 -0.756149D-01  0.149794D+00  0.351798D-01
     42 -0.222376D-02  0.889349D-01  0.164204D+00 -0.998050D+00 -0.668391D-01
     43 -0.116701D-03  0.607902D-03  0.608456D-03  0.231893D-03 -0.226011D-03
     44 -0.426555D-04  0.283554D-03 -0.648073D-04  0.391552D-03 -0.446788D-04
     45 -0.194756D-04  0.328672D-04  0.163162D-03  0.123009D-03 -0.384257D-04
     46 -0.593511D-03 -0.183875D+00 -0.980046D-01  0.725148D-01  0.960418D-03
     47 -0.295631D-03 -0.986796D-01 -0.128134D+00  0.546393D-01 -0.164720D-01
     48 -0.419616D-03  0.688244D-01  0.502382D-01 -0.667483D-01  0.360741D-01
               41            42            43            44            45 
     41  0.542051D-01
     42 -0.168225D+00  0.114189D+01
     43 -0.505256D-04  0.127180D-03  0.958227D-01
     44 -0.257854D-04 -0.289514D-03  0.136388D+00  0.292555D+00
     45 -0.457071D-04 -0.346823D-04 -0.320871D-01 -0.513881D-01  0.558161D-01
     46 -0.152151D-01  0.197414D-01  0.275951D-04 -0.733324D-05 -0.799134D-05
     47  0.581481D-02  0.198989D-01 -0.570544D-04 -0.105594D-04 -0.160273D-04
     48  0.327319D-01 -0.499775D-01  0.136872D-04 -0.255563D-04  0.107308D-04
               46            47            48 
     46  0.201873D+00
     47  0.138155D+00  0.121887D+00
     48 -0.892971D-01 -0.731430D-01  0.114454D+00
 FrcOut:
 IF    =        73 IFX   =       121 IFXYZ =       169
 IFFX  =       217 IFFFX =      1393 IFLen =        48
 IFFLen=      1176 IFFFLn=         0 IEDerv=      1393
 LEDerv=      2357 IFroze=      4328 ICStrt=      7793
 Dipole        =-5.83392431D-02-2.10210381D-01 9.63679950D-01
 DipoleDeriv   =-4.41566746D-01-2.01190033D-01 7.84745294D-02
                -1.91910365D-01-6.77096268D-01 1.32631659D-01
                -1.68048716D-01-2.34390113D-01-3.29001287D-01
                 2.43503727D-01 4.81883403D-01-8.90771306D-03
                -1.76757437D-01 3.95395058D-01 1.09977576D-01
                -7.45874088D-02-1.10328125D-01 3.69371949D-02
                 9.67606756D-01-3.17780380D-01-1.45288435D-01
                -6.51549149D-01 3.39602513D-01 7.36418721D-02
                -3.58240555D-01-7.14507146D-02 3.14364337D-01
                -1.30377466D+00-5.41583538D-02-3.47091487D-02
                 4.85666273D-01-1.08155343D+00-3.26866922D-01
                -2.93303376D-01 2.89178535D-02-3.98274606D-01
                 3.89799338D-01-1.71380418D-01-1.91934435D-01
                 7.72126748D-01 7.81391157D-01-5.59773135D-01
                -4.38764665D-02 1.09527134D-01 4.21683569D-01
                -9.49936582D-01 1.56906402D-01 1.53851785D-01
                -4.42847537D-01-4.52152702D-01 3.73586073D-01
                 5.98774659D-01 4.31010622D-02-7.29884358D-01
                 1.63009596D-01 8.40436926D-02-1.26566353D-02
                 1.06760196D-02 1.87922065D-02 2.52486748D-02
                 1.11273788D-02 7.43153194D-02 8.98597758D-02
                -4.81025599D-02 7.50888804D-03 5.47784395D-02
                 8.77342544D-02-3.90244646D-02 4.57952715D-02
                -8.19580160D-03 6.91668074D-03 9.57125419D-02
                 9.55172044D-02-7.49238372D-02 5.70793412D-02
                -5.80701001D-02 1.61563141D-01 4.45222638D-02
                -1.15787326D-02 4.94713756D-02 1.28122048D-01
                 4.62769283D-02 6.17995805D-02 5.77824091D-02
                -1.30633540D-02 9.23229008D-02 4.08609160D-02
                -1.85169131D-03 1.12466746D-01 8.86145524D-02
                 8.12865627D-02-4.98403159D-02-3.07262362D-02
                -3.22401063D-02 1.14734223D-01-1.96865164D-02
                 2.60439368D-02-1.35835203D-01 7.88080614D-02
                 1.27423032D-01-1.17476915D-01-2.76684827D-02
[...]

 Electric dipole moment (dipole orientation):
 (Debye = 10**-18 statcoulomb cm , SI units = C m)
                  (au)            (Debye)         (10**-30 SI)
   Tot        0.988064D+00      0.251141D+01      0.837716D+01
   x          0.000000D+00      0.000000D+00      0.000000D+00
   y          0.000000D+00      0.000000D+00      0.000000D+00
   z          0.988064D+00      0.251141D+01      0.837716D+01

 Dipole polarizability, Alpha (dipole orientation).
 (esu units = cm**3 , SI units = C**2 m**2 J**-1)
 Alpha(0;0):
               (au)            (10**-24 esu)      (10**-40 SI)
   iso        0.708135D+02      0.104935D+02      0.116756D+02
   aniso      0.310856D+02      0.460641D+01      0.512533D+01
   xx         0.724046D+02      0.107293D+02      0.119379D+02
   yx        -0.295480D+01     -0.437856D+00     -0.487181D+00
   yy         0.744937D+02      0.110388D+02      0.122824D+02
   zx        -0.170688D+02     -0.252933D+01     -0.281426D+01
   zy         0.317111D+00      0.469910D-01      0.522846D-01
   zz         0.655423D+02      0.971236D+01      0.108065D+02

 First dipole hyperpolarizability, Beta (dipole orientation).
 ||, _|_  parallel and perpendicular components, (z) with respect to z axis,
 vector components x,y,z.  Values do not include the 1/n! factor of 1/2.
 (esu units = statvolt**-1 cm**4 , SI units = C**3 m**3 J**-2)
 Beta(0;0,0):
               (au)            (10**-30 esu)      (10**-50 SI)
   || (z)     0.113918D+02      0.984163D-01      0.365263D-01
   _|_(z)     0.379727D+01      0.328054D-01      0.121754D-01
   x          0.382829D+03      0.330735D+01      0.122749D+01
   y         -0.747370D+03     -0.645669D+01     -0.239634D+01
   z          0.569590D+02      0.492082D+00      0.182631D+00
   ||         0.168329D+03      0.145423D+01      0.539723D+00
   xxx       -0.357635D+02     -0.308969D+00     -0.114671D+00
   xxy       -0.294172D+03     -0.254141D+01     -0.943220D+00
   yxy        0.199394D+03      0.172261D+01      0.639330D+00
   yyy       -0.767480D+01     -0.663043D-01     -0.246082D-01
   xxz        0.152581D+02      0.131818D+00      0.489228D-01
   yxz       -0.630723D+02     -0.544895D+00     -0.202233D+00
   yyz       -0.254126D+01     -0.219545D-01     -0.814819D-02
   zxz       -0.360211D+02     -0.311194D+00     -0.115497D+00
   zyz        0.527231D+02      0.455486D+00      0.169049D+00
   zzz        0.626955D+01      0.541640D-01      0.201024D-01

 ----------------------------------------------------------------------

 Test job not archived.
 1\1\GINC-CHPC-LINUX-10\Freq\RAM1\ZDO\C6H8O2\JP2658\18-Jan-2024\0\\# am
 1 freq=noraman iop(7/33=1)\\*****\\0,1\O,1.4571,1.0277,-0.4703\C,-0.24
 47,1.596,0.2715\C,0.5243,-1.1064,1.1767\C,-0.9704,0.443,0.8253\C,1.708
 9,-0.117,-0.8424\C,1.2547,-1.2973,-0.0698\H,2.2458,-0.3433,-1.7784\H,1
 .0475,-0.4791,1.9054\H,1.2246,-2.2497,-0.583\H,0.1869,2.2996,0.9795\H,
 -0.5702,1.9784,-0.6958\H,-1.207,0.503,1.8865\C,-2.0063,-0.2391,-0.0068
 \O,-1.9637,-0.3005,-1.2288\H,0.0393,-1.9945,1.5795\H,-2.818,-0.7085,0.
 5735\\Version=ES64L-G16RevA.03\State=1-A\HF=0.0320534\RMSD=8.558e-09\R
 MSF=3.239e-02\ZeroPoint=0.125249\Thermal=0.1322385\Dipole=-0.0260036,-
 0.0100305,0.9876711\DipoleDeriv=-0.4623553,-0.1975209,0.1319197,-0.225
 9623,-0.6623871,0.2065492,-0.1294994,-0.149001,-0.3229219,0.2527087,0.
 4702745,-0.1098337,-0.1803635,0.3665254,0.050908,-0.0533709,-0.1943232
 ,0.0566018,0.9029869,-0.3711546,-0.0947933,-0.7360086,0.3930054,0.0970
 377,-0.2436608,-0.0530361,0.3255813,-1.2980398,-0.0448719,-0.0011192,0
 .419517,-1.1309033,-0.1935628,-0.3443569,0.1955326,-0.3546596,0.405034
 4,-0.1909518,-0.1801384,0.7402053,0.6508916,-0.6288735,-0.1905393,0.07
 32148,0.5369481,-0.9279052,0.2110434,0.1385189,-0.2752522,-0.3764952,0
 .3053889,0.6773334,-0.0688798,-0.8275732,0.1667274,0.0762469,-0.030746
 7,0.0075956,0.0368667,0.0363829,0.0096522,0.0812266,0.0680675,-0.04173
 ,0.0203814,0.0596618,0.0874983,-0.0284616,0.0645431,-0.0199481,0.03181
 72,0.0787771,0.0921935,-0.0561893,0.0731751,-0.0537108,0.1845034,0.032
 4136,0.0028682,0.0409731,0.1085056,0.0511491,0.0792354,0.0461293,-0.00
 84625,0.1191273,0.0320316,0.0063271,0.1028337,0.056938,0.0774011,-0.05
 92789,-0.0200087,-0.0267283,0.0868344,-0.0185866,0.0262192,-0.1361731,
 0.1105934,0.1130543,-0.1187791,-0.0036734,-0.1070792,0.1691153,-0.0083
 82,-0.0856184,-0.0048149,0.1313469,1.0893161,0.2524301,0.1186286,0.635
 1247,0.4434208,0.1477907,0.9046721,0.2637307,1.0801915,-0.4938009,-0.0
 673418,-0.0228767,-0.1592672,-0.3557694,-0.0431091,-0.5211122,-0.14603
 91,-1.0498494,0.0857317,0.0284187,-0.0730339,-0.0249495,0.0846102,-0.0
 461463,0.0065176,-0.0178265,0.0133456,-0.0124336,-0.0319019,-0.0318231
 ,-0.0921381,0.019111,-0.0344338,-0.0455348,-0.0192369,-0.0119167\Polar
 =73.2987763,-2.7909263,74.4870766,-16.8938285,0.336864,64.6547207\Hype
 rPolar=-36.8886616,-290.820314,200.755295,-7.6603793,13.2465006,-69.71
 26563,1.6122985,-36.7675007,49.1604351,4.9493619\PG=C01 [X(C6H8O2)]\NI
 mag=3\\0.05523393,-0.11127828,0.91475549,-0.06029528,0.23417592,0.1041
 1695,0.07117835,-0.13726239,-0.06270698,0.16872779,-0.00834508,-0.0148
 2012,0.00100158,0.16121267,0.50419889,-0.04763446,0.07281722,0.0285560
 7,0.18873166,-0.03708573,0.54562837,-0.04176331,0.07162090,0.03902467,
 0.07765132,0.01698809,-0.04557016,0.26396301,0.03199391,-0.05923866,-0
 .02805858,-0.05691935,-0.01887162,0.03618116,0.25282298,0.43480117,0.0
 1461006,-0.03135696,-0.01770625,-0.02476819,-0.00069973,0.01346250,-0.
 06541562,0.02433642,0.56704619,-0.00605240,-0.02138145,-0.00587428,-0.
 14465874,-0.10257493,0.04963279,0.02668310,-0.03455068,-0.01125736,0.3
 6948784,-0.07054447,0.10666408,0.04985748,0.02963675,-0.20342396,-0.00
 185862,-0.09778727,0.06567103,0.02932335,0.23918262,0.27071038,0.02676
 696,-0.03025663,-0.01858296,0.00448796,0.06138901,-0.10898176,0.033744
 44,-0.02751084,-0.02192905,-0.02266600,0.04946322,0.64023870,-0.101833
 11,0.21175376,0.08023375,0.02719284,0.01185385,-0.01106926,-0.03206501
 ,0.00231623,0.03085904,0.00735206,-0.02444828,0.00822230,0.29807893,0.
 08972452,-0.74073230,-0.19999876,0.14896473,0.00011058,-0.08259569,-0.
 09756301,0.07339056,0.05614846,0.02756719,-0.12111547,0.03835390,-0.17
 923471,0.97882999,0.07593499,-0.29934723,-0.12969689,-0.00554151,-0.00
 529227,-0.00125748,0.02279732,0.02054753,-0.02869235,-0.00162843,0.008
 41028,-0.00243369,-0.23185827,0.23601762,0.52876840,0.04056539,-0.0538
 8943,-0.02116268,-0.04434359,-0.00419078,0.02313094,-0.08890589,-0.030
 86999,0.08546147,-0.02399843,0.05509683,-0.01305531,-0.08855976,0.0101
 1502,0.03648430,0.23892016,0.01513390,-0.14620983,-0.00831428,-0.03222
 626,-0.00331404,0.02040072,0.03804162,-0.11820510,-0.04803638,-0.00612
 057,0.02947255,-0.01302757,-0.04285489,-0.13554203,0.08652641,0.044692
 42,0.64537818,-0.04122830,0.09319526,0.06067796,0.06785091,0.00930638,
 -0.04004269,0.03854030,0.02753215,-0.24853732,0.02993974,-0.08151609,0
 .02717263,0.00925796,-0.03313644,-0.14147670,-0.13553920,0.09523455,0.
 49828481,0.00305035,0.01767455,0.01832930,-0.00002368,-0.00011922,0.00
 152618,0.00134648,-0.00072935,0.00132396,0.00234303,0.00096794,0.00002
 360,-0.10769914,0.02044882,0.10351036,0.00151773,-0.00220530,0.0162147
 1,0.10031955,0.03050381,-0.03378221,-0.04366531,-0.00793271,-0.0004784
 6,0.00280405,0.00171228,-0.00482670,0.00033151,-0.00010134,0.00485211,
 -0.00135466,0.02265396,-0.03597682,-0.03640281,-0.01255897,-0.00104657
 ,0.02258461,-0.03430571,0.07291283,0.01894553,-0.02532781,-0.01804340,
 -0.00195142,-0.00006758,0.00181130,0.00341056,0.00082318,-0.00041890,0
 .00029548,0.00210544,-0.00054018,0.10459775,-0.03807083,-0.22852301,0.
 01457413,0.00548280,-0.01743356,-0.14028403,0.05537934,0.26423212,0.00
 464627,-0.00838799,-0.00460644,-0.00863971,-0.00138893,0.00478815,-0.0
 8093439,-0.09482586,-0.09737352,-0.01427602,0.01448763,-0.00982479,0.0
 0097588,0.01168056,-0.00084643,-0.00240542,0.00298290,0.02011690,0.000
 29067,-0.00028568,-0.00019422,0.10034532,-0.00445480,0.00680208,0.0028
 3984,0.00830137,0.00130074,-0.00383428,-0.09189890,-0.12410216,-0.1026
 6911,0.01070284,-0.01124600,0.00739989,-0.00033574,-0.00828699,0.00128
 351,0.00700422,0.00251717,-0.02069190,-0.00023696,0.00021226,0.0000353
 2,0.09120062,0.14960650,0.00161736,-0.00360287,-0.00077615,-0.00353264
 ,-0.00026512,0.00151897,-0.08512128,-0.11412338,-0.16330778,-0.0062231
 4,0.00610753,-0.00357689,0.00068274,0.00439977,-0.00139847,-0.00508220
 ,-0.02415531,-0.02579432,0.00009230,-0.00022067,0.00016718,0.09295624,
 0.13002697,0.18810102,0.00704155,-0.00943715,-0.00169120,-0.00605621,-
 0.00122459,0.00395772,0.00955849,0.00864139,0.01016107,-0.00309326,0.0
 0672022,-0.00205898,0.00346321,0.00025091,-0.00619988,-0.03875426,-0.0
 1455819,0.00375355,0.00034266,-0.00039750,0.00027333,0.00134145,-0.002
 54418,0.00224441,0.02565855,-0.00139085,-0.00218627,0.00348350,0.00036
 855,0.00019942,-0.00088612,0.00168115,-0.00474031,-0.00998948,-0.00008
 148,0.00012797,0.00005745,-0.00595118,-0.03349433,-0.00572051,-0.00657
 055,-0.27075868,-0.12985905,-0.00038490,-0.00056599,0.00051778,-0.0004
 0909,0.00060225,-0.00005167,0.01213697,0.31085880,0.00403636,-0.000683
 37,-0.00304660,-0.00373241,-0.00081782,0.00219306,0.00982687,-0.026526
 13,-0.02277270,-0.00196244,0.00475899,-0.00176910,0.00276077,0.0172123
 9,0.00554424,-0.00401287,-0.13468120,-0.09505359,0.00002542,0.00038743
 ,-0.00048712,0.00247279,-0.00130721,-0.00167969,-0.01040176,0.14203593
 ,0.11754350,-0.00410846,0.01026474,0.00825979,-0.07939422,-0.07837339,
 -0.08383105,-0.00200082,0.00120577,0.00060423,-0.00558954,-0.01922893,
 -0.00501770,-0.00254821,-0.00206598,0.00124326,0.00088356,0.00037345,-
 0.00074090,-0.00034344,0.00050237,-0.00011326,0.00025940,-0.00024966,0
 .00008259,0.00013329,-0.00011699,0.00002179,0.08932732,0.00521679,-0.0
 0802024,-0.00646353,-0.08154259,-0.15874573,-0.12105580,0.00150660,-0.
 00137750,-0.00050278,-0.01897707,-0.01920949,-0.01322286,0.00163969,0.
 00284036,-0.00122387,-0.00105096,-0.00049965,0.00151730,-0.00001575,-0
 .00033084,-0.00007007,-0.00016934,0.00029444,-0.00008312,-0.00008738,-
 0.00006074,-0.00009567,0.09560161,0.18065933,0.00486367,-0.00681581,-0
 .00500484,-0.08529228,-0.12572796,-0.16306386,0.00125261,-0.00095442,-
 0.00028865,0.00399407,0.00717117,0.00704964,0.00110264,0.00203751,-0.0
 0079193,-0.00085405,-0.00035269,0.00110115,-0.00000164,-0.00018496,-0.
 00004876,-0.00009079,0.00013736,-0.00003232,-0.00005169,-0.00005089,-0
 .00009891,0.08946003,0.13700853,0.18167837,-0.02082728,0.01800840,0.00
 350571,-0.04360644,0.03151014,-0.08769864,-0.00723623,0.00496834,0.002
 12597,0.00457255,-0.01908947,0.01302296,-0.00359142,-0.01019868,-0.000
 21008,0.00341658,0.00282509,-0.00574869,0.00036081,0.00035151,0.000312
 91,0.00075235,-0.00057643,0.00018403,0.00055724,-0.00016105,0.00033990
 ,0.00223004,0.00048402,-0.01483019,0.06248043,0.01211459,-0.00942530,-
 0.00139819,0.02114837,-0.07286133,0.09331220,0.00367346,-0.00322471,-0
 .00089842,-0.00172166,-0.00495571,0.02628288,0.00216634,0.00606207,-0.
 00011833,-0.00200190,-0.00153213,0.00329528,-0.00026671,-0.00024581,-0
 .00022029,-0.00045494,0.00031909,-0.00012091,-0.00027544,0.00004988,-0
 .00017871,-0.00528304,0.00667901,-0.01330760,-0.02716694,0.08189352,0.
 00135469,-0.00272543,-0.00111732,-0.08114947,0.08922286,-0.26980680,0.
 00250095,-0.00142386,-0.00075859,0.00027679,0.01613214,-0.01366253,0.0
 0106987,0.00220246,0.00090041,-0.00071075,-0.00087496,0.00117145,0.000
 02495,-0.00007945,0.00001388,-0.00030175,0.00008147,-0.00003543,-0.000
 21563,0.00019784,-0.00001843,-0.00984483,0.00219408,-0.01995789,0.0868
 3569,-0.10720465,0.30310182,-0.00713265,0.00912103,0.00491466,0.008207
 02,-0.00239012,0.01301123,-0.01416141,0.01269191,0.00619891,-0.0405744
 3,-0.01483986,0.07132749,-0.00208566,-0.01117127,0.00086613,0.00398469
 ,0.00327099,-0.00730217,0.00008321,0.00045736,0.00017643,-0.00036030,-
 0.00023258,0.00041480,0.00059760,0.00000307,0.00044306,-0.00138988,0.0
 0043032,0.00077030,0.00141122,-0.00228897,-0.00131576,0.05284318,0.006
 31726,-0.01005247,-0.00399074,-0.02029971,-0.00880910,0.03007212,0.013
 86529,-0.01103666,-0.00602824,-0.00382769,-0.01231195,-0.02376763,0.00
 242228,0.01120482,-0.00124005,-0.00382932,-0.00333832,0.00761347,-0.00
 029061,-0.00051911,-0.00027550,-0.00015488,0.00068205,-0.00037290,-0.0
 0055427,-0.00006512,-0.00047940,0.00071991,-0.00110188,-0.00007955,-0.
 00231497,-0.00150701,0.00149146,0.01096078,0.03696965,-0.00169044,0.00
 150223,0.00036179,0.01210704,0.00981644,-0.01939229,0.00315220,-0.0028
 5224,-0.00052836,0.05894420,-0.01491789,-0.31557914,-0.00016631,-0.000
 85836,0.00015534,-0.00034027,0.00009068,0.00011124,0.00023507,0.000141
 77,0.00008077,-0.00023794,0.00029177,0.00018297,0.00001144,-0.00004445
 ,-0.00000626,0.00001859,0.00039533,0.00045461,0.00076465,0.00039132,-0
 .00030173,-0.06571799,0.01450539,0.36188895,0.00036829,0.00237236,0.00
 284444,-0.02181522,-0.02119550,-0.00732190,-0.01590093,0.01175400,-0.0
 0127347,-0.15785317,-0.07219959,-0.06790004,-0.00277950,-0.00582508,0.
 00072217,0.00461004,0.00197460,-0.00603322,-0.00097376,-0.00013999,-0.
 00010558,0.00085219,-0.00122203,0.00016904,0.00056717,0.00035394,0.000
 46702,0.00330536,-0.00302434,-0.00073054,-0.00113612,-0.00011607,0.001
 64217,0.00153106,-0.00016131,-0.00442104,0.42932374,0.00611936,-0.0054
 2126,-0.00086250,-0.03416511,-0.02545918,-0.00590371,-0.00173521,0.005
 06646,0.00168966,-0.05341459,-0.10863120,-0.04599493,0.00012409,0.0041
 2007,-0.00039116,0.00101848,-0.00042569,-0.00027412,-0.00105169,-0.000
 51756,-0.00027751,0.00119887,-0.00144186,0.00019588,0.00042347,0.00008
 046,0.00023054,-0.00437935,-0.00095549,0.00152870,0.00162253,-0.001952
 63,-0.00006829,-0.00330400,0.00060956,-0.00691450,0.16354706,0.2830685
 4,0.00726767,-0.00240189,-0.00002178,-0.00974574,-0.00229786,0.0161303
 8,-0.01364126,0.01292781,0.00246113,-0.03759734,-0.04151904,-0.1182530
 6,-0.00067921,-0.00238194,0.00123560,0.00399529,0.00244596,-0.00752060
 ,-0.00141078,-0.00054239,-0.00037297,0.00156927,-0.00172426,0.00027535
 ,0.00133566,0.00013462,0.00093780,-0.00025520,0.00190049,-0.00221269,0
 .00231959,0.00047892,0.00192728,-0.02009389,-0.01502129,-0.02582318,-0
 .06784497,0.03453294,1.25414625,0.00014695,-0.00033897,-0.00015407,-0.
 00115064,-0.00018859,-0.00005512,0.00028401,-0.00028504,0.00025378,0.0
 0381461,-0.01044954,-0.04043941,0.00069140,-0.00014973,0.00001066,-0.0
 0099497,0.00063875,-0.00069647,0.00010290,-0.00001712,-0.00005513,0.00
 010132,0.00009796,0.00003677,0.00021913,-0.00019026,0.00011740,-0.0004
 2869,0.00043740,0.00003870,0.00019467,0.00034257,0.00003422,-0.0022161
 5,-0.00246131,-0.00201306,-0.05510544,-0.00129800,0.03779709,0.0525533
 3,-0.00035121,0.00044193,0.00003282,0.00030166,-0.00048879,-0.00078494
 ,0.00082734,-0.00113373,-0.00032024,-0.01127287,0.00727511,-0.03074165
 ,0.00031976,-0.00020582,-0.00025948,0.00000702,-0.00004557,0.00099690,
 -0.00000191,0.00000523,-0.00007168,-0.00015867,0.00025204,-0.00003008,
 -0.00022498,-0.00009482,-0.00020740,0.00014935,0.00028415,-0.00026359,
 0.00021170,0.00047065,0.00074946,-0.00226524,-0.00023968,-0.00127426,0
 .00019994,-0.05106080,-0.04737991,0.02193763,0.02976515,-0.00344999,0.
 00033028,0.00001528,0.00615353,0.00241578,-0.00550509,0.00696509,-0.00
 737230,-0.00257297,-0.04769276,-0.02871470,-0.07471269,0.00082338,0.00
 304221,-0.00135226,-0.00283267,-0.00191228,0.00570036,0.00070738,0.000
 23056,0.00015424,-0.00087840,0.00101371,-0.00018374,-0.00081984,-0.000
 14672,-0.00063789,0.00002235,0.00013425,0.00101682,-0.00090319,-0.0003
 2049,-0.00131506,-0.00313645,-0.00209870,-0.00135089,0.05664239,-0.033
 83766,-1.02689002,-0.03242735,0.06153377,1.16768092,-0.00107481,0.0017
 8832,-0.00055942,-0.00069715,0.00002678,0.00046254,-0.09697270,-0.1079
 5678,0.04842130,0.00117766,0.00380205,-0.00169452,0.00317366,-0.003165
 16,0.00497383,-0.00577136,-0.01192103,0.01112113,-0.00061244,-0.000394
 14,0.00017953,-0.00300058,-0.01554299,0.00148129,-0.00151500,0.0007412
 0,-0.00034568,0.00006174,0.00003801,-0.00000071,0.00020696,0.00000702,
 -0.00013278,-0.00011514,0.00022982,-0.00016364,0.00065571,0.00061812,0
 .00010385,-0.00022614,-0.00001823,0.00012927,0.10468497,0.00060113,0.0
 0003846,0.00063221,0.00017189,-0.00026643,-0.00017812,-0.11278062,-0.2
 3237327,0.08874106,-0.00058132,-0.00296842,0.00098766,-0.00233072,0.00
 022354,-0.00275528,-0.00328357,0.00325000,0.00494201,0.00041378,0.0002
 3400,-0.00000787,-0.01528597,-0.01758184,0.00227165,0.00106494,0.00007
 174,0.00031612,-0.00004790,-0.00002093,-0.00005812,-0.00007366,-0.0000
 0704,0.00011798,0.00012720,-0.00028753,0.00001254,0.00026753,0.0000067
 0,0.00039169,-0.00005404,-0.00008848,-0.00028255,0.13180298,0.24978467
 ,-0.00081654,0.00045812,0.00005617,0.00031618,-0.00002025,-0.00001021,
 0.04839811,0.08658352,-0.07546340,0.00029479,0.00103358,-0.00031957,0.
 00408903,-0.00237858,-0.00080509,0.02001207,0.02119088,-0.01852948,-0.
 00031636,0.00058554,-0.00058420,-0.00756583,-0.01288421,0.00652569,-0.
 00027509,0.00034243,-0.00061377,-0.00001800,0.00003657,0.00000705,0.00
 003824,0.00001224,-0.00002721,-0.00009062,0.00003202,-0.00000931,-0.00
 003732,0.00015825,0.00000370,-0.00002177,-0.00003194,0.00002815,-0.063
 99990,-0.09511069,0.08972410,0.00055963,-0.00062934,-0.00006052,-0.002
 57056,-0.00160057,-0.00206221,0.00045239,-0.00025696,0.00006837,-0.019
 33361,-0.02130764,0.00506084,0.00023397,0.00062331,-0.00025861,-0.0001
 6411,-0.00004792,0.00049336,-0.00010354,-0.00004809,-0.00006153,0.0000
 5160,-0.00001289,-0.00000213,-0.00006156,-0.00002863,-0.00005635,-0.00
 039810,-0.00048633,0.00037019,0.00021405,0.00012383,-0.00006791,-0.000
 62232,-0.00062127,-0.00048221,-0.18564817,-0.07532473,0.09687800,0.002
 01187,-0.00966163,0.02069843,0.00002495,-0.00001159,-0.00000709,0.2053
 5388,-0.00135809,0.00118360,0.00072928,0.00024190,0.00172850,-0.001404
 20,-0.00097465,0.00019975,-0.00006984,-0.02284745,-0.00090627,0.001942
 78,-0.00009474,-0.00142470,-0.00003527,0.00031252,0.00030078,-0.000736
 30,0.00009991,0.00007291,0.00004371,-0.00002936,0.00007005,0.00002380,
 0.00006620,-0.00002465,0.00003519,0.00092725,-0.00043486,-0.00008809,-
 0.00040023,0.00023760,-0.00001299,-0.00057045,-0.00019772,-0.00028572,
 -0.07658367,-0.09708860,0.06045621,-0.00802354,0.01486275,0.00598499,-
 0.00005557,-0.00001466,-0.00000800,0.10929051,0.08143559,-0.00028114,0
 .00003767,0.00020706,-0.00122754,-0.00087803,-0.00123923,0.00013859,-0
 .00011234,0.00000474,-0.00847809,-0.00583460,0.00587891,0.00007459,0.0
 0000765,-0.00017240,-0.00006934,-0.00001760,0.00017015,-0.00000127,0.0
 0000558,-0.00000759,0.00001608,0.00000170,0.00001430,-0.00002337,-0.00
 002018,-0.00003441,0.00010835,-0.00046891,0.00019247,-0.00005864,-0.00
 000571,-0.00011432,-0.00046605,-0.00036070,-0.00024447,0.09318196,0.05
 619018,-0.09602063,0.03757284,0.01805137,-0.06007685,0.00002359,-0.000
 02055,0.00001748,-0.12051031,-0.06657606,0.15142429\\0.00287676,-0.069
 64138,-0.02059057,0.05604641,0.06941077,-0.03044735,-0.06522230,0.0142
 3023,0.07290898,-0.01890944,-0.04856755,0.04429446,0.01321053,0.107627
 17,-0.02127052,0.03665216,-0.05914198,-0.03639863,-0.00087962,-0.00346
 714,0.00493877,0.01007025,-0.01247371,-0.00212356,-0.00012252,0.006240
 03,0.00257669,-0.01098806,-0.00132530,-0.00197435,-0.00611081,0.001492
 01,0.00982041,-0.00489559,0.00549020,-0.00841668,-0.03012384,-0.012783
 13,-0.02960233,0.00080874,0.00020975,0.02188594,0.01241477,-0.00034184
 ,-0.00153834,0.00517256,0.00304187,-0.00406290\\\@


 REVOLUTIONS HAVE NEVER LIGHTENED THE BURDEN OF TYRANNY:
 THEY HAVE MERELY SHIFTED IT TO OTHER SHOULDERS.
                                   -- G. B. SHAW (1903)
 Job cpu time:       0 days  0 hours  0 minutes  9.5 seconds.
 Elapsed time:       0 days  0 hours  0 minutes  0.8 seconds.
 File lengths (MBytes):  RWF=     14 Int=      0 D2E=      0 Chk=      2 Scr=      1
 Normal termination of Gaussian 16 at Thu Jan 18 10:55:51 2024.
