FREQ part at am1                                                        
Freq      RAM1                                                        ZDO                 
Number of atoms                            I               16
Info1-9                                    I   N=           9
          25          25           0           0           0         101
           6           8         502
Full Title                                 C   N=           2
FREQ part at am1        
Route                                      C   N=           5
# am1 freq=noraman iop(7/33=1) symm=none units=au           
Charge                                     I                0
Multiplicity                               I                1
Number of electrons                        I               44
Number of alpha electrons                  I               22
Number of beta electrons                   I               22
Number of basis functions                  I               40
Number of independent functions            I               40
Number of point charges in /Mol/           I                0
Number of translation vectors              I                0
Atomic numbers                             I   N=          16
           8           6           6           6           6           6
           1           1           1           1           1           1
           6           8           1           1
Nuclear charges                            R   N=          16
  6.00000000E+00  4.00000000E+00  4.00000000E+00  4.00000000E+00  4.00000000E+00
  4.00000000E+00  1.00000000E+00  1.00000000E+00  1.00000000E+00  1.00000000E+00
  1.00000000E+00  1.00000000E+00  4.00000000E+00  6.00000000E+00  1.00000000E+00
  1.00000000E+00
Current cartesian coordinates              R   N=          48
  2.75269333E+00  2.17353922E+00 -3.14807968E-01 -5.57764434E-01  2.80569109E+00
  1.13497333E+00  1.09098402E+00 -2.47518579E+00  1.84995920E+00 -1.85265837E+00
  4.04538120E-01  1.66507984E+00  3.35914589E+00  2.18826342E-01 -1.41547874E+00
  2.56519825E+00 -2.29456741E+00 -4.69071046E-01  4.45216398E+00  2.00139899E-01
 -3.18913007E+00  1.97283702E+00 -1.55132638E+00  3.47717693E+00  2.63062122E+00
 -3.86239129E+00 -1.78078773E+00  1.45401090E-01  3.87122047E+00  2.74535548E+00
 -1.14700217E+00  3.85566438E+00 -5.36026912E-01 -2.37139278E+00  9.19447551E-02
  3.63167610E+00 -3.68994732E+00 -6.22152416E-01 -2.15449780E-01 -3.52690931E+00
 -2.66318243E-01 -2.49565986E+00  2.34619027E-01 -4.30971051E+00  2.22027708E+00
 -5.21326775E+00 -1.77620869E+00  6.15124927E-01
Number of symbols in /Mol/                 I                0
Force Field                                I                0
Atom Types                                 C   N=          16
                                                            
                                                            
                                                            
            
Int Atom Types                             I   N=          16
           0           0           0           0           0           0
           0           0           0           0           0           0
           0           0           0           0
MM charges                                 R   N=          16
  0.00000000E+00  0.00000000E+00  0.00000000E+00  0.00000000E+00  0.00000000E+00
  0.00000000E+00  0.00000000E+00  0.00000000E+00  0.00000000E+00  0.00000000E+00
  0.00000000E+00  0.00000000E+00  0.00000000E+00  0.00000000E+00  0.00000000E+00
  0.00000000E+00
Integer atomic weights                     I   N=          16
          16          12          12          12          12          12
           1           1           1           1           1           1
          12          16           1           1
Real atomic weights                        R   N=          16
  1.59949146E+01  1.20000000E+01  1.20000000E+01  1.20000000E+01  1.20000000E+01
  1.20000000E+01  1.00782504E+00  1.00782504E+00  1.00782504E+00  1.00782504E+00
  1.00782504E+00  1.00782504E+00  1.20000000E+01  1.59949146E+01  1.00782504E+00
  1.00782504E+00
Atom fragment info                         I   N=          16
           0           0           0           0           0           0
           0           0           0           0           0           0
           0           0           0           0
Atom residue num                           I   N=          16
           0           0           0           0           0           0
           0           0           0           0           0           0
           0           0           0           0
Nuclear spins                              I   N=          16
           0           0           0           0           0           0
           1           1           1           1           1           1
           0           0           1           1
Nuclear ZEff                               R   N=          16
 -6.00000000E+00 -3.90000000E+00 -3.90000000E+00 -3.90000000E+00 -3.90000000E+00
 -3.90000000E+00 -1.00000000E+00 -1.00000000E+00 -1.00000000E+00 -1.00000000E+00
 -1.00000000E+00 -1.00000000E+00 -3.90000000E+00 -6.00000000E+00 -1.00000000E+00
 -1.00000000E+00
Nuclear ZNuc                               R   N=          16
  8.00000000E+00  6.00000000E+00  6.00000000E+00  6.00000000E+00  6.00000000E+00
  6.00000000E+00  1.00000000E+00  1.00000000E+00  1.00000000E+00  1.00000000E+00
  1.00000000E+00  1.00000000E+00  6.00000000E+00  8.00000000E+00  1.00000000E+00
  1.00000000E+00
Nuclear QMom                               R   N=          16
  0.00000000E+00  0.00000000E+00  0.00000000E+00  0.00000000E+00  0.00000000E+00
  0.00000000E+00  0.00000000E+00  0.00000000E+00  0.00000000E+00  0.00000000E+00
  0.00000000E+00  0.00000000E+00  0.00000000E+00  0.00000000E+00  0.00000000E+00
  0.00000000E+00
Nuclear GFac                               R   N=          16
  0.00000000E+00  0.00000000E+00  0.00000000E+00  0.00000000E+00  0.00000000E+00
  0.00000000E+00  2.79284600E+00  2.79284600E+00  2.79284600E+00  2.79284600E+00
  2.79284600E+00  2.79284600E+00  0.00000000E+00  0.00000000E+00  2.79284600E+00
  2.79284600E+00
MicOpt                                     I   N=          16
          -1          -1          -1          -1          -1          -1
          -1          -1          -1          -1          -1          -1
          -1          -1          -1          -1
Number of residues                         I                0
Number of secondary structures             I                0
Number of contracted shells                I               16
Number of primitive shells                 I               96
Pure/Cartesian d shells                    I                0
Pure/Cartesian f shells                    I                0
Highest angular momentum                   I                1
Largest degree of contraction              I                6
Shell types                                I   N=          16
          -1          -1          -1          -1          -1          -1
           0           0           0           0           0           0
          -1          -1           0           0
Number of primitives per shell             I   N=          16
           6           6           6           6           6           6
           6           6           6           6           6           6
           6           6           6           6
Shell to atom map                          I   N=          16
           1           2           3           4           5           6
           7           8           9          10          11          12
          13          14          15          16
Primitive exponents                        R   N=          96
  2.63763252E+01  7.59503878E+00  2.98731891E+00  1.36530627E+00  6.79466524E-01
  3.48948228E-01  8.93222378E+00  2.57202569E+00  1.01164210E+00  4.62354822E-01
  2.30098279E-01  1.18169746E-01  8.93222378E+00  2.57202569E+00  1.01164210E+00
  4.62354822E-01  2.30098279E-01  1.18169746E-01  8.93222378E+00  2.57202569E+00
  1.01164210E+00  4.62354822E-01  2.30098279E-01  1.18169746E-01  8.93222378E+00
  2.57202569E+00  1.01164210E+00  4.62354822E-01  2.30098279E-01  1.18169746E-01
  8.93222378E+00  2.57202569E+00  1.01164210E+00  4.62354822E-01  2.30098279E-01
  1.18169746E-01  3.85419101E+00  1.10981078E+00  4.36516367E-01  1.99502816E-01
  9.92857703E-02  5.09894047E-02  3.85419101E+00  1.10981078E+00  4.36516367E-01
  1.99502816E-01  9.92857703E-02  5.09894047E-02  3.85419101E+00  1.10981078E+00
  4.36516367E-01  1.99502816E-01  9.92857703E-02  5.09894047E-02  3.85419101E+00
  1.10981078E+00  4.36516367E-01  1.99502816E-01  9.92857703E-02  5.09894047E-02
  3.85419101E+00  1.10981078E+00  4.36516367E-01  1.99502816E-01  9.92857703E-02
  5.09894047E-02  3.85419101E+00  1.10981078E+00  4.36516367E-01  1.99502816E-01
  9.92857703E-02  5.09894047E-02  8.93222378E+00  2.57202569E+00  1.01164210E+00
  4.62354822E-01  2.30098279E-01  1.18169746E-01  2.63763252E+01  7.59503878E+00
  2.98731891E+00  1.36530627E+00  6.79466524E-01  3.48948228E-01  3.85419101E+00
  1.10981078E+00  4.36516367E-01  1.99502816E-01  9.92857703E-02  5.09894047E-02
  3.85419101E+00  1.10981078E+00  4.36516367E-01  1.99502816E-01  9.92857703E-02
  5.09894047E-02
Contraction coefficients                   R   N=          96
 -9.73739553E-03 -7.26587678E-02 -1.71615520E-01  1.28977624E-01  7.28861451E-01
  3.01331742E-01 -9.73739553E-03 -7.26587678E-02 -1.71615520E-01  1.28977624E-01
  7.28861451E-01  3.01331742E-01 -9.73739553E-03 -7.26587678E-02 -1.71615520E-01
  1.28977624E-01  7.28861451E-01  3.01331742E-01 -9.73739553E-03 -7.26587678E-02
 -1.71615520E-01  1.28977624E-01  7.28861451E-01  3.01331742E-01 -9.73739553E-03
 -7.26587678E-02 -1.71615520E-01  1.28977624E-01  7.28861451E-01  3.01331742E-01
 -9.73739553E-03 -7.26587678E-02 -1.71615520E-01  1.28977624E-01  7.28861451E-01
  3.01331742E-01 -9.73739553E-03 -7.26587678E-02 -1.71615520E-01  1.28977624E-01
  7.28861451E-01  3.01331742E-01 -9.73739553E-03 -7.26587678E-02 -1.71615520E-01
  1.28977624E-01  7.28861451E-01  3.01331742E-01 -9.73739553E-03 -7.26587678E-02
 -1.71615520E-01  1.28977624E-01  7.28861451E-01  3.01331742E-01 -9.73739553E-03
 -7.26587678E-02 -1.71615520E-01  1.28977624E-01  7.28861451E-01  3.01331742E-01
 -9.73739553E-03 -7.26587678E-02 -1.71615520E-01  1.28977624E-01  7.28861451E-01
  3.01331742E-01 -9.73739553E-03 -7.26587678E-02 -1.71615520E-01  1.28977624E-01
  7.28861451E-01  3.01331742E-01 -9.73739553E-03 -7.26587678E-02 -1.71615520E-01
  1.28977624E-01  7.28861451E-01  3.01331742E-01 -9.73739553E-03 -7.26587678E-02
 -1.71615520E-01  1.28977624E-01  7.28861451E-01  3.01331742E-01 -9.73739553E-03
 -7.26587678E-02 -1.71615520E-01  1.28977624E-01  7.28861451E-01  3.01331742E-01
 -9.73739553E-03 -7.26587678E-02 -1.71615520E-01  1.28977624E-01  7.28861451E-01
  3.01331742E-01
P(S=P) Contraction coefficients            R   N=          96
 -8.10494336E-03 -1.71547892E-02  7.36978576E-02  3.96514999E-01  4.97808488E-01
  1.17482582E-01 -8.10494336E-03 -1.71547892E-02  7.36978576E-02  3.96514999E-01
  4.97808488E-01  1.17482582E-01 -8.10494336E-03 -1.71547892E-02  7.36978576E-02
  3.96514999E-01  4.97808488E-01  1.17482582E-01 -8.10494336E-03 -1.71547892E-02
  7.36978576E-02  3.96514999E-01  4.97808488E-01  1.17482582E-01 -8.10494336E-03
 -1.71547892E-02  7.36978576E-02  3.96514999E-01  4.97808488E-01  1.17482582E-01
 -8.10494336E-03 -1.71547892E-02  7.36978576E-02  3.96514999E-01  4.97808488E-01
  1.17482582E-01  0.00000000E+00  0.00000000E+00  0.00000000E+00  0.00000000E+00
  0.00000000E+00  0.00000000E+00  0.00000000E+00  0.00000000E+00  0.00000000E+00
  0.00000000E+00  0.00000000E+00  0.00000000E+00  0.00000000E+00  0.00000000E+00
  0.00000000E+00  0.00000000E+00  0.00000000E+00  0.00000000E+00  0.00000000E+00
  0.00000000E+00  0.00000000E+00  0.00000000E+00  0.00000000E+00  0.00000000E+00
  0.00000000E+00  0.00000000E+00  0.00000000E+00  0.00000000E+00  0.00000000E+00
  0.00000000E+00  0.00000000E+00  0.00000000E+00  0.00000000E+00  0.00000000E+00
  0.00000000E+00  0.00000000E+00 -8.10494336E-03 -1.71547892E-02  7.36978576E-02
  3.96514999E-01  4.97808488E-01  1.17482582E-01 -8.10494336E-03 -1.71547892E-02
  7.36978576E-02  3.96514999E-01  4.97808488E-01  1.17482582E-01  0.00000000E+00
  0.00000000E+00  0.00000000E+00  0.00000000E+00  0.00000000E+00  0.00000000E+00
  0.00000000E+00  0.00000000E+00  0.00000000E+00  0.00000000E+00  0.00000000E+00
  0.00000000E+00
Coordinates of each shell                  R   N=          48
  2.75269333E+00  2.17353922E+00 -3.14807968E-01 -5.57764434E-01  2.80569109E+00
  1.13497333E+00  1.09098402E+00 -2.47518579E+00  1.84995920E+00 -1.85265837E+00
  4.04538120E-01  1.66507984E+00  3.35914589E+00  2.18826342E-01 -1.41547874E+00
  2.56519825E+00 -2.29456741E+00 -4.69071046E-01  4.45216398E+00  2.00139899E-01
 -3.18913007E+00  1.97283702E+00 -1.55132638E+00  3.47717693E+00  2.63062122E+00
 -3.86239129E+00 -1.78078773E+00  1.45401090E-01  3.87122047E+00  2.74535548E+00
 -1.14700217E+00  3.85566438E+00 -5.36026912E-01 -2.37139278E+00  9.19447551E-02
  3.63167610E+00 -3.68994732E+00 -6.22152416E-01 -2.15449780E-01 -3.52690931E+00
 -2.66318243E-01 -2.49565986E+00  2.34619027E-01 -4.30971051E+00  2.22027708E+00
 -5.21326775E+00 -1.77620869E+00  6.15124927E-01
Num ILSW                                   I              100
ILSW                                       I   N=         100
           0           0           0           0           2           0
           0           0           0           0           0          -1
           5           1           0           0           2           0
           0           0           1           0           1           0
           1           1           0           0           0           0
           0           0      100000           0          -1           0
           0           0           0           0           0           0
           0           0           0           8           0           0
           0 -2000000000           1           0           0           0
           0           0           4          52           0           0
           0           0           0           0           0           0
           0           0           0           0           0           1
           0           0           0           0           0           0
           0           0           0           0           0           0
           0           0           0           0           0           0
           0           0           0           0           0           0
           0           0           0           0
Num RLSW                                   I               52
RLSW                                       R   N=          52
  1.00000000E+00  1.00000000E+00  1.00000000E+00  1.00000000E+00  1.00000000E+00
  0.00000000E+00  0.00000000E+00  1.00000000E+00  0.00000000E+00  0.00000000E+00
  0.00000000E+00  0.00000000E+00  1.00000000E+00  0.00000000E+00  0.00000000E+00
  0.00000000E+00  0.00000000E+00  1.00000000E+00  0.00000000E+00  0.00000000E+00
  0.00000000E+00  0.00000000E+00  1.00000000E+00  0.00000000E+00  0.00000000E+00
  0.00000000E+00  0.00000000E+00  1.00000000E+00  0.00000000E+00  0.00000000E+00
  0.00000000E+00  0.00000000E+00  1.00000000E+00  0.00000000E+00  0.00000000E+00
  0.00000000E+00  0.00000000E+00  0.00000000E+00  1.00000000E+00  1.00000000E+00
  0.00000000E+00  1.00000000E+00  0.00000000E+00  0.00000000E+00  0.00000000E+00
  0.00000000E+00  0.00000000E+00  0.00000000E+00  0.00000000E+00  0.00000000E+00
  0.00000000E+00  0.00000000E+00
MxBond                                     I                3
NBond                                      I   N=          16
           1           3           3           3           3           3
           1           1           1           1           1           1
           3           1           1           1
IBond                                      I   N=          48
           5           0           0           4          10          11
           6           8          15           2          12          13
           1           6           7           3           5           9
           5           0           0           3           0           0
           6           0           0           2           0           0
           2           0           0           4           0           0
           4          14          16          13           0           0
           3           0           0          13           0           0
RBond                                      R   N=          48
  2.00000000E+00  0.00000000E+00  0.00000000E+00  1.00000000E+00  1.00000000E+00
  1.00000000E+00  1.00000000E+00  1.00000000E+00  1.00000000E+00  1.00000000E+00
  1.00000000E+00  1.00000000E+00  2.00000000E+00  1.00000000E+00  1.00000000E+00
  1.00000000E+00  1.00000000E+00  1.00000000E+00  1.00000000E+00  0.00000000E+00
  0.00000000E+00  1.00000000E+00  0.00000000E+00  0.00000000E+00  1.00000000E+00
  0.00000000E+00  0.00000000E+00  1.00000000E+00  0.00000000E+00  0.00000000E+00
  1.00000000E+00  0.00000000E+00  0.00000000E+00  1.00000000E+00  0.00000000E+00
  0.00000000E+00  1.00000000E+00  2.00000000E+00  1.00000000E+00  2.00000000E+00
  0.00000000E+00  0.00000000E+00  1.00000000E+00  0.00000000E+00  0.00000000E+00
  1.00000000E+00  0.00000000E+00  0.00000000E+00
Virial Ratio                               R      1.000362544548905E+00
SCF Energy                                 R      3.205342555074253E-02
Total Energy                               R      3.205342555074253E-02
RMS Force                                  R      3.239180425362461E-02
RMS Density                                R      8.558088907552136E-09
NImag                                      I                3
Job Status                                 I                1
Nuclear derivative order                   I                2
External E-field                           R   N=          35
  0.00000000E+00  0.00000000E+00  0.00000000E+00  0.00000000E+00  0.00000000E+00
  0.00000000E+00  0.00000000E+00  0.00000000E+00  0.00000000E+00  0.00000000E+00
  0.00000000E+00  0.00000000E+00  0.00000000E+00  0.00000000E+00  0.00000000E+00
  0.00000000E+00  0.00000000E+00  0.00000000E+00  0.00000000E+00  0.00000000E+00
  0.00000000E+00  0.00000000E+00  0.00000000E+00  0.00000000E+00  0.00000000E+00
  0.00000000E+00  0.00000000E+00  0.00000000E+00  0.00000000E+00  0.00000000E+00
  0.00000000E+00  0.00000000E+00  0.00000000E+00  0.00000000E+00  0.00000000E+00
IOpCl                                      I                0
IROHF                                      I                0
Alpha Orbital Energies                     R   N=          40
 -1.45233720E+00 -1.42880850E+00 -1.22406576E+00 -1.16966132E+00 -9.53946871E-01
 -9.46538331E-01 -7.81664221E-01 -7.21803608E-01 -6.39245015E-01 -6.39029979E-01
 -5.89214978E-01 -5.80592985E-01 -5.54178866E-01 -5.36285623E-01 -5.21280731E-01
 -5.11451903E-01 -4.86453763E-01 -4.75096072E-01 -4.04874589E-01 -3.89180423E-01
 -3.76187906E-01 -3.12887019E-01 -9.57964088E-03  1.10366444E-03  5.57470202E-02
  8.54905081E-02  1.22927467E-01  1.31900306E-01  1.48845681E-01  1.53186450E-01
  1.56017936E-01  1.56784105E-01  1.59744823E-01  1.70643893E-01  1.74214112E-01
  1.79915555E-01  1.85123117E-01  1.95283192E-01  2.43619098E-01  2.44952641E-01
Alpha MO coefficients                      R   N=        1600
  6.37689308E-01  2.68420860E-02 -1.78125005E-01 -8.52629643E-02  1.45021677E-01
  1.29588317E-02 -4.30168689E-02 -1.79027659E-02  1.27353816E-01  1.64362885E-02
  2.63209849E-02 -3.62585596E-02  1.65385709E-01  1.30029342E-03  6.44156689E-03
 -4.49129372E-02  4.14868071E-01 -7.56191294E-02  1.48571635E-01  1.16581636E-01
  1.91954501E-01 -5.48716468E-03  7.90551160E-02  7.01692768E-03  9.91476049E-02
  5.00246455E-02  5.04631718E-02  4.53398238E-02  5.70333300E-02  4.85464249E-02
  2.50436379E-01  3.20131656E-02  3.04502540E-02 -9.41554569E-02  3.32149537E-01
 -2.20069749E-03 -1.43249068E-02  1.17603721E-01  3.63610461E-02  6.25578866E-02
 -3.78973835E-01 -2.89912416E-02  1.04267108E-01  5.56303637E-02  4.42050440E-02
 -4.46927613E-02 -2.14281288E-02  4.11512237E-03 -1.84523680E-02 -2.30703058E-02
 -2.80513470E-03  1.23332852E-02  1.50223375E-01 -4.85952200E-02 -1.00996803E-02
 -6.23773534E-02 -2.37102104E-01  3.62155811E-02 -9.68071396E-02 -6.53336027E-02
 -8.04681629E-02 -9.76558888E-03 -4.28818373E-02  4.42219755E-03 -5.76590235E-02
 -8.42207743E-03 -1.96995188E-02  7.53291431E-03  1.95834137E-02  4.09531184E-02
  4.30936404E-01  2.92840304E-02  4.56083069E-02 -2.07955264E-01  6.55557449E-01
 -1.34122941E-02 -3.07721246E-02  2.17621858E-01 -1.60453849E-04  1.07518637E-01
 -2.70799333E-01 -6.01510160E-02  2.69198086E-02  5.66079669E-02  3.55880674E-01
 -6.81035427E-02 -9.02263884E-02  3.42814840E-02  4.06104733E-01  2.28512830E-02
  2.46211767E-02 -5.77957680E-02  4.55733352E-01  3.31095159E-02  4.59660668E-02
 -1.36842460E-02  9.70382526E-03 -1.75943319E-02 -1.68175120E-01 -4.85355814E-03
  3.36902998E-01 -5.94272670E-02  1.73796944E-04  7.42892248E-02  6.29604006E-03
  1.53672174E-01  1.11747166E-01  1.22188597E-01  1.13693026E-01  1.70583152E-01
  9.14635310E-02  7.56248203E-02  2.90753894E-02  1.84001353E-01 -2.84486567E-01
  2.61290061E-02  1.97854546E-02 -2.25918991E-02  1.43957212E-01  4.05894363E-02
 -2.27564157E-01  4.38258186E-02 -5.16978163E-02 -1.27328834E-02 -4.02273362E-01
  4.48008005E-02  5.41564303E-02 -1.36340446E-02  3.58564797E-01  9.63817672E-02
 -2.72328374E-02 -9.48397653E-02 -3.51556080E-01  1.27398644E-02 -1.11359012E-01
  2.28620240E-02  2.05279429E-01 -5.13994056E-03 -1.72699417E-01  8.56986558E-03
  4.80125391E-01 -2.88757381E-02  2.45063844E-02  4.76204897E-02  7.73344607E-02
  1.14708533E-01  1.68888668E-01 -1.45370979E-01 -1.46767399E-01 -1.20405963E-01
 -9.93116358E-02 -4.67131411E-02 -4.41230499E-02 -1.27824659E-01  1.80602974E-01
 -1.56562655E-02 -2.01643287E-02 -1.21178498E-03  1.26994836E-01 -3.72574460E-02
 -1.39954642E-01  1.16712226E-01 -1.06088210E-01 -1.01596200E-01 -3.98988637E-01
 -6.96913848E-02 -7.77521311E-02 -5.29436006E-03 -2.15946363E-01 -4.41978178E-02
  2.78002725E-02 -1.23323041E-02  2.17412089E-01 -2.14991363E-01 -1.70598761E-01
 -5.99599817E-02  2.47719938E-01  3.98453900E-02 -1.31474737E-02 -3.97005097E-02
  1.25613808E-03  6.38597533E-02  7.78379777E-02 -1.08957642E-01  1.26128219E-01
 -9.94155260E-02  7.25609655E-03 -2.02859079E-01 -1.74521953E-01  9.88304266E-02
  4.35059519E-01  1.00695013E-02 -2.10803698E-02  2.05933769E-01 -3.12581130E-01
 -4.80565384E-03 -2.26532799E-02  1.29250776E-01 -9.06501207E-02  2.23743755E-01
  3.04054303E-01  1.60181621E-02  9.73871181E-02  4.29489443E-02 -2.97554500E-01
  4.54870862E-02 -3.19726461E-02 -1.54151111E-02  4.33920244E-01 -2.73619290E-02
 -5.62413645E-02  7.54548502E-02  3.95950906E-02 -5.88477334E-02 -1.69605049E-01
  4.17015136E-03 -4.12054294E-01 -2.23687962E-02  1.92356361E-01  8.25383289E-02
 -1.97128115E-01 -1.34913253E-01 -1.45614104E-01  2.17065244E-01 -2.13663807E-01
  1.89886647E-01 -9.83156216E-02 -1.28457575E-01 -1.31250819E-01  4.67771394E-02
  1.64028027E-01 -2.22688295E-04 -4.10546620E-02  7.26676043E-02 -1.05542632E-01
 -6.71635701E-03 -2.23326308E-02  4.58198836E-02  2.21163104E-01  9.51261206E-02
  1.98792298E-01 -1.70760421E-01  1.79044378E-01  1.78055547E-01  1.40724691E-01
  1.08477696E-01  1.66661897E-01 -9.67241848E-02 -1.51844135E-01  8.60997701E-02
 -3.78594289E-02 -1.75227015E-01 -2.85083720E-01 -6.77135218E-02 -6.88770879E-03
 -1.53175882E-01 -2.13836141E-01 -7.89399852E-02 -1.67892822E-01  5.72534915E-02
  2.93994348E-01 -8.44067481E-03 -9.82823749E-02 -5.12470854E-02 -1.43482548E-01
 -1.42222182E-01  1.91671927E-01  9.52897737E-02  1.40610041E-01 -2.05249131E-01
  3.05369537E-01 -1.34592974E-01 -7.81000304E-02 -3.01636058E-02 -2.58807518E-01
 -7.77729712E-02 -7.10320646E-02  2.18211907E-01 -8.88298807E-02  2.10193746E-01
  2.11581716E-01 -6.14287145E-02  1.11665619E-01  1.80491194E-01 -2.14231743E-01
 -7.99035998E-03 -1.98271166E-01  2.96381159E-02 -2.25799005E-01  2.39419219E-02
  5.84433505E-02 -1.93781101E-01  2.93195349E-01 -3.69024685E-02 -2.60977166E-02
  7.10891124E-02 -2.32207254E-01 -8.62602980E-02 -1.49573001E-01  1.31315124E-01
  2.87612202E-01 -9.20820241E-03 -8.57115255E-02 -8.94513313E-02 -2.02324590E-01
 -1.71599438E-01  2.06312951E-01 -1.50390945E-01 -1.73518385E-01  1.77300801E-01
 -1.81624038E-01  1.72991540E-01  1.02635679E-01  1.06596244E-01  1.90548115E-01
  1.16217467E-01  9.43937768E-02 -1.96088958E-01 -1.66558124E-01 -1.69448026E-01
  1.47572875E-01  9.50478078E-02  3.77912458E-01 -7.50256996E-02  6.00042191E-03
  5.17546431E-02  1.14990879E-01  1.50293410E-01 -5.55208624E-03 -8.44925763E-02
 -1.42586325E-01  4.90855763E-02  3.38845766E-02 -5.69918517E-02 -4.33406812E-02
  2.77167585E-01  8.49494341E-03  2.13938948E-01 -1.82744427E-02 -3.21122597E-01
  3.84015623E-02  4.47363145E-02 -2.20876594E-01 -1.56885895E-01  2.49754118E-01
 -3.93030350E-02  1.97579780E-01  1.37586123E-01 -4.75982661E-02  2.10882409E-01
 -2.38790585E-02 -2.35010778E-01 -1.76340822E-01  1.27478487E-01  1.30065931E-01
 -1.86173959E-01 -1.05623104E-01 -2.37174330E-01  1.17145190E-01  1.96355496E-01
  5.94580362E-02  4.62195269E-02  2.56216471E-01 -2.44279564E-01 -4.55941269E-03
 -1.13427791E-01  1.50401212E-02 -2.18254757E-01  3.89712870E-02 -6.98794031E-02
 -1.88625835E-01 -5.09550033E-02 -1.77468644E-03 -7.79446095E-02  6.56787419E-04
 -2.81193454E-01 -6.11374880E-03  1.14501231E-01  1.13758400E-01 -3.03524991E-01
  1.01623678E-02 -5.14635826E-02 -2.42199230E-01 -7.06039844E-02  1.97572828E-01
 -9.71439828E-02  1.55820011E-01 -1.40058081E-01  1.51874346E-01 -1.71610030E-01
 -6.38787156E-03  3.10868191E-01  2.29300739E-01 -2.31278045E-02 -5.36441920E-02
  2.64078478E-01  1.81060234E-01  1.28680681E-01  1.45239253E-01 -2.37049214E-01
 -1.70766245E-01  2.51376054E-01 -3.05945543E-01 -3.14366736E-01  6.17352864E-02
 -2.09977279E-01  7.49064392E-03  6.45802995E-02 -5.01849563E-02  4.93731064E-02
 -1.67992073E-01 -2.84756290E-01 -7.07083698E-03 -4.32475222E-02  1.73055822E-01
  3.76532476E-02 -9.88861523E-02 -5.44490587E-02  3.96539792E-01  1.61068717E-01
  1.10816753E-01 -1.50674626E-01 -2.97033776E-01  1.24786676E-01 -1.75759742E-01
 -2.32683493E-01  1.57457362E-01  5.82417091E-03  2.98504197E-02 -7.31728412E-04
 -1.10295823E-02 -1.68411383E-01 -2.53366385E-04  3.09871864E-02  2.91502560E-02
 -1.62011056E-01  7.84317187E-03 -7.37735316E-02  2.62151606E-02  8.56904579E-02
  6.20190493E-02  2.64951638E-01  9.39220225E-02  9.71330135E-02 -2.51703928E-02
 -3.82327473E-02 -1.87213090E-01  3.02304382E-01 -2.19356072E-02  4.55999163E-02
  1.97820737E-02  2.08971577E-02  5.68374258E-02  1.77299929E-01  2.01137884E-01
  1.43312056E-01 -3.33340742E-02  2.00881500E-01  1.01147901E-02  6.92983054E-03
  4.01764012E-02  5.75059610E-02 -1.00963130E-01 -5.33627550E-03  4.93252851E-02
  2.92423107E-02  8.09044266E-02  7.87659245E-02 -2.56778801E-01  7.32807465E-02
 -3.08412356E-02  1.03834915E-03  9.12577325E-02 -4.24683475E-01 -2.40015435E-01
 -8.10821659E-02 -7.27226009E-02  4.93630619E-01 -3.93823477E-02 -1.78008960E-01
  4.22864837E-02  4.90198445E-01  5.44692825E-02  3.02634447E-01  2.36587225E-02
 -1.11501446E-01  2.13914297E-01  3.88898399E-02  3.88352953E-03  1.95454039E-01
  3.59275160E-02  5.83326122E-02 -6.80801036E-02 -2.36886645E-01  2.06888435E-02
 -8.80829245E-02 -1.49821801E-03  3.68007082E-01 -5.48365221E-02  2.05127629E-01
  3.28131159E-02  1.67182067E-01  2.33917337E-02  1.57684708E-01  1.08604434E-02
  1.06158591E-01 -6.40022715E-02  9.58640236E-02  8.76649528E-02 -6.42461795E-02
  4.88589427E-02 -2.83053053E-02  2.22358210E-01  1.96133385E-01  7.03413943E-02
  1.36492755E-02  3.22998034E-01 -1.11088362E-01 -8.18704650E-02  1.43306334E-02
 -6.01478549E-02  1.57022236E-01 -1.62153347E-01  1.25806138E-01  3.79432325E-02
  1.59677823E-01  2.47738667E-01  2.38348758E-01 -2.24324464E-02 -1.51200196E-01
 -1.41056390E-01 -6.93241865E-02 -4.12199118E-02 -5.98874358E-02 -2.34385231E-01
  1.07992808E-02  2.09678455E-02  5.70860961E-02  5.13077286E-02  1.36749807E-01
 -1.38152020E-02 -1.33042855E-02 -4.35412626E-02 -4.49065324E-02 -4.66642285E-02
 -1.48453336E-01  3.94126515E-02  3.16653253E-01 -7.36204344E-02  2.59929582E-02
  3.30248498E-02  3.56351741E-01 -2.46093057E-01  1.03696410E-02  3.66562129E-03
  4.67034970E-01 -2.93101308E-01 -6.24377866E-03  1.33677050E-01 -6.27174910E-02
 -2.17942715E-02 -1.46176118E-01 -2.38780363E-01  1.87532077E-01 -2.08590004E-02
  6.64733539E-02  5.73206736E-02  4.92224293E-02 -4.24481136E-03 -2.90648461E-01
 -3.54979181E-01  1.99290936E-01 -2.53137158E-02 -1.06091412E-01 -1.03113260E-03
  8.32203279E-02  4.49130943E-02 -1.30716096E-01 -9.53011852E-02  1.31614723E-01
 -6.08818319E-02  1.06078111E-01 -1.60535472E-02 -3.03427249E-01 -1.00374098E-01
 -9.64996092E-02  1.24793701E-01  6.08126452E-02 -3.21984293E-02  7.44517266E-02
 -2.55788755E-03 -1.16093432E-01  2.76261624E-01 -9.18726951E-03 -2.05677369E-02
 -1.56519724E-01  3.58157688E-01  1.05824259E-01  3.89060262E-01 -5.17691489E-02
 -3.45616331E-02 -1.92893306E-01  6.27986085E-02 -3.06206540E-01 -5.02136080E-02
  1.92289395E-01  3.13004936E-01  2.07298565E-01  1.85997042E-03  1.46799824E-01
  1.83529174E-01 -1.05719128E-01 -4.01773514E-02 -1.95395680E-01 -1.96631061E-01
  2.15384069E-01 -1.44938297E-02 -1.84239468E-01  9.41054021E-02 -1.34342940E-01
  3.77667674E-02 -1.28712608E-01  2.87103380E-02  1.26342578E-01 -4.80823505E-03
  5.30465792E-02 -6.29903060E-02  2.93247358E-01 -6.22149112E-02  2.04986071E-01
  2.04651867E-02  1.31644938E-02  2.47542053E-01 -1.30125816E-02 -2.95931793E-02
  3.29986223E-02  3.39743765E-01  1.60696215E-01 -2.06403977E-01 -9.90324492E-02