 Entering Gaussian System, Link 0=/opt/gaussian16/g16/g16
 Input=Gau-1933450_H.gjf
 Output=Gau-1933450_H.out
 Initial command:
 /opt/gaussian16/g16/l1.exe "/tmp/Gau-1933727.inp" -scrdir="/tmp/"
 Entering Link 1 = /opt/gaussian16/g16/l1.exe PID=   1933729.
  
 Copyright (c) 1988,1990,1992,1993,1995,1998,2003,2009,2016,
            Gaussian, Inc.  All Rights Reserved.
  
 This is part of the Gaussian(R) 16 program.  It is based on
 the Gaussian(R) 09 system (copyright 2009, Gaussian, Inc.),
 the Gaussian(R) 03 system (copyright 2003, Gaussian, Inc.),
 the Gaussian(R) 98 system (copyright 1998, Gaussian, Inc.),
 the Gaussian(R) 94 system (copyright 1995, Gaussian, Inc.),
 the Gaussian 92(TM) system (copyright 1992, Gaussian, Inc.),
 the Gaussian 90(TM) system (copyright 1990, Gaussian, Inc.),
 the Gaussian 88(TM) system (copyright 1988, Gaussian, Inc.),
 the Gaussian 86(TM) system (copyright 1986, Carnegie Mellon
 University), and the Gaussian 82(TM) system (copyright 1983,
 Carnegie Mellon University). Gaussian is a federally registered
 trademark of Gaussian, Inc.
  
 This software contains proprietary and confidential information,
 including trade secrets, belonging to Gaussian, Inc.
  
 This software is provided under written license and may be
 used, copied, transmitted, or stored only in accord with that
 written license.
  
 The following legend is applicable only to US Government
 contracts under FAR:
  
                    RESTRICTED RIGHTS LEGEND
  
 Use, reproduction and disclosure by the US Government is
 subject to restrictions as set forth in subparagraphs (a)
 and (c) of the Commercial Computer Software - Restricted
 Rights clause in FAR 52.227-19.
  
 Gaussian, Inc.
 340 Quinnipiac St., Bldg. 40, Wallingford CT 06492
  
  
 ---------------------------------------------------------------
 Warning -- This program may not be used in any manner that
 competes with the business of Gaussian, Inc. or will provide
 assistance to any competitor of Gaussian, Inc.  The licensee
 of this program is prohibited from giving any competitor of
 Gaussian, Inc. access to this program.  By using this program,
 the user acknowledges that Gaussian, Inc. is engaged in the
 business of creating and licensing software in the field of
 computational chemistry and represents and warrants to the
 licensee that it is not a competitor of Gaussian, Inc. and that
 it will not use this program in any manner prohibited above.
 ---------------------------------------------------------------
  

 Cite this work as:
 Gaussian 16, Revision A.03,
 M. J. Frisch, G. W. Trucks, H. B. Schlegel, G. E. Scuseria, 
 M. A. Robb, J. R. Cheeseman, G. Scalmani, V. Barone, 
 G. A. Petersson, H. Nakatsuji, X. Li, M. Caricato, A. V. Marenich, 
 J. Bloino, B. G. Janesko, R. Gomperts, B. Mennucci, H. P. Hratchian, 
 J. V. Ortiz, A. F. Izmaylov, J. L. Sonnenberg, D. Williams-Young, 
 F. Ding, F. Lipparini, F. Egidi, J. Goings, B. Peng, A. Petrone, 
 T. Henderson, D. Ranasinghe, V. G. Zakrzewski, J. Gao, N. Rega, 
 G. Zheng, W. Liang, M. Hada, M. Ehara, K. Toyota, R. Fukuda, 
 J. Hasegawa, M. Ishida, T. Nakajima, Y. Honda, O. Kitao, H. Nakai, 
 T. Vreven, K. Throssell, J. A. Montgomery, Jr., J. E. Peralta, 
 F. Ogliaro, M. J. Bearpark, J. J. Heyd, E. N. Brothers, K. N. Kudin, 
 V. N. Staroverov, T. A. Keith, R. Kobayashi, J. Normand, 
 K. Raghavachari, A. P. Rendell, J. C. Burant, S. S. Iyengar, 
 J. Tomasi, M. Cossi, J. M. Millam, M. Klene, C. Adamo, R. Cammi, 
 J. W. Ochterski, R. L. Martin, K. Morokuma, O. Farkas, 
 J. B. Foresman, and D. J. Fox, Gaussian, Inc., Wallingford CT, 2016.
 
 ******************************************
 Gaussian 16:  ES64L-G16RevA.03 25-Dec-2016
                18-Jan-2024 
 ******************************************
 %chk=Gau-1933450_H.chk
 %nprocshared=12
 Will use up to   12 processors via shared memory.
 %mem=48GB
 -------------------------------------------------
 # am1 freq=noraman iop(7/33=1) symm=none units=au
 -------------------------------------------------
 1/10=4,20=1,30=1,38=1/1,3;
 2/12=2,15=3,17=6,18=5,40=1/2;
 3/5=2,25=1,41=700000,71=2,140=1/1,2,3;
 4/35=1/1;
 5/5=2,35=1,38=5,98=1/2;
 8/6=4,10=90,11=11/1;
 11/6=1,8=1,9=11,15=111,16=1,31=1/1,2,10;
 10/6=1,31=1/2;
 6/7=2,8=2,9=2,10=2,28=1/1;
 7/8=1,10=1,25=1,30=1,33=1/1,2,3,16;
 1/10=4,30=1/3;
 99//99;
 ----------------
 FREQ part at am1
 ----------------
 Symbolic Z-matrix:
 Charge =  0 Multiplicity = 1
 8                     2.75269   2.17354  -0.31481 
 6                    -0.55776   2.80569   1.13497 
 6                     1.09098  -2.47519   1.84996 
 6                    -1.85266   0.40454   1.66508 
 6                     3.35915   0.21883  -1.41548 
 6                     2.5652   -2.29457  -0.46907 
 1                     4.45216   0.20014  -3.18913 
 1                     1.97284  -1.55133   3.47718 
 1                     2.63062  -3.86239  -1.78079 
 1                     0.1454    3.87122   2.74536 
 1                    -1.147     3.85566  -0.53603 
 1                    -2.37139   0.09194   3.63168 
 6                    -3.68995  -0.62215  -0.21545 
 8                    -3.52691  -0.26632  -2.49566 
 1                     0.23462  -4.30971   2.22028 
 1                    -5.21327  -1.77621   0.61512 
 

 GradGradGradGradGradGradGradGradGradGradGradGradGradGradGradGradGradGrad
 Berny optimization.
 Initialization pass.
 Trust Radius=3.00D-01 FncErr=1.00D-07 GrdErr=1.00D-07 EigMax=2.50D+02 EigMin=1.00D-04
 Number of steps in this run=      2 maximum allowed number of steps=      2.
 GradGradGradGradGradGradGradGradGradGradGradGradGradGradGradGradGradGrad

                          Input orientation:                          
 ---------------------------------------------------------------------
 Center     Atomic      Atomic             Coordinates (Angstroms)
 Number     Number       Type             X           Y           Z
 ---------------------------------------------------------------------
      1          8           0        1.456663    1.150187   -0.166589
      2          6           0       -0.295156    1.484708    0.600602
      3          6           0        0.577324   -1.309812    0.978956
      4          6           0       -0.980385    0.214072    0.881122
      5          6           0        1.777583    0.115798   -0.749039
      6          6           0        1.357444   -1.214233   -0.248222
      7          1           0        2.355984    0.105909   -1.687615
      8          1           0        1.043980   -0.820927    1.840043
      9          1           0        1.392065   -2.043889   -0.942352
     10          1           0        0.076943    2.048562    1.452780
     11          1           0       -0.606967    2.040330   -0.283653
     12          1           0       -1.254887    0.048655    1.921800
     13          6           0       -1.952636   -0.329229   -0.114011
     14          8           0       -1.866360   -0.140930   -1.320646
     15          1           0        0.124155   -2.280601    1.174920
     16          1           0       -2.758742   -0.939929    0.325510
 ---------------------------------------------------------------------
                    Distance matrix (angstroms):
                    1          2          3          4          5
     1  O    0.000000
     2  C    1.941483   0.000000
     3  C    2.852562   2.951900   0.000000
     4  C    2.813043   1.470627   2.181341   0.000000
     5  C    1.229715   2.826959   2.541447   3.205226   0.000000
     6  C    2.367909   3.276564   1.457288   2.963261   1.481997
     7  H    2.052514   3.763717   3.504069   4.212062   1.102529
     8  H    2.842916   2.940315   1.094645   2.467550   2.849381
     9  H    3.287569   4.204571   2.212261   3.748595   2.202327
    10  H    2.309341   1.087472   3.428347   2.193190   3.387589
    11  H    2.250472   1.089885   3.770965   2.198035   3.099434
    12  H    3.595448   2.174602   2.468073   1.088910   4.041506
    13  C    3.716820   2.558960   2.925204   1.493566   3.809967
    14  O    3.747174   2.966913   3.553315   2.399742   3.697427
    15  H    3.917337   3.831868   1.089126   2.744033   3.489723
    16  H    4.730792   3.467535   3.419524   2.191570   4.779903
                    6          7          8          9         10
     6  C    0.000000
     7  H    2.193561   0.000000
     8  H    2.147975   3.876177   0.000000
     9  H    1.082287   2.471071   3.059170   0.000000
    10  H    3.896013   4.339355   3.052720   4.920809   0.000000
    11  H    3.801624   3.806858   3.927149   4.594656   1.866280
    12  H    3.623280   5.105834   2.459197   4.425886   2.448138
    13  C    3.428976   4.607578   3.611067   3.848796   3.496843
    14  O    3.563003   4.245443   4.349992   3.792321   4.032640
    15  H    2.164134   4.344030   1.849085   2.479207   4.338327
    16  H    4.165022   5.595255   4.094957   4.478326   4.271174
                   11         12         13         14         15
    11  H    0.000000
    12  H    3.041479   0.000000
    13  C    2.730277   2.184989   0.000000
    14  O    2.723842   3.305042   1.224283   0.000000
    15  H    4.618703   2.808028   3.127660   3.842941   0.000000
    16  H    3.726011   2.405623   1.102697   2.035824   3.290896
                   16
    16  H    0.000000
 Symmetry turned off by external request.
 Stoichiometry    C6H8O2
 Rotational constants (GHZ):           2.7622736           1.6518644           1.4942764
 Standard basis: VSTO-6G (5D, 7F)
    40 basis functions,   240 primitive gaussians,    40 cartesian basis functions
    22 alpha electrons       22 beta electrons
       nuclear repulsion energy       224.5431099901 Hartrees.
 Integral buffers will be    131072 words long.
 Regular integral format.
 Two-electron integral symmetry is turned off.
 Do NDO integrals.
 One-electron integrals computed using PRISM.
 NBasis=    40 RedAO= F EigKep=  0.00D+00  NBF=    40
 NBsUse=    40 1.00D-04 EigRej=  0.00D+00 NBFU=    40
 Simple Huckel Guess.
 Keep J ints in memory in canonical form, NReq=863363.
 Overlap will be assumed to be unity.
 Requested convergence on RMS density matrix=1.00D-08 within 128 cycles.
 Requested convergence on MAX density matrix=1.00D-06.
 Requested convergence on             energy=1.00D-06.
 No special actions if energy rises.
 SCF Done:  E(RAM1) =  0.320534255507E-01 A.U. after   17 cycles
            NFock= 16  Conv=0.86D-08     -V/T= 1.0004
 Range of M.O.s used for correlation:     1    40
 NBasis=    40 NAE=    22 NBE=    22 NFC=     0 NFV=     0
 NROrb=     40 NOA=    22 NOB=    22 NVA=    18 NVB=    18
 Symmetrizing basis deriv contribution to polar:
 IMax=3 JMax=2 DiffMx= 0.00D+00
 G2DrvN: will do    17 centers at a time, making    1 passes.
 Calling FoFCou, ICntrl=  3107 FMM=F I1Cent=   0 AccDes= 0.00D+00.
 End of G2Drv F.D. properties file   721 does not exist.
 End of G2Drv F.D. properties file   722 does not exist.
 End of G2Drv F.D. properties file   788 does not exist.
          IDoAtm=1111111111111111
          Differentiating once with respect to electric field.
                with respect to dipole field.
          Differentiating once with respect to nuclear coordinates.
          Electric field/nuclear overlap derivatives assumed to be zero.
 Keep J ints in memory in canonical form, NReq=864914.
          There are    51 degrees of freedom in the 1st order CPHF.  IDoFFX=5 NUNeed=    51.
 LinEq1:  Iter=  0 NonCon=    51 RMS=3.13D-01 Max=4.03D+00 NDo=    51
 AX will form    51 AO Fock derivatives at one time.
 LinEq1:  Iter=  1 NonCon=    51 RMS=6.03D-02 Max=3.20D-01 NDo=    51
 LinEq1:  Iter=  2 NonCon=    51 RMS=1.44D-02 Max=1.16D-01 NDo=    51
 LinEq1:  Iter=  3 NonCon=    51 RMS=3.38D-03 Max=2.50D-02 NDo=    51
 LinEq1:  Iter=  4 NonCon=    51 RMS=5.80D-04 Max=3.82D-03 NDo=    51
 LinEq1:  Iter=  5 NonCon=    51 RMS=1.46D-04 Max=1.82D-03 NDo=    51
 LinEq1:  Iter=  6 NonCon=    51 RMS=3.17D-05 Max=2.40D-04 NDo=    51
 LinEq1:  Iter=  7 NonCon=    51 RMS=5.25D-06 Max=2.85D-05 NDo=    51
 LinEq1:  Iter=  8 NonCon=    41 RMS=8.33D-07 Max=5.17D-06 NDo=    51
 LinEq1:  Iter=  9 NonCon=     4 RMS=1.37D-07 Max=1.01D-06 NDo=    51
 LinEq1:  Iter= 10 NonCon=     3 RMS=2.54D-08 Max=1.87D-07 NDo=    51
 LinEq1:  Iter= 11 NonCon=     0 RMS=3.99D-09 Max=1.98D-08 NDo=    51
 Linear equations converged to 1.000D-08 1.000D-07 after    11 iterations.
 Isotropic polarizability for W=    0.000000       70.81 Bohr**3.
 End of Minotr F.D. properties file   721 does not exist.
 End of Minotr F.D. properties file   722 does not exist.
 End of Minotr F.D. properties file   788 does not exist.

 **********************************************************************

            Population analysis using the SCF density.

 **********************************************************************

 Alpha  occ. eigenvalues --   -1.45234  -1.42881  -1.22407  -1.16966  -0.95395
 Alpha  occ. eigenvalues --   -0.94654  -0.78166  -0.72180  -0.63925  -0.63903
 Alpha  occ. eigenvalues --   -0.58921  -0.58059  -0.55418  -0.53629  -0.52128
 Alpha  occ. eigenvalues --   -0.51145  -0.48645  -0.47510  -0.40487  -0.38918
 Alpha  occ. eigenvalues --   -0.37619  -0.31289
 Alpha virt. eigenvalues --   -0.00958   0.00110   0.05575   0.08549   0.12293
 Alpha virt. eigenvalues --    0.13190   0.14885   0.15319   0.15602   0.15678
 Alpha virt. eigenvalues --    0.15974   0.17064   0.17421   0.17992   0.18512
 Alpha virt. eigenvalues --    0.19528   0.24362   0.24495
          Condensed to atoms (all electrons):
               1          2          3          4          5          6
     1  O    6.306131   0.000000   0.000000   0.000000   0.000000   0.000000
     2  C    0.000000   3.956705   0.000000   0.000000   0.000000   0.000000
     3  C    0.000000   0.000000   4.025641   0.000000   0.000000   0.000000
     4  C    0.000000   0.000000   0.000000   4.371618   0.000000   0.000000
     5  C    0.000000   0.000000   0.000000   0.000000   3.816779   0.000000
     6  C    0.000000   0.000000   0.000000   0.000000   0.000000   4.356873
     7  H    0.000000   0.000000   0.000000   0.000000   0.000000   0.000000
     8  H    0.000000   0.000000   0.000000   0.000000   0.000000   0.000000
     9  H    0.000000   0.000000   0.000000   0.000000   0.000000   0.000000
    10  H    0.000000   0.000000   0.000000   0.000000   0.000000   0.000000
    11  H    0.000000   0.000000   0.000000   0.000000   0.000000   0.000000
    12  H    0.000000   0.000000   0.000000   0.000000   0.000000   0.000000
    13  C    0.000000   0.000000   0.000000   0.000000   0.000000   0.000000
    14  O    0.000000   0.000000   0.000000   0.000000   0.000000   0.000000
    15  H    0.000000   0.000000   0.000000   0.000000   0.000000   0.000000
    16  H    0.000000   0.000000   0.000000   0.000000   0.000000   0.000000
               7          8          9         10         11         12
     1  O    0.000000   0.000000   0.000000   0.000000   0.000000   0.000000
     2  C    0.000000   0.000000   0.000000   0.000000   0.000000   0.000000
     3  C    0.000000   0.000000   0.000000   0.000000   0.000000   0.000000
     4  C    0.000000   0.000000   0.000000   0.000000   0.000000   0.000000
     5  C    0.000000   0.000000   0.000000   0.000000   0.000000   0.000000
     6  C    0.000000   0.000000   0.000000   0.000000   0.000000   0.000000
     7  H    0.885981   0.000000   0.000000   0.000000   0.000000   0.000000
     8  H    0.000000   0.888064   0.000000   0.000000   0.000000   0.000000
     9  H    0.000000   0.000000   0.863179   0.000000   0.000000   0.000000
    10  H    0.000000   0.000000   0.000000   0.880633   0.000000   0.000000
    11  H    0.000000   0.000000   0.000000   0.000000   0.868448   0.000000
    12  H    0.000000   0.000000   0.000000   0.000000   0.000000   0.870302
    13  C    0.000000   0.000000   0.000000   0.000000   0.000000   0.000000
    14  O    0.000000   0.000000   0.000000   0.000000   0.000000   0.000000
    15  H    0.000000   0.000000   0.000000   0.000000   0.000000   0.000000
    16  H    0.000000   0.000000   0.000000   0.000000   0.000000   0.000000
              13         14         15         16
     1  O    0.000000   0.000000   0.000000   0.000000
     2  C    0.000000   0.000000   0.000000   0.000000
     3  C    0.000000   0.000000   0.000000   0.000000
     4  C    0.000000   0.000000   0.000000   0.000000
     5  C    0.000000   0.000000   0.000000   0.000000
     6  C    0.000000   0.000000   0.000000   0.000000
     7  H    0.000000   0.000000   0.000000   0.000000
     8  H    0.000000   0.000000   0.000000   0.000000
     9  H    0.000000   0.000000   0.000000   0.000000
    10  H    0.000000   0.000000   0.000000   0.000000
    11  H    0.000000   0.000000   0.000000   0.000000
    12  H    0.000000   0.000000   0.000000   0.000000
    13  C    3.786598   0.000000   0.000000   0.000000
    14  O    0.000000   6.308264   0.000000   0.000000
    15  H    0.000000   0.000000   0.896939   0.000000
    16  H    0.000000   0.000000   0.000000   0.917846
 Mulliken charges:
               1
     1  O   -0.306131
     2  C    0.043295
     3  C   -0.025641
     4  C   -0.371618
     5  C    0.183221
     6  C   -0.356873
     7  H    0.114019
     8  H    0.111936
     9  H    0.136821
    10  H    0.119367
    11  H    0.131552
    12  H    0.129698
    13  C    0.213402
    14  O   -0.308264
    15  H    0.103061
    16  H    0.082154
 Sum of Mulliken charges =  -0.00000
 Mulliken charges with hydrogens summed into heavy atoms:
               1
     1  O   -0.306131
     2  C    0.294214
     3  C    0.189357
     4  C   -0.241919
     5  C    0.297239
     6  C   -0.220052
    13  C    0.295556
    14  O   -0.308264
 APT charges:
               1
     1  O   -0.482555
     2  C    0.225279
     3  C    0.540525
     4  C   -0.927868
     5  C    0.530958
     6  C   -0.710658
     7  H    0.090554
     8  H    0.002862
     9  H    0.128401
    10  H    0.075738
    11  H    0.091610
    12  H    0.137839
    13  C    0.870976
    14  O   -0.633140
    15  H    0.061229
    16  H   -0.001746
 Sum of APT charges =   0.00000
 APT charges with hydrogens summed into heavy atoms:
               1
     1  O   -0.482555
     2  C    0.392626
     3  C    0.604616
     4  C   -0.790029
     5  C    0.621512
     6  C   -0.582257
    13  C    0.869230
    14  O   -0.633140
 Charge=              0.0000 electrons
 Dipole moment (field-independent basis, Debye):
    X=             -0.1483    Y=             -0.5343    Z=              2.4494  Tot=              2.5114
 N-N= 2.245431099901D+02 E-N=-3.292201642446D+02  KE=-8.841237758929D+01
  Exact polarizability:  74.695   0.583  74.009 -16.783   1.556  63.737
 Approx polarizability:  53.311   0.530  63.903 -17.801   0.394  53.743
 SCFChk:  SCF convergence  8.56D-09 required  1.00D-08
 Use density number 0.
  NNHCO=     0 NNPyr=     0 NCTC=     0               EPep=         0.000000000
    EC=       165.684120692  ECS=         2.623262636   EG=         0.524910632
   EHC=         0.000000000  EAt=       -53.222767539  AtH=         2.488048490
 EPDDG=         0.000000000  ECC=       168.832293961 EAtT=        55.710816029
 Entering OneElI...
 Calculate overlap and kinetic energy integrals
    NBasis =  40  MinDer = 2  MaxDer = 2
 Requested accuracy = 0.1000D-12
 PrmmSu-InSpLW:  IPartL=    0 NPrtUS=   12 NPrtUL=    1 DoSpLW=F IThBeg=    0 IThEnd=   11 NThAct=   12.
 PrsmSu:  NPrtUS=  12 ThrOK=T IAlg=1 NPAlg=1 LenDen=           0 ISkipM=0 DoSpLW=F IThBeg=    0 IThEnd=   11.
 Prism:   IPart=     0 DynPar=F LinDyn=F Incr=           1.
 PRISM was handed   536780216 working-precision words and   300 shell-pairs
 PRISM was handed   536780216 working-precision words and   300 shell-pairs
 PRISM was handed   536780216 working-precision words and   300 shell-pairs
 PRISM was handed   536780216 working-precision words and   300 shell-pairs
 PRISM was handed   536780216 working-precision words and   300 shell-pairs
 PRISM was handed   536780216 working-precision words and   300 shell-pairs
 PRISM was handed   536780216 working-precision words and   300 shell-pairs
 PRISM was handed   536780216 working-precision words and   300 shell-pairs
 PRISM was handed   536780216 working-precision words and   300 shell-pairs
 PRISM was handed   536780216 working-precision words and   300 shell-pairs
 PRISM was handed   536780216 working-precision words and   300 shell-pairs
 PRISM was handed   536780216 working-precision words and   300 shell-pairs
 IPart=  8 NShTot=          17 NBatch=          14 AvBLen=         1.2
 IPart= 11 NShTot=          13 NBatch=          10 AvBLen=         1.3
 IPart=  6 NShTot=          21 NBatch=          18 AvBLen=         1.2
 IPart=  9 NShTot=          17 NBatch=          14 AvBLen=         1.2
 IPart=  7 NShTot=          20 NBatch=          17 AvBLen=         1.2
 IPart= 10 NShTot=          16 NBatch=          13 AvBLen=         1.2
 IPart=  4 NShTot=          23 NBatch=          20 AvBLen=         1.2
 IPart=  5 NShTot=          22 NBatch=          19 AvBLen=         1.2
 IPart=  3 NShTot=          29 NBatch=          22 AvBLen=         1.3
 IPart=  1 NShTot=          40 NBatch=          30 AvBLen=         1.3
 IPart=  2 NShTot=          31 NBatch=          22 AvBLen=         1.4
 IPart=  0 NShTot=          51 NBatch=          39 AvBLen=         1.3
 PrSmSu:  NxtVal=             13.
 Use density number 0.
 Entering OneElI...
 Calculate potential energy integrals
    NBasis =  40  MinDer = 2  MaxDer = 2
 Requested accuracy = 0.1000D-12
 PrmmSu-InSpLW:  IPartL=    0 NPrtUS=   12 NPrtUL=    1 DoSpLW=F IThBeg=    0 IThEnd=   11 NThAct=   12.
 PrsmSu:  NPrtUS=  12 ThrOK=T IAlg=1 NPAlg=1 LenDen=           0 ISkipM=0 DoSpLW=F IThBeg=    0 IThEnd=   11.
 Prism:   IPart=     0 DynPar=F LinDyn=F Incr=           1.
 PRISM was handed   536858422 working-precision words and    16 shell-pairs
 PRISM was handed   536858422 working-precision words and    16 shell-pairs
 PRISM was handed   536858422 working-precision words and    16 shell-pairs
 PRISM was handed   536858422 working-precision words and    16 shell-pairs
 PRISM was handed   536858422 working-precision words and    16 shell-pairs
 PRISM was handed   536858422 working-precision words and    16 shell-pairs
 PRISM was handed   536858422 working-precision words and    16 shell-pairs
 PRISM was handed   536858422 working-precision words and    16 shell-pairs
 PRISM was handed   536858422 working-precision words and    16 shell-pairs
 PRISM was handed   536858422 working-precision words and    16 shell-pairs
 PRISM was handed   536858422 working-precision words and    16 shell-pairs
 PRISM was handed   536858422 working-precision words and    16 shell-pairs
 IPart=  8 NShTot=           0 NBatch=           0 AvBLen=         0.0
 IPart= 10 NShTot=           0 NBatch=           0 AvBLen=         0.0
 IPart=  9 NShTot=           0 NBatch=           0 AvBLen=         0.0
 IPart= 11 NShTot=           0 NBatch=           0 AvBLen=         0.0
 IPart=  0 NShTot=          32 NBatch=           2 AvBLen=        16.0
 IPart=  6 NShTot=          32 NBatch=           2 AvBLen=        16.0
 IPart=  1 NShTot=          32 NBatch=           2 AvBLen=        16.0
 IPart=  4 NShTot=          32 NBatch=           2 AvBLen=        16.0
 IPart=  3 NShTot=          32 NBatch=           2 AvBLen=        16.0
 IPart=  7 NShTot=          32 NBatch=           2 AvBLen=        16.0
 IPart=  2 NShTot=          32 NBatch=           2 AvBLen=        16.0
 IPart=  5 NShTot=          32 NBatch=           2 AvBLen=        16.0
 PrSmSu:  NxtVal=             13.
 Polarizability after L701:
                1             2             3 
      1  0.746945D+02
      2  0.582628D+00  0.740089D+02
      3 -0.167831D+02  0.155580D+01  0.637372D+02
 Dipole Derivatives after L701:
                 1             2             3             4             5 
      1  -0.441567D+00 -0.191910D+00 -0.168049D+00  0.243504D+00 -0.176757D+00
      2  -0.201190D+00 -0.677096D+00 -0.234390D+00  0.481883D+00  0.395395D+00
      3   0.784745D-01  0.132632D+00 -0.329001D+00 -0.890771D-02  0.109978D+00
                 6             7             8             9            10 
      1  -0.745874D-01  0.967607D+00 -0.651549D+00 -0.358241D+00 -0.130377D+01
      2  -0.110328D+00 -0.317780D+00  0.339603D+00 -0.714507D-01 -0.541584D-01
      3   0.369372D-01 -0.145288D+00  0.736419D-01  0.314364D+00 -0.347091D-01
                11            12            13            14            15 
      1   0.485666D+00 -0.293303D+00  0.389799D+00  0.772127D+00 -0.438765D-01
      2  -0.108155D+01  0.289179D-01 -0.171380D+00  0.781391D+00  0.109527D+00
      3  -0.326867D+00 -0.398275D+00 -0.191934D+00 -0.559773D+00  0.421684D+00
                16            17            18            19            20 
      1  -0.949937D+00 -0.442848D+00  0.598775D+00  0.163010D+00  0.106760D-01
      2   0.156906D+00 -0.452153D+00  0.431011D-01  0.840437D-01  0.187922D-01
      3   0.153852D+00  0.373586D+00 -0.729884D+00 -0.126566D-01  0.252487D-01
                21            22            23            24            25 
      1   0.111274D-01 -0.481026D-01  0.877343D-01 -0.819580D-02  0.955172D-01
      2   0.743153D-01  0.750889D-02 -0.390245D-01  0.691668D-02 -0.749238D-01
      3   0.898598D-01  0.547784D-01  0.457953D-01  0.957125D-01  0.570793D-01
                26            27            28            29            30 
      1  -0.580701D-01 -0.115787D-01  0.462769D-01 -0.130634D-01 -0.185169D-02
      2   0.161563D+00  0.494714D-01  0.617996D-01  0.923229D-01  0.112467D+00
      3   0.445223D-01  0.128122D+00  0.577824D-01  0.408609D-01  0.886146D-01
                31            32            33            34            35 
      1   0.812866D-01 -0.322401D-01  0.260439D-01  0.127423D+00 -0.894819D-01
      2  -0.498403D-01  0.114734D+00 -0.135835D+00 -0.117477D+00  0.161508D+00
      3  -0.307262D-01 -0.196865D-01  0.788081D-01 -0.276685D-01 -0.536355D-02
                36            37            38            39            40 
      1  -0.105643D+00  0.101011D+01  0.466798D+00  0.100292D+01 -0.465008D+00
      2  -0.628619D-02  0.244466D+00  0.417210D+00  0.174325D+00 -0.662595D-01
      3   0.124585D+00  0.161440D+00  0.320671D-01  0.118561D+01 -0.148950D-01
                41            42            43            44            45 
      1  -0.609787D-01 -0.516629D+00  0.875798D-01 -0.247473D-01  0.497961D-02
      2  -0.351659D+00 -0.268035D-01  0.421961D-01  0.950523D-01  0.739466D-03
      3   0.977709D-01 -0.108275D+01 -0.608979D-01 -0.332803D-01  0.105531D-02
                46            47            48 
      1  -0.368708D-02 -0.813231D-01 -0.619365D-01
      2  -0.257509D-01  0.239209D-01 -0.146834D-01
      3  -0.357226D-01 -0.311734D-01 -0.254730D-01
 Hessian after L701:
                1             2             3             4             5 
      1  0.336471D+00
      2 -0.143742D+00  0.876571D+00
      3  0.471640D+00  0.500358D-01  0.139274D+01
      4  0.343227D+00 -0.233985D+00 -0.336103D+00  0.321447D+00
      5 -0.107743D+00 -0.334037D+00  0.334132D-01  0.265166D-01  0.764271D+00
      6 -0.298374D+00  0.101560D+00 -0.179272D+00  0.389037D+00 -0.177509D+00
      7 -0.148228D+00  0.155165D+00  0.116833D-01  0.260256D-01 -0.211285D-01
      8  0.121118D+00  0.842754D-01 -0.148333D+00 -0.992078D-01  0.669458D-01
      9 -0.200636D-01 -0.151525D+00 -0.104917D+00 -0.254504D-01 -0.310421D-01
     10  0.138729D+00  0.924694D-01 -0.136012D+00 -0.324755D+00  0.562910D-01
     11  0.343992D-01 -0.874960D-02  0.201622D-01  0.197436D+00 -0.165027D+00
     12 -0.110608D+00 -0.565399D-01 -0.106301D+00 -0.301621D-01 -0.343405D-01
     13 -0.650581D+00  0.436415D-01  0.278168D-01  0.457001D-01 -0.529312D-01
     14 -0.791869D-01 -0.593751D+00  0.464950D-01  0.834738D-01 -0.551792D-02
     15  0.318349D-02 -0.488262D-01 -0.625466D+00 -0.388565D-01  0.434584D-01
     16 -0.176237D+00 -0.249869D-01 -0.289095D-01 -0.640356D-01 -0.749305D-01
     17  0.509213D-01  0.165104D+00 -0.296911D-01 -0.111791D+00  0.324392D-01
     18 -0.389043D-01  0.683348D-01 -0.153792D+00  0.387266D-01  0.500611D-01
     19 -0.372180D-01 -0.197112D-01 -0.251940D-01  0.343840D-02 -0.634310D-02
     20 -0.649407D-02 -0.411467D-01  0.178423D-01 -0.134184D-01 -0.651306D-02
     21 -0.227769D-01  0.357504D-01 -0.111878D-01 -0.133904D-01  0.435886D-02
     22 -0.229566D-01  0.747528D-03 -0.140921D-01 -0.165226D-01 -0.179514D-01
     23  0.307790D-02  0.150562D-01 -0.349852D-01 -0.664933D-02  0.122026D-01
     24 -0.693617D-02 -0.412363D-01  0.795759D-02  0.587223D-02 -0.141419D-01
     25 -0.117799D-01 -0.750843D-02 -0.306282D-02 -0.931403D-02 -0.790921D-02
     26 -0.955548D-03  0.270634D-01  0.154958D-01 -0.480870D-02  0.638922D-02
     27  0.434134D-02  0.113547D-01 -0.186696D-01 -0.633712D-02  0.377992D-02
     28 -0.105708D-01 -0.211257D-01 -0.434914D-01 -0.139194D+00 -0.345643D-01
     29 -0.254027D-01 -0.371687D-01  0.286883D-01 -0.375736D-01 -0.173133D+00
     30 -0.478183D-01  0.283351D-01  0.425725D-02 -0.595799D-01 -0.817209D-01
     31  0.359681D-01 -0.307732D-01  0.130634D-01 -0.116605D+00  0.335790D-01
     32 -0.361688D-01 -0.409315D-01 -0.513833D-02  0.219519D-01 -0.171211D+00
     33  0.982537D-02 -0.637441D-02 -0.550662D-01 -0.480648D-01  0.788854D-01
     34  0.101451D-02  0.181606D-01 -0.122334D-01 -0.100547D-01  0.184469D-01
     35  0.169715D-01 -0.199318D-01 -0.131482D-01  0.232634D-03 -0.180113D-01
     36 -0.194944D-01 -0.790180D-02 -0.147779D-02 -0.123396D-01 -0.203841D-01
     37  0.796461D-01  0.639167D-01  0.126923D-02 -0.182785D-01  0.893672D-01
     38  0.666341D-01 -0.378179D-01 -0.246543D-02  0.773104D-01 -0.259520D-02
     39  0.641856D-02 -0.390582D-02 -0.607947D-01  0.235861D-01  0.330186D-01
     40  0.121939D+00  0.875749D-01  0.800429D-01 -0.339824D-01  0.884729D-01
     41  0.882348D-01 -0.667006D-01  0.315633D-01  0.878475D-01 -0.250047D-01
     42  0.768027D-01  0.316960D-01 -0.727834D-01  0.111899D+00  0.114170D+00
     43 -0.963486D-02  0.122367D-01 -0.426836D-02 -0.859463D-02 -0.251945D-02
     44  0.111186D-01  0.145067D-01 -0.978570D-02 -0.234139D-02  0.132317D-01
     45 -0.475216D-02 -0.993279D-02 -0.828902D-02  0.697505D-03 -0.330177D-02
     46  0.102106D-01  0.791856D-02 -0.214828D-02  0.149873D-02  0.133473D-01
     47  0.721983D-02 -0.234376D-02 -0.148048D-03  0.150063D-01  0.556999D-02
     48 -0.248199D-02 -0.825162D-03 -0.693970D-02  0.464339D-03  0.129392D-02
                6             7             8             9            10 
      6  0.130086D+01
      7 -0.324501D-01  0.635726D+00
      8  0.227235D-02  0.396159D+00  0.715591D+00
      9 -0.526202D-01  0.137354D+00  0.291743D+00  0.998789D+00
     10 -0.999357D-02  0.521847D-01 -0.212007D+00 -0.467354D-02  0.594471D+00
     11 -0.908169D-01 -0.285333D+00  0.650088D-01  0.287457D-01  0.713805D-01
     12 -0.355987D+00  0.290022D-01 -0.236324D-01 -0.182375D+00 -0.646487D-01
     13 -0.686670D-01 -0.750403D-01  0.546253D-01 -0.519303D-01  0.637189D-01
     14 -0.294168D-01 -0.430491D-01  0.226034D-01 -0.209750D-01  0.286065D-01
     15 -0.497447D-01 -0.784691D-01 -0.535891D-01  0.452427D-02 -0.653273D-01
     16  0.155740D-03 -0.236816D+00 -0.366415D-01 -0.109128D+00  0.242386D-01
     17  0.579679D-01  0.434222D-01 -0.398524D+00 -0.366543D-01 -0.977292D-01
     18 -0.770923D-01 -0.144328D+00  0.341396D-01 -0.221312D+00 -0.368646D-01
     19 -0.853219D-02 -0.201909D-02  0.506033D-02 -0.967917D-02  0.743820D-02
     20  0.713890D-02  0.705398D-02 -0.107348D-01 -0.910362D-02 -0.559666D-03
     21  0.220558D-02 -0.716548D-02 -0.858989D-02  0.575564D-02 -0.906513D-02
     22  0.122097D-01 -0.132398D+00 -0.464076D-01 -0.695329D-01  0.361140D-02
     23 -0.169663D-01 -0.464817D-01 -0.152312D+00 -0.567041D-01 -0.123632D-01
     24 -0.819815D-02 -0.564694D-01 -0.676231D-01 -0.235240D+00  0.178376D-01
     25  0.869233D-03 -0.137011D-01 -0.156234D-02 -0.108944D-01 -0.237229D-02
     26  0.414898D-02 -0.901407D-02 -0.221757D-01  0.170877D-01 -0.953070D-02
     27 -0.200988D-02 -0.119274D-01  0.795895D-03 -0.428296D-02 -0.101972D-01
     28 -0.577080D-01 -0.126810D-01 -0.322620D-02  0.205427D-03 -0.205930D-01
     29 -0.770897D-01 -0.308068D-02  0.166549D-01  0.336936D-02  0.158067D-01
     30 -0.238702D+00  0.919655D-03  0.294091D-02 -0.110849D-01  0.998843D-02
     31 -0.525552D-01 -0.139605D-01 -0.212613D-02  0.530444D-02 -0.280648D-01
     32  0.822952D-01 -0.349105D-02  0.741058D-02 -0.793821D-02  0.956778D-02
     33 -0.246157D+00  0.543227D-02 -0.840085D-02 -0.684974D-02 -0.786547D-02
     34 -0.869663D-02 -0.689188D-02 -0.145452D-01 -0.905339D-02 -0.128240D+00
     35 -0.716114D-03 -0.126518D-01 -0.143704D-01  0.616187D-02 -0.158148D-01
     36 -0.156640D-01 -0.119320D-01  0.914086D-02 -0.189026D-01  0.389036D-01
     37  0.287272D-01  0.487155D-01 -0.422400D-01  0.578384D-01 -0.233385D+00
     38  0.291086D-01 -0.524909D-01 -0.476981D-01 -0.209115D-01  0.543014D-01
     39 -0.678865D-01  0.425396D-01 -0.986233D-02 -0.413836D-01  0.136398D+00
     40  0.105860D+00  0.199955D-01 -0.448932D-01  0.890956D-01 -0.137928D+00
     41  0.110681D+00 -0.454475D-01 -0.502701D-01 -0.428715D-01  0.247540D-01
     42  0.103906D-01  0.961851D-01 -0.496126D-01  0.876334D-02  0.134001D+00
     43  0.818111D-03 -0.159534D+00 -0.704775D-01  0.146521D-01 -0.122702D-01
     44 -0.344721D-02 -0.752868D-01 -0.271314D+00  0.313517D-01 -0.211647D-01
     45 -0.765196D-02  0.137471D-01  0.293575D-01 -0.128371D+00  0.262558D-02
     46 -0.701961D-03  0.186220D-01 -0.362762D-02  0.595661D-02  0.321727D-02
     47  0.788343D-03 -0.434599D-02 -0.110916D-01 -0.734111D-03  0.159919D-01
     48 -0.124667D-01  0.588229D-02 -0.749131D-03 -0.104960D-01  0.489071D-02
               11            12            13            14            15 
     11  0.909855D+00
     12 -0.628173D-01  0.119920D+01
     13 -0.230024D-01 -0.674490D-01  0.990860D+00
     14 -0.186033D+00  0.166630D-01 -0.100742D+00  0.105919D+01
     15 -0.154506D-01 -0.170579D-01  0.149996D+00  0.132936D+00  0.138106D+01
     16 -0.262844D-01 -0.694764D-01 -0.324594D+00  0.109855D+00 -0.212060D-02
     17  0.137405D-01  0.309807D-01  0.583454D-01 -0.868590D-01 -0.465679D-01
     18 -0.331981D-01 -0.436024D-01 -0.343958D-01 -0.165611D+00 -0.346722D+00
     19  0.393779D-03 -0.896924D-02 -0.173553D+00 -0.354924D-02  0.651324D-01
     20 -0.237505D-02 -0.759903D-04 -0.167935D-02 -0.111964D+00  0.806262D-02
     21  0.342705D-02  0.139238D-03  0.667119D-01  0.637851D-02 -0.236225D+00
     22 -0.788292D-02  0.150224D-01 -0.137879D-01  0.155569D-01 -0.873005D-02
     23 -0.293333D-01 -0.573536D-02  0.362161D-02 -0.211086D-01 -0.131665D-01
     24 -0.671946D-02 -0.197882D-01 -0.979007D-02 -0.957938D-02  0.187499D-01
     25 -0.305402D-02 -0.872063D-02 -0.256550D-01  0.157574D-01 -0.457885D-02
     26 -0.747052D-03  0.774223D-02  0.887248D-02  0.434585D-02 -0.856933D-02
     27  0.126666D-01 -0.407901D-02  0.196909D-02  0.149763D-01 -0.252283D-01
     28  0.164926D-01  0.198091D-02 -0.604147D-02 -0.108257D-01 -0.865581D-02
     29  0.416537D-02 -0.122660D-02 -0.703110D-02  0.113307D-02  0.101798D-01
     30  0.195725D-01 -0.266066D-01 -0.818343D-02  0.133049D-01  0.102926D-02
     31 -0.954932D-02  0.673545D-03  0.423253D-02 -0.271602D-01 -0.662928D-02
     32  0.660634D-02 -0.967424D-02 -0.152136D-01  0.522405D-02  0.408967D-02
     33 -0.210217D-01 -0.172788D-01 -0.297979D-02  0.605853D-02 -0.110420D-01
     34 -0.294485D-01  0.491726D-01  0.203520D-02 -0.115176D-01 -0.105508D-01
     35 -0.107840D+00  0.250251D-01  0.201136D-02  0.422653D-02  0.881923D-03
     36  0.328736D-01 -0.294498D+00 -0.883419D-02  0.758765D-03  0.152233D-02
     37  0.417835D-01  0.103145D+00  0.509026D-01  0.391117D-02 -0.157727D-01
     38 -0.314076D+00  0.536150D-01  0.992996D-02 -0.276451D-01 -0.147530D-02
     39  0.589712D-01 -0.232147D+00 -0.158595D-01 -0.373058D-02 -0.296313D-01
     40  0.240227D-01  0.141351D+00  0.105691D+00  0.105974D-01  0.268250D-01
     41 -0.190715D+00  0.534790D-01  0.110352D-01 -0.622891D-01  0.160005D-02
     42  0.551674D-01  0.150553D+00  0.275755D-01  0.492075D-02 -0.586717D-01
     43 -0.164781D-01  0.156544D-02 -0.834722D-03  0.499062D-02 -0.270700D-02
     44  0.214373D-01 -0.521113D-02  0.600048D-02  0.354238D-02 -0.126702D-01
     45 -0.491998D-02 -0.218281D-01 -0.342032D-02 -0.123662D-01 -0.316107D-02
     46  0.151230D-01  0.181210D-01  0.694761D-02  0.328351D-02 -0.273892D-02
     47 -0.159126D-01  0.117494D-01  0.251583D-02 -0.509177D-02 -0.894629D-03
     48  0.336091D-02 -0.283445D-01 -0.255959D-02 -0.811232D-03 -0.393488D-02
               16            17            18            19            20 
     16  0.787990D+00
     17  0.139457D+00  0.677536D+00
     18  0.211172D+00  0.164735D+00  0.117791D+01
     19 -0.184194D-01  0.177390D-01 -0.992715D-02  0.199204D+00
     20  0.720278D-02 -0.137272D-01 -0.917284D-02  0.147258D-02  0.201687D+00
     21 -0.128993D-01 -0.259810D-01 -0.103639D-01  0.135968D-01 -0.101830D-01
     22 -0.399360D-01 -0.366535D-02  0.847274D-02 -0.892270D-03  0.168640D-03
     23  0.516340D-02 -0.252938D-01  0.400404D-02  0.148103D-03 -0.126731D-02
     24 -0.152273D-01 -0.845890D-03  0.115222D-01 -0.145436D-02 -0.128135D-02
     25 -0.128976D+00 -0.195568D-02  0.129535D-01 -0.315504D-02  0.437919D-02
     26  0.721083D-02 -0.239483D+00 -0.990243D-01  0.443556D-02  0.423591D-02
     27  0.716944D-02 -0.104492D+00 -0.198715D+00 -0.169845D-02 -0.338855D-02
     28 -0.486336D-02 -0.580590D-02 -0.403621D-02 -0.651908D-03 -0.328952D-03
     29 -0.725734D-02  0.712086D-02  0.950885D-02 -0.863342D-03 -0.808264D-03
     30 -0.435537D-02  0.768400D-02 -0.281205D-02 -0.137861D-02  0.961785D-03
     31  0.125166D-02 -0.652778D-02 -0.496527D-02  0.156963D-02 -0.168336D-02
     32 -0.124383D-01  0.710425D-02  0.220869D-02 -0.222491D-02 -0.698215D-03
     33 -0.833413D-03 -0.154164D-02 -0.755116D-02 -0.145302D-02  0.837191D-03
     34  0.847899D-02 -0.183329D-02 -0.184519D-01  0.404575D-03  0.451656D-03
     35 -0.104969D-01 -0.114021D-01  0.119092D-01 -0.274426D-03 -0.126335D-02
     36 -0.127545D-01  0.498413D-02  0.874669D-03 -0.973003D-03  0.362045D-04
     37  0.786172D-01 -0.301798D-01 -0.108969D-01  0.587943D-02  0.103001D-02
     38 -0.330055D-01 -0.420308D-01  0.240462D-02  0.387333D-03 -0.487631D-02
     39 -0.139170D-02  0.565262D-02 -0.565076D-01 -0.575038D-02 -0.102950D-02
     40  0.959696D-01 -0.583828D-01  0.583978D-01  0.181073D-01  0.157496D-02
     41 -0.586980D-01 -0.576188D-01 -0.200907D-01  0.145024D-02 -0.991788D-02
     42  0.563029D-01 -0.230803D-01 -0.531585D-01 -0.161411D-02  0.967469D-04
     43 -0.149652D-01  0.951327D-02 -0.246681D-01 -0.941460D-03  0.552924D-03
     44  0.168830D-01 -0.213798D-01 -0.197496D-01  0.146827D-02 -0.109810D-03
     45 -0.149116D-01 -0.337344D-02 -0.118497D-01 -0.150513D-02 -0.633610D-03
     46  0.122963D-01 -0.152734D-02 -0.228483D-02  0.811063D-03  0.277077D-03
     47 -0.103130D-02 -0.672538D-02 -0.454618D-03  0.408268D-03 -0.520881D-03
     48 -0.279307D-02  0.222673D-03 -0.682404D-02 -0.601731D-03 -0.107310D-03
               21            22            23            24            25 
     21  0.266081D+00
     22 -0.175537D-02  0.213467D+00
     23 -0.103852D-02  0.775020D-01  0.232066D+00
     24  0.241896D-02  0.357525D-01  0.141096D+00  0.233170D+00
     25 -0.146392D-02 -0.183444D-02 -0.327536D-02  0.904134D-03  0.175888D+00
     26 -0.324563D-02 -0.128464D-02 -0.127159D-02  0.363405D-02  0.312379D-01
     27 -0.469476D-02  0.161147D-02  0.232110D-02  0.220891D-02  0.232736D-01
     28 -0.138814D-02 -0.219539D-02 -0.292168D-02  0.401651D-03 -0.554281D-03
     29  0.105364D-02 -0.279897D-02  0.475465D-02 -0.108797D-02 -0.619686D-03
     30  0.496228D-03  0.238894D-03 -0.879218D-03 -0.323842D-02 -0.380212D-03
     31 -0.104055D-02 -0.495934D-04 -0.201234D-02  0.115965D-02  0.857540D-04
     32  0.690405D-03 -0.178762D-02  0.106451D-02 -0.189582D-02 -0.134692D-02
     33 -0.117903D-02  0.700265D-03 -0.172211D-02 -0.357965D-03 -0.435941D-03
     34 -0.861826D-03  0.644885D-02 -0.513473D-02 -0.100207D-03  0.616584D-03
     35 -0.408153D-03 -0.489976D-02 -0.334150D-02 -0.920510D-04 -0.143329D-02
     36  0.393358D-03 -0.751331D-03  0.536225D-03 -0.559589D-02 -0.134476D-02
     37 -0.430045D-02  0.888932D-02 -0.387560D-02  0.110596D-01  0.843168D-02
     38 -0.730256D-03 -0.186785D-02 -0.976707D-02 -0.186795D-02 -0.768606D-02
     39 -0.368277D-02  0.129994D-01 -0.379528D-02 -0.200465D-02 -0.247832D-02
     40 -0.235054D-02  0.248927D-02 -0.268094D-02  0.127308D-01  0.142424D-01
     41 -0.242532D-03 -0.270457D-02 -0.849282D-02 -0.298287D-02 -0.160286D-01
     42 -0.959833D-02  0.117394D-01 -0.197814D-02  0.470760D-02  0.256966D-02
     43 -0.115785D-02 -0.660626D-02 -0.422404D-02  0.275118D-02 -0.356278D-02
     44 -0.117427D-02 -0.280943D-02 -0.114416D-01  0.454378D-02  0.170877D-02
     45 -0.155404D-03 -0.540951D-02 -0.110453D-01 -0.535755D-02 -0.631643D-02
     46 -0.692178D-03  0.227381D-02  0.105795D-03  0.150826D-02  0.164025D-02
     47 -0.673304D-04  0.850840D-04 -0.151383D-02  0.794966D-04 -0.703217D-03
     48 -0.403442D-03  0.152368D-02  0.588912D-04 -0.953980D-03 -0.894008D-03
               26            27            28            29            30 
     26  0.233747D+00
     27  0.607467D-01  0.272497D+00
     28 -0.665279D-03 -0.312389D-03  0.207760D+00
     29  0.811124D-03  0.926700D-03  0.413955D-01  0.175421D+00
     30  0.966744D-03 -0.412840D-03  0.988249D-01 -0.209470D-02  0.297622D+00
     31 -0.136213D-02  0.146652D-03 -0.442258D-02  0.295157D-02 -0.485147D-02
     32  0.132445D-02  0.217212D-03 -0.302944D-02 -0.311731D-02 -0.822795D-02
     33  0.569136D-03 -0.998412D-03 -0.179174D-02  0.768684D-02 -0.121840D-01
     34 -0.992605D-03 -0.791587D-03 -0.301723D-02  0.665982D-02 -0.728372D-03
     35 -0.417328D-03  0.536282D-03  0.711390D-02  0.275040D-02 -0.259264D-02
     36  0.967436D-03  0.115511D-03 -0.142556D-02 -0.216581D-02 -0.479372D-02
     37 -0.757629D-02 -0.334638D-02  0.284402D-02  0.791065D-02  0.570573D-02
     38 -0.331614D-02  0.204352D-02  0.650507D-02  0.535686D-03  0.946974D-02
     39  0.198886D-02 -0.536856D-02  0.588174D-02  0.990972D-02 -0.618911D-02
     40 -0.161847D-01  0.349634D-02 -0.447526D-02  0.862329D-02  0.106541D-01
     41 -0.391794D-02 -0.206077D-02  0.836157D-02 -0.168218D-02  0.115294D-01
     42 -0.204586D-02 -0.135852D-01  0.105632D-01  0.119352D-01  0.494103D-02
     43  0.140487D-02 -0.644972D-02 -0.123811D-02  0.000000D+00  0.968065D-05
     44 -0.557405D-02 -0.696286D-03 -0.770420D-04  0.232693D-02  0.169787D-03
     45 -0.677275D-03  0.418131D-02 -0.285735D-04  0.266305D-03 -0.128515D-02
     46 -0.787081D-03 -0.947758D-03 -0.106693D-03  0.128082D-02  0.934666D-03
     47 -0.101444D-02  0.271893D-03  0.270066D-02  0.234874D-03  0.580146D-03
     48  0.215119D-03 -0.957426D-03  0.979775D-03  0.139871D-03 -0.103729D-02
               31            32            33            34            35 
     31  0.145053D+00
     32 -0.887126D-02  0.148279D+00
     33  0.355689D-01 -0.749313D-01  0.397371D+00
     34 -0.122987D-02 -0.626550D-03 -0.306582D-02  0.174154D+00
     35 -0.111505D-02 -0.157557D-02 -0.310530D-02  0.169672D-01  0.217009D+00
     36 -0.988884D-03 -0.409866D-02  0.123321D-02  0.105928D-02 -0.340978D-01
     37 -0.854771D-02  0.196159D-01 -0.460454D-04 -0.220584D-01  0.552362D-02
     38  0.212056D-01  0.149274D-01 -0.343936D-02  0.523631D-02 -0.262685D-01
     39  0.944528D-03 -0.291718D-02 -0.162482D-01  0.399212D-02  0.255631D-02
     40 -0.145615D-01  0.317905D-01  0.155322D-01 -0.191990D-01 -0.148066D-02
     41  0.318043D-01  0.222970D-01  0.279738D-01 -0.109920D-02 -0.187534D-01
     42  0.146337D-01  0.268633D-01 -0.209480D-01  0.588045D-02  0.830371D-03
     43 -0.785952D-03 -0.407710D-03  0.279579D-04 -0.169788D-02 -0.414679D-02
     44 -0.525397D-03  0.155567D-02 -0.791871D-03 -0.426101D-02  0.299932D-02
     45  0.183483D-03 -0.886185D-03 -0.776352D-03 -0.148160D-02  0.237353D-02
     46  0.663064D-04  0.268038D-02 -0.550393D-03 -0.763201D-03  0.349312D-02
     47  0.216585D-02  0.174062D-02 -0.682080D-03  0.353642D-02 -0.381047D-02
     48 -0.647373D-03 -0.656902D-03 -0.196867D-02  0.591125D-02  0.388542D-02
               36            37            38            39            40 
     36  0.309309D+00
     37  0.196200D-01  0.836787D+00
     38  0.113268D-01 -0.806993D-01  0.131630D+01
     39  0.176636D-02 -0.266448D+00 -0.130761D+00  0.143306D+01
     40  0.690532D-02 -0.627628D+00  0.281454D-02  0.564407D-02  0.500883D+00
     41  0.171597D-02  0.108920D-02 -0.633471D+00  0.200427D-01 -0.132198D+00
     42  0.290361D-01  0.238147D-01  0.344521D-01 -0.768323D+00 -0.545270D+00
     43 -0.153152D-02  0.300854D-02 -0.142378D-01  0.989678D-02 -0.362488D-02
     44  0.234702D-02 -0.145627D-01  0.252338D-03 -0.863562D-02 -0.105219D-01
     45 -0.343869D-02  0.969775D-02 -0.886401D-02 -0.755169D-02  0.123064D-01
     46  0.588201D-02 -0.213823D+00 -0.543374D-01  0.436243D-01 -0.379201D-01
     47  0.396116D-02 -0.550125D-01 -0.182456D+00  0.324965D-01  0.108689D-01
     48  0.121144D-03  0.399338D-01  0.280954D-01 -0.137104D+00 -0.212218D-01
               41            42            43            44            45 
     41  0.114720D+01
     42 -0.157997D+00  0.796107D+00
     43 -0.105277D-01  0.124720D-01  0.218169D+00
     44 -0.181304D-02 -0.136177D-01  0.971642D-01  0.253399D+00
     45 -0.133739D-01  0.250518D-02 -0.318936D-02  0.382134D-01  0.195402D+00
     46  0.121258D-01 -0.375545D-01  0.311390D-02 -0.279281D-02  0.175680D-02
     47 -0.388470D-01 -0.317998D-01 -0.284253D-02 -0.161861D-02 -0.836733D-03
     48 -0.189668D-01 -0.993858D-02  0.177848D-02 -0.846262D-03 -0.237271D-02
               46            47            48 
     46  0.191915D+00
     47  0.343693D-02  0.263401D+00
     48 -0.301644D-01 -0.143098D-01  0.223620D+00
 ICntrl=    100127.
 Calling FoFJK, ICntrl=    100127 FMM=F ISym2X=0 I1Cent= 0 IOpClX= 0 NMat=1 NMatS=1 NMatT=0.
 FoFJK:  IHMeth= 8 ICntrl=  100127 DoSepK=F KAlg= 0 I1Cent=           0 FoldK=F
 IRaf=         0 NMat=       1 IRICut=       1 DoRegI=T DoRafI=F ISym2E= 0 IDoP0=3 IntGTp=3.
 FoFCou: FMM=F IPFlag=           0 FMFlag=      100000 FMFlg1=         800
         NFxFlg=           0 DoJE=F BraDBF=F KetDBF=F FulRan=T
         wScrn=  0.000000 ICntrl=    100127 IOpCl=  0 I1Cent=           0 NGrid=           0
         NMat0=    1 NMatS0=      1 NMatT0=    0 NMatD0=    1 NMtDS0=    0 NMtDT0=    0
 Symmetry not used in FoFCou.
 FoFCou:  KetSym=F NOpSet=  1 NOpAb=1 NOp=  1.
 FoFCou:  CnvScl= 1.00D+00 Thresh= 1.00D-12 IAcrcy=      10.
 FoFCou: LinMIO=F DoNuc=F BraDBF=F KetDBF=F HaveP=T PDBF=F HaveZ=T HaveW=F
         NIJTC =       3 NIJTAt=       0 NIJTCD=       0 NIJTT =       3
         IJTBeg=       1 IJTEnd=       3 KLTBeg=       1 KLTEnd=       3
         IPTBeg=       1 IPTEnd=       3 IPTBCv=       1 IPTECv=       3
         IZTBeg=       1 IZTEnd=       3 IZTBCv=       1 IZTECv=       3
         IWTBeg=       4 IWTEnd=       3 IWTBCv=       4 IWTECv=       3
         INTBeg=       1 INTEnd=       0 IFTBCv=       1 IFTECv=       3
 NCel replicated for PrismC:     1
 CoulSu-InSpLW:  IPartL=    0 NPrtUS=   12 NPrtUL=    1 DoSpLW=F IThBeg=    0 IThEnd=   11 NThAct=   12.
 CoulSu:  IncDef=  1024 NBBP=            136 NTPThr=   100 NPartT=   12 Incr=           1 LDynOK=F GPUOK=F.
 CoulSu:  NPrtUS=  12 ThrOK=T IAlg=1 NPAlg=1 LenDen=           0 LWGrdD=           0 DoCopy=F ISkipM=0
          DoSpLW=F IThBeg=    0 IThEnd=   11.
 Enter PrismC:  IPart=  0 JobTyp=22 DoJE=F Cont=F.
 PrismC:  IPart=     0 DynPar=F LinDyn=F Incr=           1 UseFst=F UseS4=T ISplat=2.
 PrismC was handed   536862604 working-precision words and    16 shell-pairs
 Enter PrismC:  IPart=  8 JobTyp=22 DoJE=F Cont=F.
 Enter PrismC:  IPart=  5 JobTyp=22 DoJE=F Cont=F.
 PrismC:  IPart=     8 DynPar=F LinDyn=F Incr=           1 UseFst=F UseS4=T ISplat=2.
 PrismC was handed   536862604 working-precision words and    16 shell-pairs
 Enter PrismC:  IPart= 11 JobTyp=22 DoJE=F Cont=F.
 PrismC:  IPart=     5 DynPar=F LinDyn=F Incr=           1 UseFst=F UseS4=T ISplat=2.
 PrismC was handed   536862604 working-precision words and    16 shell-pairs
 Enter PrismC:  IPart=  2 JobTyp=22 DoJE=F Cont=F.
 Enter PrismC:  IPart=  3 JobTyp=22 DoJE=F Cont=F.
 PrismC:  IPart=    11 DynPar=F LinDyn=F Incr=           1 UseFst=F UseS4=T ISplat=2.
 PrismC was handed   536862604 working-precision words and    16 shell-pairs
 PrismC:  IPart=     2 DynPar=F LinDyn=F Incr=           1 UseFst=F UseS4=T ISplat=2.
 PrismC was handed   536862604 working-precision words and    16 shell-pairs
 PrismC:  IPart=     3 DynPar=F LinDyn=F Incr=           1 UseFst=F UseS4=T ISplat=2.
 PrismC was handed   536862604 working-precision words and    16 shell-pairs
 Enter PrismC:  IPart=  1 JobTyp=22 DoJE=F Cont=F.
 Enter PrismC:  IPart=  4 JobTyp=22 DoJE=F Cont=F.
 PrismC:  IPart=     1 DynPar=F LinDyn=F Incr=           1 UseFst=F UseS4=T ISplat=2.
 PrismC was handed   536862604 working-precision words and    16 shell-pairs
 PrismC:  IPart=     4 DynPar=F LinDyn=F Incr=           1 UseFst=F UseS4=T ISplat=2.
 PrismC was handed   536862604 working-precision words and    16 shell-pairs
 Enter PrismC:  IPart=  7 JobTyp=22 DoJE=F Cont=F.
 PrismC:  IPart=     7 DynPar=F LinDyn=F Incr=           1 UseFst=F UseS4=T ISplat=2.
 PrismC was handed   536862604 working-precision words and    16 shell-pairs
 Enter PrismC:  IPart=  6 JobTyp=22 DoJE=F Cont=F.
 Enter PrismC:  IPart= 10 JobTyp=22 DoJE=F Cont=F.
 Enter PrismC:  IPart=  9 JobTyp=22 DoJE=F Cont=F.
 PrismC:  IPart=     6 DynPar=F LinDyn=F Incr=           1 UseFst=F UseS4=T ISplat=2.
 PrismC was handed   536862604 working-precision words and    16 shell-pairs
 PrismC:  IPart=    10 DynPar=F LinDyn=F Incr=           1 UseFst=F UseS4=T ISplat=2.
 PrismC was handed   536862604 working-precision words and    16 shell-pairs
 PrismC:  IPart=     9 DynPar=F LinDyn=F Incr=           1 UseFst=F UseS4=T ISplat=2.
 PrismC was handed   536862604 working-precision words and    16 shell-pairs
 IPart=  7 NShTot=           7 NShNF=           7 NShFF=           0 MinMC=      51
           NShCPU=           7 NBCPU=           3 AvBCPU=         2.3
           NShGPU=           0 NBGPU=           0 AvBGPU=         0.0
 IPart=  3 NShTot=          12 NShNF=          12 NShFF=           0 MinMC=      51
           NShCPU=          12 NBCPU=           3 AvBCPU=         4.0
           NShGPU=           0 NBGPU=           0 AvBGPU=         0.0
 IPart= 11 NShTot=           9 NShNF=           9 NShFF=           0 MinMC=      51
           NShCPU=           9 NBCPU=           3 AvBCPU=         3.0
           NShGPU=           0 NBGPU=           0 AvBGPU=         0.0
 IPart=  6 NShTot=          11 NShNF=          11 NShFF=           0 MinMC=      51
           NShCPU=          11 NBCPU=           3 AvBCPU=         3.7
           NShGPU=           0 NBGPU=           0 AvBGPU=         0.0
 IPart= 10 NShTot=           9 NShNF=           9 NShFF=           0 MinMC=      51
           NShCPU=           9 NBCPU=           3 AvBCPU=         3.0
           NShGPU=           0 NBGPU=           0 AvBGPU=         0.0
 IPart=  5 NShTot=          11 NShNF=          11 NShFF=           0 MinMC=      51
           NShCPU=          11 NBCPU=           3 AvBCPU=         3.7
           NShGPU=           0 NBGPU=           0 AvBGPU=         0.0
 IPart=  2 NShTot=          12 NShNF=          12 NShFF=           0 MinMC=      51
           NShCPU=          12 NBCPU=           3 AvBCPU=         4.0
           NShGPU=           0 NBGPU=           0 AvBGPU=         0.0
 IPart=  9 NShTot=          13 NShNF=          13 NShFF=           0 MinMC=      51
           NShCPU=          13 NBCPU=           3 AvBCPU=         4.3
           NShGPU=           0 NBGPU=           0 AvBGPU=         0.0
 IPart=  4 NShTot=          11 NShNF=          11 NShFF=           0 MinMC=      51
           NShCPU=          11 NBCPU=           3 AvBCPU=         3.7
           NShGPU=           0 NBGPU=           0 AvBGPU=         0.0
 IPart=  0 NShTot=          16 NShNF=          16 NShFF=           0 MinMC=      51
           NShCPU=          16 NBCPU=           3 AvBCPU=         5.3
           NShGPU=           0 NBGPU=           0 AvBGPU=         0.0
 IPart=  1 NShTot=          12 NShNF=          12 NShFF=           0 MinMC=      51
           NShCPU=          12 NBCPU=           3 AvBCPU=         4.0
           NShGPU=           0 NBGPU=           0 AvBGPU=         0.0
 IPart=  8 NShTot=          13 NShNF=          13 NShFF=           0 MinMC=      51
           NShCPU=          13 NBCPU=           3 AvBCPU=         4.3
           NShGPU=           0 NBGPU=           0 AvBGPU=         0.0
 CoulSu:  NxtVal=             13 LenVP=      536862605 MinMC=      51.
 Polarizability after L703:
                1             2             3 
      1  0.746945D+02
      2  0.582628D+00  0.740089D+02
      3 -0.167831D+02  0.155580D+01  0.637372D+02
 Dipole Derivatives after L703:
                 1             2             3             4             5 
      1  -0.441567D+00 -0.191910D+00 -0.168049D+00  0.243504D+00 -0.176757D+00
      2  -0.201190D+00 -0.677096D+00 -0.234390D+00  0.481883D+00  0.395395D+00
      3   0.784745D-01  0.132632D+00 -0.329001D+00 -0.890771D-02  0.109978D+00
                 6             7             8             9            10 
      1  -0.745874D-01  0.967607D+00 -0.651549D+00 -0.358241D+00 -0.130377D+01
      2  -0.110328D+00 -0.317780D+00  0.339603D+00 -0.714507D-01 -0.541584D-01
      3   0.369372D-01 -0.145288D+00  0.736419D-01  0.314364D+00 -0.347091D-01
                11            12            13            14            15 
      1   0.485666D+00 -0.293303D+00  0.389799D+00  0.772127D+00 -0.438765D-01
      2  -0.108155D+01  0.289179D-01 -0.171380D+00  0.781391D+00  0.109527D+00
      3  -0.326867D+00 -0.398275D+00 -0.191934D+00 -0.559773D+00  0.421684D+00
                16            17            18            19            20 
      1  -0.949937D+00 -0.442848D+00  0.598775D+00  0.163010D+00  0.106760D-01
      2   0.156906D+00 -0.452153D+00  0.431011D-01  0.840437D-01  0.187922D-01
      3   0.153852D+00  0.373586D+00 -0.729884D+00 -0.126566D-01  0.252487D-01
                21            22            23            24            25 
      1   0.111274D-01 -0.481026D-01  0.877343D-01 -0.819580D-02  0.955172D-01
      2   0.743153D-01  0.750889D-02 -0.390245D-01  0.691668D-02 -0.749238D-01
      3   0.898598D-01  0.547784D-01  0.457953D-01  0.957125D-01  0.570793D-01
                26            27            28            29            30 
      1  -0.580701D-01 -0.115787D-01  0.462769D-01 -0.130634D-01 -0.185169D-02
      2   0.161563D+00  0.494714D-01  0.617996D-01  0.923229D-01  0.112467D+00
      3   0.445223D-01  0.128122D+00  0.577824D-01  0.408609D-01  0.886146D-01
                31            32            33            34            35 
      1   0.812866D-01 -0.322401D-01  0.260439D-01  0.127423D+00 -0.894819D-01
      2  -0.498403D-01  0.114734D+00 -0.135835D+00 -0.117477D+00  0.161508D+00
      3  -0.307262D-01 -0.196865D-01  0.788081D-01 -0.276685D-01 -0.536355D-02
                36            37            38            39            40 
      1  -0.105643D+00  0.101011D+01  0.466798D+00  0.100292D+01 -0.465008D+00
      2  -0.628619D-02  0.244466D+00  0.417210D+00  0.174325D+00 -0.662595D-01
      3   0.124585D+00  0.161440D+00  0.320671D-01  0.118561D+01 -0.148950D-01
                41            42            43            44            45 
      1  -0.609787D-01 -0.516629D+00  0.875798D-01 -0.247473D-01  0.497961D-02
      2  -0.351659D+00 -0.268035D-01  0.421961D-01  0.950523D-01  0.739466D-03
      3   0.977709D-01 -0.108275D+01 -0.608979D-01 -0.332803D-01  0.105531D-02
                46            47            48 
      1  -0.368708D-02 -0.813231D-01 -0.619365D-01
      2  -0.257509D-01  0.239209D-01 -0.146834D-01
      3  -0.357226D-01 -0.311734D-01 -0.254730D-01
 Hessian after L703:
                1             2             3             4             5 
      1  0.733183D-01
      2 -0.143184D+00  0.779567D+00
      3 -0.104001D+00  0.365860D+00  0.221221D+00
      4  0.819674D-01 -0.119801D+00 -0.868759D-01  0.141236D+00
      5  0.644038D-02 -0.325542D-01 -0.140832D-01  0.105812D+00  0.530042D+00
      6 -0.491472D-01  0.540637D-01  0.355011D-01  0.202409D+00 -0.285420D-01
      7 -0.488286D-01  0.637621D-01  0.533129D-01  0.817272D-01  0.306017D-01
      8  0.297153D-01 -0.419591D-01 -0.303534D-01 -0.474777D-01 -0.254396D-01
      9  0.215659D-01 -0.335462D-01 -0.279206D-01 -0.326869D-01 -0.874684D-02
     10 -0.186262D-02 -0.236959D-01 -0.128508D-01 -0.142828D+00 -0.109163D+00
     11 -0.817662D-01  0.935152D-01  0.699134D-01  0.319823D-01 -0.214704D+00
     12  0.125531D-01 -0.678870D-02 -0.962390D-02  0.688519D-02  0.360543D-01
     13 -0.124513D+00  0.229156D+00  0.139440D+00  0.194800D-01  0.139739D-01
     14  0.106327D+00 -0.604986D+00 -0.290826D+00  0.150379D+00  0.242457D-01
     15  0.114807D+00 -0.386147D+00 -0.242763D+00  0.263238D-01  0.203014D-03
     16  0.442689D-01 -0.422026D-01 -0.304141D-01 -0.453947D-01 -0.108542D-01
     17  0.337056D-01 -0.155283D+00 -0.525967D-01 -0.477150D-01 -0.130292D-01
     18 -0.404089D-01  0.454293D-01  0.660472D-01  0.586979D-01  0.174306D-01
     19 -0.821040D-03  0.155246D-01  0.247059D-01  0.397432D-03 -0.339344D-03
     20  0.287417D-01 -0.177792D-01 -0.418269D-01 -0.741461D-02 -0.125394D-02
     21  0.271230D-01 -0.239188D-01 -0.301750D-01 -0.356306D-02 -0.795183D-03
     22  0.538415D-02 -0.725385D-02 -0.612814D-02 -0.899689D-02 -0.278132D-02
     23 -0.492348D-02  0.613496D-02  0.389725D-02  0.852070D-02  0.237634D-02
     24  0.102777D-02 -0.235386D-02 -0.846897D-03 -0.219009D-02 -0.335340D-03
     25  0.747402D-02 -0.843917D-02 -0.328422D-02 -0.599909D-02 -0.222149D-02
     26 -0.188628D-02 -0.322529D-02  0.330829D-02  0.879030D-03  0.568569D-03
     27  0.411995D-02 -0.832815D-03 -0.244005D-02 -0.386182D-02 -0.138904D-02
     28 -0.534947D-02  0.868668D-02  0.105318D-01 -0.665002D-01 -0.531814D-01
     29  0.440967D-02 -0.474041D-02 -0.590030D-02 -0.561907D-01 -0.115221D+00
     30  0.620487D-02 -0.625355D-02 -0.704366D-02 -0.888589D-01 -0.121311D+00
     31 -0.224475D-01  0.165059D-01  0.632336D-02 -0.406410D-01  0.464558D-01
     32  0.111103D-01 -0.708946D-02 -0.209963D-02  0.348286D-01 -0.113254D+00
     33  0.308533D-02 -0.333570D-02 -0.183292D-02 -0.723315D-01  0.119542D+00
     34 -0.801279D-02  0.801204D-02  0.658216D-02  0.849701D-02 -0.429974D-02
     35  0.682297D-02 -0.852121D-02 -0.537633D-02 -0.225140D-01 -0.182376D-01
     36 -0.678838D-03 -0.129897D-03 -0.289331D-03  0.815268D-02  0.104272D-01
     37 -0.411551D-03  0.207110D-02  0.335831D-02 -0.184680D-01 -0.186938D-01
     38  0.478853D-02 -0.428172D-02 -0.145472D-02 -0.307506D-01 -0.242827D-01
     39  0.850764D-02 -0.289511D-02 -0.381485D-03 -0.173367D-01 -0.116843D-01
     40  0.302343D-03 -0.320197D-03 -0.215027D-03 -0.135942D-02 -0.330617D-03
     41  0.339736D-03  0.354528D-03  0.107650D-03 -0.956009D-03 -0.106354D-02
     42 -0.345518D-02  0.240324D-03 -0.527099D-04  0.609570D-02  0.358483D-02
     43 -0.114239D-02  0.180393D-02 -0.271633D-03 -0.731432D-03 -0.853970D-04
     44  0.685835D-03 -0.675992D-04  0.605655D-03  0.926642D-04 -0.216020D-03
     45 -0.755434D-03  0.458568D-03  0.229811D-03  0.318029D-03 -0.519323D-04
     46  0.672537D-03 -0.626001D-03 -0.212147D-03 -0.238507D-02 -0.133353D-02
     47 -0.132473D-02  0.912055D-03  0.826678D-03  0.325488D-03  0.202250D-02
     48 -0.545865D-03  0.149565D-03  0.365704D-03 -0.117885D-02 -0.303679D-03
                6             7             8             9            10 
      6  0.547276D+00
      7 -0.396865D-01  0.243939D+00
      8  0.245676D-01  0.252818D+00  0.452286D+00
      9  0.159547D-01 -0.268232D-01  0.644720D-02  0.569585D+00
     10  0.270537D-01  0.325815D-01 -0.323617D-01 -0.177933D-01  0.347358D+00
     11 -0.204221D-01 -0.105687D+00  0.560149D-01  0.413000D-01  0.243250D+00
     12 -0.995320D-01  0.158824D-01 -0.110781D-01 -0.181714D-01  0.145441D-01
     13 -0.348657D-02 -0.287040D-01 -0.901531D-02  0.267441D-01  0.672370D-02
     14 -0.726721D-01 -0.106690D+00  0.495079D-01  0.699518D-01  0.323439D-01
     15 -0.176797D-01  0.205289D-03  0.373378D-01 -0.817065D-02  0.488908D-02
     16  0.201271D-01 -0.936688D-01 -0.485219D-01  0.848661D-01 -0.269690D-01
     17  0.253374D-01  0.315418D-01 -0.120172D+00 -0.167970D-01 -0.147741D-01
     18 -0.292764D-01  0.496660D-01  0.539968D-01 -0.241808D+00  0.298042D-01
     19  0.129517D-02  0.112467D-02 -0.721041D-03  0.123705D-02  0.229352D-02
     20  0.198485D-02  0.127261D-02 -0.486393D-02 -0.484496D-03 -0.237240D-03
     21  0.216566D-02  0.375074D-02  0.292426D-04 -0.159857D-03  0.241336D-03
     22  0.414738D-02 -0.661175D-01 -0.684549D-01 -0.104862D+00 -0.149570D-01
     23 -0.315974D-02 -0.685291D-01 -0.889785D-01 -0.938435D-01  0.114350D-01
     24  0.800553D-03 -0.917990D-01 -0.104762D+00 -0.213248D+00 -0.468760D-02
     25  0.334453D-02  0.824719D-02  0.762176D-02  0.134978D-01 -0.327315D-02
     26 -0.101999D-02  0.170031D-03  0.201729D-02 -0.443143D-02  0.201939D-03
     27  0.176679D-02  0.124649D-01 -0.207232D-01 -0.282190D-01 -0.225361D-02
     28 -0.869870D-01 -0.219676D-02  0.105815D-02  0.795056D-03 -0.368034D-02
     29 -0.116680D+00  0.120367D-02 -0.950262D-03 -0.571969D-03 -0.180390D-01
     30 -0.219483D+00  0.150929D-02 -0.100042D-02 -0.519946D-03 -0.376579D-03
     31 -0.768219D-01 -0.780761D-02  0.429811D-02  0.286007D-02  0.519490D-02
     32  0.122951D+00  0.293319D-02 -0.235515D-02 -0.103571D-02 -0.206579D-02
     33 -0.232380D+00  0.298790D-02 -0.149836D-02 -0.105676D-02 -0.325512D-03
     34  0.117957D-01 -0.157884D-01  0.110856D-01  0.839515D-02 -0.442716D-01
     35  0.300953D-01  0.129790D-01 -0.784289D-02 -0.682498D-02 -0.182855D-01
     36 -0.102537D-01  0.551650D-02 -0.384598D-02 -0.209516D-02  0.663283D-01
     37 -0.121956D-01 -0.158079D-01  0.104544D-01  0.148844D-03 -0.148062D+00
     38 -0.155944D-01  0.203401D-03  0.257800D-02  0.166512D-02 -0.454124D-01
     39  0.116067D-01 -0.151499D-01  0.127142D-01  0.485653D-02 -0.465962D-01
     40  0.566995D-04 -0.244203D-05 -0.540106D-04  0.351433D-03  0.764954D-02
     41  0.960285D-04 -0.608330D-03  0.289978D-03  0.260307D-03 -0.131024D-02
     42 -0.472156D-02  0.744093D-02 -0.648079D-02 -0.371021D-02 -0.446379D-01
     43  0.438635D-03 -0.892053D-01 -0.110193D+00  0.216658D-01  0.105493D-02
     44 -0.197371D-03 -0.115002D+00 -0.270310D+00  0.467218D-01 -0.461957D-03
     45 -0.263337D-04  0.207609D-01  0.447276D-01 -0.452941D-01  0.199380D-03
     46 -0.234515D-02  0.505500D-03 -0.250601D-03  0.386621D-04 -0.169507D-01
     47 -0.809254D-03 -0.968973D-03  0.175557D-03 -0.646083D-04 -0.214243D-01
     48 -0.171872D-02 -0.356530D-04 -0.796286D-04 -0.241732D-04 -0.135407D-01
               11            12            13            14            15 
     11  0.286559D+00
     12 -0.161668D-01  0.646520D+00
     13 -0.192650D-01  0.276740D-02  0.334106D+00
     14 -0.125215D+00  0.144850D-01 -0.164701D+00  0.855222D+00
     15 -0.176285D-01  0.229394D-02 -0.289056D+00  0.287622D+00  0.616349D+00
     16  0.566707D-01 -0.280759D-02 -0.885344D-01  0.650159D-02  0.359299D-01
     17  0.498316D-01 -0.941791D-02 -0.450079D-01 -0.147985D+00  0.851979D-01
     18 -0.735968D-01  0.978407D-02  0.365469D-02 -0.338457D-01 -0.129059D+00
     19  0.716205D-03  0.337228D-03 -0.116844D+00 -0.451506D-02  0.110280D+00
     20  0.451294D-02 -0.319575D-03 -0.264518D-02 -0.292321D-01  0.906915D-02
     21  0.318346D-02 -0.151498D-03  0.111860D+00  0.738505D-02 -0.226123D+00
     22  0.159153D-01 -0.750275D-02  0.399288D-03  0.118857D-01  0.158264D-02
     23 -0.124281D-01  0.553763D-02 -0.495156D-04 -0.864181D-02 -0.248306D-03
     24  0.455353D-02 -0.171378D-02  0.522620D-03  0.333880D-02 -0.467056D-03
     25  0.667861D-02 -0.776994D-03  0.379095D-02  0.270474D-02 -0.553245D-02
     26 -0.597336D-03  0.216995D-03 -0.418022D-02 -0.343142D-01 -0.143447D-01
     27  0.514133D-02 -0.863906D-03  0.101549D-02  0.920096D-02  0.603639D-02
     28 -0.173530D-01 -0.838410D-02 -0.258817D-02 -0.260372D-02  0.732449D-03
     29 -0.184916D-01 -0.193134D-01  0.119088D-02  0.248458D-02 -0.453850D-03
     30  0.148566D-02  0.442255D-02  0.120483D-02  0.267124D-02 -0.396193D-03
     31 -0.211829D-01  0.821350D-02 -0.318691D-02 -0.104400D-01 -0.249934D-02
     32 -0.146417D-01  0.265635D-01  0.150663D-02  0.508382D-02  0.786265D-03
     33  0.152161D-01 -0.459892D-02  0.115015D-02  0.275513D-02  0.147415D-02
     34 -0.319193D-01  0.765973D-01 -0.164047D-02 -0.117101D-01 -0.152850D-02
     35 -0.189541D-01  0.398437D-01  0.181893D-02  0.107779D-01  0.104939D-02
     36  0.476922D-01 -0.305240D+00  0.188085D-03  0.926230D-03  0.137034D-03
     37 -0.579303D-01 -0.798494D-01 -0.247957D-02 -0.607109D-02 -0.621468D-03
     38 -0.961242D-01 -0.458918D-01 -0.522868D-04  0.430185D-02  0.270450D-03
     39 -0.405356D-01 -0.140551D+00 -0.708201D-03 -0.198483D-02  0.753902D-03
     40 -0.204156D-02 -0.372886D-01  0.655329D-03 -0.221823D-03  0.466677D-04
     41  0.155236D-01 -0.139190D-01  0.216037D-03 -0.800425D-03 -0.137826D-03
     42 -0.122307D-01 -0.867961D-01  0.797194D-03  0.318288D-02 -0.721582D-03
     43  0.422469D-02 -0.860753D-03  0.312622D-02 -0.392705D-02  0.453687D-02
     44 -0.310721D-02  0.323828D-03 -0.291720D-02  0.896177D-03 -0.228819D-02
     45  0.614981D-03 -0.580463D-04  0.382354D-02 -0.198415D-02 -0.143029D-02
     46 -0.222933D-01 -0.310439D-03  0.209089D-03  0.738751D-03 -0.966511D-04
     47 -0.169045D-02 -0.128580D-03 -0.289337D-04 -0.134188D-02 -0.288484D-03
     48 -0.851703D-02  0.428016D-02  0.826872D-04 -0.205086D-03 -0.230343D-03
               16            17            18            19            20 
     16  0.245091D+00
     17  0.507806D-01  0.607061D+00
     18 -0.141220D+00  0.113502D+00  0.530432D+00
     19  0.125002D-02 -0.536693D-02  0.149115D-01  0.113363D+00
     20 -0.159032D-01 -0.812386D-02  0.246546D-01 -0.378740D-02  0.584379D-01
     21  0.119393D-01  0.784637D-02 -0.100886D-01 -0.151793D+00  0.675433D-02
     22 -0.349135D-02 -0.965434D-03  0.221298D-01  0.319474D-03 -0.229005D-03
     23  0.786332D-02  0.104954D-01 -0.120682D-01 -0.249542D-03  0.226426D-03
     24 -0.157023D-02 -0.169181D-01 -0.326866D-01  0.591273D-04 -0.212182D-03
     25 -0.387734D-01 -0.914452D-03  0.121809D-01  0.370062D-03 -0.411099D-03
     26  0.825205D-02 -0.211828D+00 -0.153443D+00 -0.354735D-03 -0.774772D-03
     27  0.639684D-02 -0.158910D+00 -0.153965D+00 -0.378207D-04  0.315106D-03
     28  0.969081D-03  0.613285D-03 -0.711034D-03 -0.363958D-03  0.520221D-03
     29 -0.838157D-03 -0.676363D-03  0.108986D-02 -0.141685D-04 -0.247931D-03
     30 -0.103019D-02 -0.734984D-03  0.119234D-02 -0.587647D-05 -0.208330D-03
     31  0.357939D-02  0.421110D-02 -0.508042D-02  0.342959D-03  0.308533D-03
     32 -0.169942D-02 -0.180203D-02  0.237528D-02 -0.233018D-03 -0.174347D-03
     33 -0.948558D-03 -0.137505D-02  0.127854D-02 -0.733929D-05 -0.106647D-03
     34  0.425677D-02  0.508007D-02 -0.664674D-02  0.594924D-04  0.433503D-03
     35 -0.358357D-02 -0.466392D-02  0.618942D-02 -0.292580D-03 -0.463817D-03
     36 -0.949340D-03 -0.735609D-03  0.116476D-02  0.171436D-03  0.543508D-04
     37  0.450611D-02  0.321837D-02 -0.506588D-02 -0.863502D-03 -0.114657D-03
     38  0.392651D-03 -0.993329D-03  0.824516D-03 -0.757330D-03 -0.386930D-03
     39  0.443937D-02  0.407252D-02 -0.684903D-02 -0.158376D-02 -0.609855D-03
     40 -0.901616D-03  0.839072D-03 -0.812690D-03  0.822459D-04 -0.972422D-05
     41  0.523862D-03  0.424212D-03 -0.103325D-03 -0.134449D-03 -0.262469D-04
     42 -0.290759D-02 -0.309294D-02  0.513722D-02  0.679417D-03  0.223466D-03
     43 -0.599599D-02 -0.150724D-01  0.840780D-02 -0.605767D-03 -0.481912D-03
     44 -0.770267D-02 -0.370669D-02  0.821380D-02  0.433438D-03  0.870891D-04
     45  0.181643D-01  0.245900D-01 -0.113482D-01 -0.263877D-03  0.693668D-03
     46 -0.191118D-03 -0.174072D-03  0.492513D-03 -0.103410D-03 -0.425129D-04
     47  0.321964D-03  0.450807D-03 -0.645943D-03  0.886787D-04  0.622664D-04
     48 -0.157293D-04  0.313480D-04  0.471328D-04  0.134446D-04  0.184781D-04
               21            22            23            24            25 
     21  0.265664D+00
     22 -0.241884D-03  0.857236D-01
     23  0.306482D-04  0.652901D-01  0.105693D+00
     24  0.124200D-03  0.981329D-01  0.119226D+00  0.246636D+00
     25  0.196711D-03  0.132450D-02 -0.288182D-02  0.179950D-02  0.264256D-01
     26  0.458031D-03 -0.891098D-03  0.616683D-03  0.488273D-03 -0.258111D-02
     27 -0.305738D-03  0.250683D-02 -0.824675D-03 -0.167717D-02 -0.214874D-01
     28 -0.154074D-04  0.280417D-03 -0.268990D-03  0.436476D-04  0.143494D-03
     29 -0.116472D-03 -0.146283D-03  0.253113D-03 -0.256663D-04 -0.641895D-04
     30 -0.111155D-03 -0.119110D-03  0.183086D-03 -0.120145D-04 -0.551042D-04
     31  0.405125D-03  0.805670D-03 -0.586699D-03  0.101501D-03  0.573005D-03
     32 -0.253434D-03 -0.361978D-03  0.271592D-03 -0.619509D-04 -0.196993D-03
     33 -0.397323D-04 -0.357881D-03  0.111757D-03 -0.412513D-04 -0.250483D-03
     34  0.282613D-03 -0.343785D-03 -0.370627D-03  0.347710D-03  0.606786D-03
     35 -0.390007D-03 -0.135661D-03  0.658364D-03 -0.261482D-03 -0.500812D-03
     36  0.491989D-04 -0.303414D-03  0.366793D-03  0.190138D-03 -0.684473D-04
     37 -0.133825D-03  0.786663D-03 -0.106599D-02 -0.399695D-04  0.468292D-03
     38 -0.310607D-03  0.941765D-03 -0.108184D-02 -0.446339D-04  0.163321D-03
     39 -0.613860D-03  0.189979D-02 -0.197196D-02 -0.191394D-04  0.137286D-02
     40 -0.570109D-04  0.134012D-03  0.472342D-04  0.595785D-04  0.260856D-03
     41 -0.115812D-03  0.236083D-04  0.444700D-04  0.193588D-04 -0.395156D-04
     42  0.206365D-03 -0.931808D-03  0.102410D-02 -0.886423D-05 -0.806124D-03
     43  0.834000D-04 -0.130449D-02 -0.142177D-01 -0.180258D-02 -0.157839D-02
     44  0.153004D-03 -0.128031D-01 -0.157012D-01 -0.268260D-02  0.101616D-02
     45 -0.443970D-03 -0.996327D-02 -0.182716D-01  0.294899D-02 -0.121333D-03
     46 -0.770024D-04  0.532912D-04 -0.130878D-04 -0.475391D-05 -0.606361D-04
     47  0.584582D-04 -0.337993D-04  0.608438D-04  0.321482D-04  0.665341D-04
     48  0.292452D-05  0.106700D-04  0.115428D-04  0.218178D-04 -0.997443D-05
               26            27            28            29            30 
     26  0.247569D+00
     27  0.168253D+00  0.180066D+00
     28 -0.109783D-03  0.127189D-04  0.746324D-01
     29 -0.412071D-04 -0.849836D-04  0.681058D-01  0.132811D+00
     30 -0.449393D-04 -0.128649D-03  0.946329D-01  0.133064D+00  0.244221D+00
     31 -0.212203D-03  0.332111D-03  0.325743D-02  0.291269D-02 -0.130539D-01
     32  0.251203D-04 -0.161698D-03 -0.306833D-02  0.779281D-02 -0.832668D-02
     33  0.190225D-03 -0.943721D-05 -0.999413D-02  0.758811D-02 -0.220991D-01
     34 -0.601306D-04  0.484730D-03 -0.147017D-02  0.248249D-03  0.775278D-03
     35  0.152355D-04 -0.472709D-03  0.702325D-03 -0.106055D-02 -0.334725D-03
     36 -0.415549D-04 -0.958060D-04  0.780904D-04  0.921033D-04  0.493565D-03
     37  0.273092D-03  0.504809D-03  0.369628D-02 -0.267258D-02 -0.117294D-02
     38  0.609004D-04  0.754012D-04 -0.407817D-02 -0.197380D-02  0.140717D-02
     39  0.207336D-04  0.105623D-02 -0.996927D-03  0.184715D-02 -0.158530D-02
     40 -0.195574D-03  0.120557D-03 -0.456814D-03  0.386919D-03  0.825561D-04
     41 -0.576249D-04 -0.839846D-04  0.125201D-03  0.361985D-03 -0.392554D-03
     42 -0.690824D-04 -0.716808D-03 -0.837816D-05  0.133380D-04  0.967108D-03
     43  0.712254D-03 -0.254625D-03  0.625547D-04  0.392943D-04  0.122311D-04
     44 -0.908610D-05  0.460302D-03 -0.373056D-04 -0.156343D-04 -0.640757D-04
     45  0.479313D-03 -0.469567D-03 -0.260231D-04  0.324426D-04  0.000000D+00
     46 -0.173301D-04 -0.637245D-04 -0.436358D-03 -0.531548D-03  0.251033D-03
     47 -0.258488D-04  0.367729D-04  0.888288D-03 -0.285122D-03 -0.140325D-03
     48 -0.200015D-04 -0.341392D-04  0.296143D-03 -0.580600D-03  0.809858D-04
               31            32            33            34            35 
     31  0.593767D-01
     32 -0.410112D-01  0.129475D+00
     33  0.772780D-01 -0.140606D+00  0.258624D+00
     34  0.165307D-02 -0.183349D-02 -0.172933D-02  0.564694D-01
     35 -0.232199D-02 -0.201008D-02  0.100301D-02  0.265381D-01  0.465260D-01
     36  0.347606D-03  0.965040D-05 -0.405001D-04 -0.726739D-01 -0.524426D-01
     37 -0.134087D-02 -0.406623D-03  0.148311D-02  0.244949D-02  0.104911D-02
     38  0.118309D-02 -0.184577D-02 -0.734938D-03  0.761802D-03  0.393189D-02
     39  0.247368D-02 -0.212760D-03  0.202517D-02 -0.186054D-01 -0.971368D-02
     40  0.195639D-03  0.322901D-03  0.114596D-03 -0.180903D-02 -0.202471D-02
     41  0.336647D-03  0.343066D-03  0.110393D-02 -0.164325D-02  0.226065D-03
     42 -0.783890D-03 -0.656309D-05 -0.118844D-02 -0.344561D-02 -0.197710D-02
     43  0.212850D-03  0.433806D-04 -0.124312D-03 -0.124730D-03  0.265518D-03
     44 -0.743067D-04 -0.351425D-04  0.108044D-03  0.151296D-03 -0.267766D-03
     45  0.312131D-04  0.137305D-04 -0.499807D-05 -0.667820D-04 -0.161505D-04
     46  0.231702D-03  0.132251D-03 -0.295572D-04 -0.530971D-03 -0.517183D-03
     47 -0.382278D-03  0.216575D-03  0.392892D-04 -0.473878D-03 -0.113925D-03
     48 -0.126537D-03  0.644677D-04 -0.110952D-03 -0.564274D-03 -0.371368D-03
               36            37            38            39            40 
     36  0.348706D+00
     37 -0.297756D-02  0.418186D+00
     38 -0.943177D-03  0.185075D+00  0.323909D+00
     39 -0.300639D-01 -0.612292D-01 -0.153873D+00  0.122444D+01
     40 -0.242074D-02 -0.593915D-01 -0.150627D-01  0.707642D-01  0.539047D-01
     41 -0.109150D-02 -0.167880D-01 -0.756149D-01  0.149794D+00  0.351798D-01
     42 -0.222376D-02  0.889349D-01  0.164204D+00 -0.998050D+00 -0.668391D-01
     43 -0.116701D-03  0.607902D-03  0.608456D-03  0.231893D-03 -0.226011D-03
     44 -0.426555D-04  0.283554D-03 -0.648073D-04  0.391552D-03 -0.446788D-04
     45 -0.194756D-04  0.328672D-04  0.163162D-03  0.123009D-03 -0.384257D-04
     46 -0.593511D-03 -0.183875D+00 -0.980046D-01  0.725148D-01  0.960418D-03
     47 -0.295631D-03 -0.986796D-01 -0.128134D+00  0.546393D-01 -0.164720D-01
     48 -0.419616D-03  0.688244D-01  0.502382D-01 -0.667483D-01  0.360741D-01
               41            42            43            44            45 
     41  0.542051D-01
     42 -0.168225D+00  0.114189D+01
     43 -0.505256D-04  0.127180D-03  0.958227D-01
     44 -0.257854D-04 -0.289514D-03  0.136388D+00  0.292555D+00
     45 -0.457071D-04 -0.346823D-04 -0.320871D-01 -0.513881D-01  0.558161D-01
     46 -0.152151D-01  0.197414D-01  0.275951D-04 -0.733324D-05 -0.799134D-05
     47  0.581481D-02  0.198989D-01 -0.570544D-04 -0.105594D-04 -0.160273D-04
     48  0.327319D-01 -0.499775D-01  0.136872D-04 -0.255563D-04  0.107308D-04
               46            47            48 
     46  0.201873D+00
     47  0.138155D+00  0.121887D+00
     48 -0.892971D-01 -0.731430D-01  0.114454D+00
 FrcOut:
 IF    =        57 IFX   =       105 IFXYZ =       153
 IFFX  =       201 IFFFX =      1377 IFLen =        48
 IFFLen=      1176 IFFFLn=         0 IEDerv=      1377
 LEDerv=      2357 IFroze=      4312 ICStrt=      7777
 Dipole        =-5.83392431D-02-2.10210381D-01 9.63679950D-01
 DipoleDeriv   =-4.41566746D-01-2.01190033D-01 7.84745294D-02
                -1.91910365D-01-6.77096268D-01 1.32631659D-01
                -1.68048716D-01-2.34390113D-01-3.29001287D-01
                 2.43503727D-01 4.81883403D-01-8.90771306D-03
                -1.76757437D-01 3.95395058D-01 1.09977576D-01
                -7.45874088D-02-1.10328125D-01 3.69371949D-02
                 9.67606756D-01-3.17780380D-01-1.45288435D-01
                -6.51549149D-01 3.39602513D-01 7.36418721D-02
                -3.58240555D-01-7.14507146D-02 3.14364337D-01
                -1.30377466D+00-5.41583538D-02-3.47091487D-02
                 4.85666273D-01-1.08155343D+00-3.26866922D-01
                -2.93303376D-01 2.89178535D-02-3.98274606D-01
                 3.89799338D-01-1.71380418D-01-1.91934435D-01
                 7.72126748D-01 7.81391157D-01-5.59773135D-01
                -4.38764665D-02 1.09527134D-01 4.21683569D-01
                -9.49936582D-01 1.56906402D-01 1.53851785D-01
                -4.42847537D-01-4.52152702D-01 3.73586073D-01
                 5.98774659D-01 4.31010622D-02-7.29884358D-01
                 1.63009596D-01 8.40436926D-02-1.26566353D-02
                 1.06760196D-02 1.87922065D-02 2.52486748D-02
                 1.11273788D-02 7.43153194D-02 8.98597758D-02
                -4.81025599D-02 7.50888804D-03 5.47784395D-02
                 8.77342544D-02-3.90244646D-02 4.57952715D-02
                -8.19580160D-03 6.91668074D-03 9.57125419D-02
                 9.55172044D-02-7.49238372D-02 5.70793412D-02
                -5.80701001D-02 1.61563141D-01 4.45222638D-02
                -1.15787326D-02 4.94713756D-02 1.28122048D-01
                 4.62769283D-02 6.17995805D-02 5.77824091D-02
                -1.30633540D-02 9.23229008D-02 4.08609160D-02
                -1.85169131D-03 1.12466746D-01 8.86145524D-02
                 8.12865627D-02-4.98403159D-02-3.07262362D-02
                -3.22401063D-02 1.14734223D-01-1.96865164D-02
                 2.60439368D-02-1.35835203D-01 7.88080614D-02
                 1.27423032D-01-1.17476915D-01-2.76684827D-02
                -8.94818951D-02 1.61508470D-01-5.36354936D-03
                -1.05642989D-01-6.28618877D-03 1.24584993D-01
                 1.01010994D+00 2.44465643D-01 1.61439729D-01
                 4.66797662D-01 4.17210325D-01 3.20670782D-02
                 1.00292223D+00 1.74325175D-01 1.18560808D+00
                -4.65008060D-01-6.62594578D-02-1.48950272D-02
                -6.09786779D-02-3.51659285D-01 9.77709334D-02
                -5.16628805D-01-2.68034713D-02-1.08275246D+00
                 8.75798432D-02 4.21961471D-02-6.08979003D-02
                -2.47473043D-02 9.50523357D-02-3.32802816D-02
                 4.97960657D-03 7.39465956D-04 1.05530501D-03
                -3.68708279D-03-2.57509242D-02-3.57226304D-02
                -8.13231386D-02 2.39208822D-02-3.11733761D-02
                -6.19364964D-02-1.46833896D-02-2.54730039D-02
 Polarizability= 7.46945351D+01 5.82627975D-01 7.40088596D+01
                -1.67830823D+01 1.55579770D+00 6.37371789D+01
 HyperPolar    = 6.09719813D+00-3.03514843D+02 1.93766070D+02
                 2.38418967D+01-3.90996090D+01-3.27796435D+01
                -1.17673569D+01-6.11974782D+01 3.70804207D+01
                 2.58108464D+01
 VibFq2-Diag1:  N=     48 IV=          17 MDV=  6442434703 NE2=   134217389
 Full mass-weighted force constant matrix:
 Low frequencies --- -891.9918 -161.0518 -146.8102   -0.0315   -0.0209    0.0084
 Low frequencies ---   50.2840   64.2133  109.7322
 OrtVCM:  Ph=1 IPass= 1 DotMx1= 0.00D+00
 OrtVCM:  IS=    1 I=    1 IndO=    1 Dot= 1.00D+00 DotN= 1.00D+00 ElMax1= 3.78D-01 ElMax1N= 3.78D-01
 OrtVCM:  Ph=2 NNew=    0 IAdd=    2 IPass= 1 DotMx2= 0.00D+00
 OrtVCM:  IS=    1 I=    2 IndO=    2 Dot= 1.00D+00 DotN= 1.00D+00 ElMax1= 3.78D-01 ElMax1N= 3.78D-01
 OrtVCM:  Ph=2 NNew=    0 IAdd=    3 IPass= 1 DotMx2= 0.00D+00
 OrtVCM:  IS=    1 I=    3 IndO=    3 Dot= 1.00D+00 DotN= 1.00D+00 ElMax1= 3.78D-01 ElMax1N= 3.78D-01
[...]
 (esu units = cm**3 , SI units = C**2 m**2 J**-1)
 Alpha(0;0):
               (au)            (10**-24 esu)      (10**-40 SI)
   iso        0.708135D+02      0.104935D+02      0.116756D+02
   aniso      0.310856D+02      0.460641D+01      0.512533D+01
   xx         0.726694D+02      0.107685D+02      0.119816D+02
   yx        -0.303543D+01     -0.449804D+00     -0.500474D+00
   yy         0.742290D+02      0.109996D+02      0.122387D+02
   zx        -0.170661D+02     -0.252894D+01     -0.281383D+01
   zy        -0.436803D+00     -0.647276D-01     -0.720192D-01
   zz         0.655423D+02      0.971236D+01      0.108065D+02

 First dipole hyperpolarizability, Beta (dipole orientation).
 ||, _|_  parallel and perpendicular components, (z) with respect to z axis,
 vector components x,y,z.  Values do not include the 1/n! factor of 1/2.
 (esu units = statvolt**-1 cm**4 , SI units = C**3 m**3 J**-2)
 Beta(0;0,0):
               (au)            (10**-30 esu)      (10**-50 SI)
   || (z)     0.113918D+02      0.984163D-01      0.365263D-01
   _|_(z)     0.379727D+01      0.328054D-01      0.121754D-01
   x          0.415453D+03      0.358919D+01      0.133209D+01
   y         -0.729739D+03     -0.630437D+01     -0.233981D+01
   z          0.569590D+02      0.492082D+00      0.182631D+00
   ||         0.168329D+03      0.145423D+01      0.539723D+00
   xxx        0.439461D+01      0.379660D-01      0.140907D-01
   xxy       -0.311312D+03     -0.268950D+01     -0.998180D+00
   yxy        0.172403D+03      0.148943D+01      0.552788D+00
   yyy        0.169849D+02      0.146736D+00      0.544597D-01
   xxz        0.207874D+02      0.179587D+00      0.666518D-01
   yxz       -0.620413D+02     -0.535988D+00     -0.198927D+00
   yyz       -0.807055D+01     -0.697233D-01     -0.258771D-01
   zxz       -0.383137D+02     -0.331001D+00     -0.122848D+00
   zyz        0.510813D+02      0.441303D+00      0.163785D+00
   zzz        0.626955D+01      0.541640D-01      0.201024D-01

 ----------------------------------------------------------------------

 Test job not archived.
 1\1\GINC-CHPC-LINUX-10\Freq\RAM1\ZDO\C6H8O2\JP2658\18-Jan-2024\0\\# am
 1 freq=noraman iop(7/33=1) symm=none units=au\\FREQ part at am1\\0,1\O
 ,1.4566625762,1.1501874212,-0.1665892024\C,-0.2951562274,1.484707784,0
 .6006020228\C,0.5773238805,-1.3098119138,0.9789562485\C,-0.9803845865,
 0.2140723541,0.8811223072\C,1.7775834556,0.1157979136,-0.7490390936\C,
 1.3574444571,-1.2142327845,-0.2482217076\H,2.3559837193,0.1059094737,-
 1.6876149583\H,1.0439803934,-0.820926565,1.8400427916\H,1.3920647976,-
 2.0438894515,-0.9423522839\H,0.0769429434,2.0485616498,1.4527795542\H,
 -0.6069674114,2.0403297235,-0.2836532265\H,-1.2548870175,0.0486550691,
 1.9218002292\C,-1.9526360322,-0.3292288803,-0.1140111136\O,-1.86636003
 4,-0.1409295451,-1.3206463246\H,0.1241550422,-2.2806005872,1.174920034
 5\H,-2.7587424874,-0.9399291599,0.3255100933\\Version=ES64L-G16RevA.03
 \HF=0.0320534\RMSD=8.558e-09\RMSF=3.239e-02\ZeroPoint=0.125249\Thermal
 =0.1322385\Dipole=-0.0583392,-0.2102104,0.96368\DipoleDeriv=-0.4415667
 ,-0.20119,0.0784745,-0.1919104,-0.6770963,0.1326317,-0.1680487,-0.2343
 901,-0.3290013,0.2435037,0.4818834,-0.0089077,-0.1767574,0.3953951,0.1
 099776,-0.0745874,-0.1103281,0.0369372,0.9676068,-0.3177804,-0.1452884
 ,-0.6515491,0.3396025,0.0736419,-0.3582406,-0.0714507,0.3143643,-1.303
 7747,-0.0541584,-0.0347091,0.4856663,-1.0815534,-0.3268669,-0.2933034,
 0.0289179,-0.3982746,0.3897993,-0.1713804,-0.1919344,0.7721267,0.78139
 12,-0.5597731,-0.0438765,0.1095271,0.4216836,-0.9499366,0.1569064,0.15
 38518,-0.4428475,-0.4521527,0.3735861,0.5987747,0.0431011,-0.7298844,0
 .1630096,0.0840437,-0.0126566,0.010676,0.0187922,0.0252487,0.0111274,0
 .0743153,0.0898598,-0.0481026,0.0075089,0.0547784,0.0877343,-0.0390245
 ,0.0457953,-0.0081958,0.0069167,0.0957125,0.0955172,-0.0749238,0.05707
 93,-0.0580701,0.1615631,0.0445223,-0.0115787,0.0494714,0.128122,0.0462
 769,0.0617996,0.0577824,-0.0130634,0.0923229,0.0408609,-0.0018517,0.11
 24667,0.0886146,0.0812866,-0.0498403,-0.0307262,-0.0322401,0.1147342,-
 0.0196865,0.0260439,-0.1358352,0.0788081,0.127423,-0.1174769,-0.027668
 5,-0.0894819,0.1615085,-0.0053635,-0.105643,-0.0062862,0.124585,1.0101
 099,0.2444656,0.1614397,0.4667977,0.4172103,0.0320671,1.0029222,0.1743
 252,1.1856081,-0.4650081,-0.0662595,-0.014895,-0.0609787,-0.3516593,0.
 0977709,-0.5166288,-0.0268035,-1.0827525,0.0875798,0.0421961,-0.060897
 9,-0.0247473,0.0950523,-0.0332803,0.0049796,0.0007395,0.0010553,-0.003
 6871,-0.0257509,-0.0357226,-0.0813231,0.0239209,-0.0311734,-0.0619365,
 -0.0146834,-0.025473\Polar=74.6945351,0.582628,74.0088596,-16.7830823,
 1.5557977,63.7371789\HyperPolar=6.0971981,-303.5148431,193.76607,23.84
 18967,-39.099609,-32.7796435,-11.7673569,-61.1974782,37.0804207,25.810
 8464\PG=Unknown\NImag=3\\0.07331830,-0.14318437,0.77956741,-0.10400137
 ,0.36585967,0.22122066,0.08196741,-0.11980102,-0.08687585,0.14123632,0
 .00644038,-0.03255417,-0.01408316,0.10581215,0.53004228,-0.04914723,0.
 05406373,0.03550105,0.20240948,-0.02854200,0.54727646,-0.04882858,0.06
 376215,0.05331287,0.08172718,0.03060165,-0.03968654,0.24393913,0.02971
 528,-0.04195908,-0.03035340,-0.04747769,-0.02543965,0.02456763,0.25281
 762,0.45228647,0.02156594,-0.03354619,-0.02792057,-0.03268689,-0.00874
 684,0.01595466,-0.02682321,0.00644720,0.56958476,-0.00186262,-0.023695
 90,-0.01285084,-0.14282826,-0.10916269,0.02705368,0.03258154,-0.032361
 75,-0.01779327,0.34735774,-0.08176616,0.09351524,0.06991339,0.03198227
 ,-0.21470417,-0.02042207,-0.10568729,0.05601492,0.04129995,0.24324980,
 0.28655926,0.01255308,-0.00678870,-0.00962390,0.00688519,0.03605427,-0
 .09953203,0.01588245,-0.01107814,-0.01817138,0.01454408,-0.01616678,0.
 64651991,-0.12451314,0.22915560,0.13944037,0.01947998,0.01397386,-0.00
 348657,-0.02870403,-0.00901531,0.02674407,0.00672370,-0.01926504,0.002
 76740,0.33410589,0.10632723,-0.60498641,-0.29082624,0.15037885,0.02424
 568,-0.07267213,-0.10668974,0.04950788,0.06995184,0.03234394,-0.125214
 74,0.01448502,-0.16470096,0.85522207,0.11480702,-0.38614741,-0.2427627
 5,0.02632384,0.00020301,-0.01767971,0.00020529,0.03733777,-0.00817065,
 0.00488908,-0.01762852,0.00229394,-0.28905567,0.28762240,0.61634936,0.
 04426887,-0.04220256,-0.03041414,-0.04539469,-0.01085418,0.02012706,-0
 .09366878,-0.04852194,0.08486607,-0.02696897,0.05667071,-0.00280759,-0
 .08853442,0.00650159,0.03592985,0.24509055,0.03370565,-0.15528258,-0.0
 5259665,-0.04771500,-0.01302921,0.02533740,0.03154177,-0.12017153,-0.0
 1679702,-0.01477410,0.04983165,-0.00941791,-0.04500785,-0.14798489,0.0
 8519788,0.05078063,0.60706089,-0.04040887,0.04542930,0.06604723,0.0586
 9790,0.01743058,-0.02927642,0.04966595,0.05399678,-0.24180799,0.029804
 24,-0.07359679,0.00978407,0.00365469,-0.03384570,-0.12905918,-0.141220
 39,0.11350234,0.53043171,-0.00082104,0.01552455,0.02470586,0.00039743,
 -0.00033934,0.00129517,0.00112467,-0.00072104,0.00123705,0.00229352,0.
 00071620,0.00033723,-0.11684365,-0.00451506,0.11028035,0.00125002,-0.0
 0536693,0.01491146,0.11336297,0.02874168,-0.01777923,-0.04182687,-0.00
 741461,-0.00125394,0.00198485,0.00127261,-0.00486393,-0.00048450,-0.00
 023724,0.00451294,-0.00031958,-0.00264518,-0.02923212,0.00906915,-0.01
 590318,-0.00812386,0.02465458,-0.00378740,0.05843786,0.02712298,-0.023
 91880,-0.03017499,-0.00356306,-0.00079518,0.00216566,0.00375074,0.0000
 2924,-0.00015986,0.00024134,0.00318346,-0.00015150,0.11185980,0.007385
 05,-0.22612320,0.01193932,0.00784637,-0.01008857,-0.15179323,0.0067543
 3,0.26566367,0.00538415,-0.00725385,-0.00612814,-0.00899689,-0.0027813
 2,0.00414738,-0.06611751,-0.06845493,-0.10486247,-0.01495698,0.0159153
 1,-0.00750275,0.00039929,0.01188572,0.00158264,-0.00349135,-0.00096543
 ,0.02212981,0.00031947,-0.00022900,-0.00024188,0.08572358,-0.00492348,
 0.00613496,0.00389725,0.00852070,0.00237634,-0.00315974,-0.06852909,-0
 .08897846,-0.09384350,0.01143500,-0.01242815,0.00553763,-0.00004952,-0
 .00864181,-0.00024831,0.00786332,0.01049537,-0.01206820,-0.00024954,0.
 00022643,0.00003065,0.06529010,0.10569316,0.00102777,-0.00235386,-0.00
 084690,-0.00219009,-0.00033534,0.00080055,-0.09179896,-0.10476247,-0.2
 1324836,-0.00468760,0.00455353,-0.00171378,0.00052262,0.00333880,-0.00
 046706,-0.00157023,-0.01691813,-0.03268659,0.00005913,-0.00021218,0.00
 012420,0.09813288,0.11922559,0.24663609,0.00747402,-0.00843917,-0.0032
 8422,-0.00599909,-0.00222149,0.00334453,0.00824719,0.00762176,0.013497
 82,-0.00327315,0.00667861,-0.00077699,0.00379095,0.00270474,-0.0055324
 5,-0.03877344,-0.00091445,0.01218095,0.00037006,-0.00041110,0.00019671
 ,0.00132450,-0.00288182,0.00179950,0.02642560,-0.00188628,-0.00322529,
 0.00330829,0.00087903,0.00056857,-0.00101999,0.00017003,0.00201729,-0.
 00443143,0.00020194,-0.00059734,0.00021699,-0.00418022,-0.03431422,-0.
 01434472,0.00825205,-0.21182816,-0.15344269,-0.00035473,-0.00077477,0.
 00045803,-0.00089110,0.00061668,0.00048827,-0.00258111,0.24756934,0.00
 411995,-0.00083282,-0.00244005,-0.00386182,-0.00138904,0.00176679,0.01
 246487,-0.02072321,-0.02821900,-0.00225361,0.00514133,-0.00086391,0.00
 101549,0.00920096,0.00603639,0.00639684,-0.15891007,-0.15396493,-0.000
 03782,0.00031511,-0.00030574,0.00250683,-0.00082468,-0.00167717,-0.021
 48744,0.16825290,0.18006590,-0.00534947,0.00868668,0.01053176,-0.06650
 024,-0.05318145,-0.08698697,-0.00219676,0.00105815,0.00079506,-0.00368
 034,-0.01735304,-0.00838410,-0.00258817,-0.00260372,0.00073245,0.00096
 908,0.00061328,-0.00071103,-0.00036396,0.00052022,-0.00001541,0.000280
 42,-0.00026899,0.00004365,0.00014349,-0.00010978,0.00001272,0.07463236
 ,0.00440967,-0.00474041,-0.00590030,-0.05619071,-0.11522101,-0.1166795
 9,0.00120367,-0.00095026,-0.00057197,-0.01803898,-0.01849160,-0.019313
 40,0.00119088,0.00248458,-0.00045385,-0.00083816,-0.00067636,0.0010898
 6,-0.00001417,-0.00024793,-0.00011647,-0.00014628,0.00025311,-0.000025
 67,-0.00006419,-0.00004121,-0.00008498,0.06810582,0.13281144,0.0062048
 7,-0.00625355,-0.00704366,-0.08885894,-0.12131080,-0.21948256,0.001509
 29,-0.00100042,-0.00051995,-0.00037658,0.00148566,0.00442255,0.0012048
 3,0.00267124,-0.00039619,-0.00103019,-0.00073498,0.00119234,-0.0000058
 8,-0.00020833,-0.00011115,-0.00011911,0.00018309,-0.00001201,-0.000055
 10,-0.00004494,-0.00012865,0.09463295,0.13306377,0.24422122,-0.0224475
 2,0.01650591,0.00632336,-0.04064102,0.04645575,-0.07682187,-0.00780761
 ,0.00429811,0.00286007,0.00519490,-0.02118290,0.00821350,-0.00318691,-
 0.01044003,-0.00249934,0.00357939,0.00421110,-0.00508042,0.00034296,0.
 00030853,0.00040513,0.00080567,-0.00058670,0.00010150,0.00057301,-0.00
 021220,0.00033211,0.00325743,0.00291269,-0.01305386,0.05937666,0.01111
 029,-0.00708946,-0.00209963,0.03482861,-0.11325386,0.12295142,0.002933
 19,-0.00235515,-0.00103571,-0.00206579,-0.01464166,0.02656350,0.001506
 63,0.00508382,0.00078626,-0.00169942,-0.00180203,0.00237528,-0.0002330
 2,-0.00017435,-0.00025343,-0.00036198,0.00027159,-0.00006195,-0.000196
 99,0.00002512,-0.00016170,-0.00306833,0.00779281,-0.00832668,-0.041011
 22,0.12947472,0.00308533,-0.00333570,-0.00183292,-0.07233149,0.1195416
 2,-0.23237970,0.00298790,-0.00149836,-0.00105676,-0.00032551,0.0152160
 6,-0.00459892,0.00115015,0.00275513,0.00147415,-0.00094856,-0.00137505
 ,0.00127854,-0.00000734,-0.00010665,-0.00003973,-0.00035788,0.00011176
 ,-0.00004125,-0.00025048,0.00019022,-0.00000944,-0.00999413,0.00758811
 ,-0.02209909,0.07727804,-0.14060619,0.25862439,-0.00801279,0.00801204,
 0.00658216,0.00849701,-0.00429974,0.01179568,-0.01578838,0.01108558,0.
 00839515,-0.04427164,-0.03191927,0.07659730,-0.00164047,-0.01171008,-0
 .00152850,0.00425677,0.00508007,-0.00664674,0.00005949,0.00043350,0.00
 028261,-0.00034379,-0.00037063,0.00034771,0.00060679,-0.00006013,0.000
 48473,-0.00147017,0.00024825,0.00077528,0.00165307,-0.00183349,-0.0017
 2933,0.05646938,0.00682297,-0.00852121,-0.00537633,-0.02251403,-0.0182
 3763,0.03009525,0.01297903,-0.00784289,-0.00682498,-0.01828549,-0.0189
 5410,0.03984369,0.00181893,0.01077793,0.00104939,-0.00358357,-0.004663
 92,0.00618942,-0.00029258,-0.00046382,-0.00039001,-0.00013566,0.000658
 36,-0.00026148,-0.00050081,0.00001524,-0.00047271,0.00070232,-0.001060
 55,-0.00033472,-0.00232199,-0.00201008,0.00100301,0.02653811,0.0465260
 1,-0.00067884,-0.00012990,-0.00028933,0.00815268,0.01042722,-0.0102537
 4,0.00551650,-0.00384598,-0.00209516,0.06632828,0.04769219,-0.30523978
 ,0.00018809,0.00092623,0.00013703,-0.00094934,-0.00073561,0.00116476,0
 .00017144,0.00005435,0.00004920,-0.00030341,0.00036679,0.00019014,-0.0
 0006845,-0.00004155,-0.00009581,0.00007809,0.00009210,0.00049357,0.000
 34761,0.00000965,-0.00004050,-0.07267385,-0.05244256,0.34870639,-0.000
 41155,0.00207110,0.00335831,-0.01846798,-0.01869379,-0.01219556,-0.015
 80787,0.01045435,0.00014884,-0.14806183,-0.05793028,-0.07984938,-0.002
 47957,-0.00607109,-0.00062147,0.00450611,0.00321837,-0.00506588,-0.000
 86350,-0.00011466,-0.00013383,0.00078666,-0.00106599,-0.00003997,0.000
 46829,0.00027309,0.00050481,0.00369628,-0.00267258,-0.00117294,-0.0013
 4087,-0.00040662,0.00148311,0.00244949,0.00104911,-0.00297756,0.418186
 13,0.00478853,-0.00428172,-0.00145472,-0.03075064,-0.02428272,-0.01559
 435,0.00020340,0.00257800,0.00166512,-0.04541236,-0.09612416,-0.045891
 82,-0.00005229,0.00430185,0.00027045,0.00039265,-0.00099333,0.00082452
 ,-0.00075733,-0.00038693,-0.00031061,0.00094177,-0.00108184,-0.0000446
 3,0.00016332,0.00006090,0.00007540,-0.00407817,-0.00197380,0.00140717,
 0.00118309,-0.00184577,-0.00073494,0.00076180,0.00393189,-0.00094318,0
 .18507484,0.32390885,0.00850764,-0.00289511,-0.00038148,-0.01733673,-0
 .01168427,0.01160667,-0.01514991,0.01271424,0.00485653,-0.04659618,-0.
 04053558,-0.14055143,-0.00070820,-0.00198483,0.00075390,0.00443937,0.0
 0407252,-0.00684903,-0.00158376,-0.00060986,-0.00061386,0.00189979,-0.
 00197196,-0.00001914,0.00137286,0.00002073,0.00105623,-0.00099693,0.00
 184715,-0.00158530,0.00247368,-0.00021276,0.00202517,-0.01860543,-0.00
 971368,-0.03006393,-0.06122924,-0.15387280,1.22444355,0.00030234,-0.00
 032020,-0.00021503,-0.00135942,-0.00033062,0.00005670,-0.00000244,-0.0
 0005401,0.00035143,0.00764954,-0.00204156,-0.03728861,0.00065533,-0.00
 022182,0.00004667,-0.00090162,0.00083907,-0.00081269,0.00008225,-0.000
 00972,-0.00005701,0.00013401,0.00004723,0.00005958,0.00026086,-0.00019
 557,0.00012056,-0.00045681,0.00038692,0.00008256,0.00019564,0.00032290
 ,0.00011460,-0.00180903,-0.00202471,-0.00242074,-0.05939151,-0.0150626
 6,0.07076420,0.05390471,0.00033974,0.00035453,0.00010765,-0.00095601,-
 0.00106354,0.00009603,-0.00060833,0.00028998,0.00026031,-0.00131024,0.
 01552363,-0.01391904,0.00021604,-0.00080042,-0.00013783,0.00052386,0.0
 0042421,-0.00010332,-0.00013445,-0.00002625,-0.00011581,0.00002361,0.0
 0004447,0.00001936,-0.00003952,-0.00005762,-0.00008398,0.00012520,0.00
 036198,-0.00039255,0.00033665,0.00034307,0.00110393,-0.00164325,0.0002
 2607,-0.00109150,-0.01678800,-0.07561486,0.14979438,0.03517979,0.05420
 508,-0.00345518,0.00024032,-0.00005271,0.00609570,0.00358483,-0.004721
 56,0.00744093,-0.00648079,-0.00371021,-0.04463790,-0.01223069,-0.08679
 613,0.00079719,0.00318288,-0.00072158,-0.00290759,-0.00309294,0.005137
 22,0.00067942,0.00022347,0.00020637,-0.00093181,0.00102410,-0.00000886
 ,-0.00080612,-0.00006908,-0.00071681,-0.00000838,0.00001334,0.00096711
 ,-0.00078389,-0.00000656,-0.00118844,-0.00344561,-0.00197710,-0.002223
 76,0.08893488,0.16420380,-0.99804988,-0.06683914,-0.16822455,1.1418896
 0,-0.00114239,0.00180393,-0.00027163,-0.00073143,-0.00008540,0.0004386
 4,-0.08920528,-0.11019304,0.02166582,0.00105493,0.00422469,-0.00086075
 ,0.00312622,-0.00392705,0.00453687,-0.00599599,-0.01507242,0.00840780,
 -0.00060577,-0.00048191,0.00008340,-0.00130449,-0.01421769,-0.00180258
 ,-0.00157839,0.00071225,-0.00025462,0.00006255,0.00003929,0.00001223,0
 .00021285,0.00004338,-0.00012431,-0.00012473,0.00026552,-0.00011670,0.
 00060790,0.00060846,0.00023189,-0.00022601,-0.00005053,0.00012718,0.09
 582275,0.00068584,-0.00006760,0.00060565,0.00009266,-0.00021602,-0.000
 19737,-0.11500233,-0.27031001,0.04672175,-0.00046196,-0.00310721,0.000
 32383,-0.00291720,0.00089618,-0.00228819,-0.00770267,-0.00370669,0.008
 21380,0.00043344,0.00008709,0.00015300,-0.01280308,-0.01570123,-0.0026
 8260,0.00101616,-0.00000909,0.00046030,-0.00003731,-0.00001563,-0.0000
 6408,-0.00007431,-0.00003514,0.00010804,0.00015130,-0.00026777,-0.0000
 4266,0.00028355,-0.00006481,0.00039155,-0.00004468,-0.00002579,-0.0002
 8951,0.13638802,0.29255493,-0.00075543,0.00045857,0.00022981,0.0003180
 3,-0.00005193,-0.00002633,0.02076089,0.04472755,-0.04529408,0.00019938
 ,0.00061498,-0.00005805,0.00382354,-0.00198415,-0.00143029,0.01816426,
 0.02458995,-0.01134816,-0.00026388,0.00069367,-0.00044397,-0.00996327,
 -0.01827164,0.00294899,-0.00012133,0.00047931,-0.00046957,-0.00002602,
 0.00003244,0.00000094,0.00003121,0.00001373,-0.00000500,-0.00006678,-0
 .00001615,-0.00001948,0.00003287,0.00016316,0.00012301,-0.00003843,-0.
 00004571,-0.00003468,-0.03208711,-0.05138815,0.05581606,0.00067254,-0.
 00062600,-0.00021215,-0.00238507,-0.00133353,-0.00234515,0.00050550,-0
 .00025060,0.00003866,-0.01695068,-0.02229328,-0.00031044,0.00020909,0.
 00073875,-0.00009665,-0.00019112,-0.00017407,0.00049251,-0.00010341,-0
 .00004251,-0.00007700,0.00005329,-0.00001309,-0.00000475,-0.00006064,-
 0.00001733,-0.00006372,-0.00043636,-0.00053155,0.00025103,0.00023170,0
 .00013225,-0.00002956,-0.00053097,-0.00051718,-0.00059351,-0.18387498,
 -0.09800458,0.07251484,0.00096042,-0.01521513,0.01974136,0.00002760,-0
 .00000733,-0.00000799,0.20187340,-0.00132473,0.00091205,0.00082668,0.0
 0032549,0.00202250,-0.00080925,-0.00096897,0.00017556,-0.00006461,-0.0
 2142435,-0.00169045,-0.00012858,-0.00002893,-0.00134188,-0.00028848,0.
 00032196,0.00045081,-0.00064594,0.00008868,0.00006227,0.00005846,-0.00
 003380,0.00006084,0.00003215,0.00006653,-0.00002585,0.00003677,0.00088
 829,-0.00028512,-0.00014032,-0.00038228,0.00021658,0.00003929,-0.00047
 388,-0.00011393,-0.00029563,-0.09867963,-0.12813412,0.05463926,-0.0164
 7204,0.00581481,0.01989886,-0.00005705,-0.00001056,-0.00001603,0.13815
 521,0.12188676,-0.00054586,0.00014956,0.00036570,-0.00117885,-0.000303
 68,-0.00171872,-0.00003565,-0.00007963,-0.00002417,-0.01354071,-0.0085
 1703,0.00428016,0.00008269,-0.00020509,-0.00023034,-0.00001573,0.00003
 135,0.00004713,0.00001344,0.00001848,0.00000292,0.00001067,0.00001154,
 0.00002182,-0.00000997,-0.00002000,-0.00003414,0.00029614,-0.00058060,
 0.00008099,-0.00012654,0.00006447,-0.00011095,-0.00056427,-0.00037137,
 -0.00041962,0.06882438,0.05023820,-0.06674829,0.03607411,0.03273194,-0
 .04997745,0.00001369,-0.00002556,0.00001073,-0.08929710,-0.07314295,0.
 11445359\\0.00703622,-0.06386900,-0.03396191,0.05349144,0.07643106,-0.
 01352975,-0.06824301,-0.00354251,0.07143185,-0.01792377,-0.05726097,0.
 03283737,0.00851811,0.11016529,0.00126958,0.04075250,-0.04897857,-0.04
 589497,-0.00086926,-0.00442639,0.00410338,0.01074594,-0.01135187,-0.00
 414401,-0.00051983,0.00558087,0.00376510,-0.01083629,-0.00136260,-0.00
 266645,-0.00650128,-0.00077978,0.00965058,-0.00488081,0.00686382,-0.00
 734951,-0.02844530,-0.00780773,-0.03281853,0.00006813,-0.00417684,0.02
 149980,0.01246067,0.00050035,-0.00104459,0.00514654,0.00401486,-0.0031
 4795\\\@


 ALL OUR THINKING ABOUT NATURE MUST NECESSARILY MOVE IN CIRCLES OR SPIRALS;
 FOR WE CAN ONLY UNDERSTAND NATURE IF WE THINK ABOUT HER, AND WE CAN ONLY
 THINK BECAUSE OUR BRAIN IS BUILT IN ACCORDANCE WITH NATURE'S LAWS.

                                             -- TIMOTHY FERRIS, "GALAXIES"
 Job cpu time:       0 days  0 hours  0 minutes  9.5 seconds.
 Elapsed time:       0 days  0 hours  0 minutes  0.8 seconds.
 File lengths (MBytes):  RWF=     14 Int=      0 D2E=      0 Chk=      2 Scr=      1
 Normal termination of Gaussian 16 at Thu Jan 18 13:43:10 2024.
