Unloading slurm/anatra/current
  ERROR: No such file or directory on
    '/cm/local/modulefiles/slurm/anatra/current'
environment: line 0: unalias: gv: not found
environment: line 0: unalias: sl: not found
 Entering Gaussian System, Link 0=g16
 Initial command:
 /apps/gaussian/g16/C.01/g16/l1.exe "/local/jobs/1153157/Gau-1514332.inp" -scrdir="/local/jobs/1153157/"
 Entering Link 1 = /apps/gaussian/g16/C.01/g16/l1.exe PID=   1514334.
  
 Copyright (c) 1988-2019, Gaussian, Inc.  All Rights Reserved.
  
 This is part of the Gaussian(R) 16 program.  It is based on
 the Gaussian(R) 09 system (copyright 2009, Gaussian, Inc.),
 the Gaussian(R) 03 system (copyright 2003, Gaussian, Inc.),
 the Gaussian(R) 98 system (copyright 1998, Gaussian, Inc.),
 the Gaussian(R) 94 system (copyright 1995, Gaussian, Inc.),
 the Gaussian 92(TM) system (copyright 1992, Gaussian, Inc.),
 the Gaussian 90(TM) system (copyright 1990, Gaussian, Inc.),
 the Gaussian 88(TM) system (copyright 1988, Gaussian, Inc.),
 the Gaussian 86(TM) system (copyright 1986, Carnegie Mellon
 University), and the Gaussian 82(TM) system (copyright 1983,
 Carnegie Mellon University). Gaussian is a federally registered
 trademark of Gaussian, Inc.
  
 This software contains proprietary and confidential information,
 including trade secrets, belonging to Gaussian, Inc.
  
 This software is provided under written license and may be
 used, copied, transmitted, or stored only in accord with that
 written license.
  
 The following legend is applicable only to US Government
 contracts under FAR:
  
                    RESTRICTED RIGHTS LEGEND
  
 Use, reproduction and disclosure by the US Government is
 subject to restrictions as set forth in subparagraphs (a)
 and (c) of the Commercial Computer Software - Restricted
 Rights clause in FAR 52.227-19.
  
 Gaussian, Inc.
 340 Quinnipiac St., Bldg. 40, Wallingford CT 06492
  
  
 ---------------------------------------------------------------
 Warning -- This program may not be used in any manner that
 competes with the business of Gaussian, Inc. or will provide
 assistance to any competitor of Gaussian, Inc.  The licensee
 of this program is prohibited from giving any competitor of
 Gaussian, Inc. access to this program.  By using this program,
 the user acknowledges that Gaussian, Inc. is engaged in the
 business of creating and licensing software in the field of
 computational chemistry and represents and warrants to the
 licensee that it is not a competitor of Gaussian, Inc. and that
 it will not use this program in any manner prohibited above.
 ---------------------------------------------------------------
  

 Cite this work as:
 Gaussian 16, Revision C.01,
 M. J. Frisch, G. W. Trucks, H. B. Schlegel, G. E. Scuseria, 
 M. A. Robb, J. R. Cheeseman, G. Scalmani, V. Barone, 
 G. A. Petersson, H. Nakatsuji, X. Li, M. Caricato, A. V. Marenich, 
 J. Bloino, B. G. Janesko, R. Gomperts, B. Mennucci, H. P. Hratchian, 
 J. V. Ortiz, A. F. Izmaylov, J. L. Sonnenberg, D. Williams-Young, 
 F. Ding, F. Lipparini, F. Egidi, J. Goings, B. Peng, A. Petrone, 
 T. Henderson, D. Ranasinghe, V. G. Zakrzewski, J. Gao, N. Rega, 
 G. Zheng, W. Liang, M. Hada, M. Ehara, K. Toyota, R. Fukuda, 
 J. Hasegawa, M. Ishida, T. Nakajima, Y. Honda, O. Kitao, H. Nakai, 
 T. Vreven, K. Throssell, J. A. Montgomery, Jr., J. E. Peralta, 
 F. Ogliaro, M. J. Bearpark, J. J. Heyd, E. N. Brothers, K. N. Kudin, 
 V. N. Staroverov, T. A. Keith, R. Kobayashi, J. Normand, 
 K. Raghavachari, A. P. Rendell, J. C. Burant, S. S. Iyengar, 
 J. Tomasi, M. Cossi, J. M. Millam, M. Klene, C. Adamo, R. Cammi, 
 J. W. Ochterski, R. L. Martin, K. Morokuma, O. Farkas, 
 J. B. Foresman, and D. J. Fox, Gaussian, Inc., Wallingford CT, 2019.
 
 ******************************************
 Gaussian 16:  ES64L-G16RevC.01  3-Jul-2019
                30-Dec-2023 
 ******************************************
 %chk=cyclic-1_1_opt_dft_reopt5_freq.chk
 %nprocshared=12
 Will use up to   12 processors via shared memory.
 %mem=48GB
 -----------------------------------------------------------
 # wb97xd def2svp scrf=(iefpcm,solvent=toluene) freq=noraman
 -----------------------------------------------------------
 1/10=4,30=1,38=1/1,3;
 2/12=2,17=6,18=5,40=1/2;
 3/5=43,7=101,11=2,25=1,30=1,70=2201,71=2,72=13,74=-58,140=1/1,2,3;
 4//1;
 5/5=2,38=5,53=13,98=1/2;
 8/6=4,10=90,11=11/1;
 11/6=1,8=1,9=11,15=111,16=1/1,2,10;
 10/6=1/2;
 6/7=2,8=2,9=2,10=2,28=1/1;
 7/8=1,10=1,25=1/1,2,3,16;
 1/10=4,30=1/3;
 99//99;
 -----------------------------
 cyclic-1_1_opt_dft_reopt5.out
 -----------------------------
 Symbolic Z-matrix:
 Charge =  0 Multiplicity = 1
 C                     1.72135   0.5756   -0.40473 
 C                    -1.52612   1.64463   1.56845 
 C                     2.05479  -1.43249   0.40514 
 C                    -2.57924   1.17612   0.89812 
 N                     1.12496  -0.52551   0.02062 
 H                    -1.5532    2.62036   2.05673 
 H                    -0.60421   1.06408   1.65728 
 H                     1.79851  -2.41278   0.78889 
 H                    -3.51324   1.73616   0.82088 
 O                     3.03458   0.44916  -0.32177 
 C                     3.3404   -0.86019   0.20747 
 O                     4.48135  -1.198     0.3701 
 C                    -2.54983  -0.14601   0.2337 
 O                    -1.56287  -0.84915   0.09221 
 O                    -3.73925  -0.50839  -0.20487 
 C                    -3.83937  -1.76251  -0.87408 
 H                    -3.1946   -1.77539  -1.76337 
 H                    -4.88958  -1.867    -1.16327 
 H                    -3.54419  -2.58063  -0.20317 
 C                     1.07512   1.73905  -0.87861 
 N                     0.52067   2.68439  -1.25772 
 H                     0.08798  -0.65111   0.04762 
 

 GradGradGradGradGradGradGradGradGradGradGradGradGradGradGradGradGradGrad
 Berny optimization.
 Initialization pass.
 Trust Radius=3.00D-01 FncErr=1.00D-07 GrdErr=1.00D-07 EigMax=2.50D+02 EigMin=1.00D-04
 Number of steps in this run=      2 maximum allowed number of steps=      2.
 GradGradGradGradGradGradGradGradGradGradGradGradGradGradGradGradGradGrad

                          Input orientation:                          
 ---------------------------------------------------------------------
 Center     Atomic      Atomic             Coordinates (Angstroms)
 Number     Number       Type             X           Y           Z
 ---------------------------------------------------------------------
      1          6           0        1.721350    0.575600   -0.404730
      2          6           0       -1.526120    1.644630    1.568450
      3          6           0        2.054790   -1.432490    0.405140
      4          6           0       -2.579240    1.176120    0.898120
      5          7           0        1.124960   -0.525510    0.020620
      6          1           0       -1.553200    2.620360    2.056730
      7          1           0       -0.604210    1.064080    1.657280
      8          1           0        1.798510   -2.412780    0.788890
      9          1           0       -3.513240    1.736160    0.820880
     10          8           0        3.034580    0.449160   -0.321770
     11          6           0        3.340400   -0.860190    0.207470
     12          8           0        4.481350   -1.198000    0.370100
     13          6           0       -2.549830   -0.146010    0.233700
     14          8           0       -1.562870   -0.849150    0.092210
     15          8           0       -3.739250   -0.508390   -0.204870
     16          6           0       -3.839370   -1.762510   -0.874080
     17          1           0       -3.194600   -1.775390   -1.763370
     18          1           0       -4.889580   -1.867000   -1.163270
     19          1           0       -3.544190   -2.580630   -0.203170
     20          6           0        1.075120    1.739050   -0.878610
     21          7           0        0.520670    2.684390   -1.257720
     22          1           0        0.087980   -0.651110    0.047620
 ---------------------------------------------------------------------
                    Distance matrix (angstroms):
                    1          2          3          4          5
     1  C    0.000000
     2  C    3.947445   0.000000
     3  C    2.190775   4.862600   0.000000
     4  C    4.533555   1.333381   5.340609   0.000000
     5  N    1.322515   3.759456   1.354641   4.169730   0.000000
     6  H    4.578483   1.091421   5.671943   2.116829   4.605951
     7  H    3.146224   1.093091   3.856293   2.118872   2.862775
     8  H    3.218866   5.303155   1.083472   5.661875   2.146089
     9  H    5.499996   2.125061   6.419980   1.091772   5.221922
    10  O    1.321909   5.079573   2.242542   5.790646   2.171143
    11  C    2.248912   5.639983   1.421054   6.298071   2.248355
    12  O    3.370997   6.753242   2.438115   7.467743   3.440891
    13  C    4.378503   2.456813   4.784030   1.479982   3.700474
    14  O    3.614272   2.898202   3.677727   2.405040   2.708191
    15  O    5.570739   3.560632   5.898896   2.323744   4.869464
    16  C    6.050509   4.788077   6.040401   3.655703   5.193768
    17  H    5.616015   5.057805   5.690001   4.021642   4.837708
    18  H    7.088446   5.577338   7.132530   4.341380   6.275021
    19  H    6.142339   5.006403   5.747769   4.032014   5.106326
    20  C    1.412725   3.572600   3.558993   4.102195   2.437074
    21  N    2.572201   3.641111   4.697588   4.065952   3.507532
    22  H    2.092208   3.191969   2.146326   3.343080   1.044908
                    6          7          8          9         10
     6  H    0.000000
     7  H    1.866052   0.000000
     8  H    6.178501   4.314594   0.000000
     9  H    2.480099   3.100599   6.740135   0.000000
    10  O    5.605274   4.187548   3.309401   6.770226   0.000000
    11  C    6.283416   4.622198   2.264069   7.354569   1.444998
    12  O    7.337601   5.712859   2.974677   8.527952   2.298905
    13  C    3.459698   2.697468   4.935032   2.194425   5.643439
    14  O    3.987096   2.651211   3.772158   3.319447   4.795157
    15  O    4.436522   3.970987   5.939785   2.478154   6.842174
    16  C    5.746805   4.986347   5.913883   3.901274   7.242080
    17  H    6.050618   5.145246   5.643708   4.371597   6.769750
    18  H    6.452614   5.908564   6.988516   4.337502   8.298496
    19  H    6.010115   5.038717   5.436617   4.436701   7.243888
    20  C    4.037449   3.115521   4.532278   4.892987   2.411093
    21  N    3.910322   3.519657   5.639382   4.635962   3.491704
    22  H    4.175226   2.451940   2.564932   4.389280   3.166938
                   11         12         13         14         15
    11  C    0.000000
    12  O    1.200971   0.000000
    13  C    5.933427   7.110751   0.000000
    14  O    4.904637   6.060653   1.220047   0.000000
    15  O    7.100368   8.269487   1.318477   2.222837   0.000000
    16  C    7.316627   8.432143   2.345882   2.636360   1.425020
    17  H    6.886801   7.987821   2.656858   2.638871   2.081071
    18  H    8.403878   9.519092   3.223005   3.698547   2.021784
    19  H    7.108173   8.163920   2.665892   2.647811   2.081401
    20  C    3.614846   4.667756   4.234495   3.821029   5.355658
    21  N    4.760431   5.780116   4.434351   4.318490   5.426717
    22  H    3.263051   4.439007   2.692173   1.663284   3.838204
                   16         17         18         19         20
    16  C    0.000000
    17  H    1.098513   0.000000
    18  H    1.094299   1.800408   0.000000
    19  H    1.098441   1.790209   1.800315   0.000000
    20  C    6.034331   5.600410   6.975835   6.360336   0.000000
    21  N    6.239555   5.826538   7.070706   6.734656   1.159658
    22  H    4.184354   3.913952   5.265050   4.120510   2.746855
                   21         22
    21  N    0.000000
    22  H    3.607865   0.000000
 Stoichiometry    C8H8N2O4
 Framework group  C1[X(C8H8N2O4)]
 Deg. of freedom    60
 Full point group                 C1      NOp   1
 Largest Abelian subgroup         C1      NOp   1
 Largest concise Abelian subgroup C1      NOp   1
                         Standard orientation:                         
 ---------------------------------------------------------------------
 Center     Atomic      Atomic             Coordinates (Angstroms)
 Number     Number       Type             X           Y           Z
 ---------------------------------------------------------------------
      1          6           0        1.721350    0.575601   -0.404730
      2          6           0       -1.526120    1.644629    1.568450
      3          6           0        2.054791   -1.432489    0.405140
      4          6           0       -2.579240    1.176119    0.898120
      5          7           0        1.124961   -0.525510    0.020620
      6          1           0       -1.553201    2.620359    2.056730
      7          1           0       -0.604210    1.064080    1.657280
      8          1           0        1.798511   -2.412779    0.788890
      9          1           0       -3.513240    1.736158    0.820880
     10          8           0        3.034580    0.449161   -0.321770
     11          6           0        3.340401   -0.860189    0.207470
     12          8           0        4.481351   -1.197998    0.370100
     13          6           0       -2.549830   -0.146011    0.233700
     14          8           0       -1.562869   -0.849151    0.092210
     15          8           0       -3.739249   -0.508392   -0.204870
     16          6           0       -3.839369   -1.762512   -0.874080
     17          1           0       -3.194599   -1.775391   -1.763370
     18          1           0       -4.889579   -1.867002   -1.163270
     19          1           0       -3.544188   -2.580632   -0.203170
     20          6           0        1.075120    1.739050   -0.878610
     21          7           0        0.520669    2.684390   -1.257720
     22          1           0        0.087981   -0.651110    0.047620
 ---------------------------------------------------------------------
 Rotational constants (GHZ):           1.1485800           0.3334518           0.2884334
 Standard basis: def2SVP (5D, 7F)
 There are   250 symmetry adapted cartesian basis functions of A   symmetry.
 There are   236 symmetry adapted basis functions of A   symmetry.
   236 basis functions,   406 primitive gaussians,   250 cartesian basis functions
    51 alpha electrons       51 beta electrons
       nuclear repulsion energy       828.4251934089 Hartrees.
 NAtoms=   22 NActive=   22 NUniq=   22 SFac= 1.00D+00 NAtFMM=   60 NAOKFM=F Big=F
 Integral buffers will be    131072 words long.
 Raffenetti 2 integral format.
 Two-electron integral symmetry is turned on.
 Nuclear repulsion after empirical dispersion term =      828.4142321986 Hartrees.
 Force inversion solution in PCM.
 ------------------------------------------------------------------------------
 Polarizable Continuum Model (PCM)
 =================================
 Model                : PCM.
 Atomic radii         : UFF (Universal Force Field).
 Polarization charges : Total charges.
 Charge compensation  : None.
 Solution method      : Matrix inversion.
 Cavity type          : Scaled VdW (van der Waals Surface) (Alpha=1.100).
 Cavity algorithm     : GePol (No added spheres)
                        Default sphere list used, NSphG=   22.
                        Lebedev-Laikov grids with approx.  5.0 points / Ang**2.
                        Smoothing algorithm: York/Karplus (Gamma=1.0000).
                        Polarization charges: spherical gaussians, with
                                              point-specific exponents (IZeta= 3).
                        Self-potential: point-specific (ISelfS= 7).
                        Self-field    : sphere-specific E.n sum rule (ISelfD= 2).
 1st derivatives      : Analytical E(r).r(x)/FMM algorithm (CHGder, D1EAlg=3).
                        Cavity 1st derivative terms included.
 2nd derivatives      : Analytical E(r).r(xy)/FMM algorithm (CHGder, D2EAlg=3).
                        Cavity 2nd derivative terms included.
 Solvent              : Toluene, Eps=   2.374100 Eps(inf)=   2.238315
 ------------------------------------------------------------------------------
 One-electron integrals computed using PRISM.
   1 Symmetry operations used in ECPInt.
 ECPInt:  NShTT=    5886 NPrTT=   21942 LenC2=    5448 LenP2D=   14497.
 LDataN:  DoStor=T MaxTD1= 4 Len=   56
 NBasis=   236 RedAO= T EigKep=  3.31D-04  NBF=   236
 NBsUse=   236 1.00D-06 EigRej= -1.00D+00 NBFU=   236
 ExpMin= 1.22D-01 ExpMax= 2.27D+03 ExpMxC= 3.41D+02 IAcc=3 IRadAn=         5 AccDes= 0.00D+00
 Harris functional with IExCor= 4639 and IRadAn=       5 diagonalized for initial guess.
 HarFok:  IExCor= 4639 AccDes= 0.00D+00 IRadAn=         5 IDoV= 1 UseB2=F ITyADJ=14
 ICtDFT=  3500011 ScaDFX=  1.000000  1.000000  1.000000  1.000000
 FoFCou: FMM=F IPFlag=           0 FMFlag=      100000 FMFlg1=           0
         NFxFlg=           0 DoJE=T BraDBF=F KetDBF=T FulRan=T
         wScrn=  0.000000 ICntrl=       500 IOpCl=  0 I1Cent=   200000004 NGrid=           0
         NMat0=    1 NMatS0=      1 NMatT0=    0 NMatD0=    1 NMtDS0=    0 NMtDT0=    0
 Petite list used in FoFCou.
 Requested convergence on RMS density matrix=1.00D-08 within 128 cycles.
 Requested convergence on MAX density matrix=1.00D-06.
 Requested convergence on             energy=1.00D-06.
 No special actions if energy rises.
 Inv3:  Mode=1 IEnd=    12755532.
 Iteration    1 A*A^-1 deviation from unit magnitude is 3.33D-15 for   1139.
 Iteration    1 A*A^-1 deviation from orthogonality  is 2.27D-15 for   2055   1622.
 Iteration    1 A^-1*A deviation from unit magnitude is 3.77D-15 for   1139.
 Iteration    1 A^-1*A deviation from orthogonality  is 1.78D-15 for   1849    508.
 Error on total polarization charges =  0.00743
 SCF Done:  E(RwB97XD) =  -719.241587198     A.U. after   14 cycles
            NFock= 14  Conv=0.79D-08     -V/T= 2.0089
 DoSCS=F DFT=T ScalE2(SS,OS)=  1.000000  1.000000
 Range of M.O.s used for correlation:     1   236
 NBasis=   236 NAE=    51 NBE=    51 NFC=     0 NFV=     0
 NROrb=    236 NOA=    51 NOB=    51 NVA=   185 NVB=   185
   1 Symmetry operations used in ECPInt.
 ECPInt:  NShTT=    5886 NPrTT=   21942 LenC2=    5448 LenP2D=   14497.
 LDataN:  DoStor=T MaxTD1= 5 Len=  102
 Symmetrizing basis deriv contribution to polar:
 IMax=3 JMax=2 DiffMx= 0.00D+00
 G2DrvN: will do    23 centers at a time, making    1 passes.
 Calling FoFCou, ICntrl=  3107 FMM=F I1Cent=   0 AccDes= 0.00D+00.
 NEqPCM:  Using equilibrium solvation (IEInf=0, Eps=   2.3741, EpsInf=   2.2383)
 G2PCM: DoFxE=T DoFxN=T DoGrad=T DoDP/DQ/DG/TGxP=FFFF NFrqRd=   0 IEInf=0 SqF1=F DoCFld=F IF1Alg=4.
 End of G2Drv F.D. properties file   721 does not exist.
 End of G2Drv F.D. properties file   722 does not exist.
 End of G2Drv F.D. properties file   788 does not exist.
          IDoAtm=1111111111111111111111
 NEqPCM:  Using equilibrium solvation (IEInf=0, Eps=   2.3741, EpsInf=   2.2383)
          Differentiating once with respect to electric field.
                with respect to dipole field.
          Differentiating once with respect to nuclear coordinates.
 Keep R1 ints in memory in canonical form, NReq=801733550.
          There are    69 degrees of freedom in the 1st order CPHF.  IDoFFX=6 NUNeed=     3.
     66 vectors produced by pass  0 Test12= 1.37D-14 1.45D-09 XBig12= 7.87D+01 5.72D+00.
 AX will form    66 AO Fock derivatives at one time.
     66 vectors produced by pass  1 Test12= 1.37D-14 1.45D-09 XBig12= 1.08D+01 6.28D-01.
     66 vectors produced by pass  2 Test12= 1.37D-14 1.45D-09 XBig12= 3.24D-01 6.75D-02.
     66 vectors produced by pass  3 Test12= 1.37D-14 1.45D-09 XBig12= 5.15D-03 1.01D-02.
     66 vectors produced by pass  4 Test12= 1.37D-14 1.45D-09 XBig12= 4.58D-05 1.16D-03.
     66 vectors produced by pass  5 Test12= 1.37D-14 1.45D-09 XBig12= 2.76D-07 9.91D-05.
     59 vectors produced by pass  6 Test12= 1.37D-14 1.45D-09 XBig12= 1.46D-09 4.85D-06.
     26 vectors produced by pass  7 Test12= 1.37D-14 1.45D-09 XBig12= 6.56D-12 2.47D-07.
      4 vectors produced by pass  8 Test12= 1.37D-14 1.45D-09 XBig12= 3.06D-14 2.14D-08.
      1 vectors produced by pass  9 Test12= 1.37D-14 1.45D-09 XBig12= 1.37D-16 1.58D-09.
 InvSVY:  IOpt=1 It=  1 EMax= 3.55D-15
 Solved reduced A of dimension   486 with    69 vectors.
 Isotropic polarizability for W=    0.000000      126.24 Bohr**3.
 End of Minotr F.D. properties file   721 does not exist.
 End of Minotr F.D. properties file   722 does not exist.
 End of Minotr F.D. properties file   788 does not exist.

 **********************************************************************

            Population analysis using the SCF Density.

 **********************************************************************

 Orbital symmetries:
       Occupied  (A) (A) (A) (A) (A) (A) (A) (A) (A) (A) (A) (A)
                 (A) (A) (A) (A) (A) (A) (A) (A) (A) (A) (A) (A)
                 (A) (A) (A) (A) (A) (A) (A) (A) (A) (A) (A) (A)
                 (A) (A) (A) (A) (A) (A) (A) (A) (A) (A) (A) (A)
                 (A) (A) (A)
       Virtual   (A) (A) (A) (A) (A) (A) (A) (A) (A) (A) (A) (A)
                 (A) (A) (A) (A) (A) (A) (A) (A) (A) (A) (A) (A)
                 (A) (A) (A) (A) (A) (A) (A) (A) (A) (A) (A) (A)
                 (A) (A) (A) (A) (A) (A) (A) (A) (A) (A) (A) (A)
                 (A) (A) (A) (A) (A) (A) (A) (A) (A) (A) (A) (A)
                 (A) (A) (A) (A) (A) (A) (A) (A) (A) (A) (A) (A)
                 (A) (A) (A) (A) (A) (A) (A) (A) (A) (A) (A) (A)
                 (A) (A) (A) (A) (A) (A) (A) (A) (A) (A) (A) (A)
                 (A) (A) (A) (A) (A) (A) (A) (A) (A) (A) (A) (A)
                 (A) (A) (A) (A) (A) (A) (A) (A) (A) (A) (A) (A)
                 (A) (A) (A) (A) (A) (A) (A) (A) (A) (A) (A) (A)
                 (A) (A) (A) (A) (A) (A) (A) (A) (A) (A) (A) (A)
                 (A) (A) (A) (A) (A) (A) (A) (A) (A) (A) (A) (A)
                 (A) (A) (A) (A) (A) (A) (A) (A) (A) (A) (A) (A)
                 (A) (A) (A) (A) (A) (A) (A) (A) (A) (A) (A) (A)
                 (A) (A) (A) (A) (A)
 The electronic state is 1-A.
 Alpha  occ. eigenvalues --  -19.34291 -19.33451 -19.28335 -19.22676 -14.55494
 Alpha  occ. eigenvalues --  -14.47755 -10.46507 -10.44070 -10.42391 -10.37353
 Alpha  occ. eigenvalues --  -10.37155 -10.34345 -10.34318 -10.33612  -1.25401
 Alpha  occ. eigenvalues --   -1.23993  -1.14303  -1.12442  -1.08638  -1.02561
 Alpha  occ. eigenvalues --   -0.91539  -0.89417  -0.85044  -0.78430  -0.74625
 Alpha  occ. eigenvalues --   -0.73544  -0.72087  -0.67165  -0.63841  -0.63042
 Alpha  occ. eigenvalues --   -0.61136  -0.60634  -0.59900  -0.57002  -0.55517
 Alpha  occ. eigenvalues --   -0.52832  -0.52154  -0.51506  -0.50434  -0.49518
 Alpha  occ. eigenvalues --   -0.48830  -0.47997  -0.46726  -0.46443  -0.46010
 Alpha  occ. eigenvalues --   -0.44051  -0.42171  -0.40796  -0.39035  -0.36661
 Alpha  occ. eigenvalues --   -0.28284
 Alpha virt. eigenvalues --   -0.00939  -0.00376   0.06009   0.12996   0.13912
 Alpha virt. eigenvalues --    0.14272   0.15694   0.15869   0.17755   0.18600
 Alpha virt. eigenvalues --    0.19017   0.19926   0.20789   0.21051   0.22035
 Alpha virt. eigenvalues --    0.23954   0.25593   0.26885   0.31280   0.33577
 Alpha virt. eigenvalues --    0.34618   0.35648   0.36581   0.37887   0.38293
 Alpha virt. eigenvalues --    0.43772   0.45938   0.48666   0.49898   0.50355
 Alpha virt. eigenvalues --    0.50979   0.52366   0.53587   0.54176   0.54798
 Alpha virt. eigenvalues --    0.55476   0.56736   0.58491   0.59396   0.60898
 Alpha virt. eigenvalues --    0.61911   0.63238   0.65260   0.66793   0.67911
 Alpha virt. eigenvalues --    0.68395   0.69851   0.70600   0.71236   0.72066
 Alpha virt. eigenvalues --    0.72282   0.72445   0.73397   0.74617   0.75113
 Alpha virt. eigenvalues --    0.75610   0.78430   0.80131   0.80656   0.81952
 Alpha virt. eigenvalues --    0.83320   0.85161   0.87260   0.90117   0.93966
 Alpha virt. eigenvalues --    0.94409   0.95079   0.97256   1.01624   1.04593
 Alpha virt. eigenvalues --    1.07390   1.09071   1.09907   1.10951   1.11563
 Alpha virt. eigenvalues --    1.13073   1.14936   1.16477   1.16896   1.19101
 Alpha virt. eigenvalues --    1.22913   1.26806   1.27447   1.29838   1.30435
 Alpha virt. eigenvalues --    1.31472   1.33007   1.34079   1.37962   1.40137
 Alpha virt. eigenvalues --    1.44026   1.44873   1.48938   1.51456   1.52220
 Alpha virt. eigenvalues --    1.57910   1.58686   1.61373   1.63055   1.63177
 Alpha virt. eigenvalues --    1.66312   1.67422   1.67950   1.70261   1.71593
 Alpha virt. eigenvalues --    1.72666   1.75293   1.75956   1.76654   1.78959
 Alpha virt. eigenvalues --    1.79600   1.81626   1.82738   1.83800   1.84778
 Alpha virt. eigenvalues --    1.89144   1.89622   1.91219   1.93086   1.95857
 Alpha virt. eigenvalues --    1.96875   1.98187   1.99957   2.03311   2.04647
 Alpha virt. eigenvalues --    2.06512   2.08420   2.10830   2.12427   2.12737
 Alpha virt. eigenvalues --    2.18158   2.20166   2.24537   2.29166   2.29344
 Alpha virt. eigenvalues --    2.31459   2.32518   2.32598   2.34092   2.37794
 Alpha virt. eigenvalues --    2.39747   2.41360   2.43804   2.48840   2.50226
 Alpha virt. eigenvalues --    2.52472   2.55727   2.63127   2.64665   2.69232
 Alpha virt. eigenvalues --    2.70937   2.72912   2.73509   2.75680   2.77146
 Alpha virt. eigenvalues --    2.80150   2.84019   2.86056   2.86787   2.87978
 Alpha virt. eigenvalues --    2.93656   2.94866   2.95538   2.97726   3.01707
 Alpha virt. eigenvalues --    3.02635   3.03323   3.06445   3.12264   3.13496
 Alpha virt. eigenvalues --    3.14628   3.19436   3.26911   3.28400   3.30168
 Alpha virt. eigenvalues --    3.36261   3.38256   3.45671   3.48834   3.53980
 Alpha virt. eigenvalues --    3.69910   3.73650   3.74929   3.78438   3.84808
          Condensed to atoms (all electrons):
               1          2          3          4          5          6
     1  C    5.221890  -0.000507  -0.110997   0.000393   0.557371   0.000055
     2  C   -0.000507   4.661449   0.000171   0.611874  -0.001974   0.390412
     3  C   -0.110997   0.000171   5.283580  -0.000018   0.371309  -0.000001
     4  C    0.000393   0.611874  -0.000018   5.013421  -0.000030  -0.010715
     5  N    0.557371  -0.001974   0.371309  -0.000030   6.060588   0.000021
     6  H    0.000055   0.390412  -0.000001  -0.010715   0.000021   0.564795
     7  H    0.001109   0.392719  -0.000509  -0.027745   0.005768  -0.034119
     8  H    0.005601   0.000010   0.414807  -0.000004  -0.027616   0.000000
     9  H   -0.000012  -0.024066   0.000000   0.392357   0.000002  -0.010186
    10  O    0.454239   0.000021  -0.124329   0.000001  -0.081785  -0.000000
    11  C   -0.083608  -0.000004   0.363069   0.000001  -0.029426   0.000000
    12  O    0.002361  -0.000000  -0.076780   0.000000   0.001486   0.000000
    13  C    0.000070  -0.035669   0.000074   0.318451   0.000491   0.007714
    14  O   -0.002639   0.009867  -0.000311  -0.095135  -0.033256   0.000238
    15  O   -0.000007   0.004548   0.000000  -0.098742  -0.000010  -0.000073
    16  C    0.000002  -0.000315  -0.000001   0.008714   0.000000   0.000004
    17  H    0.000005  -0.000040  -0.000002   0.000605  -0.000009  -0.000000
    18  H    0.000000  -0.000004  -0.000000   0.000010   0.000000  -0.000000
    19  H    0.000000   0.000089   0.000001   0.000140   0.000007  -0.000000
    20  C    0.026191   0.001286   0.014495   0.000095  -0.135596  -0.000044
    21  N   -0.099829   0.000672   0.000191   0.000044  -0.004458   0.000021
    22  H   -0.003160   0.000650  -0.015024  -0.000790   0.342122  -0.000003
               7          8          9         10         11         12
     1  C    0.001109   0.005601  -0.000012   0.454239  -0.083608   0.002361
     2  C    0.392719   0.000010  -0.024066   0.000021  -0.000004  -0.000000
     3  C   -0.000509   0.414807   0.000000  -0.124329   0.363069  -0.076780
     4  C   -0.027745  -0.000004   0.392357   0.000001   0.000001   0.000000
     5  N    0.005768  -0.027616   0.000002  -0.081785  -0.029426   0.001486
     6  H   -0.034119   0.000000  -0.010186  -0.000000   0.000000   0.000000
     7  H    0.607557  -0.000032   0.006703  -0.000213  -0.000074   0.000001
     8  H   -0.000032   0.561079  -0.000000   0.003700  -0.025448   0.001340
     9  H    0.006703  -0.000000   0.583426   0.000000  -0.000000   0.000000
    10  O   -0.000213   0.003700   0.000000   7.901626   0.261267  -0.064947
    11  C   -0.000074  -0.025448  -0.000000   0.261267   4.493882   0.764080
    12  O    0.000001   0.001340   0.000000  -0.064947   0.764080   7.633016
    13  C   -0.016703   0.000019  -0.030422  -0.000000  -0.000003   0.000000
    14  O    0.006247   0.000253   0.002782  -0.000004  -0.000021   0.000000
    15  O    0.000319   0.000000   0.006693  -0.000000  -0.000000   0.000000
    16  C   -0.000016  -0.000000  -0.000200  -0.000000   0.000000  -0.000000
    17  H   -0.000014  -0.000001   0.000022   0.000000  -0.000000   0.000000
    18  H   -0.000001   0.000000  -0.000132   0.000000   0.000000  -0.000000
    19  H    0.000002   0.000001   0.000035   0.000000   0.000000  -0.000000
    20  C    0.000965  -0.000370   0.000020  -0.091820  -0.006241  -0.000297
    21  N   -0.000899  -0.000001  -0.000015  -0.002462  -0.000119  -0.000000
    22  H    0.000295  -0.004627  -0.000029   0.001283   0.006486  -0.000031
              13         14         15         16         17         18
     1  C    0.000070  -0.002639  -0.000007   0.000002   0.000005   0.000000
     2  C   -0.035669   0.009867   0.004548  -0.000315  -0.000040  -0.000004
     3  C    0.000074  -0.000311   0.000000  -0.000001  -0.000002  -0.000000
     4  C    0.318451  -0.095135  -0.098742   0.008714   0.000605   0.000010
     5  N    0.000491  -0.033256  -0.000010   0.000000  -0.000009   0.000000
     6  H    0.007714   0.000238  -0.000073   0.000004  -0.000000  -0.000000
     7  H   -0.016703   0.006247   0.000319  -0.000016  -0.000014  -0.000001
     8  H    0.000019   0.000253   0.000000  -0.000000  -0.000001   0.000000
     9  H   -0.030422   0.002782   0.006693  -0.000200   0.000022  -0.000132
    10  O   -0.000000  -0.000004  -0.000000  -0.000000   0.000000   0.000000
    11  C   -0.000003  -0.000021  -0.000000   0.000000  -0.000000   0.000000
    12  O    0.000000   0.000000   0.000000  -0.000000   0.000000  -0.000000
    13  C    4.499738   0.592690   0.402138  -0.032704  -0.004931   0.004178
    14  O    0.592690   7.835349  -0.081569   0.001916   0.006631   0.000724
    15  O    0.402138  -0.081569   7.887614   0.255240  -0.025043  -0.020631
    16  C   -0.032704   0.001916   0.255240   4.431369   0.406818   0.401745
    17  H   -0.004931   0.006631  -0.025043   0.406818   0.597042  -0.020533
    18  H    0.004178   0.000724  -0.020631   0.401745  -0.020533   0.581828
    19  H   -0.004897   0.005901  -0.024247   0.407036  -0.026934  -0.020762
    20  C    0.000158   0.002196   0.000004  -0.000005   0.000000  -0.000000
    21  N   -0.000214  -0.000046   0.000001  -0.000000  -0.000001  -0.000000
    22  H   -0.007187   0.077843   0.000363   0.000045   0.000178   0.000002
              19         20         21         22
     1  C    0.000000   0.026191  -0.099829  -0.003160
     2  C    0.000089   0.001286   0.000672   0.000650
     3  C    0.000001   0.014495   0.000191  -0.015024
     4  C    0.000140   0.000095   0.000044  -0.000790
     5  N    0.000007  -0.135596  -0.004458   0.342122
     6  H   -0.000000  -0.000044   0.000021  -0.000003
     7  H    0.000002   0.000965  -0.000899   0.000295
     8  H    0.000001  -0.000370  -0.000001  -0.004627
     9  H    0.000035   0.000020  -0.000015  -0.000029
    10  O    0.000000  -0.091820  -0.002462   0.001283
    11  C    0.000000  -0.006241  -0.000119   0.006486
    12  O   -0.000000  -0.000297  -0.000000  -0.000031
    13  C   -0.004897   0.000158  -0.000214  -0.007187
    14  O    0.005901   0.002196  -0.000046   0.077843
    15  O   -0.024247   0.000004   0.000001   0.000363
    16  C    0.407036  -0.000005  -0.000000   0.000045
    17  H   -0.026934   0.000000  -0.000001   0.000178
    18  H   -0.020762  -0.000000  -0.000000   0.000002
    19  H    0.597659  -0.000001   0.000000  -0.000068
    20  C   -0.000001   5.412244   0.867771  -0.023574
    21  N    0.000000   0.867771   6.158013  -0.000417
    22  H   -0.000068  -0.023574  -0.000417   0.433659
 Mulliken charges:
               1
     1  C    0.031473
     2  C   -0.011188
     3  C   -0.119726
     4  C   -0.112926
     5  N   -0.025006
     6  H    0.091883
     7  H    0.058640
     8  H    0.071288
     9  H    0.073023
    10  O   -0.256576
    11  C    0.256159
    12  O   -0.260227
    13  C    0.307009
    14  O   -0.329655
    15  O   -0.306598
    16  C    0.120353
    17  H    0.066208
    18  H    0.073576
    19  H    0.066038
    20  C   -0.067479
    21  N    0.081749
    22  H    0.191983
 Sum of Mulliken charges =  -0.00000
 Mulliken charges with hydrogens summed into heavy atoms:
               1
     1  C    0.031473
     2  C    0.139335
     3  C   -0.048438
     4  C   -0.039903
     5  N    0.166977
    10  O   -0.256576
    11  C    0.256159
    12  O   -0.260227
    13  C    0.307009
    14  O   -0.329655
    15  O   -0.306598
    16  C    0.326175
    20  C   -0.067479
    21  N    0.081749
 APT charges:
               1
     1  C   -0.075026
     2  C    0.025062
     3  C   -0.606792
     4  C   -0.290301
     5  N    0.200413
     6  H    0.074727
     7  H    0.063743
     8  H    0.146520
     9  H    0.075498
    10  O   -0.347458
    11  C    1.164295
    12  O   -1.049165
    13  C    1.508886
    14  O   -1.022673
    15  O   -1.036488
    16  C    0.510438
    17  H   -0.003703
    18  H    0.018910
    19  H   -0.001262
    20  C    0.547487
    21  N   -0.544459
    22  H    0.641348
 Sum of APT charges =  -0.00000
 APT charges with hydrogens summed into heavy atoms:
               1
     1  C   -0.075026
     2  C    0.163532
     3  C   -0.460272
     4  C   -0.214804
     5  N    0.841761
    10  O   -0.347458
    11  C    1.164295
    12  O   -1.049165
    13  C    1.508886
    14  O   -1.022673
    15  O   -1.036488
    16  C    0.524383
    20  C    0.547487
    21  N   -0.544459
 Electronic spatial extent (au):  <R**2>=           3697.0984
 Charge=             -0.0000 electrons
 Dipole moment (field-independent basis, Debye):
    X=             -9.2968    Y=             -1.8250    Z=              1.1745  Tot=              9.5468
 Quadrupole moment (field-independent basis, Debye-Ang):
   XX=            -99.5385   YY=            -81.3200   ZZ=            -77.7401
   XY=              9.2993   XZ=              0.1255   YZ=              8.9810
 Traceless Quadrupole moment (field-independent basis, Debye-Ang):
   XX=            -13.3389   YY=              4.8795   ZZ=              8.4594
   XY=              9.2993   XZ=              0.1255   YZ=              8.9810
 Octapole moment (field-independent basis, Debye-Ang**2):
  XXX=           -218.3012  YYY=            -43.8319  ZZZ=              0.0811  XYY=            -32.9038
  XXY=             12.6781  XXZ=            -24.5386  XZZ=             -7.9225  YZZ=             -7.2445
  YYZ=             20.4885  XYZ=             -9.1319
 Hexadecapole moment (field-independent basis, Debye-Ang**3):
 XXXX=          -3985.7781 YYYY=           -983.6404 ZZZZ=           -351.2190 XXXY=            291.9149
 XXXZ=             11.6569 YYYX=             19.7082 YYYZ=             63.0832 ZZZX=             16.5072
 ZZZY=             24.2517 XXYY=           -684.3914 XXZZ=           -604.9936 YYZZ=           -215.0935
 XXYZ=             59.8326 YYXZ=              6.1447 ZZXY=              7.0581
 N-N= 8.284142321986D+02 E-N=-3.335482034320D+03  KE= 7.129157731641D+02
  Exact polarizability:     143.248     -22.711     152.088      23.369     -13.042      83.390
 Approx polarizability:     140.668     -27.103     156.279      22.262     -19.681      85.958
   1 Symmetry operations used in ECPInt.
 ECPInt:  NShTT=    5886 NPrTT=   21942 LenC2=    5448 LenP2D=   14497.
 LDataN:  DoStor=T MaxTD1= 6 Len=  172
 D2PCM: PCM CHGder 2nd derivatives, FixD1E=F FixD2E=F DoIter=F DoCFld=F I1PDM=0
 Calling FoFJK, ICntrl=    100127 FMM=F ISym2X=0 I1Cent= 0 IOpClX= 0 NMat=1 NMatS=1 NMatT=0.
 Full mass-weighted force constant matrix:
 Low frequencies ---  -19.4687   -8.4721   -5.7772   -0.0008    0.0005    0.0008
 Low frequencies ---   10.0783   28.0655   40.1774
 ******    1 imaginary frequencies (negative Signs) ****** 
 Diagonal vibrational polarizability:
      226.2651492      59.4516743     167.2631672
 Harmonic frequencies (cm**-1), IR intensities (KM/Mole), Raman scattering
 activities (A**4/AMU), depolarization ratios for plane and unpolarized
 incident light, reduced masses (AMU), force constants (mDyne/A),
 and normal coordinates:
                      1                      2                      3
                      A                      A                      A
 Frequencies --     -6.4848                27.8121                39.9851
 Red. masses --      5.6574                 6.1639                 4.0468
 Frc consts  --      0.0001                 0.0028                 0.0038
 IR Inten    --      0.3808                 1.2588                 0.6438
  Atom  AN      X      Y      Z        X      Y      Z        X      Y      Z
     1   6     0.05   0.05   0.05    -0.03  -0.06   0.06     0.06   0.00  -0.04
     2   6    -0.12   0.16  -0.19    -0.16   0.15   0.02    -0.16   0.06   0.08
     3   6    -0.04  -0.02  -0.08     0.07  -0.02   0.10    -0.01   0.02   0.03
     4   6    -0.10   0.05  -0.16    -0.10   0.08  -0.03    -0.19  -0.07   0.21
     5   7    -0.00   0.05  -0.01     0.03  -0.04   0.18     0.02   0.04   0.00
     6   1    -0.16   0.20  -0.29    -0.22   0.17  -0.03    -0.26   0.00   0.18
     7   1    -0.10   0.20  -0.13    -0.15   0.18   0.11    -0.04   0.22  -0.15
     8   1    -0.08  -0.03  -0.14     0.12  -0.01   0.17    -0.04   0.05   0.07
     9   1    -0.12   0.00  -0.21    -0.10   0.06  -0.14    -0.31  -0.23   0.43
    10   8     0.04  -0.02   0.03    -0.02  -0.05  -0.10     0.05  -0.04  -0.04
    11   6    -0.02  -0.07  -0.06     0.05  -0.03  -0.08     0.01  -0.03   0.01
    12   8    -0.03  -0.13  -0.10     0.07  -0.02  -0.21    -0.00  -0.06   0.02
    13   6    -0.04  -0.01  -0.03     0.00   0.06   0.03    -0.06   0.01   0.06
    14   8     0.00   0.03   0.03     0.02   0.04   0.23     0.02   0.15  -0.07
    15   8    -0.02  -0.12   0.03     0.07   0.05  -0.16    -0.04  -0.08   0.07
    16   6     0.03  -0.20   0.17     0.18   0.03  -0.14     0.09  -0.00  -0.09
    17   1     0.02  -0.26   0.16     0.35  -0.01  -0.02     0.02   0.22  -0.15
    18   1     0.03  -0.28   0.20     0.24   0.03  -0.33     0.08  -0.12  -0.02
    19   1     0.08  -0.11   0.25     0.04   0.04  -0.06     0.27  -0.06  -0.24
    20   6     0.10   0.11   0.13    -0.09  -0.09   0.07     0.09   0.00  -0.09
    21   7     0.15   0.17   0.19    -0.15  -0.11   0.08     0.11  -0.00  -0.12
    22   1    -0.01   0.09  -0.01     0.03  -0.04   0.27     0.02   0.08  -0.01
                      4                      5                      6
                      A                      A                      A
 Frequencies --     69.3279                96.2406               115.2247
 Red. masses --      6.3922                 5.7073                 2.2539
 Frc consts  --      0.0181                 0.0311                 0.0176
 IR Inten    --      2.4153                10.3134                 1.1214
  Atom  AN      X      Y      Z        X      Y      Z        X      Y      Z
     1   6    -0.02   0.09  -0.04     0.01   0.04   0.11    -0.05   0.01   0.00
     2   6     0.03  -0.12   0.10     0.04  -0.10  -0.01     0.11   0.06  -0.10
     3   6    -0.15   0.12   0.09     0.02   0.11   0.27    -0.08   0.01   0.01
     4   6     0.07  -0.06   0.01     0.05  -0.04  -0.06     0.07  -0.01   0.02
     5   7    -0.09   0.17   0.06     0.01   0.11   0.30    -0.06   0.02   0.01
     6   1     0.05  -0.09   0.05     0.05  -0.12   0.04     0.12   0.08  -0.13
     7   1    -0.02  -0.18   0.23     0.03  -0.12   0.01     0.14   0.10  -0.16
     8   1    -0.22   0.16   0.16     0.03   0.15   0.38    -0.09   0.01   0.01
     9   1     0.12   0.01  -0.12     0.06  -0.00  -0.04     0.04  -0.04   0.08
    10   8    -0.02  -0.02  -0.08     0.02  -0.02  -0.06    -0.05  -0.01   0.00
    11   6    -0.11  -0.01  -0.01     0.02   0.00  -0.01    -0.07  -0.01   0.01
    12   8    -0.14  -0.10  -0.04     0.03  -0.06  -0.21    -0.08  -0.04   0.01
    13   6     0.03  -0.09   0.07    -0.00  -0.01  -0.11     0.06  -0.01   0.03
    14   8    -0.00  -0.18   0.24    -0.01   0.00  -0.24     0.06   0.00  -0.01
    15   8     0.07  -0.01  -0.09    -0.05  -0.01   0.02     0.06  -0.03   0.04
    16   6     0.07  -0.02  -0.08    -0.14  -0.01   0.03     0.13   0.02  -0.06
    17   1     0.30  -0.13   0.08    -0.38   0.05  -0.14    -0.20   0.29  -0.30
    18   1     0.13   0.11  -0.34    -0.21  -0.08   0.32     0.05  -0.21   0.31
    19   1    -0.21  -0.04   0.02     0.10   0.00  -0.06     0.59   0.01  -0.28
    20   6     0.08   0.12  -0.09     0.01   0.01   0.04    -0.05   0.01   0.01
    21   7     0.19   0.16  -0.15     0.01  -0.01  -0.02    -0.08  -0.00   0.03
    22   1    -0.10   0.18   0.10     0.01   0.11   0.28    -0.07   0.02   0.01
                      7                      8                      9
                      A                      A                      A
 Frequencies --    119.7737               130.8265               131.8165
 Red. masses --      3.3470                 2.6217                 3.0592
 Frc consts  --      0.0283                 0.0264                 0.0313
 IR Inten    --      3.2717                 2.4591                 0.2610
  Atom  AN      X      Y      Z        X      Y      Z        X      Y      Z
     1   6    -0.00   0.01  -0.01    -0.01   0.07   0.14    -0.00  -0.05  -0.15
     2   6    -0.10  -0.09   0.24     0.06   0.03  -0.05     0.05   0.01  -0.02
     3   6    -0.06  -0.00  -0.04    -0.04  -0.02  -0.05    -0.04   0.04   0.10
     4   6     0.03   0.08  -0.07     0.02  -0.02   0.04     0.02  -0.02   0.03
     5   7    -0.03   0.02  -0.04    -0.02   0.03   0.03    -0.02   0.02  -0.00
     6   1    -0.12  -0.12   0.31     0.04   0.02  -0.03     0.03  -0.01   0.01
     7   1    -0.18  -0.19   0.41     0.10   0.09  -0.14     0.08   0.05  -0.10
     8   1    -0.08  -0.01  -0.06    -0.05  -0.05  -0.15    -0.05   0.10   0.22
     9   1     0.09   0.16  -0.25    -0.02  -0.07   0.14    -0.01  -0.05   0.12
    10   8    -0.00  -0.01   0.01    -0.01   0.05   0.15    -0.01  -0.07  -0.17
    11   6    -0.04  -0.03   0.00    -0.03  -0.02  -0.01    -0.03  -0.00   0.03
    12   8    -0.05  -0.05   0.02    -0.04  -0.07  -0.08    -0.04   0.00   0.09
    13   6     0.06   0.09  -0.09     0.03   0.01  -0.00     0.03   0.01  -0.02
    14   8     0.07   0.11  -0.07     0.05   0.04  -0.08     0.05   0.06  -0.12
    15   8     0.07   0.02  -0.06     0.03  -0.03   0.04     0.02  -0.02   0.03
    16   6     0.12  -0.09   0.13     0.05  -0.01   0.01     0.05  -0.02   0.02
    17   1    -0.01  -0.15   0.05     0.44  -0.17   0.29     0.42  -0.20   0.30
    18   1     0.09  -0.25   0.30     0.16   0.21  -0.44     0.14   0.18  -0.41
    19   1     0.30   0.04   0.21    -0.42  -0.06   0.16    -0.42  -0.06   0.19
    20   6    -0.01   0.00  -0.02    -0.02   0.01   0.02    -0.02  -0.00  -0.01
    21   7    -0.07  -0.04  -0.04    -0.07  -0.07  -0.12    -0.07   0.04   0.18
    22   1    -0.03   0.05  -0.05    -0.03   0.03  -0.02    -0.03   0.04   0.02
                     10                     11                     12
                      A                      A                      A
 Frequencies --    171.7528               206.6089               241.8534
 Red. masses --      9.4308                 2.7238                 3.1604
 Frc consts  --      0.1639                 0.0685                 0.1089
 IR Inten    --     22.0018                 4.0839                16.8230
  Atom  AN      X      Y      Z        X      Y      Z        X      Y      Z
     1   6    -0.27  -0.17   0.07    -0.01  -0.01  -0.00    -0.02  -0.01   0.00
     2   6     0.04  -0.00   0.02    -0.06   0.00   0.06    -0.14   0.19   0.08
     3   6     0.02  -0.12   0.04     0.00  -0.01  -0.00    -0.02  -0.01  -0.02
     4   6     0.02   0.02   0.04     0.05   0.08  -0.16     0.03  -0.08   0.00
     5   7    -0.12  -0.24   0.09    -0.00  -0.01   0.00    -0.02  -0.01   0.00
     6   1     0.04  -0.04   0.09    -0.03   0.08  -0.10    -0.45   0.20   0.05
     7   1     0.06   0.02  -0.07    -0.18  -0.14   0.39     0.02   0.45   0.18
     8   1     0.17  -0.16   0.05     0.01  -0.01  -0.00    -0.01  -0.02  -0.02
     9   1    -0.00  -0.01   0.13     0.15   0.22  -0.48    -0.07  -0.26  -0.05
    10   8    -0.25  -0.01   0.01    -0.01  -0.00  -0.01    -0.02  -0.01  -0.01
    11   6    -0.06   0.06  -0.03     0.00   0.00  -0.00    -0.02  -0.00  -0.01
    12   8     0.01   0.24  -0.10     0.00   0.01  -0.00    -0.02   0.01   0.01
    13   6     0.03   0.06  -0.03     0.00  -0.02   0.04     0.16  -0.07  -0.02
    14   8     0.04   0.08  -0.10     0.01   0.01  -0.03     0.13  -0.10  -0.05
    15   8     0.04   0.00  -0.01    -0.04  -0.11   0.23     0.13   0.01   0.00
    16   6     0.14  -0.04   0.05     0.02   0.06  -0.11    -0.16   0.05   0.00
    17   1     0.22  -0.09   0.12     0.14   0.31  -0.03    -0.27  -0.06  -0.08
    18   1     0.17  -0.10  -0.03     0.06   0.16  -0.28    -0.22   0.25   0.12
    19   1     0.10   0.01   0.14    -0.08  -0.13  -0.31    -0.25  -0.02  -0.04
    20   6    -0.13  -0.10   0.04    -0.00  -0.01   0.00    -0.02  -0.00   0.00
    21   7     0.44   0.19  -0.07     0.02   0.00  -0.01     0.01   0.01  -0.01
    22   1    -0.11  -0.30   0.11    -0.00  -0.00  -0.00    -0.02  -0.02   0.01
                     13                     14                     15
                      A                      A                      A
 Frequencies --    298.1262               358.8611               458.8705
 Red. masses --      9.6869                 4.3925                10.8675
 Frc consts  --      0.5073                 0.3333                 1.3482
 IR Inten    --      1.3881                37.6868                 7.2354
  Atom  AN      X      Y      Z        X      Y      Z        X      Y      Z
     1   6     0.00  -0.12  -0.29    -0.02  -0.01  -0.00     0.08  -0.05   0.03
     2   6    -0.03   0.02   0.02     0.03  -0.15  -0.08     0.01   0.01   0.02
     3   6    -0.01   0.14   0.36    -0.01  -0.00   0.00    -0.23  -0.06   0.02
     4   6    -0.00   0.00  -0.01    -0.09   0.04  -0.02     0.01   0.01   0.00
     5   7     0.01  -0.11  -0.28    -0.00  -0.01  -0.00    -0.15   0.06  -0.03
     6   1    -0.06   0.02   0.02     0.26  -0.19   0.02    -0.01   0.01   0.02
     7   1    -0.02   0.03   0.03    -0.08  -0.33  -0.23     0.02   0.03   0.02
     8   1    -0.01   0.13   0.33    -0.01  -0.00   0.01    -0.39  -0.02   0.00
     9   1    -0.01  -0.01  -0.03    -0.07   0.07   0.04     0.02   0.02   0.01
    10   8    -0.01   0.14   0.34    -0.01   0.00   0.01    -0.01  -0.24   0.10
    11   6    -0.01   0.08   0.19    -0.02   0.00   0.00    -0.15  -0.02   0.00
    12   8     0.01  -0.12  -0.30    -0.02  -0.00  -0.00     0.02   0.44  -0.18
    13   6     0.02  -0.00   0.01     0.04   0.04   0.00    -0.00   0.01  -0.00
    14   8     0.01  -0.02   0.01     0.21   0.25   0.16     0.01   0.01   0.01
    15   8     0.01   0.01   0.00     0.10  -0.11  -0.01     0.01  -0.02  -0.01
    16   6     0.00   0.01   0.00    -0.21  -0.05  -0.07    -0.01  -0.02  -0.01
    17   1    -0.00   0.01   0.00    -0.34  -0.13  -0.17    -0.03  -0.03  -0.02
    18   1     0.00   0.02   0.01    -0.27   0.21   0.05    -0.02   0.01  -0.00
    19   1     0.00   0.01   0.00    -0.34  -0.17  -0.16    -0.03  -0.03  -0.02
    20   6     0.00  -0.07  -0.18    -0.03  -0.01   0.00     0.53   0.07  -0.02
    21   7     0.00   0.05   0.12     0.01   0.01  -0.00    -0.05  -0.25   0.09
    22   1     0.01  -0.16  -0.40    -0.01   0.02   0.03    -0.18   0.18  -0.07
                     16                     17                     18
                      A                      A                      A
 Frequencies --    480.1451               487.1486               540.4041
 Red. masses --      3.4327                11.6353                 1.7540
 Frc consts  --      0.4663                 1.6269                 0.3018
 IR Inten    --      2.3386                 5.2456                 0.9663
  Atom  AN      X      Y      Z        X      Y      Z        X      Y      Z
     1   6    -0.00  -0.00  -0.00     0.00  -0.07  -0.17    -0.01   0.00  -0.00
     2   6    -0.14  -0.17  -0.13     0.02   0.03   0.01     0.03   0.03   0.05
     3   6    -0.01   0.00   0.01    -0.00   0.07   0.18     0.01  -0.00   0.00
     4   6    -0.15  -0.05  -0.12     0.01   0.00   0.03     0.07   0.09  -0.08
     5   7    -0.00  -0.00  -0.00     0.01  -0.10  -0.23     0.00  -0.01   0.00
     6   1    -0.06  -0.34   0.21     0.03   0.08  -0.07    -0.23  -0.26   0.61
     7   1    -0.13  -0.21  -0.47    -0.00   0.01   0.09     0.22   0.27  -0.34
     8   1    -0.01   0.00   0.01    -0.00   0.04   0.10     0.01  -0.00   0.01
     9   1    -0.29  -0.28   0.06     0.04   0.04  -0.02    -0.08  -0.11   0.40
    10   8    -0.00  -0.01  -0.01     0.00  -0.05  -0.12    -0.00  -0.00  -0.00
    11   6    -0.01   0.00   0.00    -0.00   0.04   0.11     0.01  -0.00   0.00
    12   8    -0.00   0.01  -0.00     0.00  -0.01  -0.04     0.01  -0.01   0.00
    13   6     0.09   0.01  -0.05    -0.01  -0.01   0.02     0.01   0.07  -0.13
    14   8     0.05  -0.08   0.02    -0.00   0.01  -0.01    -0.04  -0.03   0.07
    15   8     0.05   0.11   0.11    -0.00  -0.01  -0.02    -0.03  -0.06   0.04
    16   6     0.09   0.19   0.11    -0.01  -0.02  -0.01    -0.02  -0.05  -0.04
    17   1     0.12   0.24   0.13    -0.02  -0.04  -0.02    -0.01   0.02  -0.03
    18   1     0.10   0.14   0.07    -0.01  -0.02  -0.00    -0.01  -0.02  -0.06
    19   1     0.11   0.18   0.08    -0.01  -0.02  -0.00    -0.03  -0.10  -0.09
    20   6     0.01   0.02   0.03    -0.02   0.29   0.75     0.00   0.02   0.00
    21   7    -0.00  -0.01  -0.01     0.00  -0.12  -0.31    -0.01   0.01  -0.01
    22   1    -0.00  -0.02  -0.02     0.01  -0.07  -0.17     0.00  -0.02   0.01
                     19                     20                     21
                      A                      A                      A
 Frequencies --    564.1125               618.1723               643.7623
 Red. masses --     11.5132                 6.6719                 1.1997
 Frc consts  --      2.1586                 1.5022                 0.2929
 IR Inten    --      3.8783                 0.4423                45.8255
  Atom  AN      X      Y      Z        X      Y      Z        X      Y      Z
     1   6     0.08  -0.07   0.03    -0.18  -0.05   0.02    -0.00   0.03   0.08
     2   6     0.01   0.00   0.00    -0.00  -0.00   0.00    -0.00   0.00   0.00
     3   6    -0.01   0.18  -0.07     0.20   0.00   0.00     0.00  -0.02  -0.05
     4   6     0.01   0.01  -0.01    -0.01   0.01   0.01     0.00  -0.00   0.00
     5   7    -0.01   0.02  -0.01    -0.03  -0.21   0.08     0.00  -0.03  -0.07
     6   1    -0.04  -0.04   0.08     0.05   0.03  -0.05    -0.00   0.00  -0.00
     7   1     0.04   0.04  -0.04    -0.03  -0.04   0.02    -0.00   0.00   0.00
     8   1     0.32   0.11  -0.05     0.58  -0.07   0.06    -0.03   0.37   0.92
     9   1    -0.01  -0.02   0.06     0.01   0.03  -0.05     0.00   0.00  -0.00
    10   8     0.13   0.22  -0.09    -0.13   0.03  -0.02     0.00  -0.00   0.00
    11   6    -0.15   0.42  -0.17     0.03   0.21  -0.08     0.00  -0.01  -0.03
    12   8    -0.34  -0.05   0.01    -0.09  -0.16   0.06    -0.00   0.00   0.00
    13   6    -0.01   0.01  -0.02     0.00   0.00   0.01    -0.00  -0.00  -0.00
    14   8    -0.01  -0.01   0.01     0.00   0.01  -0.01     0.00   0.00  -0.00
    15   8    -0.01  -0.00   0.00     0.01  -0.00  -0.00    -0.00   0.00  -0.00
    16   6    -0.00  -0.01  -0.00    -0.00  -0.00  -0.00     0.00   0.00   0.00
    17   1     0.00   0.01   0.00    -0.01  -0.01  -0.01     0.00   0.00   0.00
    18   1     0.00  -0.01  -0.01    -0.01   0.01   0.01     0.00  -0.00   0.00
    19   1     0.00  -0.01  -0.01    -0.01  -0.01  -0.00     0.00   0.00   0.00
    20   6     0.08  -0.38   0.16     0.38   0.26  -0.10    -0.00  -0.00   0.00
    21   7     0.24  -0.35   0.14    -0.14   0.01  -0.01     0.00   0.00   0.00
    22   1    -0.04   0.11  -0.03    -0.01  -0.37   0.15     0.00  -0.00  -0.01
                     22                     23                     24
                      A                      A                      A
 Frequencies --    660.0697               687.5262               736.3505
 Red. masses --      6.4804                 3.3060                11.2673
 Frc consts  --      1.6635                 0.9207                 3.5995
 IR Inten    --      4.4047                 6.4243                23.6917
  Atom  AN      X      Y      Z        X      Y      Z        X      Y      Z
     1   6    -0.01   0.18   0.44     0.00  -0.01  -0.02    -0.11  -0.06   0.03
     2   6    -0.00   0.01   0.00    -0.01   0.06   0.02     0.00  -0.01  -0.01
     3   6    -0.01   0.09   0.23    -0.00   0.01  -0.01    -0.02   0.18  -0.10
     4   6    -0.01   0.02   0.01    -0.15   0.24   0.09     0.01  -0.03  -0.01
     5   7     0.01  -0.11  -0.28    -0.01   0.02   0.02    -0.29   0.14  -0.07
     6   1     0.05   0.01   0.01     0.56   0.00   0.15    -0.08  -0.01  -0.03
     7   1    -0.03  -0.04  -0.03    -0.26  -0.38  -0.27     0.03   0.04   0.04
     8   1     0.01  -0.22  -0.55    -0.02   0.03   0.03    -0.17   0.23  -0.08
     9   1    -0.01   0.02  -0.00    -0.16   0.21   0.01     0.01  -0.03   0.00
    10   8     0.01  -0.09  -0.21     0.00   0.01   0.01    -0.30   0.35  -0.16
    11   6    -0.00   0.04   0.10     0.01  -0.01  -0.01     0.19  -0.28   0.18
    12   8    -0.00  -0.01  -0.03     0.01  -0.00   0.00     0.29  -0.12   0.04
    13   6     0.01   0.01   0.01     0.06   0.06   0.06    -0.01   0.00  -0.00
    14   8    -0.01  -0.01  -0.00    -0.10  -0.16  -0.10     0.01   0.02   0.01
    15   8     0.02  -0.01  -0.00     0.17  -0.06   0.00     0.01   0.00   0.00
    16   6    -0.00  -0.01  -0.00    -0.01  -0.05  -0.03     0.00   0.01   0.00
    17   1    -0.01  -0.02  -0.01    -0.11  -0.14  -0.10     0.00   0.01   0.00
    18   1    -0.01   0.01   0.01    -0.06   0.18   0.08     0.00   0.01   0.01
    19   1    -0.01  -0.01  -0.01    -0.11  -0.14  -0.08     0.00   0.01   0.01
    20   6    -0.00  -0.04  -0.10    -0.00  -0.01   0.01     0.20  -0.09   0.04
    21   7     0.00   0.02   0.04     0.01  -0.01   0.00     0.09  -0.22   0.09
    22   1     0.02  -0.15  -0.39    -0.02  -0.02  -0.03    -0.32   0.13  -0.04
                     25                     26                     27
                      A                      A                      A
 Frequencies --    738.8363               791.7867               841.7749
 Red. masses --     11.8126                10.1613                 4.4869
 Frc consts  --      3.7992                 3.7533                 1.8732
 IR Inten    --     31.4538                31.3768                40.2492
  Atom  AN      X      Y      Z        X      Y      Z        X      Y      Z
     1   6     0.01   0.00  -0.01     0.13   0.00   0.00    -0.00  -0.00  -0.00
     2   6    -0.00   0.00   0.00    -0.00   0.01   0.01    -0.01   0.00  -0.00
     3   6     0.01  -0.17  -0.38     0.01  -0.39   0.16     0.00   0.01  -0.00
     4   6    -0.00   0.01   0.00    -0.00   0.02   0.00     0.08   0.11  -0.20
     5   7     0.02   0.03   0.10     0.26  -0.06   0.04    -0.00   0.00   0.00
     6   1     0.02   0.00   0.00     0.05   0.00   0.03    -0.17  -0.31   0.62
     7   1    -0.01  -0.01  -0.01    -0.02  -0.03  -0.05     0.06   0.07  -0.28
     8   1     0.01   0.05   0.18    -0.06  -0.38   0.17     0.00   0.01   0.00
     9   1    -0.00   0.01  -0.00    -0.01   0.01  -0.01    -0.12  -0.17   0.19
    10   8     0.02  -0.09  -0.15    -0.03   0.43  -0.17    -0.00  -0.01   0.00
    11   6    -0.03   0.33   0.76    -0.22  -0.31   0.11     0.00   0.01  -0.00
    12   8    -0.01  -0.08  -0.21    -0.21   0.11  -0.05     0.00  -0.00   0.00
    13   6     0.00   0.00  -0.00     0.01  -0.02   0.01    -0.09  -0.20   0.42
    14   8    -0.00  -0.00  -0.00     0.01  -0.01  -0.01     0.02   0.06  -0.10
    15   8     0.00  -0.00   0.00    -0.01   0.00  -0.01     0.01   0.05  -0.09
    16   6    -0.00  -0.00  -0.00    -0.00  -0.00  -0.00    -0.00  -0.01  -0.01
    17   1    -0.00  -0.00  -0.00     0.01  -0.00   0.00    -0.02  -0.09  -0.03
    18   1    -0.00   0.00   0.00     0.00  -0.02  -0.01    -0.01  -0.03   0.03
    19   1    -0.00  -0.00  -0.00     0.01   0.00   0.00     0.00   0.06   0.06
    20   6    -0.01  -0.01  -0.03     0.11   0.08  -0.03    -0.00  -0.00   0.00
    21   7    -0.01   0.02   0.00    -0.02   0.00  -0.00    -0.00  -0.00   0.00
    22   1     0.02   0.03   0.11     0.30   0.02  -0.07    -0.00   0.01  -0.01
                     28                     29                     30
                      A                      A                      A
 Frequencies --    911.6269               999.7064              1024.9211
 Red. masses --      2.7791                 8.0081                 1.0997
 Frc consts  --      1.3608                 4.7154                 0.6806
 IR Inten    --     12.2460                63.6608                23.8057
  Atom  AN      X      Y      Z        X      Y      Z        X      Y      Z
     1   6     0.01  -0.00   0.00     0.01  -0.13   0.05     0.00  -0.00   0.00
     2   6     0.01  -0.10  -0.05    -0.01   0.01   0.01    -0.01  -0.01   0.02
     3   6    -0.00  -0.02   0.01    -0.25  -0.14   0.06     0.00  -0.00   0.00
     4   6     0.02  -0.07  -0.04    -0.00   0.00  -0.00     0.03   0.04  -0.07
     5   7    -0.01  -0.01  -0.00    -0.35  -0.21   0.04     0.00  -0.00  -0.01
     6   1    -0.54  -0.04  -0.22     0.10   0.01   0.01     0.14   0.18  -0.34
     7   1     0.22   0.29   0.24    -0.01  -0.01  -0.06    -0.14  -0.18   0.35
     8   1     0.03  -0.03   0.01    -0.06  -0.22   0.06     0.02  -0.01  -0.00
     9   1     0.11   0.08   0.10    -0.02  -0.04  -0.04    -0.26  -0.34   0.67
    10   8     0.03   0.01  -0.00     0.40   0.19  -0.06    -0.00  -0.00   0.00
    11   6    -0.00   0.00   0.00     0.09   0.09  -0.03    -0.00  -0.00   0.00
    12   8    -0.00   0.00  -0.00     0.11  -0.01   0.00    -0.00   0.00  -0.00
    13   6    -0.07   0.10   0.05     0.01  -0.00   0.00     0.00   0.01  -0.01
    14   8    -0.18   0.06  -0.01     0.04  -0.01  -0.00     0.00  -0.00   0.00
    15   8     0.20  -0.08  -0.00    -0.03   0.03   0.01    -0.00   0.00   0.00
    16   6     0.05   0.05   0.04    -0.01  -0.03  -0.02    -0.00  -0.01  -0.00
    17   1    -0.14  -0.09  -0.10     0.03   0.01   0.01     0.00   0.00  -0.00
    18   1    -0.04   0.43   0.22     0.00  -0.09  -0.04    -0.00  -0.00  -0.01
    19   1    -0.15  -0.10  -0.06     0.03   0.02   0.01     0.00  -0.01  -0.01
    20   6    -0.00   0.01  -0.00    -0.02   0.06  -0.03     0.00   0.00  -0.00
    21   7    -0.00   0.01  -0.00    -0.06   0.10  -0.04    -0.00   0.00   0.00
    22   1    -0.03   0.03   0.04    -0.48   0.13   0.38    -0.00   0.05   0.10
                     31                     32                     33
                      A                      A                      A
 Frequencies --   1029.1536              1039.0453              1065.5030
 Red. masses --      1.3191                 1.1379                 4.6088
 Frc consts  --      0.8232                 0.7238                 3.0828
 IR Inten    --     54.4666                38.2077                15.2408
  Atom  AN      X      Y      Z        X      Y      Z        X      Y      Z
     1   6     0.00   0.00   0.00     0.00   0.01   0.00     0.01   0.00  -0.00
     2   6     0.05   0.07  -0.13    -0.01  -0.03   0.03    -0.01  -0.13  -0.08
     3   6     0.01   0.00   0.00     0.02   0.01   0.01     0.02   0.01  -0.00
     4   6    -0.02  -0.02   0.04    -0.01   0.01  -0.00    -0.05   0.03   0.02
     5   7     0.00  -0.01  -0.03     0.02  -0.02  -0.07    -0.00   0.01  -0.00
     6   1    -0.20  -0.26   0.51     0.06   0.05  -0.11    -0.54  -0.07  -0.24
     7   1    -0.24  -0.30   0.58     0.11   0.14  -0.22     0.17   0.21   0.19
     8   1     0.03  -0.01  -0.02     0.03  -0.01  -0.06     0.11  -0.01   0.01
     9   1    -0.01  -0.00   0.01     0.04   0.08  -0.07     0.04   0.16   0.04
    10   8    -0.00  -0.00   0.00    -0.02  -0.01   0.01    -0.01  -0.01   0.00
    11   6    -0.00  -0.00   0.00    -0.01  -0.01   0.01    -0.01  -0.02   0.01
    12   8    -0.00   0.00  -0.00    -0.01   0.00  -0.00    -0.01   0.01  -0.00
    13   6     0.00   0.00  -0.01    -0.00  -0.01   0.00     0.12   0.13   0.10
    14   8     0.00  -0.01  -0.00     0.00  -0.01  -0.01     0.01  -0.04  -0.02
    15   8    -0.00  -0.00   0.00    -0.00   0.00   0.00    -0.01   0.27   0.14
    16   6    -0.00   0.00   0.00    -0.00   0.00  -0.00    -0.03  -0.31  -0.17
    17   1     0.00   0.01   0.00     0.01   0.01   0.01    -0.01  -0.22  -0.15
    18   1     0.00  -0.00  -0.00    -0.00  -0.01  -0.00    -0.05  -0.21  -0.12
    19   1     0.00   0.00  -0.00     0.01   0.01   0.00    -0.02  -0.24  -0.10
    20   6     0.00  -0.00  -0.00    -0.00  -0.01  -0.00    -0.00  -0.00   0.00
    21   7    -0.00   0.00   0.00     0.00  -0.00   0.00     0.00   0.00  -0.00
    22   1    -0.01   0.14   0.32    -0.00   0.34   0.87    -0.01  -0.01  -0.05
                     34                     35                     36
                      A                      A                      A
 Frequencies --   1078.6658              1084.3077              1179.9188
 Red. masses --      1.6219                 1.7972                 1.2977
 Frc consts  --      1.1118                 1.2450                 1.0644
 IR Inten    --     49.4671                21.8294                 1.0116
  Atom  AN      X      Y      Z        X      Y      Z        X      Y      Z
     1   6     0.08  -0.02   0.01     0.02  -0.01   0.00     0.00  -0.00   0.00
     2   6    -0.01   0.02   0.01     0.03  -0.07  -0.02     0.00  -0.00   0.00
     3   6     0.09   0.05  -0.02     0.02   0.01  -0.01    -0.00   0.00  -0.00
     4   6     0.03  -0.03  -0.01    -0.10   0.13   0.03    -0.00  -0.00   0.00
     5   7    -0.10   0.03  -0.01    -0.03   0.01   0.00    -0.00  -0.00   0.00
     6   1     0.12   0.01   0.04    -0.36  -0.02  -0.14    -0.00   0.00  -0.00
     7   1    -0.05  -0.06  -0.09     0.21   0.26   0.23     0.00   0.00  -0.00
     8   1     0.91  -0.12   0.07     0.24  -0.03   0.03     0.00   0.00   0.00
     9   1    -0.03  -0.14  -0.11     0.13   0.57   0.35     0.00   0.01  -0.01
    10   8     0.02  -0.02   0.01     0.01  -0.00   0.00     0.00   0.00  -0.00
    11   6    -0.06  -0.10   0.04    -0.01  -0.03   0.01    -0.00  -0.00   0.00
    12   8    -0.04   0.03  -0.01    -0.01   0.01  -0.00     0.00   0.00  -0.00
    13   6    -0.01   0.01  -0.00    -0.00  -0.07  -0.01    -0.00  -0.00   0.01
    14   8    -0.02   0.01   0.01     0.08  -0.06  -0.01     0.00   0.00  -0.00
    15   8     0.01   0.00   0.00    -0.02  -0.05  -0.04     0.01   0.03  -0.06
    16   6     0.00  -0.01  -0.00    -0.03   0.08   0.03    -0.03  -0.06   0.12
    17   1    -0.01  -0.01  -0.01     0.08   0.10   0.10    -0.01   0.64   0.13
    18   1    -0.00   0.03   0.01     0.02  -0.13  -0.06     0.07   0.16  -0.29
    19   1    -0.01  -0.01  -0.01     0.09   0.14   0.06     0.06  -0.50  -0.43
    20   6    -0.02   0.01  -0.00    -0.01   0.00  -0.00    -0.00   0.00   0.00
    21   7    -0.01   0.02  -0.01    -0.00   0.01  -0.00    -0.00   0.00  -0.00
    22   1    -0.14   0.09  -0.08    -0.04  -0.00  -0.10     0.00  -0.00  -0.00
                     37                     38                     39
                      A                      A                      A
 Frequencies --   1212.9955              1228.1600              1280.7972
 Red. masses --      1.5272                 2.4298                 1.5246
 Frc consts  --      1.3239                 2.1594                 1.4735
 IR Inten    --      3.1489                74.5142               115.7693
  Atom  AN      X      Y      Z        X      Y      Z        X      Y      Z
     1   6    -0.00  -0.00   0.00    -0.01  -0.05   0.02    -0.00  -0.00   0.00
     2   6    -0.01   0.01   0.00     0.00   0.00  -0.00    -0.10   0.05  -0.01
     3   6    -0.00  -0.01   0.00     0.05   0.22  -0.09     0.00   0.00  -0.00
     4   6    -0.01   0.01   0.00     0.00   0.00  -0.00     0.07  -0.08  -0.01
     5   7    -0.00   0.00  -0.00     0.01  -0.11   0.04     0.00  -0.00   0.00
     6   1     0.04   0.01   0.02    -0.02   0.00  -0.00     0.06   0.02   0.04
     7   1    -0.02  -0.01  -0.01    -0.01  -0.02   0.02    -0.27  -0.24  -0.24
     8   1     0.02  -0.01   0.01    -0.37   0.34  -0.15    -0.02   0.01  -0.00
     9   1     0.09   0.20   0.14     0.00   0.00   0.01     0.43   0.56   0.46
    10   8    -0.00   0.00  -0.00     0.09   0.01  -0.00     0.00   0.00   0.00
    11   6     0.00   0.00  -0.00    -0.05  -0.15   0.06    -0.00  -0.00   0.00
    12   8     0.00  -0.00   0.00    -0.07   0.05  -0.02    -0.00   0.00  -0.00
    13   6    -0.03  -0.06  -0.04     0.00   0.00   0.00    -0.06  -0.05  -0.04
    14   8     0.05  -0.01   0.00     0.00   0.00  -0.00    -0.01   0.01   0.00
    15   8    -0.09   0.04   0.00    -0.01  -0.00  -0.00     0.07   0.04   0.04
    16   6     0.15  -0.02   0.02     0.01   0.00   0.00    -0.03  -0.04  -0.02
    17   1    -0.30  -0.16  -0.31    -0.02  -0.01  -0.02     0.10   0.07   0.08
    18   1     0.01   0.60   0.32     0.00   0.03   0.02    -0.03  -0.05  -0.03
    19   1    -0.36  -0.27  -0.06    -0.03  -0.02  -0.00     0.11   0.08   0.04
    20   6    -0.00   0.00  -0.00     0.01   0.01  -0.00     0.00   0.00  -0.00
    21   7    -0.00   0.00   0.00    -0.01   0.02  -0.01    -0.00   0.00  -0.00
    22   1    -0.00   0.03  -0.01     0.10  -0.72   0.27     0.00   0.00  -0.00
                     40                     41                     42
                      A                      A                      A
 Frequencies --   1359.1771              1373.5149              1431.8045
 Red. masses --      2.3035                 2.1938                 1.2774
 Frc consts  --      2.5072                 2.4385                 1.5429
 IR Inten    --    297.7366               365.3364               177.2080
  Atom  AN      X      Y      Z        X      Y      Z        X      Y      Z
     1   6     0.09  -0.18   0.07     0.05  -0.09   0.04     0.00  -0.00   0.00
     2   6     0.03   0.00   0.01    -0.05  -0.00  -0.02    -0.05   0.00  -0.02
     3   6     0.19  -0.00   0.01     0.09  -0.01   0.01    -0.00   0.00  -0.00
     4   6    -0.05   0.01  -0.01     0.09  -0.01   0.03    -0.04  -0.08  -0.05
     5   7    -0.06   0.02  -0.01    -0.04   0.01  -0.01     0.00  -0.00   0.00
     6   1     0.21  -0.02   0.08    -0.42   0.04  -0.16     0.59  -0.08   0.20
     7   1     0.14   0.19   0.15    -0.27  -0.37  -0.32     0.17   0.38   0.27
     8   1    -0.57   0.17  -0.08    -0.26   0.07  -0.03     0.00   0.00   0.00
     9   1    -0.09  -0.06  -0.07     0.16   0.09   0.10     0.12   0.21   0.15
    10   8    -0.02  -0.00  -0.00    -0.01  -0.00   0.00    -0.00   0.00  -0.00
    11   6     0.00   0.02  -0.01     0.00   0.02  -0.01     0.00  -0.00   0.00
    12   8    -0.06   0.01  -0.00    -0.02   0.00  -0.00    -0.00   0.00  -0.00
    13   6    -0.07  -0.06  -0.05     0.12   0.13   0.09     0.06   0.05   0.04
    14   8     0.00   0.00   0.01     0.00  -0.02  -0.01    -0.02   0.00  -0.00
    15   8     0.05   0.04   0.03    -0.09  -0.07  -0.06    -0.01  -0.00  -0.01
    16   6    -0.01  -0.04  -0.02     0.02   0.07   0.04     0.01   0.05   0.03
    17   1     0.08   0.09   0.05    -0.16  -0.17  -0.10    -0.13  -0.21  -0.08
    18   1    -0.04   0.11   0.05     0.08  -0.23  -0.09     0.08  -0.31  -0.13
    19   1     0.07   0.08   0.07    -0.15  -0.15  -0.14    -0.12  -0.17  -0.17
    20   6    -0.01   0.02  -0.01    -0.01   0.01  -0.00     0.00   0.00   0.00
    21   7    -0.03   0.05  -0.02    -0.01   0.03  -0.01    -0.00   0.00  -0.00
    22   1    -0.15   0.50  -0.23    -0.08   0.25  -0.05     0.00   0.01  -0.02
                     43                     44                     45
                      A                      A                      A
 Frequencies --   1467.4999              1471.7768              1473.4755
 Red. masses --      1.0391                 4.1030                 1.1842
 Frc consts  --      1.3185                 5.2365                 1.5148
 IR Inten    --     14.9374                80.6169                38.0976
  Atom  AN      X      Y      Z        X      Y      Z        X      Y      Z
     1   6     0.00  -0.00   0.00    -0.20   0.19  -0.08    -0.04   0.04  -0.02
     2   6     0.00   0.00   0.00     0.00   0.00   0.00    -0.01  -0.00  -0.00
     3   6    -0.00   0.00  -0.00     0.27  -0.16   0.07     0.05  -0.03   0.01
     4   6    -0.00   0.00   0.00    -0.00   0.00   0.00     0.00  -0.01  -0.00
     5   7     0.00  -0.00   0.00    -0.15   0.13  -0.06    -0.03   0.03  -0.01
     6   1    -0.00   0.00  -0.00    -0.01   0.01  -0.00     0.04  -0.01   0.01
     7   1    -0.00  -0.00  -0.00     0.00  -0.00  -0.00     0.01   0.03   0.02
     8   1     0.00   0.00  -0.00    -0.33  -0.06   0.01    -0.07  -0.01   0.00
     9   1    -0.00  -0.00  -0.00    -0.01  -0.00  -0.01     0.02   0.02   0.02
    10   8    -0.00   0.00  -0.00     0.13  -0.02   0.01     0.03  -0.00   0.00
    11   6    -0.00  -0.00   0.00    -0.00  -0.03   0.01    -0.00  -0.01   0.00
    12   8     0.00  -0.00   0.00    -0.05   0.02  -0.01    -0.01   0.00  -0.00
    13   6    -0.00  -0.00  -0.00    -0.01  -0.02  -0.01     0.01   0.02   0.01
    14   8    -0.00   0.00   0.00    -0.00   0.01  -0.00     0.01  -0.01  -0.00
    15   8     0.00   0.01  -0.01     0.02   0.00   0.01    -0.04  -0.01  -0.01
    16   6     0.01   0.02  -0.04     0.03  -0.01   0.00    -0.04   0.01  -0.00
    17   1     0.38   0.20   0.24    -0.25   0.29  -0.19     0.36  -0.44   0.28
    18   1    -0.14  -0.33   0.62     0.08  -0.27  -0.13    -0.12   0.38   0.19
    19   1    -0.41  -0.23  -0.15    -0.34   0.07   0.24     0.48  -0.11  -0.37
    20   6     0.00   0.00  -0.00    -0.00  -0.01   0.01    -0.00  -0.00   0.00
    21   7    -0.00   0.00  -0.00     0.04  -0.08   0.03     0.01  -0.01   0.01
    22   1     0.00   0.00  -0.00    -0.12  -0.36   0.13    -0.02  -0.07   0.02
                     46                     47                     48
                      A                      A                      A
 Frequencies --   1491.3847              1510.0109              1646.2891
 Red. masses --      1.5363                 2.9927                 3.4573
 Frc consts  --      2.0133                 4.0205                 5.5207
 IR Inten    --    140.7058                43.3392                95.3986
  Atom  AN      X      Y      Z        X      Y      Z        X      Y      Z
     1   6     0.01   0.00  -0.00     0.33   0.09  -0.03     0.07   0.29  -0.12
     2   6    -0.04  -0.01  -0.02     0.01   0.00   0.00    -0.00   0.00  -0.00
     3   6     0.00  -0.00   0.00     0.02  -0.08   0.03     0.05   0.06  -0.02
     4   6     0.01  -0.04  -0.02    -0.01   0.00  -0.00     0.00  -0.00   0.00
     5   7    -0.00   0.00  -0.00    -0.13  -0.01   0.00    -0.05  -0.27   0.11
     6   1     0.21  -0.04   0.06     0.01   0.00   0.01    -0.00  -0.00   0.00
     7   1     0.03   0.13   0.08     0.01   0.01   0.03    -0.01  -0.01  -0.00
     8   1    -0.01  -0.00   0.00    -0.18  -0.05   0.02    -0.20   0.13  -0.06
     9   1     0.09   0.08   0.07    -0.01   0.01   0.01     0.00  -0.00   0.00
    10   8    -0.00  -0.00  -0.00    -0.13   0.00  -0.00    -0.03  -0.01   0.00
    11   6     0.00   0.00  -0.00     0.02   0.08  -0.03     0.01  -0.05   0.02
    12   8    -0.00  -0.00   0.00     0.01  -0.02   0.01    -0.02   0.01  -0.00
    13   6     0.07   0.11   0.07    -0.00  -0.02  -0.01    -0.01   0.01   0.00
    14   8     0.01  -0.02  -0.01     0.00   0.01  -0.00     0.01  -0.01   0.00
    15   8    -0.06  -0.06  -0.04     0.01   0.01   0.01    -0.00  -0.00  -0.00
    16   6    -0.01  -0.08  -0.04     0.00   0.00   0.00     0.00   0.00   0.00
    17   1     0.13   0.54   0.06     0.00  -0.02   0.00    -0.00  -0.00  -0.00
    18   1    -0.13   0.44   0.20     0.00  -0.01  -0.00     0.00  -0.00  -0.00
    19   1     0.04   0.34   0.43     0.00  -0.01  -0.02    -0.00  -0.00  -0.00
    20   6    -0.00  -0.00   0.00    -0.03  -0.01   0.00    -0.01  -0.01   0.00
    21   7     0.00   0.00  -0.00    -0.00   0.02  -0.01     0.03  -0.04   0.02
    22   1    -0.01  -0.02   0.00    -0.04  -0.83   0.32    -0.23   0.76  -0.31
                     49                     50                     51
                      A                      A                      A
 Frequencies --   1739.4849              1800.2272              1912.1222
 Red. masses --      5.3593                10.0337                12.3941
 Frc consts  --      9.5544                19.1587                26.6991
 IR Inten    --     66.2452               588.8863              1283.4509
  Atom  AN      X      Y      Z        X      Y      Z        X      Y      Z
     1   6     0.00   0.00  -0.00    -0.00   0.00  -0.00    -0.01  -0.01   0.00
     2   6    -0.31  -0.15  -0.21     0.07   0.02   0.04    -0.00  -0.00  -0.00
     3   6     0.00   0.00   0.00    -0.00   0.01  -0.00    -0.15  -0.02   0.01
     4   6     0.31   0.24   0.25    -0.11   0.02  -0.03     0.00  -0.00   0.00
     5   7    -0.01  -0.00   0.00    -0.03  -0.02   0.00    -0.01   0.03  -0.01
     6   1     0.32  -0.30  -0.02    -0.15   0.07  -0.04     0.01  -0.00   0.00
     7   1    -0.05   0.44   0.23     0.02  -0.13  -0.05    -0.00   0.00   0.01
     8   1    -0.00   0.00  -0.00    -0.01   0.01  -0.01     0.16  -0.13   0.06
     9   1     0.04  -0.37  -0.15    -0.01   0.24   0.13    -0.00  -0.01  -0.00
    10   8     0.00   0.00  -0.00     0.01  -0.00   0.00    -0.04  -0.03   0.01
    11   6     0.00  -0.00  -0.00     0.03  -0.01   0.00     0.82  -0.12   0.07
    12   8    -0.00   0.00  -0.00    -0.02   0.01  -0.00    -0.46   0.12  -0.06
    13   6     0.02  -0.11  -0.06     0.60  -0.41  -0.08    -0.03   0.02   0.00
    14   8    -0.03   0.04   0.01    -0.35   0.25   0.05     0.02  -0.01  -0.00
    15   8    -0.00  -0.01  -0.00    -0.07   0.01  -0.01     0.01   0.00   0.00
    16   6     0.00   0.01   0.00     0.00  -0.03  -0.02    -0.00  -0.00  -0.00
    17   1     0.00  -0.01   0.01     0.11   0.10   0.03    -0.00  -0.00  -0.00
    18   1     0.01   0.01   0.01    -0.05   0.19   0.09     0.00  -0.01  -0.00
    19   1     0.01  -0.01  -0.01     0.09   0.07   0.10    -0.00  -0.00  -0.00
    20   6    -0.00   0.00  -0.00    -0.00   0.00  -0.00     0.01  -0.02   0.01
    21   7     0.00  -0.00   0.00     0.00  -0.00   0.00    -0.01   0.02  -0.01
    22   1     0.02  -0.01  -0.02     0.11   0.15  -0.01     0.02  -0.04   0.02
                     52                     53                     54
                      A                      A                      A
 Frequencies --   2384.1249              3074.7220              3119.0836
 Red. masses --     12.6400                 1.0320                 1.1056
 Frc consts  --     42.3306                 5.7484                 6.3375
 IR Inten    --    226.1635                38.5253              1831.9315
  Atom  AN      X      Y      Z        X      Y      Z        X      Y      Z
     1   6     0.07  -0.11   0.05    -0.00  -0.00   0.00     0.00   0.00  -0.00
     2   6    -0.00   0.00  -0.00    -0.00  -0.00  -0.00     0.00  -0.00  -0.00
     3   6    -0.03   0.01  -0.01    -0.00   0.00  -0.00     0.00  -0.00   0.00
     4   6     0.00  -0.00  -0.00    -0.00  -0.00  -0.00     0.00  -0.00  -0.00
     5   7     0.01  -0.02   0.01     0.00   0.00  -0.00    -0.08  -0.01   0.00
     6   1     0.00   0.00   0.00    -0.00   0.00   0.00     0.00   0.00   0.00
     7   1     0.00  -0.00   0.00     0.00  -0.00   0.00     0.00   0.00   0.00
     8   1     0.01   0.02  -0.01     0.00  -0.00   0.00    -0.00   0.01  -0.00
     9   1     0.00  -0.00  -0.00     0.00  -0.00   0.00    -0.01   0.00  -0.00
    10   8     0.01  -0.01   0.00    -0.00  -0.00  -0.00     0.00   0.00   0.00
    11   6     0.03   0.02  -0.01     0.00  -0.00   0.00    -0.00   0.00  -0.00
    12   8    -0.01   0.00  -0.00    -0.00   0.00  -0.00     0.00  -0.00   0.00
    13   6    -0.00   0.00   0.00     0.00  -0.00   0.00    -0.01   0.01   0.00
    14   8     0.00  -0.00  -0.00    -0.00   0.00   0.00     0.01  -0.00  -0.00
    15   8     0.00  -0.00  -0.00    -0.00  -0.00  -0.00     0.00  -0.00   0.00
    16   6     0.00   0.00   0.00     0.01  -0.04  -0.02     0.00  -0.00  -0.00
    17   1    -0.00   0.00  -0.00    -0.37  -0.00   0.52    -0.03   0.00   0.03
    18   1     0.00  -0.00  -0.00     0.43   0.04   0.12     0.01   0.00   0.00
    19   1    -0.00   0.00  -0.00    -0.16   0.46  -0.39    -0.01   0.03  -0.02
    20   6    -0.38   0.66  -0.27    -0.00   0.00  -0.00     0.00  -0.00   0.00
    21   7     0.27  -0.47   0.19     0.00  -0.00   0.00    -0.00   0.00  -0.00
    22   1     0.03   0.00   0.00    -0.05  -0.01   0.00     0.98   0.14  -0.02
                     55                     56                     57
                      A                      A                      A
 Frequencies --   3178.2063              3180.6443              3220.7094
 Red. masses --      1.0626                 1.1089                 1.1089
 Frc consts  --      6.3236                 6.6098                 6.7769
 IR Inten    --      1.8847                 9.8172                 4.6677
  Atom  AN      X      Y      Z        X      Y      Z        X      Y      Z
     1   6    -0.00  -0.00   0.00    -0.00  -0.00   0.00     0.00   0.00  -0.00
     2   6    -0.06  -0.02  -0.03    -0.00  -0.00  -0.00    -0.00  -0.00  -0.00
     3   6    -0.00  -0.00   0.00     0.00   0.00   0.00     0.00  -0.00   0.00
     4   6    -0.00   0.01   0.00     0.00   0.00  -0.00    -0.00   0.00  -0.00
     5   7    -0.00   0.00   0.00     0.00   0.00  -0.00    -0.00  -0.00   0.00
     6   1    -0.02   0.57   0.28    -0.00   0.00   0.00    -0.00   0.00   0.00
     7   1     0.64  -0.41   0.05     0.00  -0.00   0.00     0.00  -0.00   0.00
     8   1     0.00   0.00  -0.00     0.00  -0.00   0.00     0.00  -0.00   0.00
     9   1     0.09  -0.05   0.01    -0.00   0.00  -0.00     0.00  -0.00   0.00
    10   8     0.00   0.00   0.00    -0.00  -0.00  -0.00     0.00   0.00   0.00
    11   6    -0.00   0.00  -0.00    -0.00  -0.00  -0.00     0.00   0.00  -0.00
    12   8     0.00  -0.00  -0.00     0.00  -0.00   0.00    -0.00   0.00   0.00
    13   6    -0.00   0.00   0.00    -0.00  -0.00   0.00    -0.00   0.00   0.00
    14   8     0.00  -0.00   0.00    -0.00  -0.00   0.00     0.00  -0.00  -0.00
    15   8    -0.00  -0.00  -0.00    -0.00  -0.00   0.00     0.00   0.00   0.00
    16   6     0.00   0.00   0.00     0.02   0.04  -0.08    -0.09   0.01  -0.02
    17   1     0.00  -0.00  -0.00    -0.42   0.00   0.56     0.17   0.00  -0.25
[...]
 00002119,0.00001586,-0.00001758,-0.00000580,-0.00000218,-0.00010497,-0
 .00042337,-0.00007446,-0.00053678,0.00000333,0.00001313,-0.00001150,-0
 .02646852,0.01797929,0.00251972,-0.08072290,0.02701616,-0.08291323,0.1
 0580978,-0.04888176,0.05736485,-0.00350759,-0.00421863,0.00150918,0.00
 593009,-0.02375657,-0.01127486,-0.00009948,0.00326699,-0.00137349,-0.0
 9387981,0.00182740,-0.00472523,0.00864881,-0.00019380,-0.00033712,-0.0
 0287429,0.00151008,-0.00609954,-0.00300637,-0.00259968,0.00129549,-0.0
 0024660,0.00013941,-0.00000678,0.00096186,0.02378137,0.01229632,0.0040
 3469,-0.00013963,0.00018806,-0.00381015,0.00125944,-0.00052030,0.00335
 389,-0.00065707,0.00031003,0.88054786,0.00093001,0.00188699,-0.0004234
 0,-0.01780821,-0.01139047,-0.01354364,0.00170095,-0.00307288,0.0009885
 4,0.02521778,-0.20422491,-0.05183237,-0.01280937,0.00083014,-0.0004154
 1,0.00324583,0.00339434,-0.00430995,0.00095506,-0.00188441,0.00337335,
 0.00020884,0.00007502,0.00006503,-0.00314083,-0.00602045,-0.00595739,-
 0.00324300,-0.00018657,-0.00020786,0.00021731,-0.00106533,0.00068741,-
 0.00076583,0.00007122,-0.00016379,-0.19506120,0.70134069,-0.00025240,0
 .00014078,0.00011535,-0.00815632,-0.01905221,-0.00794105,0.00053896,-0
 .00047575,-0.00006731,0.00479261,-0.05923077,-0.11010959,-0.00246062,0
 .00000248,0.00043266,-0.00523652,-0.00490218,0.00949237,0.00354267,0.0
 0290367,-0.00687417,0.00006344,0.00004963,0.00009240,-0.00099387,0.005
 45934,0.00244286,-0.00041460,-0.00014486,-0.00012665,-0.00033010,-0.00
 007487,0.00021513,0.00016389,-0.00007162,-0.00006424,0.04648853,0.2029
 7209,0.33281269,0.00240767,0.00792874,-0.00295038,-0.00694554,-0.00280
 574,-0.00396484,0.00045850,-0.00702250,0.00276288,0.00010755,0.0261156
 5,0.01010948,-0.03410798,-0.00288595,0.00133604,0.00131996,-0.00037730
 ,0.00063060,0.00197374,-0.00001054,0.00058828,0.00016695,0.00011170,-0
 .00000146,0.00133333,0.00140242,0.00005803,-0.00766227,-0.00032243,-0.
 00019252,0.00362579,-0.00216571,0.00095143,-0.00425236,0.00075249,-0.0
 0041945,-0.47642229,0.27101598,0.05365668,0.61353124,0.00006505,-0.001
 04235,0.00035151,0.00674293,0.00027184,0.00248522,-0.00182888,0.001188
 75,-0.00030438,0.03537328,-0.02950460,-0.01780183,0.00752770,0.0049036
 0,-0.00039864,-0.00060554,-0.00038086,0.00086679,-0.00016824,0.0001048
 2,-0.00046760,-0.00029704,0.00001257,-0.00003154,-0.00056582,-0.005948
 60,-0.00457136,0.00207799,0.00021348,-0.00004257,-0.00066006,0.0008961
 4,-0.00055204,0.00059430,-0.00012287,0.00012043,0.27683988,-0.31375240
 ,-0.05948299,-0.32526539,0.32448137,-0.00069599,-0.00114050,0.00063111
 ,0.00142041,-0.00015968,0.00006485,0.00038690,0.00126191,-0.00012175,0
 .01537252,-0.01956935,0.01284991,0.00545773,-0.00004728,0.00393861,0.0
 0080054,0.00040563,-0.00081257,0.00050831,0.00002675,0.00059647,0.0000
 5488,-0.00008020,-0.00010169,-0.00111550,-0.00425354,-0.00025895,0.000
 84520,-0.00004368,-0.00017390,-0.00040658,-0.00004042,-0.00026332,0.00
 060626,-0.00005055,0.00011563,0.05273462,-0.05776782,-0.09726423,-0.04
 836571,0.07246294,0.06301007,0.00180865,0.00293406,-0.00112524,0.00475
 458,-0.00075120,0.00075177,-0.00005194,-0.00203962,0.00089449,-0.01451
 631,-0.01512934,-0.01441087,-0.00741867,-0.00088940,0.00078134,-0.0002
 4142,-0.00026331,-0.00012315,0.00053719,0.00063882,0.00082717,0.000106
 50,-0.00006620,-0.00003143,0.00045776,-0.00108312,0.00009419,-0.002546
 29,0.00002210,-0.00007701,0.00237192,-0.00078593,0.00027109,-0.0021267
 8,0.00042780,-0.00017489,-0.28564022,-0.05075135,-0.07060715,-0.119951
 09,0.02118872,-0.01887648,0.48514310,0.00046852,0.00063222,-0.00028909
 ,0.00424927,-0.00616692,-0.00236814,-0.00050678,0.00011060,0.00008747,
 -0.04449312,-0.01856331,-0.02507192,0.00057609,-0.00062535,0.00041793,
 -0.00160378,-0.00045744,-0.00107382,-0.00015709,0.00040999,0.00040153,
 -0.00001691,-0.00007387,-0.00006400,-0.00112295,0.00067724,0.00035240,
 -0.00006825,0.00007648,0.00001826,0.00089704,-0.00002048,-0.00009334,-
 0.00062774,0.00016317,-0.00001556,-0.06916710,-0.14370875,-0.05073413,
 0.02287638,0.02831586,0.00363940,0.07321296,0.39275732,0.00076493,0.00
 111651,-0.00050870,0.00283106,-0.00339923,0.00023803,-0.00028143,-0.00
 068903,0.00038172,-0.02802850,-0.01877954,-0.00513804,-0.00246057,-0.0
 0009752,-0.00005901,-0.00045748,0.00015538,-0.00150778,-0.00020700,-0.
 00001846,0.00080013,0.00000643,-0.00003291,-0.00005535,-0.00033810,0.0
 0002311,-0.00048225,-0.00080913,0.00004223,0.00002642,0.00090796,-0.00
 021489,0.00000799,-0.00082478,0.00017152,-0.00003223,-0.08049910,-0.04
 805495,-0.11100998,-0.02109582,0.00404068,0.02724766,0.12202017,0.1738
 1411,0.20009192,-0.00018598,-0.00028090,0.00010481,0.00019383,-0.00114
 507,-0.00050295,0.00007713,0.00013983,-0.00005471,-0.00304151,0.001339
 39,-0.00144795,0.00058023,0.00014419,-0.00007251,-0.00023679,-0.000079
 09,-0.00006932,0.00002639,0.00005825,0.00004077,-0.00000803,0.00000859
 ,-0.00000020,0.00016748,-0.00024161,-0.00004120,0.00019265,-0.00000714
 ,0.00000860,-0.00031239,0.00005164,-0.00002584,0.00025125,-0.00004971,
 0.00002445,-0.01289025,-0.04044866,-0.02410486,0.00320114,-0.00494712,
 -0.00063479,-0.08664891,0.01723181,0.00545157,0.64596175,-0.00052659,-
 0.00098187,0.00039432,-0.00099954,0.00013949,-0.00007075,0.00027514,0.
 00042114,-0.00024075,0.00279852,0.00551231,-0.00036937,0.00183344,0.00
 049765,-0.00030708,-0.00001777,-0.00001093,0.00045792,0.00003058,-0.00
 009073,-0.00027265,0.00000933,0.00004464,0.00004295,0.00014142,0.00006
 194,0.00009109,0.00055935,-0.00002632,0.00000580,-0.00080137,0.0001403
 5,-0.00000739,0.00068290,-0.00015405,0.00004014,-0.03667427,-0.0210280
 2,-0.01984489,0.01895780,-0.00594759,0.00386807,-0.00563243,-0.1887665
 6,-0.06207276,-0.00669191,0.49772992,-0.00027855,-0.00043578,0.0001929
 1,-0.00046524,-0.00001194,0.00011636,0.00003169,0.00026470,-0.00019346
 ,-0.00081493,-0.00029950,0.00678609,0.00121042,0.00015225,-0.00011301,
 0.00029430,0.00036088,-0.00048064,-0.00006422,-0.00016486,0.00008837,-
 0.00002166,0.00002040,0.00005145,0.00029419,-0.00002933,-0.00020866,0.
 00038560,-0.00000817,-0.00001351,-0.00035659,0.00012876,0.00000964,0.0
 0032340,-0.00007326,-0.00000247,-0.02282361,-0.02036036,-0.01359323,0.
 01213571,-0.00090528,-0.00457956,-0.00615783,-0.05774187,-0.10140514,0
 .00533228,-0.05824620,0.57784129,-0.00004662,-0.00004003,0.00001272,-0
 .00002573,0.00001797,-0.00003600,-0.00002804,0.00005799,-0.00001271,-0
 .00018735,-0.00007289,0.00075411,0.00012933,0.00001207,0.00001281,0.00
 001707,0.00002617,-0.00002782,-0.00001618,-0.00003465,-0.00001465,-0.0
 0000777,0.00000015,-0.00000747,0.00003121,0.00002267,0.00000307,0.0000
 7303,-0.00000185,0.00000339,-0.00006208,0.00003070,-0.00001669,0.00005
 053,-0.00000942,0.00000594,0.00151052,-0.00171893,-0.00210571,0.000027
 48,0.00064908,0.00025192,0.00484539,0.00248049,-0.00594385,-0.15090054
 ,-0.00387265,0.13645046,0.15097204,0.00007098,0.00007680,-0.00003725,0
 .00015881,-0.00004964,0.00004490,0.00001548,-0.00007794,0.00002504,-0.
 00078228,-0.00095379,0.00068556,-0.00022347,0.00000499,0.00001175,0.00
 001060,0.00004189,-0.00012633,-0.00001540,0.00000232,0.00003621,0.0000
 0740,-0.00000035,0.00000968,0.00003914,0.00010628,-0.00000405,-0.00009
 414,0.00000417,0.00000063,0.00008609,-0.00003411,0.00001051,-0.0000743
 3,0.00001400,-0.00000697,0.00721787,0.00158915,0.00067330,-0.00248958,
 0.00079924,-0.00020407,0.01507186,-0.01258924,-0.03646488,-0.00807506,
 -0.04963405,0.01195744,0.00308425,0.05758491,-0.00001520,0.00001832,-0
 .00001403,0.00012123,-0.00000898,0.00005824,-0.00002075,0.00002145,0.0
 0001940,-0.00061582,-0.00025763,0.00000338,-0.00001899,-0.00002660,0.0
 0002853,-0.00000431,0.00001967,-0.00006404,-0.00002450,-0.00001866,0.0
 0000318,-0.00000651,-0.00000578,-0.00002071,-0.00000034,0.00012041,0.0
 0001879,0.00001993,-0.00000001,0.00000527,-0.00002468,0.00000938,-0.00
 001919,0.00001482,0.00000053,0.00000885,0.00747374,-0.00074394,0.00145
 080,-0.00204676,0.00249448,0.00099471,0.00241553,-0.01099337,-0.014904
 20,0.13157604,0.00527087,-0.22893728,-0.14434269,0.00385875,0.24377771
 ,0.00007021,0.00007889,-0.00003009,0.00007399,-0.00007951,-0.00002615,
 -0.00000808,-0.00005503,0.00001898,-0.00011537,-0.00007503,-0.00011693
 ,-0.00016004,-0.00002420,0.00001342,-0.00001340,-0.00001029,-0.0000005
 9,0.00001861,0.00001460,0.00001423,0.00000760,-0.00000204,0.00000378,-
 0.00000784,-0.00002500,-0.00001476,-0.00007507,0.00000346,-0.00000254,
 0.00010653,-0.00002631,0.00001159,-0.00008421,0.00001673,-0.00000764,0
 .00128752,0.00159256,0.00098733,-0.00032040,-0.00103586,-0.00068358,0.
 00193953,-0.00107779,-0.00008724,-0.32367524,-0.02276697,-0.07256873,-
 0.01191006,-0.00033145,-0.00649920,0.33606635,0.00002443,0.00005539,-0
 .00002483,0.00020510,-0.00040993,-0.00014531,-0.00001942,-0.00001371,0
 .00001443,-0.00134640,0.00003181,-0.00036778,-0.00007647,-0.00004404,0
 .00001926,-0.00009557,-0.00002859,-0.00006575,-0.00000563,0.00001884,0
 .00001883,-0.00000738,-0.00000309,-0.00000648,0.00000992,0.00001634,0.
 00000037,-0.00001642,0.00000227,0.00000189,0.00002292,-0.00000002,-0.0
 0000626,-0.00002270,0.00000578,0.00000072,0.00392805,-0.00544448,-0.00
 213393,-0.00057539,0.00244021,0.00082873,-0.03770131,-0.01474888,-0.01
 599521,-0.01017407,-0.04756642,0.00014728,-0.00099785,0.00064545,0.000
 71429,0.02522891,0.06002773,0.00001717,0.00003448,-0.00001534,0.000117
 30,-0.00022143,-0.00007950,-0.00001736,-0.00000828,0.00001215,-0.00075
 393,-0.00009161,-0.00003842,-0.00007572,-0.00002157,0.00001430,-0.0000
 3242,0.00000513,-0.00007417,-0.00001126,-0.00000066,0.00003857,0.00000
 271,-0.00000186,-0.00000496,-0.00000156,-0.00000104,0.00000689,-0.0000
 1926,0.00000022,0.00000146,0.00003497,-0.00000542,-0.00000324,-0.00002
 896,0.00000658,-0.00000092,0.00229461,-0.00262202,-0.00057466,-0.00051
 024,0.00076052,0.00091401,-0.01901479,-0.00790326,-0.00814052,-0.06613
 309,-0.00267600,-0.06855645,0.02385899,0.00232818,0.00980395,0.0781886
 9,0.01313924,0.06973057,-0.00005324,-0.00003962,0.00001423,-0.00001371
 ,-0.00006044,0.00002301,-0.00001969,0.00006945,-0.00001383,-0.00006240
 ,0.00047848,-0.00049189,0.00020745,-0.00003036,0.00001354,-0.00002025,
 -0.00000898,0.00003467,-0.00000610,-0.00001758,-0.00002612,-0.00001669
 ,-0.00000357,-0.00001250,0.00001278,0.00004716,0.00003803,0.00008785,0
 .00000094,0.00000289,-0.00008237,0.00003441,-0.00001970,0.00006802,-0.
 00001107,0.00000925,0.00217913,-0.00279805,0.00010810,-0.00003859,0.00
 126465,0.00054408,0.00094424,-0.00342784,0.00378386,-0.07160217,0.0569
 2595,-0.05033690,0.00578412,-0.01416947,0.01189160,-0.00353807,0.02141
 541,-0.01808812,0.06651569,0.00006619,0.00011851,-0.00004833,0.0002119
 5,-0.00003382,-0.00002863,-0.00004552,-0.00004150,0.00001930,-0.000559
 78,-0.00013876,-0.00113293,-0.00017026,-0.00007778,0.00002781,-0.00008
 706,-0.00006144,0.00004886,-0.00002017,0.00001410,0.00000070,-0.000004
 77,-0.00000202,-0.00000204,-0.00005146,0.00012685,0.00012302,-0.000054
 64,0.00000433,0.00000042,0.00010018,-0.00000967,0.00000033,-0.00008313
 ,0.00001736,-0.00000624,0.00976018,0.00015909,0.00284588,-0.00307097,0
 .00225777,0.00051668,0.00102366,-0.03690951,0.00732790,0.05312602,-0.1
 9059387,0.12528314,0.00048891,0.00244455,-0.00040010,-0.00145077,0.005
 04977,-0.00270289,-0.05961634,0.21770702,0.00003814,0.00001257,-0.0000
 0949,0.00005232,-0.00007694,-0.00004068,0.00002930,-0.00004218,0.00000
 749,0.00003950,0.00023485,-0.00111941,-0.00009663,0.00001196,0.0000040
 8,-0.00005581,-0.00004478,0.00006309,0.00000374,0.00001450,-0.00000230
 ,0.00000900,0.00000404,0.00001150,0.00000322,0.00003445,0.00005078,-0.
 00005848,0.00000145,0.00000086,0.00004047,-0.00002521,0.00000886,-0.00
 003333,0.00000462,-0.00000341,0.00159457,-0.00047562,0.00183120,-0.000
 89299,-0.00060334,-0.00024979,0.00411867,-0.02203679,0.01362395,-0.049
 48891,0.13370284,-0.16722849,-0.00883455,0.01722812,-0.01213517,0.0007
 9826,0.00386187,-0.00299950,0.05253544,-0.13189360,0.16822821,-0.13241
 586,0.08849466,-0.03737308,-0.00050396,-0.00005945,0.00029568,0.012303
 86,-0.00671705,0.00282615,0.00001331,0.00027163,0.00002702,0.01336486,
 0.00753793,-0.00247167,0.00001267,0.00002636,0.00004422,-0.00026359,-0
 .00037339,0.00070757,0.00094663,0.00003148,-0.00006976,0.00000291,0.00
 000798,0.00004931,-0.03401636,0.04862320,-0.01993575,-0.01377430,-0.02
 024356,0.00786393,0.00374149,0.00394513,-0.00156690,-0.00058086,-0.000
 98548,-0.00018646,-0.00048568,0.00083572,-0.00019799,0.00020764,0.0003
 5590,0.00023018,-0.00005213,-0.00022349,-0.00005019,0.00001519,0.00000
 521,0.00001840,0.00000799,0.00002033,0.00001169,0.00001281,0.00003429,
 -0.00001335,0.46024613,0.09531411,-0.23737809,0.08242176,0.00002177,-0
 .00009091,-0.00032353,-0.03277810,0.00865608,-0.00170337,-0.00019024,-
 0.00082200,0.00006433,0.02371679,-0.06922568,0.02590215,0.00016768,-0.
 00005073,-0.00013745,-0.00036127,0.00029496,0.00025529,0.00081189,-0.0
 0084983,0.00140343,0.00005407,-0.00005026,-0.00008287,0.02837239,-0.01
 751484,0.00497930,0.01970499,0.02024171,-0.00898998,-0.01162062,-0.000
 11390,0.00095727,-0.00082100,0.00249591,0.00069167,0.00194881,-0.00138
 346,-0.00012414,0.00017248,-0.00060354,-0.00014115,0.00006103,0.000234
 52,0.00001565,-0.00003518,0.00001861,-0.00003039,0.00000095,-0.0000273
 5,-0.00001565,-0.00004339,-0.00004484,0.00002750,-0.59128767,1.1310651
 8,-0.04005977,0.08241357,-0.06588108,0.00045991,-0.00005799,-0.0000382
 9,0.01309602,-0.00103156,0.00727761,-0.00009292,0.00033521,-0.00014651
 ,-0.00899863,0.02530791,-0.01618432,-0.00017579,0.00003945,0.00004539,
 0.00075170,0.00032059,-0.00063592,-0.00037470,0.00138201,0.00200580,-0
 .00007905,-0.00001701,-0.00001451,-0.01173029,0.00512191,-0.00940223,-
 0.00793218,-0.00972603,0.00010576,0.00463841,0.00131232,0.00265085,0.0
 0034387,-0.00048475,-0.00000898,-0.00060718,0.00038813,-0.00024804,-0.
 00017533,0.00006120,-0.00007854,-0.00002272,-0.00001205,0.00007507,0.0
 0001095,-0.00002397,-0.00000634,-0.00000141,0.00000020,-0.00000466,0.0
 0001479,0.00000583,-0.00002124,0.23844380,-0.42347180,0.24994908,0.008
 42601,0.02640937,-0.01037106,-0.00028573,-0.00027789,0.00006052,-0.007
 40901,0.00308697,-0.00140397,-0.00015472,-0.00058012,0.00025994,-0.000
 38524,-0.00929131,0.00360665,0.00003951,-0.00002160,-0.00010909,-0.000
 28838,0.00016213,0.00004316,-0.00023195,-0.00017521,0.00009076,0.00007
 987,-0.00000626,-0.00009340,0.00622765,-0.00676846,0.00276390,0.006916
 69,0.00621399,-0.00239350,-0.00369912,-0.00043415,0.00012308,0.0001663
 3,0.00161411,0.00043784,0.00098716,-0.00079937,-0.00002055,-0.00017933
 ,-0.00048066,-0.00021752,0.00007534,0.00024815,0.00006266,-0.00001345,
 -0.00000168,-0.00001515,-0.00001230,-0.00001988,-0.00001489,-0.0000130
 5,-0.00004068,0.00000885,-0.31090066,0.46813917,-0.18819044,0.30269193
 ,0.01790747,-0.02699373,0.01603062,-0.00021130,0.00001170,0.00018858,0
 .01361835,-0.00463974,0.00175932,0.00019175,0.00050090,0.00007031,-0.0
 0368919,0.02002393,-0.00688975,-0.00013560,0.00001424,0.00008686,0.000
 14698,-0.00021554,-0.00006592,0.00006302,0.00033746,-0.00039493,-0.000
 01953,0.00001730,0.00005009,-0.00757597,0.00517799,-0.00119272,-0.0109
 8685,-0.00814385,0.00350434,0.00689762,-0.00023834,-0.00005243,0.00050
 638,-0.00146319,-0.00042256,-0.00150089,0.00083641,0.00013966,-0.00019
 828,0.00032186,0.00006894,-0.00000852,-0.00009954,-0.00000331,0.000023
 07,-0.00000370,0.00002326,-0.00000592,0.00001602,0.00000764,0.00002748
 ,0.00002138,-0.00001430,0.47002745,-0.83460150,0.31928566,-0.48716374,
 0.84904399,-0.00697715,0.01613526,0.00588316,0.00015198,0.00006293,-0.
 00017511,-0.00546412,0.00144030,-0.00184376,0.00015774,0.00022738,-0.0
 0000083,0.00139107,-0.00695343,0.00573005,-0.00003530,0.00001707,0.000
 07562,0.00004439,-0.00000276,-0.00012712,-0.00000885,-0.00038992,-0.00
 048207,-0.00000194,0.00000336,0.00000422,0.00296704,-0.00105373,0.0032
 2933,0.00437879,0.00377468,-0.00010391,-0.00276684,-0.00021713,-0.0007
 7242,-0.00019562,-0.00039123,-0.00040894,0.00029528,0.00001149,0.00021
 463,0.00030478,0.00017171,0.00021988,-0.00000638,-0.00008485,-0.000113
 89,-0.00000892,0.00003782,0.00001282,0.00000922,0.00001163,0.00000858,
 -0.00000822,0.00001299,0.00002579,-0.18892688,0.31935143,-0.16674200,0
 .19544446,-0.33230581,0.15502679,-0.00441943,-0.01012666,0.00398585,0.
 00164551,-0.00102427,0.00016903,-0.00636444,0.00482051,-0.00197303,-0.
 00037652,-0.00265527,-0.00213026,-0.35109282,-0.03500041,0.00603006,-0
 .00004760,-0.00016221,-0.00014690,0.00066832,0.00074020,0.00040585,0.0
 0099031,-0.00056874,0.00027852,0.00000584,-0.00095297,-0.00046905,0.01
 429772,-0.00064648,0.00043249,-0.00573812,0.00575750,-0.00252674,0.005
 75732,-0.00141933,0.00071838,-0.02566280,0.02283250,0.00406856,0.02104
 569,-0.01698599,-0.00798623,0.01620445,0.00040154,0.00525437,-0.001173
 27,-0.00425559,-0.00258228,-0.00025810,0.00048917,0.00010361,0.0003417
 5,0.00020343,0.00017548,-0.00034576,0.00044418,0.00020257,0.00211793,-
 0.00134865,0.00068097,-0.00203754,0.00208623,-0.00074454,0.33444154,-0
 .02675067,0.00399923,-0.00336226,0.00093250,-0.00026499,0.00030975,0.0
 1964726,0.01213539,-0.00449955,-0.00017943,-0.00081268,0.00014750,-0.0
 3337949,-0.07572133,0.01572410,-0.00031866,0.00011248,-0.00005701,0.00
 009074,-0.00065269,-0.00110796,-0.00053740,-0.00022735,-0.00067272,-0.
 00006721,-0.00009135,-0.00012235,-0.00257964,-0.00320712,0.00482659,0.
 00294190,-0.00385988,0.00301504,0.00186455,0.00077662,-0.00034698,0.00
 325191,0.00139929,0.00083193,-0.00261758,-0.00863933,0.00033145,0.0005
 9903,-0.00023086,-0.00079985,-0.00001189,0.00011800,-0.00005063,-0.000
 11006,0.00001047,-0.00006596,0.00003007,-0.00002309,-0.00001030,-0.000
 03720,-0.00000752,0.00007399,-0.00032716,-0.00025003,-0.00114883,0.000
 18715,0.00007594,0.00014080,0.03737130,0.07536078,0.01095620,-0.002322
 25,-0.00138294,0.00099286,-0.00011358,0.00035276,-0.00789575,-0.005353
 63,0.00122441,-0.00040497,-0.00000384,-0.00055006,0.00356638,0.0154847
 6,-0.04061642,-0.00034604,0.00015046,-0.00005087,-0.00005487,-0.001039
 64,-0.00074042,0.00027385,-0.00063384,-0.00162481,-0.00009901,0.000008
 65,0.00003365,0.00063852,0.00486635,0.00695063,-0.00124897,0.00283799,
 0.00236793,-0.00080857,-0.00034960,-0.00005369,0.00132662,-0.00033192,
 -0.00084244,-0.00147706,0.00117939,-0.00650385,-0.00170505,-0.00057872
 ,0.00068403,0.00006692,0.00033077,0.00026461,-0.00001331,-0.00004036,-
 0.00008467,-0.00000665,-0.00001318,-0.00003815,-0.00001622,0.00000191,
 -0.00004634,0.00027408,-0.00104943,-0.00269692,-0.00007224,0.00012646,
 0.00033917,-0.00394671,-0.01315675,0.04301439\\-0.00000744,-0.00000644
 ,-0.00000219,-0.00000615,0.00000637,0.00001115,-0.00000454,0.00000815,
 -0.00000744,0.00001513,0.00000144,0.00000586,0.00008221,-0.00052038,0.
 00061475,0.00000334,0.00000051,-0.00000514,0.00000034,0.00000240,0.000
 00005,-0.00000404,-0.00000538,0.00000206,-0.00000330,0.00000058,0.0000
 0326,-0.00000264,0.00001297,-0.00000444,-0.00000188,-0.00001854,0.0000
 0700,0.00000201,-0.00000257,-0.00000615,-0.00000419,0.00001591,-0.0000
 2374,0.00005524,-0.00033794,0.00039638,0.00000033,-0.00000246,0.000006
 84,-0.00000320,0.00000278,0.00000205,-0.00000295,0.00000061,0.00000235
 ,0.00000009,0.00000264,0.00000383,-0.00000140,0.00000348,0.00000106,0.
 00000753,-0.00001054,-0.00000105,-0.00000441,0.00000821,-0.00000441,-0
 .00012009,0.00083820,-0.00100209\\\@
 The archive entry for this job was punched.


 IT PROBABLY IS NOT POSSIBLE FOR A SCIENTIST TO INTERROGATE NATURE 
 FROM A WHOLLY DISINTERESTED VIEWPOINT.
 EVEN IF HE HAS NO PARTICULAR AXE TO GRIND, HE IS LIKELY TO HAVE 
 A DISTINCTIVE WAY OF VIEWING NATURE.

                                                   -- JOHN LOSEE
 Job cpu time:       0 days  0 hours 21 minutes  9.5 seconds.
 Elapsed time:       0 days  0 hours  1 minutes 47.2 seconds.
 File lengths (MBytes):  RWF=    230 Int=      0 D2E=      0 Chk=     11 Scr=      1
 Normal termination of Gaussian 16 at Sat Dec 30 20:53:01 2023.
