Unloading slurm/anatra/current
  ERROR: No such file or directory on
    '/cm/local/modulefiles/slurm/anatra/current'
environment: line 0: unalias: gv: not found
environment: line 0: unalias: sl: not found
 Entering Gaussian System, Link 0=g16
 Initial command:
 /apps/gaussian/g16/C.01/g16/l1.exe "/local/jobs/1153064/Gau-2364296.inp" -scrdir="/local/jobs/1153064/"
 Entering Link 1 = /apps/gaussian/g16/C.01/g16/l1.exe PID=   2364299.
  
 Copyright (c) 1988-2019, Gaussian, Inc.  All Rights Reserved.
  
 This is part of the Gaussian(R) 16 program.  It is based on
 the Gaussian(R) 09 system (copyright 2009, Gaussian, Inc.),
 the Gaussian(R) 03 system (copyright 2003, Gaussian, Inc.),
 the Gaussian(R) 98 system (copyright 1998, Gaussian, Inc.),
 the Gaussian(R) 94 system (copyright 1995, Gaussian, Inc.),
 the Gaussian 92(TM) system (copyright 1992, Gaussian, Inc.),
 the Gaussian 90(TM) system (copyright 1990, Gaussian, Inc.),
 the Gaussian 88(TM) system (copyright 1988, Gaussian, Inc.),
 the Gaussian 86(TM) system (copyright 1986, Carnegie Mellon
 University), and the Gaussian 82(TM) system (copyright 1983,
 Carnegie Mellon University). Gaussian is a federally registered
 trademark of Gaussian, Inc.
  
 This software contains proprietary and confidential information,
 including trade secrets, belonging to Gaussian, Inc.
  
 This software is provided under written license and may be
 used, copied, transmitted, or stored only in accord with that
 written license.
  
 The following legend is applicable only to US Government
 contracts under FAR:
  
                    RESTRICTED RIGHTS LEGEND
  
 Use, reproduction and disclosure by the US Government is
 subject to restrictions as set forth in subparagraphs (a)
 and (c) of the Commercial Computer Software - Restricted
 Rights clause in FAR 52.227-19.
  
 Gaussian, Inc.
 340 Quinnipiac St., Bldg. 40, Wallingford CT 06492
  
  
 ---------------------------------------------------------------
 Warning -- This program may not be used in any manner that
 competes with the business of Gaussian, Inc. or will provide
 assistance to any competitor of Gaussian, Inc.  The licensee
 of this program is prohibited from giving any competitor of
 Gaussian, Inc. access to this program.  By using this program,
 the user acknowledges that Gaussian, Inc. is engaged in the
 business of creating and licensing software in the field of
 computational chemistry and represents and warrants to the
 licensee that it is not a competitor of Gaussian, Inc. and that
 it will not use this program in any manner prohibited above.
 ---------------------------------------------------------------
  

 Cite this work as:
 Gaussian 16, Revision C.01,
 M. J. Frisch, G. W. Trucks, H. B. Schlegel, G. E. Scuseria, 
 M. A. Robb, J. R. Cheeseman, G. Scalmani, V. Barone, 
 G. A. Petersson, H. Nakatsuji, X. Li, M. Caricato, A. V. Marenich, 
 J. Bloino, B. G. Janesko, R. Gomperts, B. Mennucci, H. P. Hratchian, 
 J. V. Ortiz, A. F. Izmaylov, J. L. Sonnenberg, D. Williams-Young, 
 F. Ding, F. Lipparini, F. Egidi, J. Goings, B. Peng, A. Petrone, 
 T. Henderson, D. Ranasinghe, V. G. Zakrzewski, J. Gao, N. Rega, 
 G. Zheng, W. Liang, M. Hada, M. Ehara, K. Toyota, R. Fukuda, 
 J. Hasegawa, M. Ishida, T. Nakajima, Y. Honda, O. Kitao, H. Nakai, 
 T. Vreven, K. Throssell, J. A. Montgomery, Jr., J. E. Peralta, 
 F. Ogliaro, M. J. Bearpark, J. J. Heyd, E. N. Brothers, K. N. Kudin, 
 V. N. Staroverov, T. A. Keith, R. Kobayashi, J. Normand, 
 K. Raghavachari, A. P. Rendell, J. C. Burant, S. S. Iyengar, 
 J. Tomasi, M. Cossi, J. M. Millam, M. Klene, C. Adamo, R. Cammi, 
 J. W. Ochterski, R. L. Martin, K. Morokuma, O. Farkas, 
 J. B. Foresman, and D. J. Fox, Gaussian, Inc., Wallingford CT, 2019.
 
 ******************************************
 Gaussian 16:  ES64L-G16RevC.01  3-Jul-2019
                26-Dec-2023 
 ******************************************
 %chk=cyclic-1_1_opt_sqm.chk
 %nprocshared=12
 Will use up to   12 processors via shared memory.
 %mem=48GB
 ----------------------------------------------------------------------
 # wb97xd chkbasis guess=read geom=allchk scrf=(iefpcm,solvent=toluene)
  opt=(readfc,ts,noeigen,maxcycles=50,maxstep=10)
 ----------------------------------------------------------------------
 1/5=1,6=50,8=10,10=3,11=1,18=20,26=3,29=7,38=1/1,3;
 2/9=110,12=2,40=1/2;
 3/5=7,6=2,11=2,14=-4,25=1,30=1,67=1,70=2201,71=1,72=13,74=-58,116=-2/1,2,3;
 4/5=1/1;
 5/5=2,38=6,53=13/2;
 6/7=2,8=2,9=2,10=2,28=1/1;
 7//1,2,3,16;
 1/5=1,6=50,8=10,11=1,18=20,26=3/3(2);
 2/9=110/2;
 99//99;
 2/9=110/2;
 3/5=7,6=1,11=2,14=-2,25=1,30=1,70=2205,71=1,72=13,74=-58,82=7/1,2,3;
 4/5=5,16=3,69=1/1;
 5/5=2,38=5,53=13/2;
 7//1,2,3,16;
 1/5=1,6=50,8=10,11=1,18=20,26=3/3(-5);
 2/9=110/2;
 6/7=2,8=2,9=2,10=2,19=2,28=1/1;
 99/9=1/99;
 Structure from the checkpoint file:  "cyclic-1_1_opt_sqm.chk"
 -----------------------
 cyclic_ts_133_reopt.out
 -----------------------
 Charge =  0 Multiplicity = 1
 Redundant internal coordinates found in file.  (old form).
 C,0,3.0463205056,0.2782003857,-0.3502655515
 C,0,-1.2524447676,-1.8712553132,0.6225809475
 C,0,3.345205435,2.1235458402,0.7918359366
 C,0,-1.6817696723,-1.0861630079,1.6124682205
 N,0,2.4727845631,1.1374348299,0.4734558468
 H,0,-1.7581333781,-2.8114540089,0.3930328961
 H,0,-0.3830817468,-1.6035700827,0.0156482881
 H,0,3.0945372084,2.943795258,1.4535771407
 H,0,-2.545001307,-1.343880094,2.2293931239
 O,0,4.2892117027,0.6453873868,-0.6074119775
 C,0,4.5680916444,1.8662483156,0.1149909866
 O,0,5.6463073166,2.3882429648,0.0313928594
 C,0,-1.0028731283,0.1879720766,1.9345877542
 O,0,-0.0426432492,0.6414971875,1.3407969725
 O,0,-1.5642212584,0.8069022784,2.9592763716
 C,0,-0.99554025,2.0458611493,3.3676084169
 H,0,-1.5943165602,2.3899208513,4.2166986312
 H,0,-1.0397038437,2.7789524591,2.550148386
 H,0,0.050873432,1.9080367087,3.6738851479
 C,0,2.4351139041,-0.8769698926,-0.8859212286
 N,0,1.8992871652,-1.8157962221,-1.3055673043
 H,0,1.4973962846,1.0308909295,0.8089881353
 Recover connectivity data from disk.

 GradGradGradGradGradGradGradGradGradGradGradGradGradGradGradGradGradGrad
 Berny optimization.
 Initialization pass.
 Force constant matrix read from checkpoint file:
 "cyclic-1_1_opt_sqm.chk"
                           ----------------------------
                           !    Initial Parameters    !
                           ! (Angstroms and Degrees)  !
 --------------------------                            --------------------------
 ! Name  Definition              Value          Derivative Info.                !
 --------------------------------------------------------------------------------
 ! R1    R(1,5)                  1.3213         D2E/DX2 =    0.4536             !
 ! R2    R(1,10)                 1.3213         D2E/DX2 =    0.356              !
 ! R3    R(1,20)                 1.4124         D2E/DX2 =    0.4276             !
 ! R4    R(2,4)                  1.3344         D2E/DX2 =    0.6921             !
 ! R5    R(2,6)                  1.092          D2E/DX2 =    0.3022             !
 ! R6    R(2,7)                  1.0935         D2E/DX2 =    0.3287             !
 ! R7    R(3,5)                  1.3546         D2E/DX2 =    0.3868             !
 ! R8    R(3,8)                  1.0833         D2E/DX2 =    0.3213             !
 ! R9    R(3,11)                 1.4212         D2E/DX2 =    0.3123             !
 ! R10   R(4,9)                  1.0919         D2E/DX2 =    0.317              !
 ! R11   R(4,13)                 1.4792         D2E/DX2 =    0.3464             !
 ! R12   R(5,22)                 1.037          D2E/DX2 =    0.3698             !
 ! R13   R(10,11)                1.4457         D2E/DX2 =    0.4268             !
 ! R14   R(11,12)                1.2008         D2E/DX2 =    0.9166             !
 ! R15   R(13,14)                1.2167         D2E/DX2 =    0.9157             !
 ! R16   R(13,15)                1.3222         D2E/DX2 =    0.5209             !
 ! R17   R(14,22)                1.6752         D2E/DX2 =    0.0419             !
 ! R18   R(15,16)                1.4231         D2E/DX2 =    0.4057             !
 ! R19   R(16,17)                1.0945         D2E/DX2 =    0.302              !
 ! R20   R(16,18)                1.0989         D2E/DX2 =    0.2972             !
 ! R21   R(16,19)                1.099          D2E/DX2 =    0.2963             !
 ! R22   R(20,21)                1.1596         D2E/DX2 =    1.2395             !
 ! A1    A(5,1,10)             110.4226         D2E/DX2 =    0.1091             !
 ! A2    A(5,1,20)             125.483          D2E/DX2 =    0.119              !
 ! A3    A(10,1,20)            124.094          D2E/DX2 =    0.1119             !
 ! A4    A(4,2,6)              120.8994         D2E/DX2 =    0.1427             !
 ! A5    A(4,2,7)              121.5669         D2E/DX2 =    0.1577             !
 ! A6    A(6,2,7)              117.533          D2E/DX2 =    0.0577             !
 ! A7    A(5,3,8)              123.0762         D2E/DX2 =    0.073              !
 ! A8    A(5,3,11)             108.0864         D2E/DX2 =    0.0979             !
 ! A9    A(8,3,11)             128.8372         D2E/DX2 =    0.0697             !
 ! A10   A(2,4,9)              122.3198         D2E/DX2 =    0.1017             !
 ! A11   A(2,4,13)             121.3769         D2E/DX2 =    0.3113             !
 ! A12   A(9,4,13)             116.3031         D2E/DX2 =    0.1113             !
 ! A13   A(1,5,3)              109.8997         D2E/DX2 =    0.1031             !
 ! A14   A(1,5,22)             122.9023         D2E/DX2 =    0.1503             !
 ! A15   A(3,5,22)             127.1961         D2E/DX2 =    0.112              !
 ! A16   A(1,10,11)            108.5958         D2E/DX2 =    0.1194             !
 ! A17   A(3,11,10)            102.9955         D2E/DX2 =    0.1063             !
 ! A18   A(3,11,12)            136.6403         D2E/DX2 =    0.1022             !
 ! A19   A(10,11,12)           120.3641         D2E/DX2 =    0.1347             !
 ! A20   A(4,13,14)            125.241          D2E/DX2 =    0.264              !
 ! A21   A(4,13,15)            112.1556         D2E/DX2 =    0.1687             !
 ! A22   A(14,13,15)           122.6027         D2E/DX2 =    0.2356             !
 ! A23   A(13,14,22)           165.2722         D2E/DX2 =    0.056              !
 ! A24   A(13,15,16)           117.4039         D2E/DX2 =    0.2986             !
 ! A25   A(15,16,17)           106.1211         D2E/DX2 =    0.1233             !
 ! A26   A(15,16,18)           110.5661         D2E/DX2 =    0.1271             !
 ! A27   A(15,16,19)           110.5654         D2E/DX2 =    0.1267             !
 ! A28   A(17,16,18)           110.2064         D2E/DX2 =    0.0581             !
 ! A29   A(17,16,19)           110.129          D2E/DX2 =    0.0577             !
 ! A30   A(18,16,19)           109.2225         D2E/DX2 =    0.0576             !
 ! A31   A(5,22,14)            172.4555         D2E/DX2 =    0.1478             !
 ! A32   L(1,20,21,19,-1)      178.0624         D2E/DX2 =    0.1097             !
 ! A33   L(1,20,21,19,-2)      179.3856         D2E/DX2 =    0.0812             !
 ! D1    D(10,1,5,3)             0.0124         D2E/DX2 =    0.0259             !
 ! D2    D(10,1,5,22)         -179.5243         D2E/DX2 =    0.0322             !
 ! D3    D(20,1,5,3)           179.7832         D2E/DX2 =    0.0288             !
 ! D4    D(20,1,5,22)            0.2465         D2E/DX2 =    0.0213             !
 ! D5    D(5,1,10,11)           -0.007          D2E/DX2 =    0.0206             !
 ! D6    D(20,1,10,11)        -179.7816         D2E/DX2 =    0.0366             !
 ! D7    D(6,2,4,9)              0.0259         D2E/DX2 =    0.0247             !
 ! D8    D(6,2,4,13)           179.8535         D2E/DX2 =    0.0336             !
 ! D9    D(7,2,4,9)           -179.6737         D2E/DX2 =    0.0344             !
 ! D10   D(7,2,4,13)             0.154          D2E/DX2 =    0.0322             !
 ! D11   D(8,3,5,1)            179.8513         D2E/DX2 =    0.024              !
 ! D12   D(8,3,5,22)            -0.6371         D2E/DX2 =    0.0177             !
 ! D13   D(11,3,5,1)            -0.0126         D2E/DX2 =    0.023              !
 ! D14   D(11,3,5,22)          179.499          D2E/DX2 =    0.0278             !
 ! D15   D(5,3,11,10)            0.0079         D2E/DX2 =    0.0188             !
 ! D16   D(5,3,11,12)         -179.9895         D2E/DX2 =    0.0183             !
 ! D17   D(8,3,11,10)         -179.8457         D2E/DX2 =    0.023              !
 ! D18   D(8,3,11,12)            0.1569         D2E/DX2 =    0.0155             !
 ! D19   D(2,4,13,14)            1.3876         D2E/DX2 =    0.018              !
 ! D20   D(2,4,13,15)         -178.9142         D2E/DX2 =    0.0235             !
 ! D21   D(9,4,13,14)         -178.7749         D2E/DX2 =    0.0179             !
 ! D22   D(9,4,13,15)            0.9233         D2E/DX2 =    0.0201             !
 ! D23   D(1,5,22,14)           32.7764         D2E/DX2 =    0.0287             !
 ! D24   D(3,5,22,14)         -146.6767         D2E/DX2 =    0.0429             !
 ! D25   D(1,10,11,3)           -0.0007         D2E/DX2 =    0.0174             !
 ! D26   D(1,10,11,12)         179.9972         D2E/DX2 =    0.017              !
 ! D27   D(4,13,14,22)         -88.6115         D2E/DX2 =    0.0167             !
 ! D28   D(15,13,14,22)         91.7203         D2E/DX2 =    0.0132             !
 ! D29   D(4,13,15,16)         179.8299         D2E/DX2 =    0.0239             !
 ! D30   D(14,13,15,16)         -0.4627         D2E/DX2 =    0.0247             !
 ! D31   D(13,14,22,5)          52.7374         D2E/DX2 =    0.0166             !
 ! D32   D(13,15,16,17)       -179.9613         D2E/DX2 =    0.0235             !
 ! D33   D(13,15,16,18)         60.5362         D2E/DX2 =    0.0236             !
 ! D34   D(13,15,16,19)        -60.5519         D2E/DX2 =    0.0247             !
 --------------------------------------------------------------------------------
 Trust Radius=1.00D-01 FncErr=1.00D-07 GrdErr=1.00D-06 EigMax=2.50D+02 EigMin=1.00D-04
 Number of steps in this run=     50 maximum allowed number of steps=    132.
 Search for a saddle point of order  1.
 GradGradGradGradGradGradGradGradGradGradGradGradGradGradGradGradGradGrad

                          Input orientation:                          
 ---------------------------------------------------------------------
 Center     Atomic      Atomic             Coordinates (Angstroms)
 Number     Number       Type             X           Y           Z
 ---------------------------------------------------------------------
      1          6           0        3.046321    0.278200   -0.350266
      2          6           0       -1.252445   -1.871255    0.622581
      3          6           0        3.345205    2.123546    0.791836
      4          6           0       -1.681770   -1.086163    1.612468
      5          7           0        2.472785    1.137435    0.473456
      6          1           0       -1.758133   -2.811454    0.393033
      7          1           0       -0.383082   -1.603570    0.015648
      8          1           0        3.094537    2.943795    1.453577
      9          1           0       -2.545001   -1.343880    2.229393
     10          8           0        4.289212    0.645387   -0.607412
     11          6           0        4.568092    1.866248    0.114991
     12          8           0        5.646307    2.388243    0.031393
     13          6           0       -1.002873    0.187972    1.934588
     14          8           0       -0.042643    0.641497    1.340797
     15          8           0       -1.564221    0.806902    2.959276
     16          6           0       -0.995540    2.045861    3.367608
     17          1           0       -1.594317    2.389921    4.216699
     18          1           0       -1.039704    2.778952    2.550148
     19          1           0        0.050873    1.908037    3.673885
     20          6           0        2.435114   -0.876970   -0.885921
     21          7           0        1.899287   -1.815796   -1.305567
     22          1           0        1.497396    1.030891    0.808988
 ---------------------------------------------------------------------
                    Distance matrix (angstroms):
                    1          2          3          4          5
     1  C    0.000000
     2  C    4.903669   0.000000
     3  C    2.190668   6.093067   0.000000
     4  C    5.297985   1.334379   6.020477   0.000000
     5  N    1.321266   4.790802   1.354584   4.847892   0.000000
     6  H    5.760315   1.091965   7.110368   2.114115   5.787993
     7  H    3.928836   1.093533   5.328601   2.122295   3.984805
     8  H    3.218939   6.539994   1.083303   6.251313   2.147126
     9  H    6.367783   2.128538   6.984565   1.091871   5.866721
    10  O    1.321260   6.209374   2.243657   6.601421   2.170206
    11  C    2.248143   6.935793   1.421187   7.072477   2.247216
    12  O    3.370145   8.129306   2.437911   8.262688   3.439649
    13  C    4.650233   2.454397   4.894703   1.479217   3.888005
    14  O    3.540251   2.879823   3.738361   2.396946   2.706587
    15  O    5.699973   3.567895   5.525741   2.326243   4.752470
    16  C    5.769216   4.790092   5.048040   3.655271   4.607671
    17  H    6.844855   5.584996   6.016603   4.344286   5.667618
    18  H    5.600157   5.038373   4.769554   4.028723   4.398273
    19  H    5.274738   5.029130   4.382382   4.026999   4.086836
    20  C    1.412416   4.106370   3.556154   4.820212   2.430463
    21  N    2.571597   3.695165   4.691289   4.676672   3.495053
    22  H    2.075952   4.002353   2.146762   3.903152   1.036974
                    6          7          8          9         10
     6  H    0.000000
     7  H    1.868735   0.000000
     8  H    7.602372   5.902542   0.000000
     9  H    2.478942   3.105157   7.126742   0.000000
    10  O    7.037118   5.222676   3.310227   7.662318   0.000000
    11  C    7.872695   6.046786   2.263688   8.085277   1.445732
    12  O    9.055019   7.231069   2.973681   9.265931   2.299419
    13  C    3.455918   2.697423   4.961321   2.193545   5.888731
    14  O    3.970395   2.629115   3.892968   3.315588   4.749790
    15  O    4.440238   3.983769   5.342048   2.473969   6.856386
    16  C    5.746578   4.992904   4.604187   3.897013   6.759491
    17  H    6.457674   5.921476   5.470555   4.335257   7.805853
    18  H    6.035059   5.105032   4.280373   4.400745   6.551307
    19  H    6.025785   5.089440   3.907231   4.404553   6.155266
    20  C    4.791792   3.046802   4.528392   5.892770   2.415123
    21  N    4.153709   2.645725   5.629850   5.698276   3.500941
    22  H    5.053227   3.332562   2.574016   4.898782   3.154209
                   11         12         13         14         15
    11  C    0.000000
    12  O    1.200840   0.000000
    13  C    6.096162   7.257751   0.000000
    14  O    4.925596   6.093424   1.216682   0.000000
    15  O    6.842327   7.941339   1.322185   2.227562   0.000000
    16  C    6.447153   7.440544   2.346349   2.643523   1.423078
    17  H    7.421153   8.363218   3.225897   3.706142   2.021871
    18  H    6.181455   7.155385   2.663353   2.650543   2.081222
    19  H    5.750890   6.693820   2.663486   2.656345   2.081272
    20  C    3.616167   4.670636   4.572650   3.661051   5.797901
    21  N    4.764237   5.788054   4.789178   4.100321   6.087966
    22  H    3.257088   4.434019   2.868594   1.675163   3.747988
                   16         17         18         19         20
    16  C    0.000000
    17  H    1.094470   0.000000
    18  H    1.098915   1.798980   0.000000
    19  H    1.098992   1.798196   1.791825   0.000000
    20  C    6.197164   7.276374   6.103008   5.850872   0.000000
    21  N    6.717961   7.771020   6.679515   6.486795   1.159572
    22  H    3.713682   4.797723   3.538960   3.327078   2.718817
                   21         22
    21  N    0.000000
    22  H    3.568822   0.000000
 Stoichiometry    C8H8N2O4
 Framework group  C1[X(C8H8N2O4)]
 Deg. of freedom    60
 Full point group                 C1      NOp   1
 Largest Abelian subgroup         C1      NOp   1
 Largest concise Abelian subgroup C1      NOp   1
                         Standard orientation:                         
 ---------------------------------------------------------------------
 Center     Atomic      Atomic             Coordinates (Angstroms)
 Number     Number       Type             X           Y           Z
 ---------------------------------------------------------------------
      1          6           0        1.852338    0.772910    0.032676
      2          6           0       -2.839116    2.197050   -0.057092
      3          6           0        2.072280   -1.405795    0.095110
      4          6           0       -3.436783    1.008703   -0.162885
      5          7           0        1.200369   -0.370488    0.148098
      6          1           0       -3.402117    3.122270   -0.196320
      7          1           0       -1.772100    2.283334    0.166171
      8          1           0        1.765212   -2.441854    0.171510
      9          1           0       -4.499931    0.908163   -0.390464
     10          8           0        3.148596    0.553297   -0.098531
     11          6           0        3.379979   -0.873452   -0.067084
     12          8           0        4.493838   -1.310175   -0.170073
     13          6           0       -2.683709   -0.251194    0.020475
     14          8           0       -1.501716   -0.328496    0.298379
     15          8           0       -3.447463   -1.317459   -0.146659
     16          6           0       -2.833344   -2.592686    0.001009
     17          1           0       -3.621399   -3.331643   -0.174421
     18          1           0       -2.422981   -2.708578    1.013820
     19          1           0       -2.025638   -2.719561   -0.733359
     20          6           0        1.263686    2.056786    0.040947
     21          7           0        0.744024    3.093330    0.052637
     22          1           0        0.170175   -0.423290    0.254060
 ---------------------------------------------------------------------
 Rotational constants (GHZ):           1.0244580           0.3434450           0.2585855
 Basis read from chk: "cyclic-1_1_opt_sqm.chk" (5D, 7F)
 Pseudo-potential data read from chk file.
 There are   250 symmetry adapted cartesian basis functions of A   symmetry.
 There are   236 symmetry adapted basis functions of A   symmetry.
   236 basis functions,   406 primitive gaussians,   250 cartesian basis functions
    51 alpha electrons       51 beta electrons
       nuclear repulsion energy       817.3990892966 Hartrees.
 NAtoms=   22 NActive=   22 NUniq=   22 SFac= 1.00D+00 NAtFMM=   60 NAOKFM=F Big=F
 Integral buffers will be    131072 words long.
 Raffenetti 2 integral format.
 Two-electron integral symmetry is turned on.
 Nuclear repulsion after empirical dispersion term =      817.3892517143 Hartrees.
 ------------------------------------------------------------------------------
 Polarizable Continuum Model (PCM)
 =================================
 Model                : PCM.
 Atomic radii         : UFF (Universal Force Field).
 Polarization charges : Total charges.
 Charge compensation  : None.
 Solution method      : On-the-fly selection.
 Cavity type          : Scaled VdW (van der Waals Surface) (Alpha=1.100).
 Cavity algorithm     : GePol (No added spheres)
                        Default sphere list used, NSphG=   22.
                        Lebedev-Laikov grids with approx.  5.0 points / Ang**2.
                        Smoothing algorithm: York/Karplus (Gamma=1.0000).
                        Polarization charges: spherical gaussians, with
                                              point-specific exponents (IZeta= 3).
                        Self-potential: point-specific (ISelfS= 7).
                        Self-field    : sphere-specific E.n sum rule (ISelfD= 2).
 1st derivatives      : Analytical E(r).r(x)/FMM algorithm (CHGder, D1EAlg=3).
                        Cavity 1st derivative terms included.
 Solvent              : Toluene, Eps=   2.374100 Eps(inf)=   2.238315
 ------------------------------------------------------------------------------
 One-electron integrals computed using PRISM.
   1 Symmetry operations used in ECPInt.
 ECPInt:  NShTT=    5886 NPrTT=   21942 LenC2=    5403 LenP2D=   14267.
 LDataN:  DoStor=T MaxTD1= 4 Len=   56
 NBasis=   236 RedAO= T EigKep=  3.33D-04  NBF=   236
 NBsUse=   236 1.00D-06 EigRej= -1.00D+00 NBFU=   236
 Initial guess from the checkpoint file:  "cyclic-1_1_opt_sqm.chk"
 B after Tr=     0.000000   -0.000000   -0.000000
         Rot=    1.000000    0.000000   -0.000000   -0.000000 Ang=   0.00 deg.
 Requested convergence on RMS density matrix=1.00D-08 within 128 cycles.
 Requested convergence on MAX density matrix=1.00D-06.
 Requested convergence on             energy=1.00D-06.
 No special actions if energy rises.
 Inv3:  Mode=1 IEnd=    13280448.
 Iteration    1 A*A^-1 deviation from unit magnitude is 2.89D-15 for    216.
 Iteration    1 A*A^-1 deviation from orthogonality  is 1.61D-15 for   1792     42.
 Iteration    1 A^-1*A deviation from unit magnitude is 2.89D-15 for    216.
 Iteration    1 A^-1*A deviation from orthogonality  is 2.00D-15 for   1965   1817.
 Error on total polarization charges =  0.00726
 SCF Done:  E(RwB97XD) =  -719.241059448     A.U. after    1 cycles
            NFock=  1  Conv=0.34D-08     -V/T= 2.0089

 **********************************************************************

            Population analysis using the SCF Density.

 **********************************************************************

 Orbital symmetries:
       Occupied  (A) (A) (A) (A) (A) (A) (A) (A) (A) (A) (A) (A)
                 (A) (A) (A) (A) (A) (A) (A) (A) (A) (A) (A) (A)
                 (A) (A) (A) (A) (A) (A) (A) (A) (A) (A) (A) (A)
                 (A) (A) (A) (A) (A) (A) (A) (A) (A) (A) (A) (A)
                 (A) (A) (A)
       Virtual   (A) (A) (A) (A) (A) (A) (A) (A) (A) (A) (A) (A)
                 (A) (A) (A) (A) (A) (A) (A) (A) (A) (A) (A) (A)
                 (A) (A) (A) (A) (A) (A) (A) (A) (A) (A) (A) (A)
                 (A) (A) (A) (A) (A) (A) (A) (A) (A) (A) (A) (A)
                 (A) (A) (A) (A) (A) (A) (A) (A) (A) (A) (A) (A)
                 (A) (A) (A) (A) (A) (A) (A) (A) (A) (A) (A) (A)
                 (A) (A) (A) (A) (A) (A) (A) (A) (A) (A) (A) (A)
                 (A) (A) (A) (A) (A) (A) (A) (A) (A) (A) (A) (A)
                 (A) (A) (A) (A) (A) (A) (A) (A) (A) (A) (A) (A)
                 (A) (A) (A) (A) (A) (A) (A) (A) (A) (A) (A) (A)
                 (A) (A) (A) (A) (A) (A) (A) (A) (A) (A) (A) (A)
                 (A) (A) (A) (A) (A) (A) (A) (A) (A) (A) (A) (A)
                 (A) (A) (A) (A) (A) (A) (A) (A) (A) (A) (A) (A)
                 (A) (A) (A) (A) (A) (A) (A) (A) (A) (A) (A) (A)
                 (A) (A) (A) (A) (A) (A) (A) (A) (A) (A) (A) (A)
                 (A) (A) (A) (A) (A)
 The electronic state is 1-A.
 Alpha  occ. eigenvalues --  -19.34334 -19.33236 -19.27993 -19.22730 -14.55637
 Alpha  occ. eigenvalues --  -14.47904 -10.46256 -10.44101 -10.42456 -10.37561
 Alpha  occ. eigenvalues --  -10.37270 -10.34442 -10.33617 -10.33100  -1.25463
 Alpha  occ. eigenvalues --   -1.23710  -1.14067  -1.12514  -1.08775  -1.02739
 Alpha  occ. eigenvalues --   -0.91064  -0.89516  -0.84810  -0.78607  -0.74680
 Alpha  occ. eigenvalues --   -0.73210  -0.72197  -0.66919  -0.64402  -0.62190
 Alpha  occ. eigenvalues --   -0.61210  -0.60501  -0.59771  -0.56971  -0.55348
 Alpha  occ. eigenvalues --   -0.52441  -0.52162  -0.51571  -0.50497  -0.49351
 Alpha  occ. eigenvalues --   -0.48891  -0.47934  -0.46743  -0.46453  -0.45881
 Alpha  occ. eigenvalues --   -0.44132  -0.42036  -0.40372  -0.38649  -0.36743
 Alpha  occ. eigenvalues --   -0.28342
 Alpha virt. eigenvalues --   -0.00982   0.00075   0.05731   0.13017   0.13625
 Alpha virt. eigenvalues --    0.14183   0.15887   0.16833   0.17817   0.18165
 Alpha virt. eigenvalues --    0.19267   0.20151   0.21006   0.21311   0.22037
 Alpha virt. eigenvalues --    0.25289   0.26532   0.26891   0.31489   0.34111
 Alpha virt. eigenvalues --    0.34663   0.35207   0.37047   0.37637   0.38803
 Alpha virt. eigenvalues --    0.44299   0.47252   0.48149   0.50716   0.50818
 Alpha virt. eigenvalues --    0.51802   0.52353   0.53668   0.54108   0.54263
 Alpha virt. eigenvalues --    0.56109   0.56560   0.56746   0.58940   0.60786
 Alpha virt. eigenvalues --    0.62010   0.63062   0.64608   0.66297   0.68313
 Alpha virt. eigenvalues --    0.68658   0.69105   0.69905   0.70845   0.72116
 Alpha virt. eigenvalues --    0.72342   0.73061   0.73242   0.74743   0.75341
 Alpha virt. eigenvalues --    0.76216   0.79262   0.79653   0.81072   0.83564
 Alpha virt. eigenvalues --    0.84343   0.85835   0.86653   0.88826   0.93306
 Alpha virt. eigenvalues --    0.94099   0.96367   1.01200   1.03701   1.04767
 Alpha virt. eigenvalues --    1.07297   1.09482   1.10255   1.11650   1.12042
 Alpha virt. eigenvalues --    1.13384   1.14418   1.16506   1.18508   1.22157
 Alpha virt. eigenvalues --    1.23709   1.26200   1.28888   1.29281   1.29787
 Alpha virt. eigenvalues --    1.31838   1.33369   1.34141   1.37506   1.37996
 Alpha virt. eigenvalues --    1.41219   1.44617   1.48600   1.50835   1.52101
 Alpha virt. eigenvalues --    1.57780   1.59237   1.61682   1.62928   1.63374
 Alpha virt. eigenvalues --    1.65846   1.67093   1.68738   1.70737   1.71456
 Alpha virt. eigenvalues --    1.72227   1.75104   1.75988   1.77133   1.78811
 Alpha virt. eigenvalues --    1.79108   1.81027   1.82718   1.83571   1.85114
 Alpha virt. eigenvalues --    1.88050   1.90044   1.92469   1.93968   1.95655
 Alpha virt. eigenvalues --    1.96456   1.98483   2.00209   2.03198   2.05838
 Alpha virt. eigenvalues --    2.06453   2.08830   2.11831   2.12234   2.12908
 Alpha virt. eigenvalues --    2.19787   2.20319   2.24507   2.29102   2.29217
 Alpha virt. eigenvalues --    2.31070   2.32269   2.33805   2.35190   2.37785
 Alpha virt. eigenvalues --    2.40420   2.41417   2.43705   2.49561   2.51598
 Alpha virt. eigenvalues --    2.52282   2.55420   2.63067   2.64769   2.68642
 Alpha virt. eigenvalues --    2.71294   2.72906   2.73640   2.75002   2.77479
 Alpha virt. eigenvalues --    2.80067   2.84145   2.85649   2.86628   2.86822
 Alpha virt. eigenvalues --    2.94015   2.95201   2.95669   2.96982   3.01582
 Alpha virt. eigenvalues --    3.02964   3.03759   3.06563   3.12059   3.13056
 Alpha virt. eigenvalues --    3.14534   3.17575   3.27947   3.28712   3.30122
 Alpha virt. eigenvalues --    3.36404   3.38158   3.44904   3.48602   3.53434
 Alpha virt. eigenvalues --    3.69486   3.72742   3.74806   3.79600   3.87227
          Condensed to atoms (all electrons):
               1          2          3          4          5          6
     1  C    5.177645  -0.000049  -0.110395   0.000036   0.562290   0.000000
     2  C   -0.000049   4.671932  -0.000002   0.608714   0.000020   0.389678
     3  C   -0.110395  -0.000002   5.288145  -0.000001   0.369185  -0.000000
     4  C    0.000036   0.608714  -0.000001   5.018842  -0.000083  -0.014901
     5  N    0.562290   0.000020   0.369185  -0.000083   6.041639  -0.000000
     6  H    0.000000   0.389678  -0.000000  -0.014901  -0.000000   0.576371
     7  H   -0.000128   0.387740   0.000013  -0.019625  -0.000033  -0.034087
     8  H    0.005515   0.000000   0.414013   0.000001  -0.027901  -0.000000
     9  H    0.000000  -0.024500   0.000000   0.396082   0.000002  -0.010702
    10  O    0.454528  -0.000000  -0.124560  -0.000000  -0.082441   0.000000
    11  C   -0.082790  -0.000000   0.362622   0.000000  -0.030133  -0.000000
    12  O    0.002325   0.000000  -0.076718  -0.000000   0.001484   0.000000
    13  C   -0.000002  -0.036031   0.000046   0.318933   0.000386   0.008226
    14  O   -0.002332   0.008735  -0.000423  -0.094612  -0.029573   0.000213
    15  O   -0.000001   0.004838   0.000000  -0.097815  -0.000000  -0.000080
    16  C   -0.000001  -0.000345  -0.000023   0.009331  -0.000076   0.000004
    17  H    0.000000  -0.000005   0.000000   0.000034  -0.000000  -0.000000
    18  H    0.000001   0.000017   0.000007   0.000314   0.000014  -0.000000
    19  H    0.000002   0.000032   0.000104   0.000188   0.000024  -0.000000
    20  C    0.053336  -0.000486   0.015680  -0.000384  -0.135802   0.000028
    21  N   -0.095484  -0.004839   0.000212   0.000349  -0.004845   0.000031
    22  H   -0.000845  -0.000040  -0.016968   0.001045   0.347471   0.000004
               7          8          9         10         11         12
     1  C   -0.000128   0.005515   0.000000   0.454528  -0.082790   0.002325
     2  C    0.387740   0.000000  -0.024500  -0.000000  -0.000000   0.000000
     3  C    0.000013   0.414013   0.000000  -0.124560   0.362622  -0.076718
     4  C   -0.019625   0.000001   0.396082  -0.000000   0.000000  -0.000000
     5  N   -0.000033  -0.027901   0.000002  -0.082441  -0.030133   0.001484
     6  H   -0.034087  -0.000000  -0.010702   0.000000  -0.000000   0.000000
     7  H    0.577061  -0.000001   0.006641   0.000002  -0.000001   0.000000
     8  H   -0.000001   0.563894  -0.000000   0.003729  -0.024391   0.001334
     9  H    0.006641  -0.000000   0.592345   0.000000  -0.000000  -0.000000
    10  O    0.000002   0.003729   0.000000   7.900389   0.261569  -0.064815
    11  C   -0.000001  -0.024391  -0.000000   0.261569   4.492143   0.764192
    12  O    0.000000   0.001334  -0.000000  -0.064815   0.764192   7.632238
    13  C   -0.018867   0.000009  -0.035580  -0.000000  -0.000003   0.000000
    14  O    0.010404   0.000153   0.002742  -0.000003  -0.000017   0.000000
    15  O    0.000465  -0.000002   0.007026   0.000000  -0.000000   0.000000
    16  C   -0.000036   0.000025  -0.000259  -0.000000   0.000000  -0.000000
    17  H   -0.000001  -0.000001  -0.000136  -0.000000   0.000000   0.000000
    18  H   -0.000004   0.000022   0.000034   0.000000   0.000001   0.000000
    19  H   -0.000010   0.000117   0.000040   0.000000   0.000002   0.000000
    20  C    0.002298  -0.000379  -0.000001  -0.090455  -0.006431  -0.000285
    21  N    0.015186  -0.000001  -0.000002  -0.002308  -0.000110  -0.000000
    22  H   -0.000128  -0.004762  -0.000038   0.001403   0.006858  -0.000030
              13         14         15         16         17         18
     1  C   -0.000002  -0.002332  -0.000001  -0.000001   0.000000   0.000001
     2  C   -0.036031   0.008735   0.004838  -0.000345  -0.000005   0.000017
     3  C    0.000046  -0.000423   0.000000  -0.000023   0.000000   0.000007
     4  C    0.318933  -0.094612  -0.097815   0.009331   0.000034   0.000314
     5  N    0.000386  -0.029573  -0.000000  -0.000076  -0.000000   0.000014
     6  H    0.008226   0.000213  -0.000080   0.000004  -0.000000  -0.000000
     7  H   -0.018867   0.010404   0.000465  -0.000036  -0.000001  -0.000004
     8  H    0.000009   0.000153  -0.000002   0.000025  -0.000001   0.000022
     9  H   -0.035580   0.002742   0.007026  -0.000259  -0.000136   0.000034
    10  O   -0.000000  -0.000003   0.000000  -0.000000  -0.000000   0.000000
    11  C   -0.000003  -0.000017  -0.000000   0.000000   0.000000   0.000001
    12  O    0.000000   0.000000   0.000000  -0.000000   0.000000   0.000000
    13  C    4.500576   0.604058   0.399888  -0.033052   0.004271  -0.005126
    14  O    0.604058   7.818742  -0.084895   0.005880   0.000778   0.006024
    15  O    0.399888  -0.084895   7.896943   0.254569  -0.020635  -0.025091
    16  C   -0.033052   0.005880   0.254569   4.432261   0.402536   0.406770
    17  H    0.004271   0.000778  -0.020635   0.402536   0.580123  -0.020473
    18  H   -0.005126   0.006024  -0.025091   0.406770  -0.020473   0.601792
    19  H   -0.004525   0.005420  -0.025308   0.405903  -0.020733  -0.028711
    20  C    0.000400   0.003104   0.000002  -0.000001  -0.000000  -0.000001
    21  N   -0.000121  -0.000313  -0.000000   0.000000   0.000000   0.000000
    22  H   -0.007454   0.071028  -0.000074   0.000438   0.000010   0.000067
              19         20         21         22
     1  C    0.000002   0.053336  -0.095484  -0.000845
     2  C    0.000032  -0.000486  -0.004839  -0.000040
     3  C    0.000104   0.015680   0.000212  -0.016968
     4  C    0.000188  -0.000384   0.000349   0.001045
     5  N    0.000024  -0.135802  -0.004845   0.347471
     6  H   -0.000000   0.000028   0.000031   0.000004
     7  H   -0.000010   0.002298   0.015186  -0.000128
     8  H    0.000117  -0.000379  -0.000001  -0.004762
     9  H    0.000040  -0.000001  -0.000002  -0.000038
    10  O    0.000000  -0.090455  -0.002308   0.001403
    11  C    0.000002  -0.006431  -0.000110   0.006858
    12  O    0.000000  -0.000285  -0.000000  -0.000030
    13  C   -0.004525   0.000400  -0.000121  -0.007454
    14  O    0.005420   0.003104  -0.000313   0.071028
    15  O   -0.025308   0.000002  -0.000000  -0.000074
    16  C    0.405903  -0.000001   0.000000   0.000438
    17  H   -0.020733  -0.000000   0.000000   0.000010
    18  H   -0.028711  -0.000001   0.000000   0.000067
    19  H    0.606204  -0.000003   0.000000   0.000241
    20  C   -0.000003   5.406123   0.803960  -0.025557
    21  N    0.000000   0.803960   6.238449  -0.000381
    22  H    0.000241  -0.025557  -0.000381   0.442378
 Mulliken charges:
               1
     1  C    0.036348
     2  C   -0.005409
     3  C   -0.120938
     4  C   -0.126446
     5  N   -0.011628
     6  H    0.085215
     7  H    0.073109
     8  H    0.068627
     9  H    0.066305
    10  O   -0.257039
    11  C    0.256489
    12  O   -0.259724
    13  C    0.303968
    14  O   -0.325110
    15  O   -0.309830
    16  C    0.116073
    17  H    0.074231
    18  H    0.064343
    19  H    0.061013
    20  C   -0.025146
    21  N    0.050216
    22  H    0.185334
 Sum of Mulliken charges =  -0.00000
 Mulliken charges with hydrogens summed into heavy atoms:
               1
     1  C    0.036348
     2  C    0.152915
     3  C   -0.052311
     4  C   -0.060141
     5  N    0.173706
    10  O   -0.257039
    11  C    0.256489
    12  O   -0.259724
    13  C    0.303968
    14  O   -0.325110
    15  O   -0.309830
    16  C    0.315659
    20  C   -0.025146
    21  N    0.050216
 Electronic spatial extent (au):  <R**2>=           3891.4404
 Charge=              0.0000 electrons
 Dipole moment (field-independent basis, Debye):
    X=             -9.1723    Y=             -2.6632    Z=              0.2379  Tot=              9.5541
 Quadrupole moment (field-independent basis, Debye-Ang):
   XX=           -101.7294   YY=            -78.5757   ZZ=            -79.5903
   XY=              7.0436   XZ=              2.3417   YZ=             -1.1131
 Traceless Quadrupole moment (field-independent basis, Debye-Ang):
   XX=            -15.0976   YY=              8.0561   ZZ=              7.0415
   XY=              7.0436   XZ=              2.3417   YZ=             -1.1131
 Octapole moment (field-independent basis, Debye-Ang**2):
  XXX=           -201.9547  YYY=            -69.9605  ZZZ=              0.4554  XYY=            -51.2377
  XXY=             41.0615  XXZ=              5.6260  XZZ=              2.5634  YZZ=             -5.8966
  YYZ=              0.0439  XYZ=              0.3151
 Hexadecapole moment (field-independent basis, Debye-Ang**3):
 XXXX=          -4216.2545 YYYY=          -1363.5696 ZZZZ=            -87.8192 XXXY=            189.3496
 XXXZ=             46.7477 YYYX=             29.4317 YYYZ=             -6.7974 ZZZX=             -6.6340
 ZZZY=              0.4774 XXYY=           -762.6729 XXZZ=           -610.2762 YYZZ=           -241.8132
 XXYZ=            -18.2225 YYXZ=              6.2406 ZZXY=             15.4439
 N-N= 8.173892517143D+02 E-N=-3.313490905004D+03  KE= 7.129112388513D+02
   1 Symmetry operations used in ECPInt.
 ECPInt:  NShTT=    5886 NPrTT=   21942 LenC2=    5403 LenP2D=   14267.
 LDataN:  DoStor=T MaxTD1= 5 Len=  102
 D1PCM: PCM CHGder 1st derivatives, ID1Alg=3 FixD1E=F DoIter=F DoCFld=F I1PDM=0.
 Calling FoFJK, ICntrl=      2127 FMM=F ISym2X=0 I1Cent= 0 IOpClX= 0 NMat=1 NMatS=1 NMatT=0.
 ***** Axes restored to original set *****
 -------------------------------------------------------------------
 Center     Atomic                   Forces (Hartrees/Bohr)
 Number     Number              X              Y              Z
 -------------------------------------------------------------------
      1        6           0.000008536   -0.000070065    0.000055802
      2        6           0.000045102    0.000045205    0.000089533
      3        6           0.000023624   -0.000049500   -0.000033015
      4        6           0.000024210   -0.000006580   -0.000029439
      5        7          -0.000299866   -0.000339229   -0.000862618
      6        1           0.000014636    0.000014731   -0.000004286
      7        1          -0.000138752    0.000106108    0.000110240
      8        1           0.000001359    0.000026631    0.000025460
      9        1          -0.000035726   -0.000046257    0.000023892
     10        8           0.000052125    0.000070795    0.000036210
     11        6          -0.000025692   -0.000020197   -0.000043760
     12        8          -0.000007046    0.000010200    0.000001208
     13        6          -0.000252368    0.000094707   -0.000218558
     14        8           0.000310349   -0.000487570   -0.000384389
     15        8           0.000026730   -0.000047763    0.000013132
     16        6          -0.000078304    0.000081963   -0.000058397
     17        1           0.000003973   -0.000019540   -0.000017973
     18        1           0.000023156   -0.000023574    0.000010806
     19        1           0.000015238   -0.000011433    0.000024631
     20        6           0.000006318    0.000037518   -0.000043064
     21        7           0.000018415   -0.000029228   -0.000007569
     22        1           0.000263984    0.000663077    0.001312153
 -------------------------------------------------------------------
 Cartesian Forces:  Max     0.001312153 RMS     0.000242953

 GradGradGradGradGradGradGradGradGradGradGradGradGradGradGradGradGradGrad
 Berny optimization.
 FormGI is forming the generalized inverse of G from B-inverse, IUseBI=4.
 Internal  Forces:  Max     0.000612734 RMS     0.000105584
 Search for a saddle point.
 Step number   1 out of a maximum of   50
 All quantities printed in internal units (Hartrees-Bohrs-Radians)
 Swapping is turned off.
 Second derivative matrix not updated -- first step.
 ITU=  0
     Eigenvalues ---   -0.00007   0.00064   0.00270   0.00579   0.00942
     Eigenvalues ---    0.01303   0.01862   0.02103   0.02473   0.02597
     Eigenvalues ---    0.02820   0.03276   0.03687   0.04146   0.04931
     Eigenvalues ---    0.05181   0.05531   0.06783   0.07042   0.07216
     Eigenvalues ---    0.08050   0.09758   0.09867   0.10680   0.11058
     Eigenvalues ---    0.11848   0.12487   0.14226   0.15942   0.16456
     Eigenvalues ---    0.16814   0.17158   0.21072   0.21861   0.22909
     Eigenvalues ---    0.24042   0.24492   0.26359   0.28140   0.28923
     Eigenvalues ---    0.29152   0.30199   0.30609   0.31342   0.31697
     Eigenvalues ---    0.32750   0.35664   0.36190   0.37127   0.41773
     Eigenvalues ---    0.42062   0.43991   0.50127   0.55653   0.59517
     Eigenvalues ---    0.62831   0.78625   0.95645   0.97309   1.24428
 Eigenvectors required to have negative eigenvalues:
                          D31       D27       D28       D23       D24
   1                    0.60416  -0.53029  -0.52771  -0.15812  -0.15279
                          A23       A31       D33       D32       D19
   1                   -0.10730  -0.07960   0.03713   0.03622   0.03603
 RFO step:  Lambda0=2.838663822D-06 Lambda=-8.70400078D-06.
 Linear search not attempted -- option 19 set.
 Iteration  1 RMS(Cart)=  0.01278355 RMS(Int)=  0.00014057
 Iteration  2 RMS(Cart)=  0.00049883 RMS(Int)=  0.00000026
 Iteration  3 RMS(Cart)=  0.00000052 RMS(Int)=  0.00000001
 Variable       Old X    -DE/DX   Delta X   Delta X   Delta X     New X
                                 (Linear)    (Quad)   (Total)
    R1        2.49683   0.00007   0.00000   0.00003   0.00003   2.49686
    R2        2.49682   0.00006   0.00000   0.00004   0.00004   2.49686
    R3        2.66908   0.00000   0.00000  -0.00008  -0.00008   2.66899
    R4        2.52161  -0.00027   0.00000  -0.00002  -0.00002   2.52159
    R5        2.06351  -0.00002   0.00000   0.00000   0.00000   2.06352
    R6        2.06648  -0.00015   0.00000   0.00002   0.00002   2.06650
    R7        2.55979   0.00001   0.00000  -0.00005  -0.00005   2.55974
    R8        2.04715   0.00004   0.00000   0.00006   0.00006   2.04721
    R9        2.68565  -0.00004   0.00000   0.00002   0.00002   2.68567
   R10        2.06334   0.00005   0.00000   0.00004   0.00004   2.06338
   R11        2.79531  -0.00010   0.00000   0.00007   0.00007   2.79539
   R12        1.95960   0.00003   0.00000  -0.00024  -0.00024   1.95936
   R13        2.73204  -0.00007   0.00000  -0.00014  -0.00014   2.73190
   R14        2.26926  -0.00000   0.00000   0.00001   0.00001   2.26926
   R15        2.29919   0.00018   0.00000  -0.00018  -0.00018   2.29901
   R16        2.49857  -0.00003   0.00000   0.00006   0.00006   2.49863
   R17        3.16560  -0.00003   0.00000   0.00047   0.00047   3.16606
   R18        2.68923  -0.00000   0.00000   0.00004   0.00004   2.68927
   R19        2.06825  -0.00002   0.00000  -0.00012  -0.00012   2.06813
   R20        2.07665  -0.00003   0.00000   0.00008   0.00008   2.07673
   R21        2.07679   0.00002   0.00000  -0.00004  -0.00004   2.07675
   R22        2.19127   0.00002   0.00000   0.00003   0.00003   2.19130
    A1        1.92724  -0.00003   0.00000   0.00001   0.00001   1.92724
    A2        2.19009   0.00010   0.00000  -0.00013  -0.00013   2.18997
    A3        2.16585  -0.00007   0.00000   0.00012   0.00012   2.16597
    A4        2.11009   0.00011   0.00000  -0.00000  -0.00000   2.11009
    A5        2.12174  -0.00019   0.00000   0.00016   0.00016   2.12190
    A6        2.05134   0.00008   0.00000  -0.00015  -0.00015   2.05119
    A7        2.14809  -0.00002   0.00000  -0.00002  -0.00002   2.14806
    A8        1.88646   0.00005   0.00000   0.00005   0.00005   1.88652
    A9        2.24863  -0.00003   0.00000  -0.00003  -0.00003   2.24860
   A10        2.13488   0.00009   0.00000  -0.00009  -0.00009   2.13479
   A11        2.11843  -0.00024   0.00000   0.00019   0.00019   2.11861
   A12        2.02987   0.00015   0.00000  -0.00010  -0.00010   2.02977
   A13        1.91811  -0.00005   0.00000  -0.00006  -0.00006   1.91805
   A14        2.14505   0.00020   0.00000   0.00024   0.00024   2.14529
   A15        2.21999  -0.00015   0.00000  -0.00018  -0.00018   2.21982
   A16        1.89535   0.00003   0.00000   0.00002   0.00002   1.89537
   A17        1.79761  -0.00000   0.00000  -0.00001  -0.00001   1.79760
   A18        2.38482  -0.00001   0.00000  -0.00006  -0.00006   2.38476
   A19        2.10075   0.00001   0.00000   0.00007   0.00007   2.10082
   A20        2.18587   0.00012   0.00000   0.00051   0.00051   2.18638
   A21        1.95748  -0.00010   0.00000  -0.00025  -0.00025   1.95723
   A22        2.13982  -0.00002   0.00000  -0.00025  -0.00025   2.13957
   A23        2.88454   0.00061   0.00000   0.02272   0.02272   2.90727
   A24        2.04909   0.00002   0.00000  -0.00019  -0.00019   2.04890
   A25        1.85216  -0.00002   0.00000  -0.00009  -0.00009   1.85207
   A26        1.92974   0.00002   0.00000  -0.00006  -0.00006   1.92968
   A27        1.92973  -0.00001   0.00000   0.00006   0.00006   1.92979
   A28        1.92346   0.00002   0.00000  -0.00004  -0.00004   1.92343
   A29        1.92211  -0.00000   0.00000   0.00053   0.00053   1.92264
   A30        1.90629   0.00000   0.00000  -0.00037  -0.00037   1.90592
   A31        3.00992  -0.00037   0.00000   0.00348   0.00348   3.01339
   A32        3.10778   0.00005   0.00000  -0.00018  -0.00018   3.10759
   A33        3.13087   0.00004   0.00000  -0.00024  -0.00024   3.13063
    D1        0.00022  -0.00001   0.00000  -0.00015  -0.00015   0.00007
    D2       -3.13329  -0.00002   0.00000  -0.00019  -0.00019  -3.13347
    D3        3.13781   0.00002   0.00000  -0.00005  -0.00005   3.13776
    D4        0.00430   0.00002   0.00000  -0.00009  -0.00009   0.00421
    D5       -0.00012   0.00000   0.00000   0.00014   0.00014   0.00001
    D6       -3.13778  -0.00003   0.00000   0.00005   0.00005  -3.13773
    D7        0.00045   0.00000   0.00000   0.00017   0.00017   0.00063
    D8        3.13904   0.00000   0.00000  -0.00004  -0.00004   3.13899
    D9       -3.13590  -0.00006   0.00000   0.00008   0.00008  -3.13582
   D10        0.00269  -0.00006   0.00000  -0.00014  -0.00014   0.00255
   D11        3.13900   0.00000   0.00000   0.00042   0.00042   3.13942
   D12       -0.01112   0.00001   0.00000   0.00047   0.00047  -0.01065
   D13       -0.00022   0.00002   0.00000   0.00009   0.00009  -0.00013
   D14        3.13285   0.00003   0.00000   0.00014   0.00014   3.13299
   D15        0.00014  -0.00001   0.00000  -0.00001  -0.00001   0.00013
   D16       -3.14141  -0.00001   0.00000  -0.00011  -0.00011  -3.14152
   D17       -3.13890  -0.00000   0.00000  -0.00037  -0.00037  -3.13927
   D18        0.00274   0.00000   0.00000  -0.00047  -0.00047   0.00227
   D19        0.02422  -0.00004   0.00000  -0.00015  -0.00015   0.02407
   D20       -3.12264  -0.00003   0.00000   0.00022   0.00022  -3.12242
   D21       -3.12021  -0.00005   0.00000  -0.00036  -0.00036  -3.12057
   D22        0.01612  -0.00004   0.00000   0.00001   0.00001   0.01613
   D23        0.57206  -0.00001   0.00000   0.01255   0.01255   0.58461
   D24       -2.55999  -0.00002   0.00000   0.01250   0.01250  -2.54749
   D25       -0.00001   0.00001   0.00000  -0.00008  -0.00008  -0.00009
   D26        3.14154   0.00000   0.00000   0.00001   0.00001   3.14155
   D27       -1.54656   0.00005   0.00000   0.00812   0.00812  -1.53844
   D28        1.60082   0.00004   0.00000   0.00771   0.00771   1.60853
   D29        3.13862   0.00002   0.00000  -0.00026  -0.00026   3.13837
   D30       -0.00808   0.00003   0.00000   0.00010   0.00010  -0.00797
   D31        0.92044   0.00019   0.00000  -0.02287  -0.02287   0.89757
   D32       -3.14092  -0.00001   0.00000   0.00548   0.00548  -3.13544
   D33        1.05656  -0.00003   0.00000   0.00561   0.00561   1.06217
   D34       -1.05683  -0.00004   0.00000   0.00609   0.00609  -1.05074
         Item               Value     Threshold  Converged?
 Maximum Force            0.000613     0.000450     NO 
 RMS     Force            0.000106     0.000300     YES
 Maximum Displacement     0.039863     0.001800     NO 
 RMS     Displacement     0.013231     0.001200     NO 
 Predicted change in Energy=-3.965917D-06
 GradGradGradGradGradGradGradGradGradGradGradGradGradGradGradGradGradGrad

                          Input orientation:                          
 ---------------------------------------------------------------------
 Center     Atomic      Atomic             Coordinates (Angstroms)
 Number     Number       Type             X           Y           Z
 ---------------------------------------------------------------------
      1          6           0        3.053000    0.277683   -0.350639
      2          6           0       -1.260300   -1.871418    0.623246
      3          6           0        3.344526    2.126154    0.788190
      4          6           0       -1.692835   -1.081232    1.607654
      5          7           0        2.477238    1.134060    0.474525
      6          1           0       -1.773459   -2.806137    0.387964
      7          1           0       -0.380914   -1.613628    0.026533
      8          1           0        3.091376    2.945311    1.450393
      9          1           0       -2.566096   -1.329380    2.214339
     10          8           0        4.292354    0.652810   -0.613452
     11          6           0        4.566235    1.876172    0.106477
     12          8           0        5.640592    2.405244    0.017795
     13          6           0       -1.004084    0.185606    1.937714
     14          8           0       -0.031863    0.628875    1.356013
     15          8           0       -1.571119    0.810566    2.955631
     16          6           0       -0.993856    2.043274    3.370860
     17          1           0       -1.595601    2.391005    4.216266
     18          1           0       -1.025329    2.778533    2.554701
     19          1           0        0.049131    1.895153    3.683873
     20          6           0        2.447062   -0.882010   -0.882376
     21          7           0        1.915254   -1.824584   -1.298761
     22          1           0        1.504088    1.021745    0.814254
 ---------------------------------------------------------------------
                    Distance matrix (angstroms):
                    1          2          3          4          5
     1  C    0.000000
     2  C    4.916466   0.000000
     3  C    2.190608   6.100181   0.000000
     4  C    5.310791   1.334368   6.027757   0.000000
     5  N    1.321280   4.798354   1.354557   4.856028   0.000000
     6  H    5.774961   1.091966   7.119090   2.114105   5.796643
     7  H    3.938410   1.093546   5.333385   2.122387   3.989927
     8  H    3.218918   6.543862   1.083336   6.255114   2.147118
     9  H    6.382476   2.128493   6.993574   1.091893   5.876283
    10  O    1.321284   6.223593   2.243595   6.615338   2.170240
    11  C    2.248112   6.946941   1.421195   7.083483   2.247243
    12  O    3.370148   8.141174   2.437892   8.274196   3.439668
    13  C    4.658859   2.454551   4.898729   1.479255   3.893597
    14  O    3.542933   2.880532   3.736880   2.397210   2.706995
    15  O    5.709454   3.567865   5.531017   2.326103   4.759173
    16  C    5.774418   4.790113   5.049615   3.655134   4.611282
    17  H    6.850711   5.584842   6.018863   4.344047   5.671733
    18  H    5.597144   5.040612   4.758340   4.029919   4.393108
    19  H    5.283628   5.026838   4.392946   4.025418   4.095715
    20  C    1.412371   4.121935   3.556021   4.835150   2.430356
    21  N    2.571561   3.712202   4.691110   4.692347   3.494845
    22  H    2.075989   4.006084   2.146535   3.907980   1.036847
                    6          7          8          9         10
     6  H    0.000000
     7  H    1.868660   0.000000
     8  H    7.607531   5.904922   0.000000
     9  H    2.478857   3.105208   7.131871   0.000000
    10  O    7.054164   5.233140   3.310191   7.678790   0.000000
    11  C    7.886379   6.054699   2.263709   8.098691   1.445657
    12  O    9.069932   7.239471   2.973636   9.280191   2.299401
    13  C    3.456037   2.697814   4.962484   2.193532   5.897371
    14  O    3.971093   2.630242   3.889654   3.315693   4.751654
    15  O    4.440089   3.984083   5.344319   2.473633   6.866117
    16  C    5.746498   4.993311   4.603366   3.896700   6.764033
    17  H    6.457385   5.921690   5.470380   4.334840   7.811243
    18  H    6.036803   5.108619   4.265509   4.400541   6.544742
    19  H    6.023867   5.086513   3.917464   4.404152   6.165660
    20  C    4.809243   3.059219   4.528282   5.909444   2.415181
    21  N    4.173138   2.659566   5.629655   5.715732   3.501105
    22  H    5.057343   3.334505   2.573764   4.904531   3.154185
                   11         12         13         14         15
    11  C    0.000000
    12  O    1.200843   0.000000
    13  C    6.102451   7.263925   0.000000
    14  O    4.925403   6.092869   1.216585   0.000000
    15  O    6.849841   7.948752   1.322217   2.227353   0.000000
    16  C    6.449708   7.442443   2.346261   2.643022   1.423102
    17  H    7.424530   8.365994   3.225752   3.705595   2.021779
    18  H    6.170384   7.142110   2.665407   2.654216   2.081232
    19  H    5.762149   6.705577   2.660993   2.651218   2.081316
    20  C    3.616117   4.670651   4.582916   3.665818   5.808690
    21  N    4.764241   5.788170   4.799809   4.105916   6.099070
    22  H    3.256953   4.433856   2.872668   1.675409   3.753264
                   16         17         18         19         20
    16  C    0.000000
    17  H    1.094407   0.000000
    18  H    1.098959   1.798940   0.000000
    19  H    1.098971   1.798459   1.791606   0.000000
    20  C    6.203806   7.283673   6.104963   5.857759   0.000000
    21  N    6.725221   7.778998   6.684675   6.491956   1.159587
    22  H    3.717456   4.801732   3.537430   3.333835   2.718830
                   21         22
    21  N    0.000000
    22  H    3.568680   0.000000
 Stoichiometry    C8H8N2O4
 Framework group  C1[X(C8H8N2O4)]
 Deg. of freedom    60
 Full point group                 C1      NOp   1
 Largest Abelian subgroup         C1      NOp   1
 Largest concise Abelian subgroup C1      NOp   1
                         Standard orientation:                         
 ---------------------------------------------------------------------
 Center     Atomic      Atomic             Coordinates (Angstroms)
 Number     Number       Type             X           Y           Z
 ---------------------------------------------------------------------
      1          6           0        1.856931    0.773892    0.029062
      2          6           0       -2.848428    2.197082   -0.046840
      3          6           0        2.072609   -1.405104    0.094041
      4          6           0       -3.445800    1.008045   -0.146209
      5          7           0        1.202221   -0.368274    0.141279
      6          1           0       -3.415333    3.121757   -0.173274
      7          1           0       -1.777880    2.284691    0.158328
      8          1           0        1.763219   -2.440624    0.168834
      9          1           0       -4.512546    0.906468   -0.355888
     10          8           0        3.153586    0.551879   -0.094168
     11          6           0        3.382218   -0.875189   -0.060591
     12          8           0        4.495873   -1.314029   -0.156583
     13          6           0       -2.687723   -0.251293    0.019873
     14          8           0       -1.501081   -0.328259    0.276844
     15          8           0       -3.452856   -1.318033   -0.137912
     16          6           0       -2.834325   -2.592832   -0.005528
     17          1           0       -3.623001   -3.332287   -0.175593
     18          1           0       -2.411295   -2.713892    1.001497
     19          1           0       -2.035140   -2.713414   -0.750176
     20          6           0        1.270409    2.058714    0.033069
     21          7           0        0.752204    3.096036    0.041344
     22          1           0        0.171468   -0.419398    0.241203
 ---------------------------------------------------------------------
 Rotational constants (GHZ):           1.0245034           0.3426044           0.2579788
 Basis read from rwf:  (5D, 7F)
 Pseudo-potential data read from rwf file.
 There are   250 symmetry adapted cartesian basis functions of A   symmetry.
 There are   236 symmetry adapted basis functions of A   symmetry.
   236 basis functions,   406 primitive gaussians,   250 cartesian basis functions
    51 alpha electrons       51 beta electrons
       nuclear repulsion energy       817.0526343447 Hartrees.
 NAtoms=   22 NActive=   22 NUniq=   22 SFac= 1.00D+00 NAtFMM=   60 NAOKFM=F Big=F
 Integral buffers will be    131072 words long.
 Raffenetti 2 integral format.
 Two-electron integral symmetry is turned on.
 Nuclear repulsion after empirical dispersion term =      817.0428177376 Hartrees.
 ------------------------------------------------------------------------------
 Polarizable Continuum Model (PCM)
 =================================
 Model                : PCM.
 Atomic radii         : UFF (Universal Force Field).
 Polarization charges : Total charges.
 Charge compensation  : None.
 Solution method      : On-the-fly selection.
 Cavity type          : Scaled VdW (van der Waals Surface) (Alpha=1.100).
 Cavity algorithm     : GePol (No added spheres)
                        Default sphere list used, NSphG=   22.
                        Lebedev-Laikov grids with approx.  5.0 points / Ang**2.
                        Smoothing algorithm: York/Karplus (Gamma=1.0000).
                        Polarization charges: spherical gaussians, with
                                              point-specific exponents (IZeta= 3).
                        Self-potential: point-specific (ISelfS= 7).
                        Self-field    : sphere-specific E.n sum rule (ISelfD= 2).
 1st derivatives      : Analytical E(r).r(x)/FMM algorithm (CHGder, D1EAlg=3).
                        Cavity 1st derivative terms included.
 Solvent              : Toluene, Eps=   2.374100 Eps(inf)=   2.238315
 ------------------------------------------------------------------------------
 One-electron integrals computed using PRISM.
   1 Symmetry operations used in ECPInt.
 ECPInt:  NShTT=    5886 NPrTT=   21942 LenC2=    5401 LenP2D=   14258.
 LDataN:  DoStor=T MaxTD1= 4 Len=   56
 NBasis=   236 RedAO= T EigKep=  3.33D-04  NBF=   236
 NBsUse=   236 1.00D-06 EigRej= -1.00D+00 NBFU=   236
 Initial guess from the checkpoint file:  "cyclic-1_1_opt_sqm.chk"
 B after Tr=    -0.000000    0.000000    0.000000
         Rot=    1.000000    0.000019   -0.000056    0.000097 Ang=   0.01 deg.
 ExpMin= 1.22D-01 ExpMax= 2.27D+03 ExpMxC= 3.41D+02 IAcc=3 IRadAn=         5 AccDes= 0.00D+00
 Harris functional with IExCor= 4639 and IRadAn=       5 diagonalized for initial guess.
 HarFok:  IExCor= 4639 AccDes= 0.00D+00 IRadAn=         5 IDoV= 1 UseB2=F ITyADJ=14
 ICtDFT=  3500011 ScaDFX=  1.000000  1.000000  1.000000  1.000000
 FoFCou: FMM=F IPFlag=           0 FMFlag=      100000 FMFlg1=           0
         NFxFlg=           0 DoJE=T BraDBF=F KetDBF=T FulRan=T
         wScrn=  0.000000 ICntrl=       500 IOpCl=  0 I1Cent=   200000004 NGrid=           0
         NMat0=    1 NMatS0=      1 NMatT0=    0 NMatD0=    1 NMtDS0=    0 NMtDT0=    0
 Petite list used in FoFCou.
 Requested convergence on RMS density matrix=1.00D-08 within 128 cycles.
 Requested convergence on MAX density matrix=1.00D-06.
 Requested convergence on             energy=1.00D-06.
 No special actions if energy rises.
 Inv3:  Mode=1 IEnd=    13318347.
 Iteration    1 A*A^-1 deviation from unit magnitude is 3.77D-15 for    131.
 Iteration    1 A*A^-1 deviation from orthogonality  is 1.64D-15 for   1818   1338.
 Iteration    1 A^-1*A deviation from unit magnitude is 3.11D-15 for   1229.
 Iteration    1 A^-1*A deviation from orthogonality  is 2.00D-15 for   1939   1855.
 Error on total polarization charges =  0.00731
 SCF Done:  E(RwB97XD) =  -719.241066212     A.U. after   11 cycles
            NFock= 11  Conv=0.65D-08     -V/T= 2.0089
   1 Symmetry operations used in ECPInt.
 ECPInt:  NShTT=    5886 NPrTT=   21942 LenC2=    5401 LenP2D=   14258.
 LDataN:  DoStor=T MaxTD1= 5 Len=  102
 D1PCM: PCM CHGder 1st derivatives, ID1Alg=3 FixD1E=F DoIter=F DoCFld=F I1PDM=0.
 Calling FoFJK, ICntrl=      2127 FMM=F ISym2X=0 I1Cent= 0 IOpClX= 0 NMat=1 NMatS=1 NMatT=0.
 ***** Axes restored to original set *****
 -------------------------------------------------------------------
 Center     Atomic                   Forces (Hartrees/Bohr)
 Number     Number              X              Y              Z
 -------------------------------------------------------------------
      1        6           0.000006074   -0.000047523    0.000053880
      2        6           0.000062588    0.000028135    0.000068987
      3        6           0.000024675    0.000009208   -0.000000897
      4        6           0.000066913   -0.000018911   -0.000050380
      5        7          -0.000235188   -0.000383180   -0.000885764
      6        1           0.000010525    0.000016285   -0.000000732
      7        1          -0.000110082    0.000141936    0.000113995
      8        1           0.000002950    0.000009906    0.000006798
      9        1          -0.000027413   -0.000036399    0.000010336
     10        8           0.000047915    0.000048900    0.000034843
     11        6          -0.000055972   -0.000010430   -0.000027945
     12        8           0.000004592    0.000009365   -0.000000969
     13        6          -0.000271275    0.000139696   -0.000162365
     14        8           0.000302443   -0.000544689   -0.000468112
     15        8           0.000038485   -0.000030219    0.000036490
     16        6          -0.000052598    0.000059907   -0.000125066
     17        1          -0.000002256    0.000005908    0.000018183
     18        1           0.000000088   -0.000032107    0.000020186
     19        1          -0.000002781   -0.000010038    0.000062325
     20        6          -0.000040549   -0.000010840   -0.000076590
     21        7           0.000008908   -0.000014995    0.000023022
     22        1           0.000221959    0.000670086    0.001349777
 -------------------------------------------------------------------
 Cartesian Forces:  Max     0.001349777 RMS     0.000250889

 GradGradGradGradGradGradGradGradGradGradGradGradGradGradGradGradGradGrad
 Berny optimization.
 FormGI is forming the generalized inverse of G from B-inverse, IUseBI=4.
 Internal  Forces:  Max     0.000608054 RMS     0.000116816
 Search for a saddle point.
 Step number   2 out of a maximum of   50
 All quantities printed in internal units (Hartrees-Bohrs-Radians)
 Swapping is turned off.
 Update second derivatives using D2CorX and points    1    2
 ITU=  0  0
     Eigenvalues ---    0.00010   0.00076   0.00242   0.00579   0.00942
     Eigenvalues ---    0.01302   0.01862   0.02003   0.02472   0.02551
     Eigenvalues ---    0.02798   0.03231   0.03685   0.04143   0.04931
     Eigenvalues ---    0.05180   0.05531   0.06782   0.07042   0.07216
     Eigenvalues ---    0.08050   0.09752   0.09866   0.10680   0.11058
     Eigenvalues ---    0.11846   0.12460   0.14177   0.15942   0.16348
     Eigenvalues ---    0.16812   0.17142   0.21062   0.21842   0.22910
     Eigenvalues ---    0.24033   0.24485   0.26361   0.28138   0.28919
     Eigenvalues ---    0.29132   0.30199   0.30609   0.31340   0.31698
     Eigenvalues ---    0.32746   0.35658   0.36191   0.37119   0.41765
     Eigenvalues ---    0.42064   0.43989   0.50127   0.55631   0.59516
     Eigenvalues ---    0.62824   0.78477   0.95644   0.97299   1.24428
 Eigenvectors required to have negative eigenvalues:
                          D27       D28       D31       A23       A31
   1                    0.59269   0.58741  -0.48957   0.20765   0.09019
                          D19       D20       D21       D22       D23
   1                   -0.05764  -0.05284  -0.05157  -0.04677   0.02215
 RFO step:  Lambda0=1.404864365D-04 Lambda=-1.54270482D-05.
 Linear search not attempted -- option 19 set.
 Iteration  1 RMS(Cart)=  0.01849266 RMS(Int)=  0.00218868
 Iteration  2 RMS(Cart)=  0.00134680 RMS(Int)=  0.00001107
 Iteration  3 RMS(Cart)=  0.00001869 RMS(Int)=  0.00000050
 Iteration  4 RMS(Cart)=  0.00000000 RMS(Int)=  0.00000050
 Variable       Old X    -DE/DX   Delta X   Delta X   Delta X     New X
                                 (Linear)    (Quad)   (Total)
    R1        2.49686   0.00002   0.00000  -0.00010  -0.00010   2.49676
    R2        2.49686   0.00004   0.00000  -0.00021  -0.00021   2.49665
    R3        2.66899   0.00006   0.00000   0.00025   0.00025   2.66924
    R4        2.52159  -0.00026   0.00000   0.00004   0.00004   2.52163
    R5        2.06352  -0.00002   0.00000  -0.00000  -0.00000   2.06352
    R6        2.06650  -0.00012   0.00000   0.00009   0.00009   2.06659
    R7        2.55974   0.00002   0.00000   0.00003   0.00003   2.55977
    R8        2.04721   0.00001   0.00000  -0.00008  -0.00008   2.04713
    R9        2.68567  -0.00004   0.00000   0.00006   0.00006   2.68573
   R10        2.06338   0.00004   0.00000  -0.00004  -0.00004   2.06333
   R11        2.79539  -0.00015   0.00000  -0.00006  -0.00006   2.79533
   R12        1.95936   0.00002   0.00000  -0.00014  -0.00014   1.95922
   R13        2.73190  -0.00003   0.00000   0.00024   0.00024   2.73213
   R14        2.26926   0.00001   0.00000  -0.00000  -0.00000   2.26926
   R15        2.29901   0.00013   0.00000  -0.00017  -0.00017   2.29884
   R16        2.49863   0.00002   0.00000   0.00001   0.00001   2.49864
   R17        3.16606  -0.00010   0.00000  -0.00102  -0.00102   3.16504
   R18        2.68927  -0.00001   0.00000  -0.00010  -0.00010   2.68917
   R19        2.06813   0.00002   0.00000   0.00013   0.00013   2.06826
   R20        2.07673  -0.00004   0.00000   0.00006   0.00006   2.07679
   R21        2.07675   0.00002   0.00000  -0.00008  -0.00008   2.07667
   R22        2.19130  -0.00000   0.00000  -0.00005  -0.00005   2.19125
    A1        1.92724  -0.00004   0.00000   0.00006   0.00006   1.92731
    A2        2.18997   0.00002   0.00000  -0.00086  -0.00086   2.18911
    A3        2.16597   0.00001   0.00000   0.00079   0.00079   2.16676
    A4        2.11009   0.00012   0.00000   0.00008   0.00008   2.11017
    A5        2.12190  -0.00023   0.00000  -0.00060  -0.00060   2.12130
    A6        2.05119   0.00011   0.00000   0.00051   0.00051   2.05170
    A7        2.14806   0.00001   0.00000   0.00027   0.00027   2.14834
    A8        1.88652   0.00000   0.00000  -0.00025  -0.00025   1.88626
    A9        2.24860  -0.00001   0.00000  -0.00002  -0.00002   2.24858
   A10        2.13479   0.00015   0.00000   0.00036   0.00036   2.13515
   A11        2.11861  -0.00036   0.00000  -0.00083  -0.00083   2.11778
   A12        2.02977   0.00021   0.00000   0.00047   0.00047   2.03025
   A13        1.91805   0.00001   0.00000   0.00019   0.00019   1.91824
   A14        2.14529   0.00004   0.00000  -0.00297  -0.00297   2.14232
   A15        2.21982  -0.00005   0.00000   0.00277   0.00277   2.22259
   A16        1.89537   0.00002   0.00000  -0.00012  -0.00012   1.89525
   A17        1.79760   0.00001   0.00000   0.00012   0.00012   1.79772
   A18        2.38476  -0.00001   0.00000   0.00003   0.00003   2.38479
   A19        2.10082  -0.00000   0.00000  -0.00015  -0.00015   2.10067
   A20        2.18638  -0.00019   0.00000  -0.00152  -0.00152   2.18485
   A21        1.95723   0.00002   0.00000   0.00077   0.00077   1.95800
   A22        2.13957   0.00017   0.00000   0.00076   0.00076   2.14033
   A23        2.90727   0.00053   0.00000   0.02363   0.02363   2.93090
   A24        2.04890   0.00009   0.00000   0.00007   0.00007   2.04897
   A25        1.85207  -0.00001   0.00000   0.00019   0.00019   1.85227
   A26        1.92968   0.00000   0.00000  -0.00013  -0.00013   1.92955
   A27        1.92979   0.00000   0.00000   0.00027   0.00027   1.93005
   A28        1.92343   0.00001   0.00000  -0.00049  -0.00049   1.92293
   A29        1.92264  -0.00004   0.00000  -0.00015  -0.00015   1.92249
   A30        1.90592   0.00003   0.00000   0.00030   0.00030   1.90622
   A31        3.01339  -0.00061   0.00000  -0.01771  -0.01771   2.99569
   A32        3.10759  -0.00002   0.00000  -0.00069  -0.00069   3.10690
   A33        3.13063   0.00005   0.00000  -0.00079  -0.00079   3.12985
    D1        0.00007  -0.00001   0.00000   0.00013   0.00013   0.00020
    D2       -3.13347  -0.00001   0.00000   0.00130   0.00130  -3.13218
    D3        3.13776   0.00002   0.00000  -0.00212  -0.00212   3.13563
    D4        0.00421   0.00001   0.00000  -0.00096  -0.00096   0.00325
    D5        0.00001  -0.00000   0.00000  -0.00013  -0.00013  -0.00011
    D6       -3.13773  -0.00003   0.00000   0.00210   0.00210  -3.13564
    D7        0.00063   0.00001   0.00000   0.00051   0.00051   0.00114
    D8        3.13899   0.00000   0.00000  -0.00059  -0.00059   3.13840
    D9       -3.13582  -0.00005   0.00000   0.00138   0.00138  -3.13444
   D10        0.00255  -0.00006   0.00000   0.00028   0.00028   0.00283
   D11        3.13942  -0.00000   0.00000  -0.00066  -0.00066   3.13876
   D12       -0.01065   0.00001   0.00000  -0.00193  -0.00193  -0.01258
   D13       -0.00013   0.00001   0.00000  -0.00008  -0.00008  -0.00021
   D14        3.13299   0.00002   0.00000  -0.00135  -0.00135   3.13164
   D15        0.00013  -0.00001   0.00000   0.00001   0.00000   0.00013
   D16       -3.14152  -0.00001   0.00000  -0.00009  -0.00009   3.14157
   D17       -3.13927  -0.00000   0.00000   0.00063   0.00063  -3.13863
   D18        0.00227   0.00001   0.00000   0.00053   0.00053   0.00280
   D19        0.02407  -0.00004   0.00000   0.00522   0.00522   0.02928
   D20       -3.12242  -0.00002   0.00000   0.00582   0.00582  -3.11660
   D21       -3.12057  -0.00004   0.00000   0.00418   0.00418  -3.11639
   D22        0.01613  -0.00002   0.00000   0.00478   0.00478   0.02091
   D23        0.58461  -0.00002   0.00000   0.05339   0.05339   0.63799
   D24       -2.54749  -0.00003   0.00000   0.05479   0.05479  -2.49270
   D25       -0.00009   0.00001   0.00000   0.00007   0.00007  -0.00002
   D26        3.14155   0.00001   0.00000   0.00015   0.00015  -3.14148
   D27       -1.53844   0.00009   0.00000  -0.08659  -0.08659  -1.62503
   D28        1.60853   0.00007   0.00000  -0.08726  -0.08726   1.52128
   D29        3.13837   0.00002   0.00000  -0.00137  -0.00137   3.13700
   D30       -0.00797   0.00004   0.00000  -0.00079  -0.00079  -0.00876
   D31        0.89757   0.00018   0.00000   0.01586   0.01586   0.91343
   D32       -3.13544  -0.00002   0.00000   0.01125   0.01125  -3.12419
   D33        1.06217  -0.00002   0.00000   0.01180   0.01180   1.07397
   D34       -1.05074  -0.00007   0.00000   0.01133   0.01133  -1.03941
         Item               Value     Threshold  Converged?
 Maximum Force            0.000608     0.000450     NO 
 RMS     Force            0.000117     0.000300     YES
 Maximum Displacement     0.058980     0.001800     NO 
 RMS     Displacement     0.018995     0.001200     NO 
 Predicted change in Energy= 4.039088D-07
 GradGradGradGradGradGradGradGradGradGradGradGradGradGradGradGradGradGrad

                          Input orientation:                          
 ---------------------------------------------------------------------
 Center     Atomic      Atomic             Coordinates (Angstroms)
 Number     Number       Type             X           Y           Z
 ---------------------------------------------------------------------
      1          6           0        3.055259    0.281050   -0.340717
      2          6           0       -1.275789   -1.875618    0.619240
      3          6           0        3.338512    2.141866    0.780180
      4          6           0       -1.706885   -1.079613    1.599614
      5          7           0        2.474190    1.145365    0.472278
      6          1           0       -1.797652   -2.804690    0.380757
      7          1           0       -0.388383   -1.628242    0.029948
      8          1           0        3.080829    2.967980    1.431843
      9          1           0       -2.587210   -1.317145    2.200268
     10          8           0        4.295518    0.654675   -0.600824
     11          6           0        4.564122    1.886023    0.107641
     12          8           0        5.638355    2.415343    0.018965
     13          6           0       -1.005108    0.179019    1.933462
     14          8           0       -0.026238    0.610619    1.354327
     15          8           0       -1.567253    0.809389    2.950763
     16          6           0       -0.975865    2.034021    3.369808
     17          1           0       -1.568596    2.382090    4.221507
     18          1           0       -1.006574    2.774815    2.558600
     19          1           0        0.067791    1.874624    3.674798
     20          6           0        2.453181   -0.886028   -0.860902
     21          7           0        1.923666   -1.834093   -1.267550
     22          1           0        1.499530    1.032351    0.807193
 ---------------------------------------------------------------------
                    Distance matrix (angstroms):
                    1          2          3          4          5
     1  C    0.000000
     2  C    4.932618   0.000000
     3  C    2.190725   6.120282   0.000000
     4  C    5.319239   1.334392   6.041972   0.000000
     5  N    1.321228   4.817705   1.354574   4.868552   0.000000
     6  H    5.795952   1.091966   7.141998   2.114176   5.818930
     7  H    3.954929   1.093595   5.354092   2.122096   4.010346
     8  H    3.219040   6.565127   1.083296   6.271632   2.147255
     9  H    6.391267   2.128701   7.006824   1.091870   5.887927
    10  O    1.321171   6.239423   2.243829   6.624086   2.170152
    11  C    2.248028   6.965360   1.421227   7.095528   2.247076
    12  O    3.370009   8.159539   2.437933   8.286478   3.439517
    13  C    4.654984   2.453972   4.904065   1.479223   3.895433
    14  O    3.532339   2.878038   3.741110   2.396169   2.704830
    15  O    5.699176   3.567943   5.527518   2.326678   4.752792
    16  C    5.752467   4.789662   5.033056   3.655502   4.592197
    17  H    6.827027   5.584813   5.998345   4.344748   5.650693
    18  H    5.578835   5.045803   4.737423   4.033201   4.373050
    19  H    5.252504   5.020553   4.375825   4.022857   4.071696
    20  C    1.412502   4.132230   3.555995   4.837123   2.429890
    21  N    2.571644   3.714595   4.690761   4.687299   3.493887
    22  H    2.074234   4.024178   2.147931   3.920385   1.036775
                    6          7          8          9         10
     6  H    0.000000
     7  H    1.868993   0.000000
     8  H    7.630733   5.926719   0.000000
     9  H    2.479276   3.105143   7.146989   0.000000
    10  O    7.075127   5.248668   3.310375   7.688052   0.000000
    11  C    7.908828   6.073171   2.263692   8.110544   1.445783
    12  O    9.092516   7.257567   2.973647   9.292442   2.299413
    13  C    3.455653   2.696276   4.972404   2.193796   5.894530
    14  O    3.968637   2.626333   3.900901   3.315188   4.743641
    15  O    4.440674   3.982831   5.345213   2.475016   6.856369
    16  C    5.746554   4.991190   4.591814   3.898022   6.742106
    17  H    6.458058   5.919868   5.453682   4.336741   7.786313
    18  H    6.041496   5.114993   4.244262   4.401244   6.526035
    19  H    6.018850   5.075736   3.912119   4.405753   6.135380
    20  C    4.826237   3.069036   4.528134   5.912881   2.415701
    21  N    4.184159   2.659219   5.629001   5.713230   3.502024
    22  H    5.077021   3.353667   2.576306   4.915510   3.153205
                   11         12         13         14         15
    11  C    0.000000
    12  O    1.200841   0.000000
    13  C    6.104409   7.266502   0.000000
    14  O    4.924661   6.093262   1.216496   0.000000
    15  O    6.843701   7.943257   1.322224   2.227745   0.000000
    16  C    6.430793   7.424384   2.346269   2.643867   1.423046
    17  H    7.401365   8.342818   3.225863   3.706440   2.021924
    18  H    6.150594   7.122784   2.670011   2.663658   2.081118
    19  H    5.739488   6.684959   2.656772   2.644075   2.081422
    20  C    3.616409   4.671033   4.571931   3.646191   5.793714
    21  N    4.764706   5.788933   4.782971   4.080806   6.080188
    22  H    3.257277   4.434394   2.875737   1.674867   3.748301
                   16         17         18         19         20
    16  C    0.000000
    17  H    1.094473   0.000000
    18  H    1.098989   1.798710   0.000000
    19  H    1.098929   1.798382   1.791787   0.000000
    20  C    6.179317   7.258524   6.088076   5.820984   0.000000
[...]
    20  C    4.797110   3.020807   4.529040   5.914954   2.413896
    21  N    4.141624   2.607016   5.631673   5.697913   3.498606
    22  H    5.088216   3.354230   2.572022   4.939394   3.154484
                   11         12         13         14         15
    11  C    0.000000
    12  O    1.200824   0.000000
    13  C    6.148727   7.316250   0.000000
    14  O    4.933334   6.103807   1.216466   0.000000
    15  O    6.925914   8.036566   1.322566   2.227912   0.000000
    16  C    6.528181   7.534907   2.347426   2.645278   1.423227
    17  H    7.521771   8.482363   3.226061   3.706901   2.021694
    18  H    6.108304   7.081516   2.684122   2.692658   2.080863
    19  H    5.964628   6.931565   2.645984   2.619464   2.082193
    20  C    3.616069   4.670043   4.572649   3.632728   5.812309
    21  N    4.763624   5.786412   4.772613   4.066445   6.082226
    22  H    3.256588   4.433444   2.895984   1.679518   3.776968
                   16         17         18         19         20
    16  C    0.000000
    17  H    1.094480   0.000000
    18  H    1.099147   1.798256   0.000000
    19  H    1.098944   1.799074   1.792101   0.000000
    20  C    6.207399   7.294623   6.032217   5.932090   0.000000
    21  N    6.711258   7.769350   6.615854   6.532621   1.159554
    22  H    3.730228   4.817434   3.489787   3.395867   2.722546
                   21         22
    21  N    0.000000
    22  H    3.575166   0.000000
 Stoichiometry    C8H8N2O4
 Framework group  C1[X(C8H8N2O4)]
 Deg. of freedom    60
 Full point group                 C1      NOp   1
 Largest Abelian subgroup         C1      NOp   1
 Largest concise Abelian subgroup C1      NOp   1
                         Standard orientation:                         
 ---------------------------------------------------------------------
 Center     Atomic      Atomic             Coordinates (Angstroms)
 Number     Number       Type             X           Y           Z
 ---------------------------------------------------------------------
      1          6           0        1.861390    0.762657    0.014954
      2          6           0       -2.844461    2.201316   -0.024899
      3          6           0        2.107727   -1.414031    0.024766
      4          6           0       -3.464053    1.019696   -0.035492
      5          7           0        1.219010   -0.391824    0.042485
      6          1           0       -3.412630    3.133533   -0.048531
      7          1           0       -1.754161    2.273531    0.008727
      8          1           0        1.810654   -2.455631    0.039090
      9          1           0       -4.551799    0.930221   -0.067729
     10          8           0        3.166916    0.563191   -0.021389
     11          6           0        3.416128   -0.861382   -0.018062
     12          8           0        4.540936   -1.280744   -0.048440
     13          6           0       -2.701888   -0.247763   -0.004049
     14          8           0       -1.489160   -0.337992    0.026587
     15          8           0       -3.495518   -1.305699   -0.014174
     16          6           0       -2.879400   -2.588426    0.010001
     17          1           0       -3.693318   -3.317286   -0.054702
     18          1           0       -2.319297   -2.729101    0.945212
     19          1           0       -2.195913   -2.705860   -0.842486
     20          6           0        1.257540    2.039470    0.020764
     21          7           0        0.727841    3.070950    0.026577
     22          1           0        0.185211   -0.462549    0.068402
 ---------------------------------------------------------------------
 Rotational constants (GHZ):           1.0397932           0.3380376           0.2555598

 **********************************************************************

            Population analysis using the SCF Density.

 **********************************************************************

 Orbital symmetries:
       Occupied  (A) (A) (A) (A) (A) (A) (A) (A) (A) (A) (A) (A)
                 (A) (A) (A) (A) (A) (A) (A) (A) (A) (A) (A) (A)
                 (A) (A) (A) (A) (A) (A) (A) (A) (A) (A) (A) (A)
                 (A) (A) (A) (A) (A) (A) (A) (A) (A) (A) (A) (A)
                 (A) (A) (A)
       Virtual   (A) (A) (A) (A) (A) (A) (A) (A) (A) (A) (A) (A)
                 (A) (A) (A) (A) (A) (A) (A) (A) (A) (A) (A) (A)
                 (A) (A) (A) (A) (A) (A) (A) (A) (A) (A) (A) (A)
                 (A) (A) (A) (A) (A) (A) (A) (A) (A) (A) (A) (A)
                 (A) (A) (A) (A) (A) (A) (A) (A) (A) (A) (A) (A)
                 (A) (A) (A) (A) (A) (A) (A) (A) (A) (A) (A) (A)
                 (A) (A) (A) (A) (A) (A) (A) (A) (A) (A) (A) (A)
                 (A) (A) (A) (A) (A) (A) (A) (A) (A) (A) (A) (A)
                 (A) (A) (A) (A) (A) (A) (A) (A) (A) (A) (A) (A)
                 (A) (A) (A) (A) (A) (A) (A) (A) (A) (A) (A) (A)
                 (A) (A) (A) (A) (A) (A) (A) (A) (A) (A) (A) (A)
                 (A) (A) (A) (A) (A) (A) (A) (A) (A) (A) (A) (A)
                 (A) (A) (A) (A) (A) (A) (A) (A) (A) (A) (A) (A)
                 (A) (A) (A) (A) (A) (A) (A) (A) (A) (A) (A) (A)
                 (A) (A) (A) (A) (A) (A) (A) (A) (A) (A) (A) (A)
                 (A) (A) (A) (A) (A)
 The electronic state is 1-A.
 Alpha  occ. eigenvalues --  -19.34327 -19.33194 -19.27993 -19.22730 -14.55650
 Alpha  occ. eigenvalues --  -14.47904 -10.46235 -10.44107 -10.42450 -10.37569
 Alpha  occ. eigenvalues --  -10.37254 -10.34433 -10.33563 -10.33064  -1.25453
 Alpha  occ. eigenvalues --   -1.23663  -1.14041  -1.12512  -1.08773  -1.02743
 Alpha  occ. eigenvalues --   -0.91036  -0.89508  -0.84779  -0.78615  -0.74687
 Alpha  occ. eigenvalues --   -0.73178  -0.72186  -0.66887  -0.64417  -0.62158
 Alpha  occ. eigenvalues --   -0.61202  -0.60470  -0.59743  -0.56961  -0.55338
 Alpha  occ. eigenvalues --   -0.52409  -0.52133  -0.51581  -0.50497  -0.49345
 Alpha  occ. eigenvalues --   -0.48920  -0.47906  -0.46745  -0.46435  -0.45852
 Alpha  occ. eigenvalues --   -0.44133  -0.42006  -0.40359  -0.38618  -0.36744
 Alpha  occ. eigenvalues --   -0.28338
 Alpha virt. eigenvalues --   -0.00981   0.00135   0.05720   0.13115   0.13704
 Alpha virt. eigenvalues --    0.14185   0.15924   0.16941   0.17876   0.18172
 Alpha virt. eigenvalues --    0.19298   0.20177   0.20845   0.21243   0.22038
 Alpha virt. eigenvalues --    0.25306   0.26685   0.26810   0.31411   0.34044
 Alpha virt. eigenvalues --    0.34627   0.35255   0.36998   0.37696   0.38827
 Alpha virt. eigenvalues --    0.44343   0.47229   0.48105   0.50660   0.50849
 Alpha virt. eigenvalues --    0.51833   0.52348   0.53759   0.54111   0.54294
 Alpha virt. eigenvalues --    0.56173   0.56581   0.56687   0.58934   0.60765
 Alpha virt. eigenvalues --    0.62125   0.63150   0.64595   0.66368   0.68360
 Alpha virt. eigenvalues --    0.68706   0.68992   0.69910   0.70841   0.72154
 Alpha virt. eigenvalues --    0.72270   0.73088   0.73233   0.74786   0.75359
 Alpha virt. eigenvalues --    0.76058   0.79257   0.79710   0.81080   0.83623
 Alpha virt. eigenvalues --    0.85107   0.85638   0.86578   0.88914   0.93592
 Alpha virt. eigenvalues --    0.94238   0.96420   1.01383   1.04424   1.04571
 Alpha virt. eigenvalues --    1.07660   1.09476   1.10085   1.11918   1.12482
 Alpha virt. eigenvalues --    1.12662   1.14941   1.16507   1.20004   1.22425
 Alpha virt. eigenvalues --    1.23706   1.25921   1.28932   1.29280   1.29707
 Alpha virt. eigenvalues --    1.31669   1.33969   1.34217   1.37436   1.38362
 Alpha virt. eigenvalues --    1.40677   1.44375   1.48665   1.50798   1.52097
 Alpha virt. eigenvalues --    1.57790   1.59217   1.62023   1.63185   1.63306
 Alpha virt. eigenvalues --    1.65888   1.67094   1.68926   1.71105   1.71383
 Alpha virt. eigenvalues --    1.72224   1.75078   1.76189   1.77139   1.78959
 Alpha virt. eigenvalues --    1.79235   1.81013   1.82783   1.83463   1.85164
 Alpha virt. eigenvalues --    1.88149   1.89959   1.92533   1.93961   1.95637
 Alpha virt. eigenvalues --    1.96420   1.98546   2.00265   2.03181   2.05893
 Alpha virt. eigenvalues --    2.06230   2.08788   2.11969   2.12162   2.12891
 Alpha virt. eigenvalues --    2.20092   2.20465   2.24603   2.29052   2.29236
 Alpha virt. eigenvalues --    2.31059   2.32262   2.34059   2.35510   2.37770
 Alpha virt. eigenvalues --    2.40706   2.41362   2.43666   2.50304   2.51545
 Alpha virt. eigenvalues --    2.52177   2.55489   2.63049   2.64809   2.68580
 Alpha virt. eigenvalues --    2.71471   2.72887   2.73758   2.74709   2.77491
 Alpha virt. eigenvalues --    2.80067   2.84613   2.85915   2.86490   2.86655
 Alpha virt. eigenvalues --    2.94110   2.95190   2.95836   2.98004   3.01589
 Alpha virt. eigenvalues --    3.03245   3.03774   3.04788   3.12036   3.13148
 Alpha virt. eigenvalues --    3.14512   3.17641   3.26899   3.28665   3.30126
 Alpha virt. eigenvalues --    3.36415   3.38193   3.44515   3.48331   3.53451
 Alpha virt. eigenvalues --    3.69251   3.72786   3.74782   3.79687   3.87714
          Condensed to atoms (all electrons):
               1          2          3          4          5          6
     1  C    5.177960  -0.000068  -0.110153   0.000035   0.561940   0.000001
     2  C   -0.000068   4.674039  -0.000002   0.607729   0.000018   0.389855
     3  C   -0.110153  -0.000002   5.287804  -0.000002   0.369320   0.000000
     4  C    0.000035   0.607729  -0.000002   5.018481  -0.000081  -0.015152
     5  N    0.561940   0.000018   0.369320  -0.000081   6.040412  -0.000000
     6  H    0.000001   0.389855   0.000000  -0.015152  -0.000000   0.576865
     7  H   -0.000188   0.386359   0.000014  -0.018942  -0.000034  -0.034196
     8  H    0.005474   0.000000   0.413979   0.000000  -0.027831  -0.000000
     9  H    0.000000  -0.024638   0.000000   0.396590   0.000002  -0.010721
    10  O    0.455007  -0.000000  -0.124651  -0.000000  -0.082392   0.000000
    11  C   -0.082682  -0.000000   0.362751   0.000000  -0.030194   0.000000
    12  O    0.002320   0.000000  -0.076669  -0.000000   0.001487   0.000000
    13  C   -0.000033  -0.035740   0.000039   0.318998   0.000296   0.008251
    14  O   -0.002438   0.008640  -0.000498  -0.094031  -0.029174   0.000210
    15  O   -0.000001   0.004855   0.000000  -0.097544   0.000000  -0.000081
    16  C   -0.000001  -0.000344  -0.000013   0.009309  -0.000063   0.000004
    17  H    0.000000  -0.000005   0.000000   0.000031  -0.000000  -0.000000
    18  H    0.000001   0.000028   0.000017   0.000161   0.000003  -0.000000
    19  H    0.000003   0.000020   0.000040   0.000336   0.000020  -0.000000
    20  C    0.053242  -0.000586   0.015750  -0.000406  -0.135539   0.000033
    21  N   -0.095707  -0.005453   0.000212   0.000391  -0.004831   0.000031
    22  H   -0.000556  -0.000042  -0.017196   0.001110   0.347237   0.000004
               7          8          9         10         11         12
     1  C   -0.000188   0.005474   0.000000   0.455007  -0.082682   0.002320
     2  C    0.386359   0.000000  -0.024638  -0.000000  -0.000000   0.000000
     3  C    0.000014   0.413979   0.000000  -0.124651   0.362751  -0.076669
     4  C   -0.018942   0.000000   0.396590  -0.000000   0.000000  -0.000000
     5  N   -0.000034  -0.027831   0.000002  -0.082392  -0.030194   0.001487
     6  H   -0.034196  -0.000000  -0.010721   0.000000   0.000000   0.000000
     7  H    0.577900  -0.000001   0.006725   0.000003  -0.000001   0.000000
     8  H   -0.000001   0.563855  -0.000000   0.003736  -0.024363   0.001332
     9  H    0.006725  -0.000000   0.592894   0.000000  -0.000000  -0.000000
    10  O    0.000003   0.003736   0.000000   7.900842   0.261398  -0.064781
    11  C   -0.000001  -0.024363  -0.000000   0.261398   4.492101   0.764138
    12  O    0.000000   0.001332  -0.000000  -0.064781   0.764138   7.632120
    13  C   -0.019243   0.000007  -0.036108  -0.000000  -0.000003   0.000000
    14  O    0.010494   0.000128   0.002736  -0.000003  -0.000019   0.000000
    15  O    0.000470  -0.000001   0.007025   0.000000  -0.000000   0.000000
    16  C   -0.000037   0.000019  -0.000261  -0.000000   0.000000  -0.000000
    17  H   -0.000001  -0.000001  -0.000136  -0.000000   0.000000   0.000000
    18  H   -0.000005   0.000034   0.000036   0.000000   0.000001   0.000000
    19  H   -0.000008   0.000058   0.000038   0.000000   0.000001   0.000000
    20  C    0.002072  -0.000383  -0.000001  -0.090975  -0.006410  -0.000286
    21  N    0.017163  -0.000001  -0.000002  -0.002347  -0.000110  -0.000000
    22  H   -0.000182  -0.004732  -0.000038   0.001420   0.006874  -0.000029
              13         14         15         16         17         18
     1  C   -0.000033  -0.002438  -0.000001  -0.000001   0.000000   0.000001
     2  C   -0.035740   0.008640   0.004855  -0.000344  -0.000005   0.000028
     3  C    0.000039  -0.000498   0.000000  -0.000013   0.000000   0.000017
     4  C    0.318998  -0.094031  -0.097544   0.009309   0.000031   0.000161
     5  N    0.000296  -0.029174   0.000000  -0.000063  -0.000000   0.000003
     6  H    0.008251   0.000210  -0.000081   0.000004  -0.000000  -0.000000
     7  H   -0.019243   0.010494   0.000470  -0.000037  -0.000001  -0.000005
     8  H    0.000007   0.000128  -0.000001   0.000019  -0.000001   0.000034
     9  H   -0.036108   0.002736   0.007025  -0.000261  -0.000136   0.000036
    10  O   -0.000000  -0.000003   0.000000  -0.000000  -0.000000   0.000000
    11  C   -0.000003  -0.000019  -0.000000   0.000000   0.000000   0.000001
    12  O    0.000000   0.000000   0.000000  -0.000000   0.000000   0.000000
    13  C    4.498983   0.606336   0.399836  -0.032938   0.004265  -0.004481
    14  O    0.606336   7.813466  -0.084970   0.005818   0.000770   0.004874
    15  O    0.399836  -0.084970   7.897791   0.254602  -0.020676  -0.025168
    16  C   -0.032938   0.005818   0.254602   4.432467   0.402597   0.407152
    17  H    0.004265   0.000770  -0.020676   0.402597   0.580268  -0.020731
    18  H   -0.004481   0.004874  -0.025168   0.407152  -0.020731   0.603382
    19  H   -0.005197   0.006668  -0.025305   0.405504  -0.020490  -0.028784
    20  C    0.000432   0.003377   0.000003  -0.000001  -0.000000  -0.000001
    21  N   -0.000130  -0.000375  -0.000000   0.000000   0.000000   0.000000
    22  H   -0.007235   0.071013  -0.000112   0.000448   0.000009   0.000173
              19         20         21         22
     1  C    0.000003   0.053242  -0.095707  -0.000556
     2  C    0.000020  -0.000586  -0.005453  -0.000042
     3  C    0.000040   0.015750   0.000212  -0.017196
     4  C    0.000336  -0.000406   0.000391   0.001110
     5  N    0.000020  -0.135539  -0.004831   0.347237
     6  H   -0.000000   0.000033   0.000031   0.000004
     7  H   -0.000008   0.002072   0.017163  -0.000182
     8  H    0.000058  -0.000383  -0.000001  -0.004732
     9  H    0.000038  -0.000001  -0.000002  -0.000038
    10  O    0.000000  -0.090975  -0.002347   0.001420
    11  C    0.000001  -0.006410  -0.000110   0.006874
    12  O    0.000000  -0.000286  -0.000000  -0.000029
    13  C   -0.005197   0.000432  -0.000130  -0.007235
    14  O    0.006668   0.003377  -0.000375   0.071013
    15  O   -0.025305   0.000003  -0.000000  -0.000112
    16  C    0.405504  -0.000001   0.000000   0.000448
    17  H   -0.020490  -0.000000   0.000000   0.000009
    18  H   -0.028784  -0.000001   0.000000   0.000173
    19  H    0.604786  -0.000002   0.000000   0.000143
    20  C   -0.000002   5.408978   0.796946  -0.025756
    21  N    0.000000   0.796946   6.247064  -0.000379
    22  H    0.000143  -0.025756  -0.000379   0.443640
 Mulliken charges:
               1
     1  C    0.035846
     2  C   -0.004667
     3  C   -0.120744
     4  C   -0.127015
     5  N   -0.010596
     6  H    0.084896
     7  H    0.071636
     8  H    0.068692
     9  H    0.065858
    10  O   -0.257257
    11  C    0.256516
    12  O   -0.259632
    13  C    0.303665
    14  O   -0.323019
    15  O   -0.310724
    16  C    0.115739
    17  H    0.074101
    18  H    0.063310
    19  H    0.062171
    20  C   -0.020485
    21  N    0.047527
    22  H    0.184184
 Sum of Mulliken charges =  -0.00000
 Mulliken charges with hydrogens summed into heavy atoms:
               1
     1  C    0.035846
     2  C    0.151866
     3  C   -0.052053
     4  C   -0.061158
     5  N    0.173588
    10  O   -0.257257
    11  C    0.256516
    12  O   -0.259632
    13  C    0.303665
    14  O   -0.323019
    15  O   -0.310724
    16  C    0.315320
    20  C   -0.020485
    21  N    0.047527
 Electronic spatial extent (au):  <R**2>=           3928.8104
 Charge=             -0.0000 electrons
 Dipole moment (field-independent basis, Debye):
    X=             -9.2233    Y=             -2.7373    Z=              0.1187  Tot=              9.6216
 Quadrupole moment (field-independent basis, Debye-Ang):
   XX=           -102.1664   YY=            -78.2427   ZZ=            -79.4710
   XY=              6.9537   XZ=              0.5913   YZ=             -0.3606
 Traceless Quadrupole moment (field-independent basis, Debye-Ang):
   XX=            -15.5398   YY=              8.3840   ZZ=              7.1557
   XY=              6.9537   XZ=              0.5913   YZ=             -0.3606
 Octapole moment (field-independent basis, Debye-Ang**2):
  XXX=           -207.7324  YYY=            -69.2440  ZZZ=              0.0727  XYY=            -50.6408
  XXY=             40.4896  XXZ=              1.5705  XZZ=              3.0475  YZZ=             -6.1745
  YYZ=             -0.2208  XYZ=             -0.0965
 Hexadecapole moment (field-independent basis, Debye-Ang**3):
 XXXX=          -4307.1145 YYYY=          -1349.6144 ZZZZ=            -79.7280 XXXY=            189.7689
 XXXZ=             13.1986 YYYX=             29.8341 YYYZ=             -2.6670 ZZZX=             -1.9702
 ZZZY=             -0.0531 XXYY=           -766.5884 XXZZ=           -620.4195 YYZZ=           -239.6206
 XXYZ=             -3.8782 YYXZ=              1.4719 ZZXY=             16.5180
 N-N= 8.162670678209D+02 E-N=-3.311268856607D+03  KE= 7.129077603521D+02
 Unable to Open any file for archive entry.
 1\1\GINC-NODE-006\FTS\RwB97XD\Gen\C8H8N2O4\JP2658\26-Dec-2023\0\\# wb9
 7xd chkbasis guess=read geom=allchk scrf=(iefpcm,solvent=toluene) opt=
 (readfc,ts,noeigen,maxcycles=50,maxstep=10)\\cyclic_ts_133_reopt.out\\
 0,1\C,3.0515717895,0.2927337988,-0.36256693\C,-1.246058153,-1.88526696
 15,0.6389559535\C,3.3887258943,2.1264792925,0.7874130492\C,-1.73421745
 43,-1.0555881022,1.5628418328\N,2.524931479,1.116029417,0.5268544439\H
 ,-1.7985054632,-2.7776232322,0.3374496548\H,-0.2831756273,-1.698594529
 7,0.1561413448\H,3.1723995907,2.9225655376,1.4894372996\H,-2.694453068
 3,-1.2268893357,2.0535971882\O,4.2533564563,0.7084458663,-0.7209021962
 \C,4.5545524925,1.9252698096,0.0003098528\O,5.6031815175,2.4860059701,
 -0.1668163113\C,-0.9920989742,0.1551491291,1.9772215297\O,0.0912046385
 ,0.4983798849,1.5431295958\O,-1.6439137226,0.8477863421,2.89622708\C,-
 1.0292716319,2.0365978743,3.3804956136\H,-1.6938508859,2.4269536645,4.
 1575694201\H,-0.9215741978,2.7719003347,2.5706462157\H,-0.0391698145,1
 .8160730916,3.8032792408\C,2.4353391067,-0.8725444496,-0.8698180643\N,
 1.8993352142,-1.8220556851,-1.2643985671\H,1.5870908138,0.9719922831,0
 .9441327536\\Version=ES64L-G16RevC.01\State=1-A\HF=-719.2411755\RMSD=7
 .144e-09\RMSF=1.827e-04\Dipole=-3.2272103,0.1471261,1.9730642\Quadrupo
 le=-9.2143519,3.766926,5.4474259,-6.9000379,2.9801695,2.5369832\PG=C01
  [X(C8H8N2O4)]\\@
 The archive entry for this job was punched.


 IT IS NOT EASY TO DESCRIBE
     THE SEA WITH THE MOUTH

                   -- KOKYU
 Job cpu time:       0 days  2 hours 19 minutes 39.4 seconds.
 Elapsed time:       0 days  0 hours 12 minutes  3.4 seconds.
 File lengths (MBytes):  RWF=    119 Int=      0 D2E=      0 Chk=     10 Scr=      1
 Normal termination of Gaussian 16 at Tue Dec 26 18:39:03 2023.
