Unloading slurm/anatra/current
  ERROR: No such file or directory on
    '/cm/local/modulefiles/slurm/anatra/current'
environment: line 0: unalias: gv: not found
environment: line 0: unalias: sl: not found
 Entering Gaussian System, Link 0=g16
 Initial command:
 /apps/gaussian/g16/C.01/g16/l1.exe "/local/jobs/1152824/Gau-4104480.inp" -scrdir="/local/jobs/1152824/"
 Entering Link 1 = /apps/gaussian/g16/C.01/g16/l1.exe PID=   4104481.
  
 Copyright (c) 1988-2019, Gaussian, Inc.  All Rights Reserved.
  
 This is part of the Gaussian(R) 16 program.  It is based on
 the Gaussian(R) 09 system (copyright 2009, Gaussian, Inc.),
 the Gaussian(R) 03 system (copyright 2003, Gaussian, Inc.),
 the Gaussian(R) 98 system (copyright 1998, Gaussian, Inc.),
 the Gaussian(R) 94 system (copyright 1995, Gaussian, Inc.),
 the Gaussian 92(TM) system (copyright 1992, Gaussian, Inc.),
 the Gaussian 90(TM) system (copyright 1990, Gaussian, Inc.),
 the Gaussian 88(TM) system (copyright 1988, Gaussian, Inc.),
 the Gaussian 86(TM) system (copyright 1986, Carnegie Mellon
 University), and the Gaussian 82(TM) system (copyright 1983,
 Carnegie Mellon University). Gaussian is a federally registered
 trademark of Gaussian, Inc.
  
 This software contains proprietary and confidential information,
 including trade secrets, belonging to Gaussian, Inc.
  
 This software is provided under written license and may be
 used, copied, transmitted, or stored only in accord with that
 written license.
  
 The following legend is applicable only to US Government
 contracts under FAR:
  
                    RESTRICTED RIGHTS LEGEND
  
 Use, reproduction and disclosure by the US Government is
 subject to restrictions as set forth in subparagraphs (a)
 and (c) of the Commercial Computer Software - Restricted
 Rights clause in FAR 52.227-19.
  
 Gaussian, Inc.
 340 Quinnipiac St., Bldg. 40, Wallingford CT 06492
  
  
 ---------------------------------------------------------------
 Warning -- This program may not be used in any manner that
 competes with the business of Gaussian, Inc. or will provide
 assistance to any competitor of Gaussian, Inc.  The licensee
 of this program is prohibited from giving any competitor of
 Gaussian, Inc. access to this program.  By using this program,
 the user acknowledges that Gaussian, Inc. is engaged in the
 business of creating and licensing software in the field of
 computational chemistry and represents and warrants to the
 licensee that it is not a competitor of Gaussian, Inc. and that
 it will not use this program in any manner prohibited above.
 ---------------------------------------------------------------
  

 Cite this work as:
 Gaussian 16, Revision C.01,
 M. J. Frisch, G. W. Trucks, H. B. Schlegel, G. E. Scuseria, 
 M. A. Robb, J. R. Cheeseman, G. Scalmani, V. Barone, 
 G. A. Petersson, H. Nakatsuji, X. Li, M. Caricato, A. V. Marenich, 
 J. Bloino, B. G. Janesko, R. Gomperts, B. Mennucci, H. P. Hratchian, 
 J. V. Ortiz, A. F. Izmaylov, J. L. Sonnenberg, D. Williams-Young, 
 F. Ding, F. Lipparini, F. Egidi, J. Goings, B. Peng, A. Petrone, 
 T. Henderson, D. Ranasinghe, V. G. Zakrzewski, J. Gao, N. Rega, 
 G. Zheng, W. Liang, M. Hada, M. Ehara, K. Toyota, R. Fukuda, 
 J. Hasegawa, M. Ishida, T. Nakajima, Y. Honda, O. Kitao, H. Nakai, 
 T. Vreven, K. Throssell, J. A. Montgomery, Jr., J. E. Peralta, 
 F. Ogliaro, M. J. Bearpark, J. J. Heyd, E. N. Brothers, K. N. Kudin, 
 V. N. Staroverov, T. A. Keith, R. Kobayashi, J. Normand, 
 K. Raghavachari, A. P. Rendell, J. C. Burant, S. S. Iyengar, 
 J. Tomasi, M. Cossi, J. M. Millam, M. Klene, C. Adamo, R. Cammi, 
 J. W. Ochterski, R. L. Martin, K. Morokuma, O. Farkas, 
 J. B. Foresman, and D. J. Fox, Gaussian, Inc., Wallingford CT, 2019.
 
 ******************************************
 Gaussian 16:  ES64L-G16RevC.01  3-Jul-2019
                24-Dec-2023 
 ******************************************
 %chk=cyclic-1_1_opt_dft.chk
 %nprocshared=12
 Will use up to   12 processors via shared memory.
 %mem=48GB
 ----------------------------------------------------------------------
 # wb97xd chkbasis guess=read geom=allchk scrf=(iefpcm,solvent=toluene)
  opt=(readfc,ts,noeigen,maxcycles=50,maxstep=10)
 ----------------------------------------------------------------------
 1/5=1,6=50,8=10,10=3,11=1,18=20,26=3,29=7,38=1/1,3;
 2/9=110,12=2,40=1/2;
 3/5=7,6=2,11=2,14=-4,25=1,30=1,67=1,70=2201,71=1,72=13,74=-58,116=-2/1,2,3;
 4/5=1/1;
 5/5=2,38=6,53=13/2;
 6/7=2,8=2,9=2,10=2,28=1/1;
 7//1,2,3,16;
 1/5=1,6=50,8=10,11=1,18=20,26=3/3(2);
 2/9=110/2;
 99//99;
 2/9=110/2;
 3/5=7,6=1,11=2,14=-2,25=1,30=1,70=2205,71=1,72=13,74=-58,82=7/1,2,3;
 4/5=5,16=3,69=1/1;
 5/5=2,38=5,53=13/2;
 7//1,2,3,16;
 1/5=1,6=50,8=10,11=1,18=20,26=3/3(-5);
 2/9=110/2;
 6/7=2,8=2,9=2,10=2,19=2,28=1/1;
 99/9=1/99;
 Structure from the checkpoint file:  "cyclic-1_1_opt_dft.chk"
 -----------------------
 cyclic_ts_133_reopt.out
 -----------------------
 Charge =  0 Multiplicity = 1
 Redundant internal coordinates found in file.  (old form).
 C,0,3.0726635912,-0.0471800805,0.1969336369
 C,0,-0.7819315661,-0.7843032549,-0.1270735739
 C,0,3.0355474414,2.1198265126,-0.1224487158
 C,0,-1.3065515308,-0.658989753,1.0923338149
 N,0,2.4033460807,1.0655506451,0.4466223412
 H,0,-1.1173993872,-1.5669994737,-0.8098065763
 H,0,-0.0045008097,-0.10470165,-0.4857369193
 H,0,2.6680092566,3.1365053147,-0.0504056138
 H,0,-2.0994998346,-1.3176968662,1.4520164794
 O,0,4.1464032551,0.2142396283,-0.5283242278
 C,0,4.1962055655,1.6358564375,-0.7840268381
 O,0,5.0935883884,2.1053691836,-1.4294847602
 C,0,-0.862217188,0.400622108,2.0252848247
 O,0,0.1014002851,1.13195869,1.8657785018
 O,0,-1.6411690234,0.486964132,3.0853661279
 C,0,-1.3120192302,1.4677860951,4.065439304
 H,0,-0.3022484888,1.2918498423,4.4604313635
 H,0,-2.0564353629,1.3612236749,4.8604018826
 H,0,-1.3584468743,2.4755062625,3.6307701832
 C,0,2.7090955815,-1.3449199458,0.620918373
 N,0,2.3846024676,-2.3999823813,0.9762599231
 H,0,1.5169573828,1.095314879,0.9999504691
 Recover connectivity data from disk.

 GradGradGradGradGradGradGradGradGradGradGradGradGradGradGradGradGradGrad
 Berny optimization.
 Initialization pass.
 Force constant matrix read from checkpoint file:
 "cyclic-1_1_opt_dft.chk"
                           ----------------------------
                           !    Initial Parameters    !
                           ! (Angstroms and Degrees)  !
 --------------------------                            --------------------------
 ! Name  Definition              Value          Derivative Info.                !
 --------------------------------------------------------------------------------
 ! R1    R(1,5)                  1.3223         D2E/DX2 =    0.4014             !
 ! R2    R(1,10)                 1.3218         D2E/DX2 =    0.3652             !
 ! R3    R(1,20)                 1.4128         D2E/DX2 =    0.3689             !
 ! R4    R(2,4)                  1.3334         D2E/DX2 =    0.6153             !
 ! R5    R(2,6)                  1.0915         D2E/DX2 =    0.3645             !
 ! R6    R(2,7)                  1.0931         D2E/DX2 =    0.3697             !
 ! R7    R(3,5)                  1.3546         D2E/DX2 =    0.347              !
 ! R8    R(3,8)                  1.0835         D2E/DX2 =    0.3725             !
 ! R9    R(3,11)                 1.4209         D2E/DX2 =    0.2839             !
 ! R10   R(4,9)                  1.0918         D2E/DX2 =    0.3682             !
 ! R11   R(4,13)                 1.4801         D2E/DX2 =    0.3181             !
 ! R12   R(5,22)                 1.0453         D2E/DX2 =    0.4878             !
 ! R13   R(10,11)                1.4453         D2E/DX2 =    0.3771             !
 ! R14   R(11,12)                1.201          D2E/DX2 =    0.9234             !
 ! R15   R(13,14)                1.2202         D2E/DX2 =    0.9365             !
 ! R16   R(13,15)                1.3183         D2E/DX2 =    0.4491             !
 ! R17   R(14,22)                1.6598         D2E/DX2 =    0.0521             !
 ! R18   R(15,16)                1.4251         D2E/DX2 =    0.3295             !
 ! R19   R(16,17)                1.0985         D2E/DX2 =    0.3689             !
 ! R20   R(16,18)                1.0943         D2E/DX2 =    0.364              !
 ! R21   R(16,19)                1.0985         D2E/DX2 =    0.3637             !
 ! R22   R(20,21)                1.1596         D2E/DX2 =    1.2408             !
 ! A1    A(5,1,10)             110.3864         D2E/DX2 =    0.1212             !
 ! A2    A(5,1,20)             125.8763         D2E/DX2 =    0.1104             !
 ! A3    A(10,1,20)            123.7348         D2E/DX2 =    0.0903             !
 ! A4    A(4,2,6)              121.2334         D2E/DX2 =    0.1447             !
 ! A5    A(4,2,7)              121.4305         D2E/DX2 =    0.1146             !
 ! A6    A(6,2,7)              117.3349         D2E/DX2 =    0.0503             !
 ! A7    A(5,3,8)              122.9598         D2E/DX2 =    0.0695             !
 ! A8    A(5,3,11)             108.1632         D2E/DX2 =    0.1087             !
 ! A9    A(8,3,11)             128.877          D2E/DX2 =    0.0632             !
 ! A10   A(2,4,9)              122.0281         D2E/DX2 =    0.0917             !
 ! A11   A(2,4,13)             121.7107         D2E/DX2 =    0.3541             !
 ! A12   A(9,4,13)             116.2511         D2E/DX2 =    0.0941             !
 ! A13   A(1,5,3)              109.8385         D2E/DX2 =    0.1107             !
 ! A14   A(1,5,22)             123.5811         D2E/DX2 =    0.1022             !
 ! A15   A(3,5,22)             126.5795         D2E/DX2 =    0.1023             !
 ! A16   A(1,10,11)            108.6384         D2E/DX2 =    0.1284             !
 ! A17   A(3,11,10)            102.9736         D2E/DX2 =    0.1124             !
 ! A18   A(3,11,12)            136.6704         D2E/DX2 =    0.1323             !
 ! A19   A(10,11,12)           120.356          D2E/DX2 =    0.1529             !
 ! A20   A(4,13,14)            125.7171         D2E/DX2 =    0.3337             !
 ! A21   A(4,13,15)            112.1089         D2E/DX2 =    0.2166             !
 ! A22   A(14,13,15)           122.1734         D2E/DX2 =    0.2705             !
 ! A23   A(13,14,22)           136.7605         D2E/DX2 =    0.1363             !
 ! A24   A(13,15,16)           117.4912         D2E/DX2 =    0.3227             !
 ! A25   A(15,16,17)           110.4495         D2E/DX2 =    0.136              !
 ! A26   A(15,16,18)           105.9897         D2E/DX2 =    0.1399             !
 ! A27   A(15,16,19)           110.4567         D2E/DX2 =    0.1403             !
 ! A28   A(17,16,18)           110.3971         D2E/DX2 =    0.0695             !
 ! A29   A(17,16,19)           109.1525         D2E/DX2 =    0.0696             !
 ! A30   A(18,16,19)           110.3683         D2E/DX2 =    0.0695             !
 ! A31   A(5,22,14)            179.362          D2E/DX2 =    0.1109             !
 ! A32   L(1,20,21,19,-1)      178.663          D2E/DX2 =    0.0878             !
 ! A33   L(1,20,21,19,-2)      179.4815         D2E/DX2 =    0.0874             !
 ! D1    D(10,1,5,3)            -0.0301         D2E/DX2 =    0.0261             !
 ! D2    D(10,1,5,22)          179.6468         D2E/DX2 =    0.0337             !
 ! D3    D(20,1,5,3)          -179.4676         D2E/DX2 =    0.0326             !
 ! D4    D(20,1,5,22)            0.2094         D2E/DX2 =    0.0214             !
 ! D5    D(5,1,10,11)            0.0548         D2E/DX2 =    0.0233             !
 ! D6    D(20,1,10,11)         179.5067         D2E/DX2 =    0.045              !
 ! D7    D(6,2,4,9)             -1.033          D2E/DX2 =    0.0292             !
 ! D8    D(6,2,4,13)          -179.8315         D2E/DX2 =    0.035              !
 ! D9    D(7,2,4,9)            178.5579         D2E/DX2 =    0.0323             !
 ! D10   D(7,2,4,13)            -0.2406         D2E/DX2 =    0.032              !
 ! D11   D(8,3,5,1)            179.9547         D2E/DX2 =    0.0262             !
 ! D12   D(8,3,5,22)             0.2898         D2E/DX2 =    0.0203             !
 ! D13   D(11,3,5,1)            -0.0077         D2E/DX2 =    0.0244             !
 ! D14   D(11,3,5,22)         -179.6725         D2E/DX2 =    0.0361             !
 ! D15   D(5,3,11,10)            0.038          D2E/DX2 =    0.0194             !
 ! D16   D(5,3,11,12)          179.9808         D2E/DX2 =    0.0221             !
 ! D17   D(8,3,11,10)         -179.9215         D2E/DX2 =    0.0277             !
 ! D18   D(8,3,11,12)            0.0214         D2E/DX2 =    0.0195             !
 ! D19   D(2,4,13,14)           -9.7154         D2E/DX2 =    0.0245             !
 ! D20   D(2,4,13,15)          169.9983         D2E/DX2 =    0.0486             !
 ! D21   D(9,4,13,14)          171.4204         D2E/DX2 =    0.0202             !
 ! D22   D(9,4,13,15)           -8.866          D2E/DX2 =    0.0277             !
 ! D23   D(1,5,22,14)          -62.379          D2E/DX2 =    0.0675             !
 ! D24   D(3,5,22,14)          117.2425         D2E/DX2 =    0.0557             !
 ! D25   D(1,10,11,3)           -0.056          D2E/DX2 =    0.0201             !
 ! D26   D(1,10,11,12)         179.9894         D2E/DX2 =    0.0248             !
 ! D27   D(4,13,14,22)         -22.4969         D2E/DX2 =    0.0559             !
 ! D28   D(15,13,14,22)        157.8165         D2E/DX2 =    0.027              !
 ! D29   D(4,13,15,16)         179.6247         D2E/DX2 =    0.0272             !
 ! D30   D(14,13,15,16)         -0.6499         D2E/DX2 =    0.0284             !
 ! D31   D(13,14,22,5)          28.904          D2E/DX2 =    0.1734             !
 ! D32   D(13,15,16,17)        -59.1856         D2E/DX2 =    0.0239             !
 ! D33   D(13,15,16,18)       -178.7752         D2E/DX2 =    0.0265             !
 ! D34   D(13,15,16,19)         61.6657         D2E/DX2 =    0.0243             !
 --------------------------------------------------------------------------------
 Trust Radius=1.00D-01 FncErr=1.00D-07 GrdErr=1.00D-06 EigMax=2.50D+02 EigMin=1.00D-04
 Number of steps in this run=     50 maximum allowed number of steps=    132.
 Search for a saddle point of order  1.
 GradGradGradGradGradGradGradGradGradGradGradGradGradGradGradGradGradGrad

                          Input orientation:                          
 ---------------------------------------------------------------------
 Center     Atomic      Atomic             Coordinates (Angstroms)
 Number     Number       Type             X           Y           Z
 ---------------------------------------------------------------------
      1          6           0        3.072664   -0.047180    0.196934
      2          6           0       -0.781932   -0.784303   -0.127074
      3          6           0        3.035547    2.119827   -0.122449
      4          6           0       -1.306552   -0.658990    1.092334
      5          7           0        2.403346    1.065551    0.446622
      6          1           0       -1.117399   -1.566999   -0.809807
      7          1           0       -0.004501   -0.104702   -0.485737
      8          1           0        2.668009    3.136505   -0.050406
      9          1           0       -2.099500   -1.317697    1.452016
     10          8           0        4.146403    0.214240   -0.528324
     11          6           0        4.196206    1.635856   -0.784027
     12          8           0        5.093588    2.105369   -1.429485
     13          6           0       -0.862217    0.400622    2.025285
     14          8           0        0.101400    1.131959    1.865779
     15          8           0       -1.641169    0.486964    3.085366
     16          6           0       -1.312019    1.467786    4.065439
     17          1           0       -0.302248    1.291850    4.460431
     18          1           0       -2.056435    1.361224    4.860402
     19          1           0       -1.358447    2.475506    3.630770
     20          6           0        2.709096   -1.344920    0.620918
     21          7           0        2.384602   -2.399982    0.976260
     22          1           0        1.516957    1.095315    0.999950
 ---------------------------------------------------------------------
                    Distance matrix (angstroms):
                    1          2          3          4          5
     1  C    0.000000
     2  C    3.937796   0.000000
     3  C    2.190731   4.796576   0.000000
     4  C    4.511494   1.333373   5.296352   0.000000
     5  N    1.322309   3.727879   1.354628   4.141778   0.000000
     6  H    4.569464   1.091456   5.595723   2.116223   4.572153
     7  H    3.152505   1.093113   3.784494   2.119641   2.834874
     8  H    3.218816   5.223094   1.083471   5.613267   2.146145
     9  H    5.471811   2.124622   6.376850   1.091803   5.192909
    10  O    1.321838   5.044460   2.242765   5.755326   2.171060
    11  C    2.248831   5.574102   1.420929   6.250391   2.248131
    12  O    3.370882   6.675943   2.438049   7.413706   3.440698
    13  C    4.361958   2.458280   4.770848   1.480070   3.687575
    14  O    3.606081   2.902377   3.679422   2.405835   2.705064
    15  O    5.554149   3.560081   5.901525   2.323221   4.863726
    16  C    6.040356   4.788535   6.071647   3.655484   5.202074
    17  H    5.600040   5.058232   5.729679   4.019761   4.845835
    18  H    7.073839   5.576967   7.164675   4.340729   6.281602
    19  H    6.147351   5.008005   5.789676   4.033785   5.126193
    20  C    1.412825   3.614008   3.558600   4.100994   2.436028
    21  N    2.572247   3.722190   4.696761   4.082787   3.505822
    22  H    2.090539   3.176167   2.148376   3.325406   1.045343
                    6          7          8          9         10
     6  H    0.000000
     7  H    1.865979   0.000000
     8  H    6.085143   4.223416   0.000000
     9  H    2.478410   3.100849   6.695247   0.000000
    10  O    5.564141   4.163357   3.309636   6.729033   0.000000
    11  C    6.204301   4.556803   2.263964   7.304743   1.445288
    12  O    7.242007   5.636097   2.974649   8.471183   2.299048
    13  C    3.460404   2.701159   4.925043   2.193656   5.625117
    14  O    3.991065   2.658979   3.778551   3.319032   4.789153
    15  O    4.434577   3.972597   5.951651   2.476833   6.828553
    16  C    5.745940   4.989542   5.963676   3.899874   7.243509
    17  H    6.050859   5.148164   5.707262   4.369257   6.770482
    18  H    6.450391   5.911055   7.041877   4.335385   8.296333
    19  H    6.009882   5.043439   5.495482   4.436724   7.260494
    20  C    4.091254   3.182206   4.531615   4.879965   2.411968
    21  N    4.018446   3.621265   5.638001   4.637333   3.493118
    22  H    4.159684   2.441750   2.568001   4.371013   3.166371
                   11         12         13         14         15
    11  C    0.000000
    12  O    1.200980   0.000000
    13  C    5.916560   7.093181   0.000000
    14  O    4.903347   6.060382   1.220186   0.000000
    15  O    7.096978   8.268015   1.318330   2.222602   0.000000
    16  C    7.340716   8.463599   2.345931   2.636104   1.425095
    17  H    6.918003   8.029196   2.652883   2.630726   2.081190
    18  H    8.427960   9.551925   3.222856   3.698187   2.021764
    19  H    7.144901   8.208041   2.670013   2.655460   2.081273
    20  C    3.615300   4.668453   4.215855   3.805874   5.324857
    21  N    4.761146   5.781384   4.414258   4.298705   5.384201
    22  H    3.263913   4.440119   2.682234   1.659760   3.833120
                   16         17         18         19         20
    16  C    0.000000
    17  H    1.098458   0.000000
    18  H    1.094293   1.800545   0.000000
    19  H    1.098450   1.790233   1.800224   0.000000
    20  C    5.995449   5.546405   6.928688   6.340329   0.000000
    21  N    6.177999   5.743539   6.996860   6.695314   1.159621
    22  H    4.187967   3.914469   5.267156   4.134500   2.742190
                   21         22
    21  N    0.000000
    22  H    3.601454   0.000000
 Stoichiometry    C8H8N2O4
 Framework group  C1[X(C8H8N2O4)]
 Deg. of freedom    60
 Full point group                 C1      NOp   1
 Largest Abelian subgroup         C1      NOp   1
 Largest concise Abelian subgroup C1      NOp   1
                         Standard orientation:                         
 ---------------------------------------------------------------------
 Center     Atomic      Atomic             Coordinates (Angstroms)
 Number     Number       Type             X           Y           Z
 ---------------------------------------------------------------------
      1          6           0        1.711568    0.570706   -0.427767
      2          6           0       -1.476808    1.559902    1.660769
      3          6           0        2.054641   -1.429764    0.396687
      4          6           0       -2.539168    1.142787    0.971356
      5          7           0        1.120877   -0.533360   -0.002770
      6          1           0       -1.487148    2.511223    2.195707
      7          1           0       -0.563986    0.961330    1.718755
      8          1           0        1.803136   -2.409461    0.785080
      9          1           0       -3.463707    1.721747    0.925880
     10          8           0        3.024904    0.457011   -0.330410
     11          6           0        3.336904   -0.846853    0.209455
     12          8           0        4.479131   -1.173213    0.385980
     13          6           0       -2.537998   -0.146910    0.245209
     14          8           0       -1.564052   -0.857371    0.056720
     15          8           0       -3.738794   -0.471549   -0.191475
     16          6           0       -3.867646   -1.692059   -0.915801
     17          1           0       -3.227828   -1.677891   -1.808573
     18          1           0       -4.921289   -1.762483   -1.202772
     19          1           0       -3.585677   -2.545125   -0.283849
     20          6           0        1.057690    1.726485   -0.910149
     21          7           0        0.495981    2.664768   -1.295931
     22          1           0        0.083889   -0.663980    0.015591
 ---------------------------------------------------------------------
 Rotational constants (GHZ):           1.1552868           0.3324197           0.2912896
 Basis read from chk: "cyclic-1_1_opt_dft.chk" (5D, 7F)
 Pseudo-potential data read from chk file.
 There are   250 symmetry adapted cartesian basis functions of A   symmetry.
 There are   236 symmetry adapted basis functions of A   symmetry.
   236 basis functions,   406 primitive gaussians,   250 cartesian basis functions
    51 alpha electrons       51 beta electrons
       nuclear repulsion energy       828.9775969120 Hartrees.
 NAtoms=   22 NActive=   22 NUniq=   22 SFac= 1.00D+00 NAtFMM=   60 NAOKFM=F Big=F
 Integral buffers will be    131072 words long.
 Raffenetti 2 integral format.
 Two-electron integral symmetry is turned on.
 Nuclear repulsion after empirical dispersion term =      828.9666285696 Hartrees.
 ------------------------------------------------------------------------------
 Polarizable Continuum Model (PCM)
 =================================
 Model                : PCM.
 Atomic radii         : UFF (Universal Force Field).
 Polarization charges : Total charges.
 Charge compensation  : None.
 Solution method      : On-the-fly selection.
 Cavity type          : Scaled VdW (van der Waals Surface) (Alpha=1.100).
 Cavity algorithm     : GePol (No added spheres)
                        Default sphere list used, NSphG=   22.
                        Lebedev-Laikov grids with approx.  5.0 points / Ang**2.
                        Smoothing algorithm: York/Karplus (Gamma=1.0000).
                        Polarization charges: spherical gaussians, with
                                              point-specific exponents (IZeta= 3).
                        Self-potential: point-specific (ISelfS= 7).
                        Self-field    : sphere-specific E.n sum rule (ISelfD= 2).
 1st derivatives      : Analytical E(r).r(x)/FMM algorithm (CHGder, D1EAlg=3).
                        Cavity 1st derivative terms included.
 Solvent              : Toluene, Eps=   2.374100 Eps(inf)=   2.238315
 ------------------------------------------------------------------------------
 One-electron integrals computed using PRISM.
   1 Symmetry operations used in ECPInt.
 ECPInt:  NShTT=    5886 NPrTT=   21942 LenC2=    5454 LenP2D=   14513.
 LDataN:  DoStor=T MaxTD1= 4 Len=   56
 NBasis=   236 RedAO= T EigKep=  3.32D-04  NBF=   236
 NBsUse=   236 1.00D-06 EigRej= -1.00D+00 NBFU=   236
 Initial guess from the checkpoint file:  "cyclic-1_1_opt_dft.chk"
 B after Tr=     0.000000    0.000000    0.000000
         Rot=    1.000000    0.000000   -0.000000   -0.000000 Ang=   0.00 deg.
 Requested convergence on RMS density matrix=1.00D-08 within 128 cycles.
 Requested convergence on MAX density matrix=1.00D-06.
 Requested convergence on             energy=1.00D-06.
 No special actions if energy rises.
 Inv3:  Mode=1 IEnd=    12681408.
 Iteration    1 A*A^-1 deviation from unit magnitude is 3.66D-15 for     41.
 Iteration    1 A*A^-1 deviation from orthogonality  is 1.68D-15 for   1713     73.
 Iteration    1 A^-1*A deviation from unit magnitude is 3.33D-15 for     41.
 Iteration    1 A^-1*A deviation from orthogonality  is 2.22D-15 for   1820    497.
 Error on total polarization charges =  0.00757
 SCF Done:  E(RwB97XD) =  -719.241577324     A.U. after    1 cycles
            NFock=  1  Conv=0.41D-08     -V/T= 2.0089

 **********************************************************************

            Population analysis using the SCF Density.

 **********************************************************************

 Orbital symmetries:
       Occupied  (A) (A) (A) (A) (A) (A) (A) (A) (A) (A) (A) (A)
                 (A) (A) (A) (A) (A) (A) (A) (A) (A) (A) (A) (A)
                 (A) (A) (A) (A) (A) (A) (A) (A) (A) (A) (A) (A)
                 (A) (A) (A) (A) (A) (A) (A) (A) (A) (A) (A) (A)
                 (A) (A) (A)
       Virtual   (A) (A) (A) (A) (A) (A) (A) (A) (A) (A) (A) (A)
                 (A) (A) (A) (A) (A) (A) (A) (A) (A) (A) (A) (A)
                 (A) (A) (A) (A) (A) (A) (A) (A) (A) (A) (A) (A)
                 (A) (A) (A) (A) (A) (A) (A) (A) (A) (A) (A) (A)
                 (A) (A) (A) (A) (A) (A) (A) (A) (A) (A) (A) (A)
                 (A) (A) (A) (A) (A) (A) (A) (A) (A) (A) (A) (A)
                 (A) (A) (A) (A) (A) (A) (A) (A) (A) (A) (A) (A)
                 (A) (A) (A) (A) (A) (A) (A) (A) (A) (A) (A) (A)
                 (A) (A) (A) (A) (A) (A) (A) (A) (A) (A) (A) (A)
                 (A) (A) (A) (A) (A) (A) (A) (A) (A) (A) (A) (A)
                 (A) (A) (A) (A) (A) (A) (A) (A) (A) (A) (A) (A)
                 (A) (A) (A) (A) (A) (A) (A) (A) (A) (A) (A) (A)
                 (A) (A) (A) (A) (A) (A) (A) (A) (A) (A) (A) (A)
                 (A) (A) (A) (A) (A) (A) (A) (A) (A) (A) (A) (A)
                 (A) (A) (A) (A) (A) (A) (A) (A) (A) (A) (A) (A)
                 (A) (A) (A) (A) (A)
 The electronic state is 1-A.
 Alpha  occ. eigenvalues --  -19.34277 -19.33469 -19.28364 -19.22666 -14.55459
 Alpha  occ. eigenvalues --  -14.47737 -10.46534 -10.44051 -10.42379 -10.37336
 Alpha  occ. eigenvalues --  -10.37158 -10.34339 -10.34332 -10.33652  -1.25385
 Alpha  occ. eigenvalues --   -1.24016  -1.14327  -1.12432  -1.08623  -1.02544
 Alpha  occ. eigenvalues --   -0.91566  -0.89406  -0.85061  -0.78409  -0.74595
 Alpha  occ. eigenvalues --   -0.73565  -0.72080  -0.67182  -0.63842  -0.63070
 Alpha  occ. eigenvalues --   -0.61122  -0.60648  -0.59901  -0.56999  -0.55518
 Alpha  occ. eigenvalues --   -0.52854  -0.52148  -0.51505  -0.50426  -0.49517
 Alpha  occ. eigenvalues --   -0.48848  -0.47981  -0.46718  -0.46438  -0.45991
 Alpha  occ. eigenvalues --   -0.44042  -0.42187  -0.40819  -0.39077  -0.36652
 Alpha  occ. eigenvalues --   -0.28273
 Alpha virt. eigenvalues --   -0.00940  -0.00386   0.06043   0.12935   0.13942
 Alpha virt. eigenvalues --    0.14272   0.15681   0.15860   0.17770   0.18611
 Alpha virt. eigenvalues --    0.19017   0.19905   0.20665   0.21058   0.22019
 Alpha virt. eigenvalues --    0.23884   0.25620   0.26975   0.31271   0.33654
 Alpha virt. eigenvalues --    0.34627   0.35605   0.36579   0.37898   0.38281
 Alpha virt. eigenvalues --    0.43688   0.45988   0.48576   0.49782   0.50329
 Alpha virt. eigenvalues --    0.50951   0.52385   0.53605   0.54168   0.54883
 Alpha virt. eigenvalues --    0.55455   0.56700   0.58422   0.59422   0.60893
 Alpha virt. eigenvalues --    0.62036   0.63306   0.65216   0.67112   0.67780
 Alpha virt. eigenvalues --    0.68512   0.69863   0.70581   0.71136   0.71969
 Alpha virt. eigenvalues --    0.72259   0.72433   0.73388   0.74587   0.75139
 Alpha virt. eigenvalues --    0.75647   0.78028   0.80123   0.80465   0.82138
 Alpha virt. eigenvalues --    0.83225   0.85017   0.87441   0.89943   0.93821
 Alpha virt. eigenvalues --    0.94472   0.95298   0.97177   1.01532   1.04618
 Alpha virt. eigenvalues --    1.07369   1.09091   1.09890   1.10902   1.11694
 Alpha virt. eigenvalues --    1.13050   1.15051   1.16512   1.16907   1.19211
 Alpha virt. eigenvalues --    1.22854   1.26750   1.27452   1.29831   1.29958
 Alpha virt. eigenvalues --    1.31522   1.33014   1.34115   1.37962   1.40167
 Alpha virt. eigenvalues --    1.44013   1.45011   1.49032   1.51474   1.52218
 Alpha virt. eigenvalues --    1.57906   1.58749   1.61302   1.63063   1.63251
 Alpha virt. eigenvalues --    1.66321   1.67389   1.67860   1.70215   1.71662
 Alpha virt. eigenvalues --    1.72546   1.75239   1.75866   1.76606   1.78957
 Alpha virt. eigenvalues --    1.79609   1.81710   1.82767   1.83779   1.84768
 Alpha virt. eigenvalues --    1.89068   1.89620   1.91247   1.93037   1.95855
 Alpha virt. eigenvalues --    1.96882   1.98119   1.99898   2.03349   2.04496
 Alpha virt. eigenvalues --    2.06572   2.08495   2.10752   2.12398   2.12806
 Alpha virt. eigenvalues --    2.18112   2.20169   2.24494   2.29134   2.29346
 Alpha virt. eigenvalues --    2.31490   2.32497   2.32612   2.34099   2.37799
 Alpha virt. eigenvalues --    2.39729   2.41323   2.43809   2.48764   2.50121
 Alpha virt. eigenvalues --    2.52560   2.55731   2.63147   2.64678   2.69294
 Alpha virt. eigenvalues --    2.70843   2.72915   2.73502   2.75735   2.77170
 Alpha virt. eigenvalues --    2.80164   2.84007   2.86092   2.86799   2.88055
 Alpha virt. eigenvalues --    2.93630   2.94884   2.95474   2.97774   3.01703
 Alpha virt. eigenvalues --    3.02703   3.03331   3.06427   3.12266   3.13543
 Alpha virt. eigenvalues --    3.14621   3.19510   3.26894   3.28411   3.30174
 Alpha virt. eigenvalues --    3.36235   3.38274   3.45709   3.48863   3.54024
 Alpha virt. eigenvalues --    3.69882   3.73711   3.74937   3.78408   3.84772
          Condensed to atoms (all electrons):
               1          2          3          4          5          6
     1  C    5.222820  -0.000142  -0.111080   0.000482   0.557760   0.000049
     2  C   -0.000142   4.663752   0.000163   0.611301  -0.002065   0.390262
     3  C   -0.111080   0.000163   5.285136  -0.000016   0.370564  -0.000002
     4  C    0.000482   0.611301  -0.000016   5.012802  -0.000082  -0.010678
     5  N    0.557760  -0.002065   0.370564  -0.000082   6.062103   0.000027
     6  H    0.000049   0.390262  -0.000002  -0.010678   0.000027   0.564811
     7  H    0.000761   0.394604  -0.000454  -0.028200   0.005796  -0.034012
     8  H    0.005617   0.000013   0.414975  -0.000005  -0.027724   0.000000
     9  H   -0.000012  -0.023887   0.000000   0.392140   0.000002  -0.010231
    10  O    0.453897   0.000021  -0.124348   0.000001  -0.081802  -0.000000
    11  C   -0.083681  -0.000007   0.362578   0.000001  -0.029401   0.000000
    12  O    0.002359  -0.000000  -0.076826   0.000000   0.001486   0.000000
    13  C    0.000058  -0.035681   0.000076   0.318325   0.000552   0.007709
    14  O   -0.002760   0.009812  -0.000281  -0.094729  -0.033603   0.000233
    15  O   -0.000008   0.004475   0.000000  -0.098678  -0.000010  -0.000073
    16  C    0.000002  -0.000310  -0.000001   0.008674   0.000001   0.000004
    17  H    0.000006  -0.000045  -0.000002   0.000647  -0.000009  -0.000000
    18  H    0.000000  -0.000004  -0.000000   0.000008   0.000000  -0.000000
    19  H    0.000000   0.000094   0.000001   0.000105   0.000006  -0.000000
    20  C    0.025956   0.000968   0.014440   0.000121  -0.135254  -0.000034
    21  N   -0.099844   0.000386   0.000190   0.000100  -0.004460  -0.000005
    22  H   -0.002966   0.000580  -0.015060  -0.000710   0.341984  -0.000006
               7          8          9         10         11         12
     1  C    0.000761   0.005617  -0.000012   0.453897  -0.083681   0.002359
     2  C    0.394604   0.000013  -0.023887   0.000021  -0.000007  -0.000000
     3  C   -0.000454   0.414975   0.000000  -0.124348   0.362578  -0.076826
     4  C   -0.028200  -0.000005   0.392140   0.000001   0.000001   0.000000
     5  N    0.005796  -0.027724   0.000002  -0.081802  -0.029401   0.001486
     6  H   -0.034012   0.000000  -0.010231  -0.000000   0.000000   0.000000
     7  H    0.604519  -0.000040   0.006654  -0.000216  -0.000073   0.000001
     8  H   -0.000040   0.561321  -0.000000   0.003700  -0.025578   0.001337
     9  H    0.006654  -0.000000   0.583003   0.000000  -0.000000   0.000000
    10  O   -0.000216   0.003700   0.000000   7.901838   0.261217  -0.064943
    11  C   -0.000073  -0.025578  -0.000000   0.261217   4.494507   0.764125
    12  O    0.000001   0.001337   0.000000  -0.064943   0.764125   7.633106
    13  C   -0.016372   0.000021  -0.030277  -0.000000  -0.000003   0.000000
    14  O    0.005964   0.000255   0.002779  -0.000004  -0.000021   0.000000
    15  O    0.000308   0.000000   0.006719  -0.000000  -0.000000   0.000000
    16  C   -0.000015  -0.000000  -0.000198  -0.000000   0.000000  -0.000000
    17  H   -0.000013  -0.000001   0.000021   0.000000  -0.000000   0.000000
    18  H   -0.000001   0.000000  -0.000132   0.000000   0.000000  -0.000000
    19  H    0.000002   0.000001   0.000035   0.000000   0.000000  -0.000000
    20  C    0.000792  -0.000371   0.000019  -0.091456  -0.006188  -0.000296
    21  N   -0.000588  -0.000001  -0.000011  -0.002437  -0.000118  -0.000000
    22  H    0.000348  -0.004590  -0.000029   0.001279   0.006468  -0.000032
              13         14         15         16         17         18
     1  C    0.000058  -0.002760  -0.000008   0.000002   0.000006   0.000000
     2  C   -0.035681   0.009812   0.004475  -0.000310  -0.000045  -0.000004
     3  C    0.000076  -0.000281   0.000000  -0.000001  -0.000002  -0.000000
     4  C    0.318325  -0.094729  -0.098678   0.008674   0.000647   0.000008
     5  N    0.000552  -0.033603  -0.000010   0.000001  -0.000009   0.000000
     6  H    0.007709   0.000233  -0.000073   0.000004  -0.000000  -0.000000
     7  H   -0.016372   0.005964   0.000308  -0.000015  -0.000013  -0.000001
     8  H    0.000021   0.000255   0.000000  -0.000000  -0.000001   0.000000
     9  H   -0.030277   0.002779   0.006719  -0.000198   0.000021  -0.000132
    10  O   -0.000000  -0.000004  -0.000000  -0.000000   0.000000   0.000000
    11  C   -0.000003  -0.000021  -0.000000   0.000000  -0.000000   0.000000
    12  O    0.000000   0.000000   0.000000  -0.000000   0.000000  -0.000000
    13  C    4.499752   0.592081   0.402171  -0.032724  -0.005034   0.004181
    14  O    0.592081   7.836044  -0.081539   0.001813   0.006845   0.000723
    15  O    0.402171  -0.081539   7.887260   0.255252  -0.025015  -0.020624
    16  C   -0.032724   0.001813   0.255252   4.431484   0.406699   0.401732
    17  H   -0.005034   0.006845  -0.025015   0.406699   0.596659  -0.020484
    18  H    0.004181   0.000723  -0.020624   0.401732  -0.020484   0.581723
    19  H   -0.004802   0.005691  -0.024220   0.407178  -0.026892  -0.020774
    20  C    0.000226   0.002304   0.000004  -0.000005   0.000001  -0.000000
    21  N   -0.000221  -0.000058   0.000001  -0.000000  -0.000001  -0.000000
    22  H   -0.007366   0.078137   0.000365   0.000042   0.000179   0.000003
              19         20         21         22
     1  C    0.000000   0.025956  -0.099844  -0.002966
     2  C    0.000094   0.000968   0.000386   0.000580
     3  C    0.000001   0.014440   0.000190  -0.015060
     4  C    0.000105   0.000121   0.000100  -0.000710
     5  N    0.000006  -0.135254  -0.004460   0.341984
     6  H   -0.000000  -0.000034  -0.000005  -0.000006
     7  H    0.000002   0.000792  -0.000588   0.000348
     8  H    0.000001  -0.000371  -0.000001  -0.004590
     9  H    0.000035   0.000019  -0.000011  -0.000029
    10  O    0.000000  -0.091456  -0.002437   0.001279
    11  C    0.000000  -0.006188  -0.000118   0.006468
    12  O   -0.000000  -0.000296  -0.000000  -0.000032
    13  C   -0.004802   0.000226  -0.000221  -0.007366
    14  O    0.005691   0.002304  -0.000058   0.078137
    15  O   -0.024220   0.000004   0.000001   0.000365
    16  C    0.407178  -0.000005  -0.000000   0.000042
    17  H   -0.026892   0.000001  -0.000001   0.000179
    18  H   -0.020774  -0.000000  -0.000000   0.000003
    19  H    0.597484  -0.000001   0.000000  -0.000065
    20  C   -0.000001   5.409023   0.870248  -0.023686
    21  N    0.000000   0.870248   6.155551  -0.000433
    22  H   -0.000065  -0.023686  -0.000433   0.432990
 Mulliken charges:
               1
     1  C    0.030728
     2  C   -0.014291
     3  C   -0.120055
     4  C   -0.111610
     5  N   -0.025870
     6  H    0.091945
     7  H    0.060235
     8  H    0.071069
     9  H    0.073406
    10  O   -0.256746
    11  C    0.256174
    12  O   -0.260318
    13  C    0.307328
    14  O   -0.329686
    15  O   -0.306387
    16  C    0.120372
    17  H    0.066438
    18  H    0.073651
    19  H    0.066156
    20  C   -0.066809
    21  N    0.081702
    22  H    0.192568
 Sum of Mulliken charges =   0.00000
 Mulliken charges with hydrogens summed into heavy atoms:
               1
     1  C    0.030728
     2  C    0.137890
     3  C   -0.048986
     4  C   -0.038204
     5  N    0.166698
    10  O   -0.256746
    11  C    0.256174
    12  O   -0.260318
    13  C    0.307328
    14  O   -0.329686
    15  O   -0.306387
    16  C    0.326616
    20  C   -0.066809
    21  N    0.081702
 Electronic spatial extent (au):  <R**2>=           3683.2339
 Charge=              0.0000 electrons
 Dipole moment (field-independent basis, Debye):
    X=             -9.2888    Y=             -1.8486    Z=              1.2167  Tot=              9.5488
 Quadrupole moment (field-independent basis, Debye-Ang):
   XX=            -99.3696   YY=            -81.7003   ZZ=            -77.4283
   XY=              9.1418   XZ=              0.0762   YZ=              9.1434
 Traceless Quadrupole moment (field-independent basis, Debye-Ang):
   XX=            -13.2035   YY=              4.4658   ZZ=              8.7378
   XY=              9.1418   XZ=              0.0762   YZ=              9.1434
 Octapole moment (field-independent basis, Debye-Ang**2):
  XXX=           -219.5148  YYY=            -43.3259  ZZZ=              0.8639  XYY=            -30.5340
  XXY=             11.8739  XXZ=            -26.3768  XZZ=             -8.8757  YZZ=             -6.7286
  YYZ=             20.7315  XYZ=             -9.3581
 Hexadecapole moment (field-independent basis, Debye-Ang**3):
 XXXX=          -3964.6737 YYYY=           -953.3891 ZZZZ=           -376.1071 XXXY=            287.1996
 XXXZ=             14.4114 YYYX=             18.7018 YYYZ=             61.8386 ZZZX=             16.8544
 ZZZY=             27.6306 XXYY=           -680.0477 XXZZ=           -605.0478 YYZZ=           -213.9517
 XXYZ=             61.3422 YYXZ=              5.5593 ZZXY=              6.2024
 N-N= 8.289666285696D+02 E-N=-3.336583909829D+03  KE= 7.129171320989D+02
   1 Symmetry operations used in ECPInt.
 ECPInt:  NShTT=    5886 NPrTT=   21942 LenC2=    5454 LenP2D=   14513.
 LDataN:  DoStor=T MaxTD1= 5 Len=  102
 D1PCM: PCM CHGder 1st derivatives, ID1Alg=3 FixD1E=F DoIter=F DoCFld=F I1PDM=0.
 Calling FoFJK, ICntrl=      2127 FMM=F ISym2X=0 I1Cent= 0 IOpClX= 0 NMat=1 NMatS=1 NMatT=0.
 ***** Axes restored to original set *****
 -------------------------------------------------------------------
 Center     Atomic                   Forces (Hartrees/Bohr)
 Number     Number              X              Y              Z
 -------------------------------------------------------------------
      1        6           0.000000791   -0.000031387   -0.000072165
      2        6           0.000200624   -0.000029873    0.000062287
      3        6          -0.000075340    0.000073674   -0.000037269
      4        6          -0.000149856   -0.000031526    0.000040321
      5        7           0.000171970   -0.000918468    0.000545242
      6        1          -0.000015928    0.000011541   -0.000020130
      7        1           0.000008621    0.000000909   -0.000009807
      8        1           0.000053702    0.000005434    0.000052064
      9        1           0.000015166   -0.000017165   -0.000015811
     10        8           0.000032001    0.000007717    0.000009038
     11        6           0.000079392   -0.000047243   -0.000021685
     12        8           0.000009131    0.000002476   -0.000013221
     13        6          -0.000033125    0.000214767    0.000039503
     14        8           0.000017196   -0.000573767    0.000194221
     15        8           0.000065338   -0.000084100    0.000057489
     16        6          -0.000008758    0.000000322    0.000001491
     17        1           0.000001516   -0.000002788    0.000005068
     18        1          -0.000005316    0.000006767    0.000000715
     19        1           0.000011735    0.000001611   -0.000002325
     20        6          -0.000021084    0.000008311   -0.000039278
     21        7          -0.000004941    0.000004834    0.000005490
     22        1          -0.000352837    0.001397956   -0.000781237
 -------------------------------------------------------------------
 Cartesian Forces:  Max     0.001397956 RMS     0.000258177

 GradGradGradGradGradGradGradGradGradGradGradGradGradGradGradGradGradGrad
 Berny optimization.
 FormGI is forming the generalized inverse of G from B-inverse, IUseBI=4.
 Internal  Forces:  Max     0.000410810 RMS     0.000085108
 Search for a saddle point.
 Step number   1 out of a maximum of   50
 All quantities printed in internal units (Hartrees-Bohrs-Radians)
 Swapping is turned off.
 Second derivative matrix not updated -- first step.
 ITU=  0
     Eigenvalues ---   -0.00009   0.00250   0.00315   0.00443   0.00947
     Eigenvalues ---    0.01501   0.01712   0.02198   0.02370   0.02597
     Eigenvalues ---    0.02713   0.03840   0.04090   0.05079   0.05217
     Eigenvalues ---    0.06071   0.06586   0.08187   0.08308   0.08409
     Eigenvalues ---    0.08561   0.08751   0.09383   0.10315   0.11485
     Eigenvalues ---    0.11645   0.12720   0.15105   0.15889   0.18477
     Eigenvalues ---    0.18771   0.19746   0.22383   0.23760   0.24648
     Eigenvalues ---    0.25952   0.26356   0.29845   0.31149   0.35650
     Eigenvalues ---    0.35993   0.36391   0.36469   0.36534   0.36859
     Eigenvalues ---    0.36989   0.37275   0.37338   0.37784   0.38066
     Eigenvalues ---    0.41739   0.45673   0.49564   0.50102   0.53802
     Eigenvalues ---    0.63938   0.83209   0.94605   1.03893   1.24120
 Eigenvectors required to have negative eigenvalues:
                          D31       D23       D24       A31       D27
   1                   -0.59792   0.56566   0.56365  -0.05256  -0.01827
                          D21       A23       D19       D28       D22
   1                    0.01686   0.01674   0.01633  -0.01513   0.01399
 RFO step:  Lambda0=3.661239143D-07 Lambda=-2.07942993D-06.
 Linear search not attempted -- option 19 set.
 Iteration  1 RMS(Cart)=  0.00693090 RMS(Int)=  0.00074571
 Iteration  2 RMS(Cart)=  0.00423778 RMS(Int)=  0.00013056
 Iteration  3 RMS(Cart)=  0.00040851 RMS(Int)=  0.00000079
 Iteration  4 RMS(Cart)=  0.00000459 RMS(Int)=  0.00000007
 Iteration  5 RMS(Cart)=  0.00000000 RMS(Int)=  0.00000007
 Variable       Old X    -DE/DX   Delta X   Delta X   Delta X     New X
                                 (Linear)    (Quad)   (Total)
    R1        2.49880   0.00004   0.00000   0.00014   0.00014   2.49894
    R2        2.49791   0.00002   0.00000  -0.00004  -0.00004   2.49787
    R3        2.66985  -0.00002   0.00000  -0.00006  -0.00006   2.66979
    R4        2.51971   0.00005   0.00000  -0.00007  -0.00007   2.51964
    R5        2.06255   0.00001   0.00000   0.00002   0.00002   2.06257
    R6        2.06568   0.00001   0.00000   0.00002   0.00002   2.06570
    R7        2.55988   0.00008   0.00000   0.00018   0.00018   2.56006
    R8        2.04746  -0.00001   0.00000  -0.00001  -0.00001   2.04745
    R9        2.68517   0.00010   0.00000   0.00032   0.00032   2.68548
   R10        2.06321  -0.00001   0.00000  -0.00002  -0.00002   2.06319
   R11        2.79693  -0.00000   0.00000   0.00007   0.00007   2.79700
   R12        1.97541   0.00001   0.00000   0.00003   0.00003   1.97545
   R13        2.73120  -0.00001   0.00000  -0.00004  -0.00004   2.73116
   R14        2.26952   0.00002   0.00000  -0.00000  -0.00000   2.26952
   R15        2.30582  -0.00008   0.00000  -0.00008  -0.00008   2.30574
   R16        2.49128   0.00001   0.00000   0.00003   0.00003   2.49131
   R17        3.13649   0.00008   0.00000  -0.00089  -0.00089   3.13560
   R18        2.69304   0.00000   0.00000  -0.00001  -0.00001   2.69302
   R19        2.07578   0.00000   0.00000   0.00002   0.00002   2.07580
   R20        2.06791   0.00000   0.00000   0.00000   0.00000   2.06792
   R21        2.07577   0.00000   0.00000  -0.00001  -0.00001   2.07576
   R22        2.19137  -0.00000   0.00000   0.00001   0.00001   2.19138
    A1        1.92661   0.00004   0.00000   0.00008   0.00008   1.92669
    A2        2.19696  -0.00004   0.00000   0.00003   0.00003   2.19698
    A3        2.15958   0.00000   0.00000  -0.00010  -0.00010   2.15948
    A4        2.11592   0.00001   0.00000   0.00012   0.00012   2.11604
    A5        2.11936   0.00001   0.00000   0.00001   0.00001   2.11937
    A6        2.04788  -0.00001   0.00000  -0.00013  -0.00013   2.04775
    A7        2.14605   0.00002   0.00000   0.00006   0.00006   2.14611
    A8        1.88780  -0.00001   0.00000  -0.00003  -0.00003   1.88778
    A9        2.24933  -0.00001   0.00000  -0.00003  -0.00003   2.24929
   A10        2.12979   0.00008   0.00000   0.00021   0.00021   2.13000
   A11        2.12425  -0.00020   0.00000  -0.00017  -0.00017   2.12409
   A12        2.02896   0.00012   0.00000  -0.00004  -0.00004   2.02893
   A13        1.91704  -0.00004   0.00000  -0.00009  -0.00009   1.91695
   A14        2.15690   0.00001   0.00000   0.00037   0.00037   2.15726
   A15        2.20923   0.00003   0.00000  -0.00027  -0.00027   2.20896
   A16        1.89610   0.00001   0.00000   0.00007   0.00007   1.89617
   A17        1.79723   0.00000   0.00000  -0.00003  -0.00003   1.79720
   A18        2.38535   0.00000   0.00000   0.00001   0.00001   2.38536
   A19        2.10061  -0.00000   0.00000   0.00002   0.00002   2.10063
   A20        2.19418  -0.00024   0.00000  -0.00004  -0.00004   2.19414
   A21        1.95667   0.00010   0.00000   0.00007   0.00007   1.95674
   A22        2.13233   0.00014   0.00000  -0.00003  -0.00003   2.13230
   A23        2.38692  -0.00017   0.00000   0.00400   0.00400   2.39092
   A24        2.05061   0.00001   0.00000  -0.00003  -0.00003   2.05058
   A25        1.92771  -0.00000   0.00000  -0.00004  -0.00004   1.92767
   A26        1.84987   0.00000   0.00000   0.00002   0.00002   1.84989
   A27        1.92783  -0.00000   0.00000   0.00003   0.00003   1.92787
   A28        1.92679   0.00000   0.00000  -0.00003  -0.00003   1.92676
   A29        1.90507  -0.00000   0.00000  -0.00003  -0.00003   1.90504
   A30        1.92629   0.00000   0.00000   0.00005   0.00005   1.92634
   A31        3.13046  -0.00020   0.00000   0.00427   0.00427   3.13473
   A32        3.11826  -0.00002   0.00000   0.00004   0.00004   3.11830
   A33        3.13254   0.00001   0.00000  -0.00012  -0.00012   3.13242
    D1       -0.00053   0.00002   0.00000  -0.00022  -0.00022  -0.00075
    D2        3.13543   0.00001   0.00000   0.00090   0.00090   3.13633
    D3       -3.13230   0.00003   0.00000  -0.00057  -0.00057  -3.13287
    D4        0.00365   0.00002   0.00000   0.00056   0.00056   0.00421
    D5        0.00096  -0.00001   0.00000   0.00010   0.00010   0.00106
    D6        3.13298  -0.00002   0.00000   0.00044   0.00044   3.13342
    D7       -0.01803   0.00006   0.00000   0.00001   0.00001  -0.01802
    D8       -3.13865  -0.00002   0.00000  -0.00029  -0.00029  -3.13894
    D9        3.11642   0.00004   0.00000   0.00023   0.00023   3.11666
   D10       -0.00420  -0.00004   0.00000  -0.00007  -0.00007  -0.00427
   D11        3.14080   0.00002   0.00000  -0.00055  -0.00055   3.14025
   D12        0.00506   0.00003   0.00000  -0.00172  -0.00172   0.00334
   D13       -0.00013  -0.00002   0.00000   0.00025   0.00025   0.00011
   D14       -3.13588  -0.00001   0.00000  -0.00092  -0.00092  -3.13680
   D15        0.00066   0.00001   0.00000  -0.00018  -0.00018   0.00049
   D16        3.14126   0.00002   0.00000  -0.00012  -0.00012   3.14114
   D17       -3.14022  -0.00003   0.00000   0.00068   0.00068  -3.13954
   D18        0.00037  -0.00003   0.00000   0.00074   0.00074   0.00112
   D19       -0.16957   0.00006   0.00000   0.00222   0.00222  -0.16734
   D20        2.96703   0.00018   0.00000   0.00234   0.00234   2.96937
   D21        2.99185  -0.00002   0.00000   0.00193   0.00193   2.99378
   D22       -0.15474   0.00010   0.00000   0.00205   0.00205  -0.15269
   D23       -1.08872   0.00022   0.00000  -0.01029  -0.01029  -1.09901
   D24        2.04627   0.00021   0.00000  -0.00897  -0.00897   2.03730
   D25       -0.00098  -0.00000   0.00000   0.00005   0.00005  -0.00093
   D26        3.14141  -0.00001   0.00000   0.00000   0.00000   3.14141
   D27       -0.39265   0.00022   0.00000   0.00978   0.00978  -0.38287
   D28        2.75442   0.00009   0.00000   0.00965   0.00965   2.76407
   D29        3.13504  -0.00006   0.00000   0.00032   0.00032   3.13536
   D30       -0.01134   0.00005   0.00000   0.00043   0.00043  -0.01091
   D31        0.50447   0.00041   0.00000   0.00923   0.00923   0.51370
   D32       -1.03298  -0.00001   0.00000  -0.00347  -0.00347  -1.03645
   D33       -3.12022  -0.00001   0.00000  -0.00343  -0.00343  -3.12364
   D34        1.07627  -0.00002   0.00000  -0.00352  -0.00352   1.07275
         Item               Value     Threshold  Converged?
 Maximum Force            0.000411     0.000450     YES
 RMS     Force            0.000085     0.000300     YES
 Maximum Displacement     0.048911     0.001800     NO 
 RMS     Displacement     0.011581     0.001200     NO 
 Predicted change in Energy=-9.546465D-07
 GradGradGradGradGradGradGradGradGradGradGradGradGradGradGradGradGradGrad

                          Input orientation:                          
 ---------------------------------------------------------------------
 Center     Atomic      Atomic             Coordinates (Angstroms)
 Number     Number       Type             X           Y           Z
 ---------------------------------------------------------------------
      1          6           0        3.073628   -0.047119    0.188683
      2          6           0       -0.782960   -0.795308   -0.120038
      3          6           0        3.037032    2.122210   -0.115085
      4          6           0       -1.311003   -0.662102    1.097012
      5          7           0        2.403672    1.063777    0.445138
      6          1           0       -1.120391   -1.578870   -0.800826
      7          1           0       -0.000377   -0.121645   -0.478731
      8          1           0        2.669120    3.138291   -0.036894
      9          1           0       -2.108824   -1.314796    1.456848
     10          8           0        4.148642    0.219509   -0.532744
     11          6           0        4.198967    1.642898   -0.778172
     12          8           0        5.097515    2.116992   -1.418638
     13          6           0       -0.863507    0.398697    2.027157
     14          8           0        0.103651    1.125095    1.866824
     15          8           0       -1.643781    0.492128    3.085683
     16          6           0       -1.312028    1.475085    4.062724
     17          1           0       -0.305001    1.294209    4.462485
     18          1           0       -2.060232    1.376945    4.855214
     19          1           0       -1.350016    2.481161    3.623461
     20          6           0        2.709726   -1.347840    0.603025
     21          7           0        2.384897   -2.405463    0.950377
     22          1           0        1.516668    1.089949    0.997696
 ---------------------------------------------------------------------
                    Distance matrix (angstroms):
                    1          2          3          4          5
     1  C    0.000000
     2  C    3.940605   0.000000
     3  C    2.190800   4.806691   0.000000
     4  C    4.519763   1.333336   5.303488   0.000000
     5  N    1.322384   3.732324   1.354723   4.147579   0.000000
     6  H    4.573312   1.091467   5.608244   2.116267   4.577666
     7  H    3.146507   1.093123   3.793808   2.119622   2.835174
     8  H    3.218906   5.234212   1.083464   5.618729   2.146259
     9  H    5.483891   2.124701   6.384655   1.091792   5.200365
    10  O    1.321818   5.051820   2.242852   5.765507   2.171166
    11  C    2.248856   5.585480   1.421097   6.260121   2.248322
    12  O    3.370901   6.689382   2.438210   7.424349   3.440888
    13  C    4.368040   2.458167   4.772201   1.480107   3.690471
    14  O    3.607077   2.902008   3.677896   2.405812   2.704634
    15  O    5.562135   3.560218   5.900177   2.323317   4.866326
    16  C    6.046427   4.788538   6.065244   3.655547   5.202166
    17  H    5.610675   5.059056   5.727906   4.020647   4.850678
    18  H    7.082443   5.577029   7.158310   4.340869   6.282777
    19  H    6.144797   5.007054   5.775099   4.032936   5.118681
    20  C    1.412791   3.609289   3.558660   4.108591   2.436081
    21  N    2.572220   3.711295   4.696841   4.089069   3.505887
    22  H    2.090825   3.176762   2.148337   3.327953   1.045362
                    6          7          8          9         10
     6  H    0.000000
     7  H    1.865926   0.000000
     8  H    6.098820   4.236581   0.000000
     9  H    2.478675   3.100907   6.700001   0.000000
    10  O    5.573934   4.163372   3.309704   6.743030   0.000000
    11  C    6.218993   4.564841   2.264095   7.316523   1.445269
    12  O    7.259713   5.646541   2.974789   8.483921   2.299045
    13  C    3.460383   2.700967   4.923936   2.193656   5.630883
    14  O    3.990747   2.658347   3.776073   3.319066   4.789568
    15  O    4.434854   3.972724   5.945905   2.476761   6.835166
    16  C    5.746085   4.989468   5.951694   3.899861   7.246635
    17  H    6.051602   5.149082   5.700039   4.369730   6.778069
    18  H    6.450654   5.910985   7.028644   4.335519   8.301799
    19  H    6.009234   5.042232   5.475717   4.436135   7.254265
    20  C    4.085825   3.165187   4.531724   4.893724   2.411853
    21  N    4.004624   3.598292   5.638147   4.651838   3.492982
    22  H    4.160692   2.439103   2.567923   4.374679   3.166575
                   11         12         13         14         15
    11  C    0.000000
    12  O    1.200978   0.000000
    13  C    5.920013   7.096465   0.000000
    14  O    4.902625   6.059438   1.220146   0.000000
    15  O    7.098686   8.268866   1.318345   2.222563   0.000000
    16  C    7.337132   8.458109   2.345915   2.636023   1.425087
    17  H    6.918944   8.028184   2.654184   2.633069   2.081165
    18  H    8.425161   9.546844   3.222891   3.698148   2.021775
    19  H    7.132200   8.193048   2.668620   2.652892   2.081286
    20  C    3.615254   4.668374   4.224516   3.808440   5.338735
    21  N    4.761088   5.781274   4.424353   4.302185   5.402389
    22  H    3.264075   4.440264   2.683814   1.659288   3.834777
                   16         17         18         19         20
    16  C    0.000000
    17  H    1.098466   0.000000
    18  H    1.094295   1.800533   0.000000
    19  H    1.098446   1.790215   1.800254   0.000000
    20  C    6.009403   5.564569   6.946802   6.345533   0.000000
    21  N    6.197791   5.766977   7.022360   6.706269   1.159627
    22  H    4.188586   3.919816   5.268494   4.128922   2.742620
                   21         22
    21  N    0.000000
    22  H    3.601939   0.000000
 Stoichiometry    C8H8N2O4
 Framework group  C1[X(C8H8N2O4)]
 Deg. of freedom    60
 Full point group                 C1      NOp   1
 Largest Abelian subgroup         C1      NOp   1
 Largest concise Abelian subgroup C1      NOp   1
                         Standard orientation:                         
 ---------------------------------------------------------------------
 Center     Atomic      Atomic             Coordinates (Angstroms)
 Number     Number       Type             X           Y           Z
 ---------------------------------------------------------------------
      1          6           0        1.715676    0.571961   -0.423712
      2          6           0       -1.485538    1.575737    1.643419
      3          6           0        2.051840   -1.430916    0.397921
      4          6           0       -2.548056    1.148049    0.960834
      5          7           0        1.121055   -0.530464    0.000302
      6          1           0       -1.499585    2.529944    2.173129
      7          1           0       -0.568604    0.983399    1.700738
      8          1           0        1.797031   -2.409993    0.785704
      9          1           0       -3.476524    1.720708    0.915880
     10          8           0        3.028621    0.453343   -0.327236
     11          6           0        3.336248   -0.852314    0.210751
     12          8           0        4.477387   -1.183023    0.386199
     13          6           0       -2.541346   -0.145566    0.241645
     14          8           0       -1.563896   -0.851569    0.054804
     15          8           0       -3.741251   -0.479231   -0.190707
     16          6           0       -3.864869   -1.704545   -0.907784
     17          1           0       -3.229619   -1.690566   -1.803825
     18          1           0       -4.919383   -1.784128   -1.189119
     19          1           0       -3.573540   -2.552128   -0.272714
     20          6           0        1.065925    1.730595   -0.904721
     21          7           0        0.507576    2.671388   -1.289284
     22          1           0        0.083647   -0.657877    0.018477
 ---------------------------------------------------------------------
 Rotational constants (GHZ):           1.1531486           0.3324636           0.2905962
 Basis read from rwf:  (5D, 7F)
 Pseudo-potential data read from rwf file.
 There are   250 symmetry adapted cartesian basis functions of A   symmetry.
 There are   236 symmetry adapted basis functions of A   symmetry.
   236 basis functions,   406 primitive gaussians,   250 cartesian basis functions
    51 alpha electrons       51 beta electrons
       nuclear repulsion energy       828.7814182725 Hartrees.
 NAtoms=   22 NActive=   22 NUniq=   22 SFac= 1.00D+00 NAtFMM=   60 NAOKFM=F Big=F
 Integral buffers will be    131072 words long.
 Raffenetti 2 integral format.
 Two-electron integral symmetry is turned on.
 Nuclear repulsion after empirical dispersion term =      828.7704552703 Hartrees.
 ------------------------------------------------------------------------------
 Polarizable Continuum Model (PCM)
 =================================
 Model                : PCM.
 Atomic radii         : UFF (Universal Force Field).
 Polarization charges : Total charges.
 Charge compensation  : None.
 Solution method      : On-the-fly selection.
 Cavity type          : Scaled VdW (van der Waals Surface) (Alpha=1.100).
 Cavity algorithm     : GePol (No added spheres)
                        Default sphere list used, NSphG=   22.
                        Lebedev-Laikov grids with approx.  5.0 points / Ang**2.
                        Smoothing algorithm: York/Karplus (Gamma=1.0000).
                        Polarization charges: spherical gaussians, with
                                              point-specific exponents (IZeta= 3).
                        Self-potential: point-specific (ISelfS= 7).
                        Self-field    : sphere-specific E.n sum rule (ISelfD= 2).
 1st derivatives      : Analytical E(r).r(x)/FMM algorithm (CHGder, D1EAlg=3).
                        Cavity 1st derivative terms included.
 Solvent              : Toluene, Eps=   2.374100 Eps(inf)=   2.238315
 ------------------------------------------------------------------------------
 One-electron integrals computed using PRISM.
   1 Symmetry operations used in ECPInt.
 ECPInt:  NShTT=    5886 NPrTT=   21942 LenC2=    5450 LenP2D=   14507.
 LDataN:  DoStor=T MaxTD1= 4 Len=   56
 NBasis=   236 RedAO= T EigKep=  3.32D-04  NBF=   236
 NBsUse=   236 1.00D-06 EigRej= -1.00D+00 NBFU=   236
 Initial guess from the checkpoint file:  "cyclic-1_1_opt_dft.chk"
 B after Tr=     0.000000   -0.000000   -0.000000
         Rot=    0.999999    0.001183    0.000489    0.000151 Ang=   0.15 deg.
 ExpMin= 1.22D-01 ExpMax= 2.27D+03 ExpMxC= 3.41D+02 IAcc=3 IRadAn=         5 AccDes= 0.00D+00
 Harris functional with IExCor= 4639 and IRadAn=       5 diagonalized for initial guess.
 HarFok:  IExCor= 4639 AccDes= 0.00D+00 IRadAn=         5 IDoV= 1 UseB2=F ITyADJ=14
 ICtDFT=  3500011 ScaDFX=  1.000000  1.000000  1.000000  1.000000
 FoFCou: FMM=F IPFlag=           0 FMFlag=      100000 FMFlg1=           0
         NFxFlg=           0 DoJE=T BraDBF=F KetDBF=T FulRan=T
         wScrn=  0.000000 ICntrl=       500 IOpCl=  0 I1Cent=   200000004 NGrid=           0
         NMat0=    1 NMatS0=      1 NMatT0=    0 NMatD0=    1 NMtDS0=    0 NMtDT0=    0
 Petite list used in FoFCou.
 Requested convergence on RMS density matrix=1.00D-08 within 128 cycles.
 Requested convergence on MAX density matrix=1.00D-06.
 Requested convergence on             energy=1.00D-06.
 No special actions if energy rises.
 Inv3:  Mode=1 IEnd=    12693747.
 Iteration    1 A*A^-1 deviation from unit magnitude is 3.55D-15 for   1851.
 Iteration    1 A*A^-1 deviation from orthogonality  is 4.16D-15 for   1459    389.
 Iteration    1 A^-1*A deviation from unit magnitude is 3.33D-15 for   1851.
 Iteration    1 A^-1*A deviation from orthogonality  is 2.22D-15 for   1902    280.
 Error on total polarization charges =  0.00754
 SCF Done:  E(RwB97XD) =  -719.241578500     A.U. after   10 cycles
            NFock= 10  Conv=0.85D-08     -V/T= 2.0089
   1 Symmetry operations used in ECPInt.
 ECPInt:  NShTT=    5886 NPrTT=   21942 LenC2=    5450 LenP2D=   14507.
 LDataN:  DoStor=T MaxTD1= 5 Len=  102
 D1PCM: PCM CHGder 1st derivatives, ID1Alg=3 FixD1E=F DoIter=F DoCFld=F I1PDM=0.
 Calling FoFJK, ICntrl=      2127 FMM=F ISym2X=0 I1Cent= 0 IOpClX= 0 NMat=1 NMatS=1 NMatT=0.
 ***** Axes restored to original set *****
 -------------------------------------------------------------------
 Center     Atomic                   Forces (Hartrees/Bohr)
 Number     Number              X              Y              Z
 -------------------------------------------------------------------
      1        6          -0.000040686    0.000024345   -0.000056088
      2        6           0.000211016   -0.000067520    0.000015956
      3        6          -0.000032327   -0.000058509   -0.000083008
      4        6          -0.000143712    0.000025881    0.000098921
      5        7           0.000280642   -0.000880484    0.000456909
      6        1          -0.000014535    0.000021355   -0.000015345
      7        1          -0.000025001    0.000013128   -0.000007340
      8        1           0.000051702    0.000009538    0.000067406
      9        1           0.000012921   -0.000028830   -0.000024328
     10        8           0.000047378    0.000030950    0.000005158
     11        6          -0.000018214   -0.000016942    0.000037729
     12        8          -0.000006756   -0.000001948   -0.000004446
     13        6          -0.000041155    0.000168948    0.000015186
     14        8           0.000002060   -0.000531810    0.000186953
     15        8           0.000059156   -0.000081217    0.000046685
     16        6          -0.000002549    0.000000230    0.000001524
     17        1           0.000002633   -0.000003993    0.000003874
     18        1          -0.000001405    0.000003975    0.000001443
     19        1           0.000008834    0.000001170    0.000000506
     20        6          -0.000020026   -0.000013212   -0.000036835
     21        7          -0.000005490    0.000000802    0.000007516
     22        1          -0.000324485    0.001384144   -0.000718377
 -------------------------------------------------------------------
 Cartesian Forces:  Max     0.001384144 RMS     0.000248507

 GradGradGradGradGradGradGradGradGradGradGradGradGradGradGradGradGradGrad
 Berny optimization.
 FormGI is forming the generalized inverse of G from B-inverse, IUseBI=4.
 Internal  Forces:  Max     0.000360912 RMS     0.000073351
 Search for a saddle point.
 Step number   2 out of a maximum of   50
 All quantities printed in internal units (Hartrees-Bohrs-Radians)
 Swapping is turned off.
 Update second derivatives using D2CorX and points    1    2
 ITU=  0  0
     Eigenvalues ---   -0.00026   0.00247   0.00313   0.00470   0.00947
     Eigenvalues ---    0.01501   0.01714   0.02198   0.02369   0.02600
     Eigenvalues ---    0.02713   0.03840   0.04091   0.05082   0.05218
     Eigenvalues ---    0.06066   0.06576   0.08187   0.08308   0.08409
     Eigenvalues ---    0.08561   0.08749   0.09381   0.10310   0.11480
     Eigenvalues ---    0.11642   0.12720   0.15101   0.15884   0.18477
     Eigenvalues ---    0.18771   0.19746   0.22373   0.23757   0.24643
     Eigenvalues ---    0.25950   0.26354   0.29849   0.31147   0.35648
     Eigenvalues ---    0.35991   0.36387   0.36467   0.36532   0.36859
     Eigenvalues ---    0.36989   0.37271   0.37338   0.37776   0.38059
     Eigenvalues ---    0.41735   0.45673   0.49559   0.50101   0.53773
     Eigenvalues ---    0.63921   0.83106   0.94606   1.03813   1.24120
 Eigenvectors required to have negative eigenvalues:
                          D31       D23       D24       A31       D21
   1                   -0.63113   0.54457   0.54130  -0.04967   0.04312
                          D19       D22       D27       D20       D28
   1                    0.03703   0.03421  -0.03397   0.02812  -0.02422
 RFO step:  Lambda0=2.298310056D-06 Lambda=-1.04450977D-06.
 Linear search not attempted -- option 19 set.
 Iteration  1 RMS(Cart)=  0.00559760 RMS(Int)=  0.00358279
 Iteration  2 RMS(Cart)=  0.00015331 RMS(Int)=  0.00000140
 Iteration  3 RMS(Cart)=  0.00001523 RMS(Int)=  0.00000005
 Iteration  4 RMS(Cart)=  0.00000000 RMS(Int)=  0.00000005
 Variable       Old X    -DE/DX   Delta X   Delta X   Delta X     New X
                                 (Linear)    (Quad)   (Total)
    R1        2.49894  -0.00001   0.00000   0.00008   0.00008   2.49902
    R2        2.49787   0.00002   0.00000  -0.00009  -0.00009   2.49779
    R3        2.66979   0.00001   0.00000  -0.00004  -0.00004   2.66975
    R4        2.51964   0.00008   0.00000  -0.00007  -0.00007   2.51957
    R5        2.06257  -0.00000   0.00000   0.00003   0.00003   2.06260
    R6        2.06570  -0.00001   0.00000   0.00001   0.00001   2.06571
    R7        2.56006  -0.00003   0.00000   0.00023   0.00023   2.56029
    R8        2.04745  -0.00000   0.00000  -0.00002  -0.00002   2.04743
    R9        2.68548  -0.00003   0.00000   0.00039   0.00039   2.68587
   R10        2.06319   0.00000   0.00000  -0.00001  -0.00001   2.06317
   R11        2.79700  -0.00002   0.00000   0.00013   0.00013   2.79713
   R12        1.97545   0.00003   0.00000  -0.00003  -0.00003   1.97542
   R13        2.73116  -0.00003   0.00000   0.00008   0.00008   2.73125
   R14        2.26952  -0.00000   0.00000  -0.00002  -0.00002   2.26950
   R15        2.30574  -0.00006   0.00000  -0.00003  -0.00003   2.30571
   R16        2.49131  -0.00000   0.00000   0.00003   0.00003   2.49134
   R17        3.13560   0.00010   0.00000  -0.00116  -0.00116   3.13444
   R18        2.69302   0.00000   0.00000  -0.00002  -0.00002   2.69300
   R19        2.07580   0.00000   0.00000   0.00000   0.00000   2.07580
   R20        2.06792   0.00000   0.00000   0.00000   0.00000   2.06792
   R21        2.07576   0.00000   0.00000  -0.00000  -0.00000   2.07576
   R22        2.19138   0.00000   0.00000  -0.00001  -0.00001   2.19137
    A1        1.92669   0.00001   0.00000   0.00011   0.00011   1.92680
    A2        2.19698  -0.00001   0.00000  -0.00026  -0.00026   2.19672
    A3        2.15948   0.00001   0.00000   0.00014   0.00014   2.15962
    A4        2.11604   0.00001   0.00000  -0.00003  -0.00003   2.11601
    A5        2.11937  -0.00001   0.00000   0.00005   0.00005   2.11943
    A6        2.04775  -0.00001   0.00000  -0.00002  -0.00002   2.04774
    A7        2.14611  -0.00000   0.00000   0.00013   0.00013   2.14624
    A8        1.88778   0.00002   0.00000  -0.00011  -0.00011   1.88766
    A9        2.24929  -0.00002   0.00000  -0.00002  -0.00002   2.24928
   A10        2.13000   0.00004   0.00000   0.00016   0.00016   2.13016
   A11        2.12409  -0.00016   0.00000   0.00008   0.00008   2.12416
   A12        2.02893   0.00012   0.00000  -0.00024  -0.00024   2.02869
   A13        1.91695  -0.00002   0.00000  -0.00002  -0.00002   1.91693
   A14        2.15726   0.00002   0.00000  -0.00072  -0.00072   2.15654
   A15        2.20896  -0.00000   0.00000   0.00074   0.00074   2.20970
   A16        1.89617  -0.00002   0.00000   0.00004   0.00004   1.89620
   A17        1.79720   0.00001   0.00000  -0.00001  -0.00001   1.79718
   A18        2.38536  -0.00001   0.00000   0.00003   0.00003   2.38538
   A19        2.10063  -0.00000   0.00000  -0.00001  -0.00001   2.10062
   A20        2.19414  -0.00019   0.00000   0.00019   0.00019   2.19433
   A21        1.95674   0.00008   0.00000  -0.00010  -0.00010   1.95664
   A22        2.13230   0.00012   0.00000  -0.00010  -0.00010   2.13220
   A23        2.39092  -0.00016   0.00000   0.00309   0.00309   2.39402
   A24        2.05058   0.00000   0.00000  -0.00002  -0.00002   2.05056
   A25        1.92767  -0.00000   0.00000   0.00002   0.00002   1.92769
   A26        1.84989   0.00000   0.00000  -0.00002  -0.00002   1.84987
   A27        1.92787   0.00000   0.00000   0.00003   0.00003   1.92790
   A28        1.92676   0.00000   0.00000  -0.00004  -0.00004   1.92672
   A29        1.90504  -0.00000   0.00000  -0.00002  -0.00002   1.90502
   A30        1.92634   0.00000   0.00000   0.00003   0.00003   1.92637
   A31        3.13473  -0.00020   0.00000  -0.00382  -0.00382   3.13090
   A32        3.11830  -0.00002   0.00000  -0.00010  -0.00010   3.11820
   A33        3.13242   0.00001   0.00000  -0.00016  -0.00016   3.13226
    D1       -0.00075   0.00002   0.00000  -0.00030  -0.00030  -0.00105
    D2        3.13633   0.00001   0.00000  -0.00014  -0.00014   3.13619
    D3       -3.13287   0.00003   0.00000   0.00062   0.00062  -3.13225
    D4        0.00421   0.00002   0.00000   0.00078   0.00078   0.00499
    D5        0.00106  -0.00001   0.00000   0.00026   0.00026   0.00132
    D6        3.13342  -0.00002   0.00000  -0.00064  -0.00064   3.13278
    D7       -0.01802   0.00006   0.00000   0.00001   0.00001  -0.01800
    D8       -3.13894  -0.00001   0.00000   0.00026   0.00026  -3.13868
    D9        3.11666   0.00001   0.00000   0.00088   0.00088   3.11753
   D10       -0.00427  -0.00006   0.00000   0.00113   0.00113  -0.00314
   D11        3.14025   0.00003   0.00000  -0.00049  -0.00049   3.13976
   D12        0.00334   0.00004   0.00000  -0.00065  -0.00065   0.00269
   D13        0.00011  -0.00002   0.00000   0.00022   0.00022   0.00033
   D14       -3.13680  -0.00001   0.00000   0.00006   0.00006  -3.13674
   D15        0.00049   0.00001   0.00000  -0.00006  -0.00006   0.00042
   D16        3.14114   0.00002   0.00000  -0.00005  -0.00005   3.14109
   D17       -3.13954  -0.00004   0.00000   0.00070   0.00070  -3.13884
   D18        0.00112  -0.00003   0.00000   0.00071   0.00071   0.00183
   D19       -0.16734   0.00003   0.00000   0.00330   0.00330  -0.16404
   D20        2.96937   0.00015   0.00000   0.00278   0.00278   2.97215
   D21        2.99378  -0.00004   0.00000   0.00353   0.00353   2.99732
   D22       -0.15269   0.00008   0.00000   0.00301   0.00301  -0.14968
   D23       -1.09901   0.00019   0.00000   0.05134   0.05134  -1.04766
   D24        2.03730   0.00018   0.00000   0.05153   0.05153   2.08883
   D25       -0.00093   0.00000   0.00000  -0.00011  -0.00011  -0.00104
   D26        3.14141  -0.00001   0.00000  -0.00012  -0.00012   3.14129
   D27       -0.38287   0.00017   0.00000   0.00139   0.00139  -0.38148
   D28        2.76407   0.00004   0.00000   0.00196   0.00196   2.76603
   D29        3.13536  -0.00007   0.00000   0.00084   0.00084   3.13621
   D30       -0.01091   0.00005   0.00000   0.00034   0.00034  -0.01057
   D31        0.51370   0.00036   0.00000  -0.05915  -0.05915   0.45456
   D32       -1.03645  -0.00001   0.00000  -0.00185  -0.00185  -1.03831
   D33       -3.12364  -0.00001   0.00000  -0.00181  -0.00181  -3.12545
   D34        1.07275  -0.00001   0.00000  -0.00184  -0.00184   1.07091
         Item               Value     Threshold  Converged?
 Maximum Force            0.000361     0.000450     YES
 RMS     Force            0.000073     0.000300     YES
 Maximum Displacement     0.022238     0.001800     NO 
 RMS     Displacement     0.005599     0.001200     NO 
 Predicted change in Energy= 6.370307D-07
 GradGradGradGradGradGradGradGradGradGradGradGradGradGradGradGradGradGrad

                          Input orientation:                          
 ---------------------------------------------------------------------
 Center     Atomic      Atomic             Coordinates (Angstroms)
 Number     Number       Type             X           Y           Z
 ---------------------------------------------------------------------
      1          6           0        3.075122   -0.046003    0.192506
      2          6           0       -0.783032   -0.793386   -0.122101
      3          6           0        3.035913    2.122412   -0.118227
      4          6           0       -1.313606   -0.659377    1.093717
      5          7           0        2.404520    1.065096    0.446600
      6          1           0       -1.122501   -1.574333   -0.804901
      7          1           0        0.004320   -0.123543   -0.477509
      8          1           0        2.667044    3.138368   -0.043101
      9          1           0       -2.115522   -1.308622    1.450656
     10          8           0        4.148375    0.219146   -0.531998
     11          6           0        4.197090    1.641814   -0.782148
     12          8           0        5.094000    2.114517   -1.425909
     13          6           0       -0.863690    0.398103    2.026577
     14          8           0        0.105279    1.122542    1.868470
     15          8           0       -1.644482    0.491288    3.084764
     16          6           0       -1.311278    1.471779    4.063772
     17          1           0       -0.305647    1.286952    4.465240
     18          1           0       -2.061327    1.375065    4.854694
     19          1           0       -1.344995    2.478583    3.625837
     20          6           0        2.712566   -1.345665    0.611250
     21          7           0        2.388644   -2.402392    0.962145
     22          1           0        1.518607    1.091456    1.000867
 ---------------------------------------------------------------------
                    Distance matrix (angstroms):
                    1          2          3          4          5
     1  C    0.000000
     2  C    3.942450   0.000000
     3  C    2.190916   4.804814   0.000000
     4  C    4.522094   1.333297   5.303346   0.000000
     5  N    1.322425   3.733345   1.354845   4.149341   0.000000
     6  H    4.577188   1.091482   5.606234   2.116226   4.579598
     7  H    3.144003   1.093128   3.789981   2.119622   2.833337
     8  H    3.219045   5.231439   1.083455   5.617899   2.146435
     9  H    5.488163   2.124750   6.385192   1.091785   5.203215
    10  O    1.321772   5.050942   2.243034   5.766107   2.171247
    11  C    2.248886   5.582784   1.421301   6.259562   2.248495
    12  O    3.370902   6.685456   2.438404   7.422965   3.441057
    13  C    4.367526   2.458245   4.772875   1.480175   3.690855
    14  O    3.604763   2.902112   3.679038   2.405975   2.703983
    15  O    5.561340   3.560403   5.901340   2.323312   4.866579
    16  C    6.044077   4.788690   6.067167   3.655552   5.201585
    17  H    5.609156   5.059585   5.733428   4.021361   4.852185
    18  H    7.080857   5.577160   7.160330   4.340852   6.282609
    19  H    6.139929   5.006858   5.773840   4.032296   5.115111
    20  C    1.412769   3.614143   3.558687   4.112642   2.435933
    21  N    2.572191   3.718066   4.696809   4.094150   3.505640
    22  H    2.090454   3.179816   2.148828   3.330986   1.045347
                    6          7          8          9         10
     6  H    0.000000
     7  H    1.865932   0.000000
     8  H    6.095124   4.233069   0.000000
     9  H    2.478755   3.100961   6.699251   0.000000
    10  O    5.574332   4.158557   3.309867   6.745472   0.000000
    11  C    6.216282   4.559453   2.264267   7.317073   1.445314
    12  O    7.255216   5.640321   2.974987   8.483496   2.299068
    13  C    3.460456   2.701111   4.925312   2.193554   5.630198
    14  O    3.990926   2.658296   3.778927   3.319200   4.788005
    15  O    4.434947   3.973205   5.948094   2.476261   6.834634
    16  C    5.746164   4.989898   5.955751   3.899463   7.245551
    17  H    6.052156   5.149402   5.708746   4.370397   6.778711
    18  H    6.450687   5.911439   7.032434   4.335042   8.301385
    19  H    6.008916   5.042733   5.476575   4.434867   7.250501
    20  C    4.094571   3.164424   4.531755   4.900654   2.411886
    21  N    4.016998   3.598716   5.638089   4.660738   3.493076
    22  H    4.164454   2.440263   2.568779   4.378307   3.166431
                   11         12         13         14         15
    11  C    0.000000
    12  O    1.200968   0.000000
    13  C    5.920072   7.096464   0.000000
    14  O    4.902890   6.060056   1.220128   0.000000
    15  O    7.099344   8.269715   1.318363   2.222503   0.000000
    16  C    7.338527   8.460337   2.345906   2.635897   1.425076
    17  H    6.923558   8.034096   2.654909   2.634219   2.081171
    18  H    8.426917   9.549422   3.222892   3.698038   2.021750
    19  H    7.130583   8.192273   2.667899   2.651506   2.081296
    20  C    3.615301   4.668415   4.222972   3.804024   5.336342
    21  N    4.761159   5.781368   4.421930   4.296549   5.398611
    22  H    3.264400   4.440646   2.684801   1.658672   3.835096
                   16         17         18         19         20
    16  C    0.000000
    17  H    1.098468   0.000000
    18  H    1.094296   1.800513   0.000000
[...]
    21  N    3.910323   3.519654   5.639380   4.635959   3.491697
    22  H    4.175233   2.451944   2.564931   4.389282   3.166937
                   11         12         13         14         15
    11  C    0.000000
    12  O    1.200969   0.000000
    13  C    5.933425   7.110747   0.000000
    14  O    4.904643   6.060655   1.220044   0.000000
    15  O    7.100369   8.269484   1.318480   2.222832   0.000000
    16  C    7.316627   8.432139   2.345887   2.636355   1.425023
    17  H    6.886800   7.987816   2.656863   2.638868   2.081074
    18  H    8.403880   9.519091   3.223012   3.698544   2.021788
    19  H    7.108175   8.163918   2.665896   2.647806   2.081402
    20  C    3.614847   4.667759   4.234488   3.821030   5.355652
    21  N    4.760426   5.780112   4.434350   4.318496   5.426718
    22  H    3.263053   4.439005   2.692171   1.663288   3.838203
                   16         17         18         19         20
    16  C    0.000000
    17  H    1.098514   0.000000
    18  H    1.094301   1.800411   0.000000
    19  H    1.098443   1.790216   1.800319   0.000000
    20  C    6.034325   5.600403   6.975830   6.360333   0.000000
    21  N    6.239556   5.826537   7.070708   6.734659   1.159653
    22  H    4.184351   3.913948   5.265049   4.120508   2.746855
                   21         22
    21  N    0.000000
    22  H    3.607867   0.000000
 Stoichiometry    C8H8N2O4
 Framework group  C1[X(C8H8N2O4)]
 Deg. of freedom    60
 Full point group                 C1      NOp   1
 Largest Abelian subgroup         C1      NOp   1
 Largest concise Abelian subgroup C1      NOp   1
                         Standard orientation:                         
 ---------------------------------------------------------------------
 Center     Atomic      Atomic             Coordinates (Angstroms)
 Number     Number       Type             X           Y           Z
 ---------------------------------------------------------------------
      1          6           0        1.721350    0.575604   -0.404728
      2          6           0       -1.526120    1.644631    1.568447
      3          6           0        2.054788   -1.432494    0.405141
      4          6           0       -2.579241    1.176124    0.898119
      5          7           0        1.124959   -0.525507    0.020618
      6          1           0       -1.553195    2.620363    2.056734
      7          1           0       -0.604206    1.064081    1.657279
      8          1           0        1.798514   -2.412780    0.788888
      9          1           0       -3.513236    1.736164    0.820878
     10          8           0        3.034577    0.449165   -0.321766
     11          6           0        3.340403   -0.860186    0.207466
     12          8           0        4.481350   -1.198002    0.370098
     13          6           0       -2.549826   -0.146010    0.233704
     14          8           0       -1.562873   -0.849155    0.092211
     15          8           0       -3.739248   -0.508392   -0.204869
     16          6           0       -3.839366   -1.762514   -0.874083
     17          1           0       -3.194595   -1.775391   -1.763373
     18          1           0       -4.889578   -1.867004   -1.163273
     19          1           0       -3.544188   -2.580634   -0.203168
     20          6           0        1.075115    1.739049   -0.878611
     21          7           0        0.520673    2.684389   -1.257719
     22          1           0        0.087981   -0.651115    0.047617
 ---------------------------------------------------------------------
 Rotational constants (GHZ):           1.1485788           0.3334520           0.2884334

 **********************************************************************

            Population analysis using the SCF Density.

 **********************************************************************

 Orbital symmetries:
       Occupied  (A) (A) (A) (A) (A) (A) (A) (A) (A) (A) (A) (A)
                 (A) (A) (A) (A) (A) (A) (A) (A) (A) (A) (A) (A)
                 (A) (A) (A) (A) (A) (A) (A) (A) (A) (A) (A) (A)
                 (A) (A) (A) (A) (A) (A) (A) (A) (A) (A) (A) (A)
                 (A) (A) (A)
       Virtual   (A) (A) (A) (A) (A) (A) (A) (A) (A) (A) (A) (A)
                 (A) (A) (A) (A) (A) (A) (A) (A) (A) (A) (A) (A)
                 (A) (A) (A) (A) (A) (A) (A) (A) (A) (A) (A) (A)
                 (A) (A) (A) (A) (A) (A) (A) (A) (A) (A) (A) (A)
                 (A) (A) (A) (A) (A) (A) (A) (A) (A) (A) (A) (A)
                 (A) (A) (A) (A) (A) (A) (A) (A) (A) (A) (A) (A)
                 (A) (A) (A) (A) (A) (A) (A) (A) (A) (A) (A) (A)
                 (A) (A) (A) (A) (A) (A) (A) (A) (A) (A) (A) (A)
                 (A) (A) (A) (A) (A) (A) (A) (A) (A) (A) (A) (A)
                 (A) (A) (A) (A) (A) (A) (A) (A) (A) (A) (A) (A)
                 (A) (A) (A) (A) (A) (A) (A) (A) (A) (A) (A) (A)
                 (A) (A) (A) (A) (A) (A) (A) (A) (A) (A) (A) (A)
                 (A) (A) (A) (A) (A) (A) (A) (A) (A) (A) (A) (A)
                 (A) (A) (A) (A) (A) (A) (A) (A) (A) (A) (A) (A)
                 (A) (A) (A) (A) (A) (A) (A) (A) (A) (A) (A) (A)
                 (A) (A) (A) (A) (A)
 The electronic state is 1-A.
 Alpha  occ. eigenvalues --  -19.34291 -19.33451 -19.28335 -19.22676 -14.55494
 Alpha  occ. eigenvalues --  -14.47754 -10.46507 -10.44070 -10.42391 -10.37352
 Alpha  occ. eigenvalues --  -10.37155 -10.34345 -10.34319 -10.33612  -1.25401
 Alpha  occ. eigenvalues --   -1.23993  -1.14303  -1.12443  -1.08638  -1.02561
 Alpha  occ. eigenvalues --   -0.91539  -0.89417  -0.85044  -0.78430  -0.74625
 Alpha  occ. eigenvalues --   -0.73543  -0.72087  -0.67165  -0.63841  -0.63042
 Alpha  occ. eigenvalues --   -0.61136  -0.60634  -0.59900  -0.57002  -0.55517
 Alpha  occ. eigenvalues --   -0.52831  -0.52154  -0.51506  -0.50434  -0.49518
 Alpha  occ. eigenvalues --   -0.48830  -0.47997  -0.46726  -0.46443  -0.46010
 Alpha  occ. eigenvalues --   -0.44051  -0.42171  -0.40796  -0.39035  -0.36661
 Alpha  occ. eigenvalues --   -0.28284
 Alpha virt. eigenvalues --   -0.00939  -0.00376   0.06010   0.12996   0.13912
 Alpha virt. eigenvalues --    0.14272   0.15694   0.15869   0.17755   0.18600
 Alpha virt. eigenvalues --    0.19017   0.19926   0.20789   0.21051   0.22035
 Alpha virt. eigenvalues --    0.23954   0.25593   0.26885   0.31280   0.33577
 Alpha virt. eigenvalues --    0.34618   0.35647   0.36581   0.37887   0.38293
 Alpha virt. eigenvalues --    0.43772   0.45938   0.48666   0.49898   0.50355
 Alpha virt. eigenvalues --    0.50979   0.52366   0.53587   0.54176   0.54798
 Alpha virt. eigenvalues --    0.55476   0.56736   0.58491   0.59396   0.60898
 Alpha virt. eigenvalues --    0.61911   0.63238   0.65260   0.66793   0.67911
 Alpha virt. eigenvalues --    0.68395   0.69851   0.70601   0.71236   0.72065
 Alpha virt. eigenvalues --    0.72282   0.72445   0.73397   0.74617   0.75113
 Alpha virt. eigenvalues --    0.75610   0.78430   0.80131   0.80656   0.81952
 Alpha virt. eigenvalues --    0.83319   0.85161   0.87260   0.90117   0.93966
 Alpha virt. eigenvalues --    0.94409   0.95079   0.97256   1.01624   1.04593
 Alpha virt. eigenvalues --    1.07390   1.09071   1.09908   1.10951   1.11563
 Alpha virt. eigenvalues --    1.13073   1.14937   1.16477   1.16896   1.19101
 Alpha virt. eigenvalues --    1.22913   1.26806   1.27447   1.29838   1.30434
 Alpha virt. eigenvalues --    1.31472   1.33007   1.34079   1.37961   1.40137
 Alpha virt. eigenvalues --    1.44026   1.44873   1.48938   1.51456   1.52219
 Alpha virt. eigenvalues --    1.57910   1.58686   1.61373   1.63055   1.63177
 Alpha virt. eigenvalues --    1.66311   1.67422   1.67950   1.70261   1.71593
 Alpha virt. eigenvalues --    1.72666   1.75293   1.75955   1.76654   1.78959
 Alpha virt. eigenvalues --    1.79600   1.81626   1.82737   1.83800   1.84778
 Alpha virt. eigenvalues --    1.89144   1.89622   1.91219   1.93086   1.95857
 Alpha virt. eigenvalues --    1.96875   1.98187   1.99957   2.03311   2.04647
 Alpha virt. eigenvalues --    2.06512   2.08420   2.10829   2.12427   2.12737
 Alpha virt. eigenvalues --    2.18158   2.20166   2.24537   2.29166   2.29344
 Alpha virt. eigenvalues --    2.31459   2.32518   2.32598   2.34092   2.37794
 Alpha virt. eigenvalues --    2.39747   2.41360   2.43804   2.48840   2.50226
 Alpha virt. eigenvalues --    2.52472   2.55727   2.63126   2.64665   2.69232
 Alpha virt. eigenvalues --    2.70937   2.72911   2.73509   2.75680   2.77146
 Alpha virt. eigenvalues --    2.80150   2.84020   2.86056   2.86787   2.87978
 Alpha virt. eigenvalues --    2.93655   2.94866   2.95538   2.97726   3.01708
 Alpha virt. eigenvalues --    3.02635   3.03323   3.06445   3.12264   3.13496
 Alpha virt. eigenvalues --    3.14629   3.19436   3.26911   3.28400   3.30168
 Alpha virt. eigenvalues --    3.36261   3.38256   3.45671   3.48834   3.53980
 Alpha virt. eigenvalues --    3.69910   3.73650   3.74929   3.78438   3.84808
          Condensed to atoms (all electrons):
               1          2          3          4          5          6
     1  C    5.221883  -0.000507  -0.110998   0.000393   0.557371   0.000055
     2  C   -0.000507   4.661458   0.000171   0.611870  -0.001974   0.390411
     3  C   -0.110998   0.000171   5.283572  -0.000018   0.371307  -0.000001
     4  C    0.000393   0.611870  -0.000018   5.013416  -0.000030  -0.010716
     5  N    0.557371  -0.001974   0.371307  -0.000030   6.060593   0.000021
     6  H    0.000055   0.390411  -0.000001  -0.010716   0.000021   0.564794
     7  H    0.001109   0.392720  -0.000509  -0.027745   0.005768  -0.034119
     8  H    0.005601   0.000010   0.414809  -0.000004  -0.027616   0.000000
     9  H   -0.000012  -0.024066   0.000000   0.392359   0.000002  -0.010186
    10  O    0.454240   0.000021  -0.124328   0.000001  -0.081785  -0.000000
    11  C   -0.083608  -0.000004   0.363073   0.000001  -0.029426   0.000000
    12  O    0.002361  -0.000000  -0.076781   0.000000   0.001486   0.000000
    13  C    0.000070  -0.035668   0.000074   0.318452   0.000491   0.007714
    14  O   -0.002639   0.009867  -0.000311  -0.095133  -0.033255   0.000238
    15  O   -0.000007   0.004548   0.000000  -0.098741  -0.000010  -0.000073
    16  C    0.000002  -0.000315  -0.000001   0.008713   0.000000   0.000004
    17  H    0.000005  -0.000040  -0.000002   0.000605  -0.000009  -0.000000
    18  H    0.000000  -0.000004  -0.000000   0.000010   0.000000  -0.000000
    19  H    0.000000   0.000089   0.000001   0.000140   0.000007  -0.000000
    20  C    0.026195   0.001286   0.014495   0.000095  -0.135594  -0.000044
    21  N   -0.099828   0.000672   0.000191   0.000044  -0.004458   0.000021
    22  H   -0.003159   0.000650  -0.015024  -0.000790   0.342122  -0.000003
               7          8          9         10         11         12
     1  C    0.001109   0.005601  -0.000012   0.454240  -0.083608   0.002361
     2  C    0.392720   0.000010  -0.024066   0.000021  -0.000004  -0.000000
     3  C   -0.000509   0.414809   0.000000  -0.124328   0.363073  -0.076781
     4  C   -0.027745  -0.000004   0.392359   0.000001   0.000001   0.000000
     5  N    0.005768  -0.027616   0.000002  -0.081785  -0.029426   0.001486
     6  H   -0.034119   0.000000  -0.010186  -0.000000   0.000000   0.000000
     7  H    0.607556  -0.000032   0.006703  -0.000213  -0.000074   0.000001
     8  H   -0.000032   0.561081  -0.000000   0.003700  -0.025448   0.001340
     9  H    0.006703  -0.000000   0.583425   0.000000  -0.000000   0.000000
    10  O   -0.000213   0.003700   0.000000   7.901622   0.261266  -0.064945
    11  C   -0.000074  -0.025448  -0.000000   0.261266   4.493882   0.764079
    12  O    0.000001   0.001340   0.000000  -0.064945   0.764079   7.633013
    13  C   -0.016703   0.000019  -0.030422  -0.000000  -0.000003   0.000000
    14  O    0.006247   0.000253   0.002782  -0.000004  -0.000021   0.000000
    15  O    0.000319   0.000000   0.006692  -0.000000  -0.000000   0.000000
    16  C   -0.000016  -0.000000  -0.000200  -0.000000   0.000000  -0.000000
    17  H   -0.000014  -0.000001   0.000022   0.000000  -0.000000   0.000000
    18  H   -0.000001   0.000000  -0.000132   0.000000   0.000000  -0.000000
    19  H    0.000002   0.000001   0.000035   0.000000   0.000000  -0.000000
    20  C    0.000965  -0.000370   0.000020  -0.091821  -0.006241  -0.000297
    21  N   -0.000899  -0.000001  -0.000015  -0.002463  -0.000119  -0.000000
    22  H    0.000295  -0.004627  -0.000029   0.001283   0.006486  -0.000031
              13         14         15         16         17         18
     1  C    0.000070  -0.002639  -0.000007   0.000002   0.000005   0.000000
     2  C   -0.035668   0.009867   0.004548  -0.000315  -0.000040  -0.000004
     3  C    0.000074  -0.000311   0.000000  -0.000001  -0.000002  -0.000000
     4  C    0.318452  -0.095133  -0.098741   0.008713   0.000605   0.000010
     5  N    0.000491  -0.033255  -0.000010   0.000000  -0.000009   0.000000
     6  H    0.007714   0.000238  -0.000073   0.000004  -0.000000  -0.000000
     7  H   -0.016703   0.006247   0.000319  -0.000016  -0.000014  -0.000001
     8  H    0.000019   0.000253   0.000000  -0.000000  -0.000001   0.000000
     9  H   -0.030422   0.002782   0.006692  -0.000200   0.000022  -0.000132
    10  O   -0.000000  -0.000004  -0.000000  -0.000000   0.000000   0.000000
    11  C   -0.000003  -0.000021  -0.000000   0.000000  -0.000000   0.000000
    12  O    0.000000   0.000000   0.000000  -0.000000   0.000000  -0.000000
    13  C    4.499739   0.592692   0.402136  -0.032704  -0.004931   0.004178
    14  O    0.592692   7.835343  -0.081571   0.001916   0.006631   0.000724
    15  O    0.402136  -0.081571   7.887624   0.255240  -0.025043  -0.020631
    16  C   -0.032704   0.001916   0.255240   4.431372   0.406817   0.401745
    17  H   -0.004931   0.006631  -0.025043   0.406817   0.597041  -0.020533
    18  H    0.004178   0.000724  -0.020631   0.401745  -0.020533   0.581828
    19  H   -0.004897   0.005901  -0.024247   0.407036  -0.026934  -0.020762
    20  C    0.000158   0.002196   0.000004  -0.000005   0.000000  -0.000000
    21  N   -0.000214  -0.000046   0.000001  -0.000000  -0.000001  -0.000000
    22  H   -0.007187   0.077842   0.000363   0.000045   0.000178   0.000002
              19         20         21         22
     1  C    0.000000   0.026195  -0.099828  -0.003159
     2  C    0.000089   0.001286   0.000672   0.000650
     3  C    0.000001   0.014495   0.000191  -0.015024
     4  C    0.000140   0.000095   0.000044  -0.000790
     5  N    0.000007  -0.135594  -0.004458   0.342122
     6  H   -0.000000  -0.000044   0.000021  -0.000003
     7  H    0.000002   0.000965  -0.000899   0.000295
     8  H    0.000001  -0.000370  -0.000001  -0.004627
     9  H    0.000035   0.000020  -0.000015  -0.000029
    10  O    0.000000  -0.091821  -0.002463   0.001283
    11  C    0.000000  -0.006241  -0.000119   0.006486
    12  O   -0.000000  -0.000297  -0.000000  -0.000031
    13  C   -0.004897   0.000158  -0.000214  -0.007187
    14  O    0.005901   0.002196  -0.000046   0.077842
    15  O   -0.024247   0.000004   0.000001   0.000363
    16  C    0.407036  -0.000005  -0.000000   0.000045
    17  H   -0.026934   0.000000  -0.000001   0.000178
    18  H   -0.020762  -0.000000  -0.000000   0.000002
    19  H    0.597658  -0.000001   0.000000  -0.000068
    20  C   -0.000001   5.412237   0.867776  -0.023574
    21  N    0.000000   0.867776   6.158003  -0.000417
    22  H   -0.000068  -0.023574  -0.000417   0.433660
 Mulliken charges:
               1
     1  C    0.031474
     2  C   -0.011194
     3  C   -0.119721
     4  C   -0.112921
     5  N   -0.025011
     6  H    0.091884
     7  H    0.058642
     8  H    0.071285
     9  H    0.073022
    10  O   -0.256574
    11  C    0.256157
    12  O   -0.260225
    13  C    0.307008
    14  O   -0.329651
    15  O   -0.306603
    16  C    0.120351
    17  H    0.066208
    18  H    0.073577
    19  H    0.066039
    20  C   -0.067482
    21  N    0.081754
    22  H    0.191982
 Sum of Mulliken charges =  -0.00000
 Mulliken charges with hydrogens summed into heavy atoms:
               1
     1  C    0.031474
     2  C    0.139332
     3  C   -0.048436
     4  C   -0.039899
     5  N    0.166971
    10  O   -0.256574
    11  C    0.256157
    12  O   -0.260225
    13  C    0.307008
    14  O   -0.329651
    15  O   -0.306603
    16  C    0.326175
    20  C   -0.067482
    21  N    0.081754
 Electronic spatial extent (au):  <R**2>=           3697.0974
 Charge=              0.0000 electrons
 Dipole moment (field-independent basis, Debye):
    X=             -9.2967    Y=             -1.8250    Z=              1.1745  Tot=              9.5467
 Quadrupole moment (field-independent basis, Debye-Ang):
   XX=            -99.5384   YY=            -81.3200   ZZ=            -77.7401
   XY=              9.2992   XZ=              0.1255   YZ=              8.9810
 Traceless Quadrupole moment (field-independent basis, Debye-Ang):
   XX=            -13.3389   YY=              4.8795   ZZ=              8.4594
   XY=              9.2992   XZ=              0.1255   YZ=              8.9810
 Octapole moment (field-independent basis, Debye-Ang**2):
  XXX=           -218.2985  YYY=            -43.8317  ZZZ=              0.0810  XYY=            -32.9037
  XXY=             12.6783  XXZ=            -24.5384  XZZ=             -7.9225  YZZ=             -7.2444
  YYZ=             20.4886  XYZ=             -9.1319
 Hexadecapole moment (field-independent basis, Debye-Ang**3):
 XXXX=          -3985.7739 YYYY=           -983.6418 ZZZZ=           -351.2186 XXXY=            291.9131
 XXXZ=             11.6572 YYYX=             19.7078 YYYZ=             63.0827 ZZZX=             16.5073
 ZZZY=             24.2513 XXYY=           -684.3912 XXZZ=           -604.9930 YYZZ=           -215.0936
 XXYZ=             59.8322 YYXZ=              6.1448 ZZXY=              7.0582
 N-N= 8.284141561600D+02 E-N=-3.335481891244D+03  KE= 7.129157735215D+02
 Unable to Open any file for archive entry.
 1\1\GINC-NODE-003\FTS\RwB97XD\Gen\C8H8N2O4\JP2658\24-Dec-2023\0\\# wb9
 7xd chkbasis guess=read geom=allchk scrf=(iefpcm,solvent=toluene) opt=
 (readfc,ts,noeigen,maxcycles=50,maxstep=10)\\cyclic_ts_133_reopt.out\\
 0,1\C,3.0649130884,-0.0426245456,0.1591053908\C,-0.7926523075,-0.84031
 2207,-0.0962078645\C,3.0537119256,2.1346189532,-0.0838180588\C,-1.3188
 687354,-0.6859282828,1.1191791579\N,2.4024098944,1.0675194096,0.437881
 3624\H,-1.126495506,-1.6386858054,-0.7613078126\H,-0.0153934803,-0.168
 2381325,-0.4690871013\H,2.6960583383,3.1520289546,0.0203847846\H,-2.11
 11891885,-1.3363995451,1.4947751292\O,4.1522207516,0.2335452925,-0.540
 1278714\C,4.2198825284,1.6624166084,-0.7444909608\O,5.1316366135,2.145
 3225117,-1.3591728011\C,-0.871287598,0.3943746378,2.0263556207\O,0.087
 7155221,1.1258377754,1.842554165\O,-1.639899801,0.4983202226,3.0925736
 661\C,-1.3046695386,1.4992836047,4.0498534129\H,-0.2943092446,1.328485
 2603,4.4457473608\H,-2.0468958582,1.4126258143,4.8492820902\H,-1.34883
 86297,2.4974673439,3.5935027527\C,2.6865780262,-1.3510040914,0.5343333
 023\N,2.3510175123,-2.415408464,0.8493539838\H,1.5097556869,1.09055468
 47,0.9805302912\\Version=ES64L-G16RevC.01\State=1-A\HF=-719.2415872\RM
 SD=5.041e-09\RMSF=2.000e-04\Dipole=-3.3210734,0.4461656,1.6966421\Quad
 rupole=-5.9402502,-1.1847735,7.1250237,-4.0419524,6.7904005,7.8581987\
 PG=C01 [X(C8H8N2O4)]\\@
 The archive entry for this job was punched.


 HAPPINESS IS NOT HAVING WHAT YOU WANT --
 HAPPINESS IS WANTING WHAT YOU HAVE!

              -- FROM MRS. SEVERN'S DESK
 Job cpu time:       0 days  1 hours 31 minutes 35.7 seconds.
 Elapsed time:       0 days  0 hours  7 minutes 50.4 seconds.
 File lengths (MBytes):  RWF=    111 Int=      0 D2E=      0 Chk=     11 Scr=      1
 Normal termination of Gaussian 16 at Sun Dec 24 00:57:35 2023.
