Unloading slurm/anatra/current
  ERROR: No such file or directory on
    '/cm/local/modulefiles/slurm/anatra/current'
environment: line 0: unalias: gv: not found
environment: line 0: unalias: sl: not found
 Entering Gaussian System, Link 0=g16
 Initial command:
 /apps/gaussian/g16/C.01/g16/l1.exe "/local/jobs/1153061/Gau-1096928.inp" -scrdir="/local/jobs/1153061/"
 Entering Link 1 = /apps/gaussian/g16/C.01/g16/l1.exe PID=   1096929.
  
 Copyright (c) 1988-2019, Gaussian, Inc.  All Rights Reserved.
  
 This is part of the Gaussian(R) 16 program.  It is based on
 the Gaussian(R) 09 system (copyright 2009, Gaussian, Inc.),
 the Gaussian(R) 03 system (copyright 2003, Gaussian, Inc.),
 the Gaussian(R) 98 system (copyright 1998, Gaussian, Inc.),
 the Gaussian(R) 94 system (copyright 1995, Gaussian, Inc.),
 the Gaussian 92(TM) system (copyright 1992, Gaussian, Inc.),
 the Gaussian 90(TM) system (copyright 1990, Gaussian, Inc.),
 the Gaussian 88(TM) system (copyright 1988, Gaussian, Inc.),
 the Gaussian 86(TM) system (copyright 1986, Carnegie Mellon
 University), and the Gaussian 82(TM) system (copyright 1983,
 Carnegie Mellon University). Gaussian is a federally registered
 trademark of Gaussian, Inc.
  
 This software contains proprietary and confidential information,
 including trade secrets, belonging to Gaussian, Inc.
  
 This software is provided under written license and may be
 used, copied, transmitted, or stored only in accord with that
 written license.
  
 The following legend is applicable only to US Government
 contracts under FAR:
  
                    RESTRICTED RIGHTS LEGEND
  
 Use, reproduction and disclosure by the US Government is
 subject to restrictions as set forth in subparagraphs (a)
 and (c) of the Commercial Computer Software - Restricted
 Rights clause in FAR 52.227-19.
  
 Gaussian, Inc.
 340 Quinnipiac St., Bldg. 40, Wallingford CT 06492
  
  
 ---------------------------------------------------------------
 Warning -- This program may not be used in any manner that
 competes with the business of Gaussian, Inc. or will provide
 assistance to any competitor of Gaussian, Inc.  The licensee
 of this program is prohibited from giving any competitor of
 Gaussian, Inc. access to this program.  By using this program,
 the user acknowledges that Gaussian, Inc. is engaged in the
 business of creating and licensing software in the field of
 computational chemistry and represents and warrants to the
 licensee that it is not a competitor of Gaussian, Inc. and that
 it will not use this program in any manner prohibited above.
 ---------------------------------------------------------------
  

 Cite this work as:
 Gaussian 16, Revision C.01,
 M. J. Frisch, G. W. Trucks, H. B. Schlegel, G. E. Scuseria, 
 M. A. Robb, J. R. Cheeseman, G. Scalmani, V. Barone, 
 G. A. Petersson, H. Nakatsuji, X. Li, M. Caricato, A. V. Marenich, 
 J. Bloino, B. G. Janesko, R. Gomperts, B. Mennucci, H. P. Hratchian, 
 J. V. Ortiz, A. F. Izmaylov, J. L. Sonnenberg, D. Williams-Young, 
 F. Ding, F. Lipparini, F. Egidi, J. Goings, B. Peng, A. Petrone, 
 T. Henderson, D. Ranasinghe, V. G. Zakrzewski, J. Gao, N. Rega, 
 G. Zheng, W. Liang, M. Hada, M. Ehara, K. Toyota, R. Fukuda, 
 J. Hasegawa, M. Ishida, T. Nakajima, Y. Honda, O. Kitao, H. Nakai, 
 T. Vreven, K. Throssell, J. A. Montgomery, Jr., J. E. Peralta, 
 F. Ogliaro, M. J. Bearpark, J. J. Heyd, E. N. Brothers, K. N. Kudin, 
 V. N. Staroverov, T. A. Keith, R. Kobayashi, J. Normand, 
 K. Raghavachari, A. P. Rendell, J. C. Burant, S. S. Iyengar, 
 J. Tomasi, M. Cossi, J. M. Millam, M. Klene, C. Adamo, R. Cammi, 
 J. W. Ochterski, R. L. Martin, K. Morokuma, O. Farkas, 
 J. B. Foresman, and D. J. Fox, Gaussian, Inc., Wallingford CT, 2019.
 
 ******************************************
 Gaussian 16:  ES64L-G16RevC.01  3-Jul-2019
                26-Dec-2023 
 ******************************************
 %chk=cyclic-1_1_hf.chk
 %nprocshared=12
 Will use up to   12 processors via shared memory.
 %mem=48GB
 ----------------------------------------------------------------------
 # wb97xd def2svp geom=allchk scrf=(iefpcm,solvent=toluene) opt=(readfc
 ,ts,noeigen,maxcycles=50,maxstep=10)
 ----------------------------------------------------------------------
 1/5=1,6=50,8=10,10=3,11=1,18=20,26=3,29=7,38=1/1,3;
 2/9=110,12=2,40=1/2;
 3/5=43,7=101,11=2,14=-4,25=1,30=1,70=2201,71=1,72=13,74=-58/1,2,3;
 4//1;
 5/5=2,38=5,53=13/2;
 6/7=2,8=2,9=2,10=2,28=1/1;
 7//1,2,3,16;
 1/5=1,6=50,8=10,11=1,18=20,26=3/3(2);
 2/9=110/2;
 99//99;
 2/9=110/2;
 3/5=43,7=101,11=2,14=-2,25=1,30=1,70=2205,71=1,72=13,74=-58/1,2,3;
 4/5=5,16=3,69=1/1;
 5/5=2,38=5,53=13/2;
 7//1,2,3,16;
 1/5=1,6=50,8=10,11=1,18=20,26=3/3(-5);
 2/9=110/2;
 6/7=2,8=2,9=2,10=2,19=2,28=1/1;
 99/9=1/99;
 Structure from the checkpoint file:  "cyclic-1_1_hf.chk"
 -----------------------
 cyclic_ts_133_reopt.out
 -----------------------
 Charge =  0 Multiplicity = 1
 Redundant internal coordinates found in file.  (old form).
 C,0,4.1574532872,-0.638468372,-0.8783041605
 C,0,-0.61154414,-0.7838984198,1.2359911894
 C,0,4.3451432095,1.4314911594,-0.1468437568
 C,0,-0.7863742707,0.3898730528,1.8444300047
 N,0,4.9493945456,0.4214273018,-0.8257402218
 H,0,0.3149081485,-0.9968356442,0.6981058817
 H,0,-1.391338832,-1.5504201451,1.2649779276
 H,0,4.8115661485,2.3951566641,0.0183522346
 H,0,-0.0105172932,1.1577184461,1.8166641998
 O,0,3.0259926613,-0.3792594387,-0.2529678382
 C,0,3.0676042062,0.9739721059,0.2623848661
 O,0,2.13400752,1.4206044644,0.8696916118
 C,0,-2.0426615522,0.6907522634,2.577069588
 O,0,-2.9880246098,-0.051308175,2.6978590414
 O,0,-2.0096726787,1.9196058116,3.1066651907
 C,0,-3.157238246,2.3254176111,3.833363674
 H,0,-2.9485957774,3.3365970376,4.1995795957
 H,0,-3.3462088878,1.6485421547,4.6791567238
 H,0,-4.0474152404,2.3340424358,3.1876401016
 C,0,4.4439254409,-1.8748684428,-1.4991942382
 N,0,4.6965770925,-2.881852106,-2.0138497742
 H,0,5.8784192679,0.4755102346,-1.2338318413
 Recover connectivity data from disk.

 GradGradGradGradGradGradGradGradGradGradGradGradGradGradGradGradGradGrad
 Berny optimization.
 Initialization pass.
 Force constant matrix read from checkpoint file:
 "cyclic-1_1_hf.chk"
                           ----------------------------
                           !    Initial Parameters    !
                           ! (Angstroms and Degrees)  !
 --------------------------                            --------------------------
 ! Name  Definition              Value          Derivative Info.                !
 --------------------------------------------------------------------------------
 ! R1    R(1,5)                  1.3241         D2E/DX2 =    0.4347             !
 ! R2    R(1,10)                 1.3185         D2E/DX2 =    0.357              !
 ! R3    R(1,20)                 1.4129         D2E/DX2 =    0.3934             !
 ! R4    R(2,4)                  1.3336         D2E/DX2 =    0.558              !
 ! R5    R(2,6)                  1.0922         D2E/DX2 =    0.3646             !
 ! R6    R(2,7)                  1.0938         D2E/DX2 =    0.3684             !
 ! R7    R(3,5)                  1.3588         D2E/DX2 =    0.3702             !
 ! R8    R(3,8)                  1.0833         D2E/DX2 =    0.3728             !
 ! R9    R(3,11)                 1.4174         D2E/DX2 =    0.3046             !
 ! R10   R(4,9)                  1.0919         D2E/DX2 =    0.3681             !
 ! R11   R(4,13)                 1.4851         D2E/DX2 =    0.3432             !
 ! R12   R(5,22)                 1.0161         D2E/DX2 =    0.5043             !
 ! R13   R(10,11)                1.4486         D2E/DX2 =    0.3892             !
 ! R14   R(11,12)                1.2            D2E/DX2 =    0.9374             !
 ! R15   R(13,14)                1.2079         D2E/DX2 =    0.9469             !
 ! R16   R(13,15)                1.3385         D2E/DX2 =    0.4615             !
 ! R17   R(14,22)                9.7134         D2E/DX2 =    0.0199             !
 ! R18   R(15,16)                1.4176         D2E/DX2 =    0.3537             !
 ! R19   R(16,17)                1.0955         D2E/DX2 =    0.3684             !
 ! R20   R(16,18)                1.0997         D2E/DX2 =    0.3637             !
 ! R21   R(16,19)                1.0997         D2E/DX2 =    0.3632             !
 ! R22   R(20,21)                1.1588         D2E/DX2 =    1.2893             !
 ! A1    A(5,1,10)             109.6974         D2E/DX2 =    0.1357             !
 ! A2    A(5,1,20)             126.6297         D2E/DX2 =    0.1103             !
 ! A3    A(10,1,20)            123.6729         D2E/DX2 =    0.0963             !
 ! A4    A(4,2,6)              120.4953         D2E/DX2 =    0.1641             !
 ! A5    A(4,2,7)              120.7458         D2E/DX2 =    0.1375             !
 ! A6    A(6,2,7)              118.759          D2E/DX2 =    0.0588             !
 ! A7    A(5,3,8)              123.0934         D2E/DX2 =    0.0745             !
 ! A8    A(5,3,11)             107.7666         D2E/DX2 =    0.1204             !
 ! A9    A(8,3,11)             129.14           D2E/DX2 =    0.0727             !
 ! A10   A(2,4,9)              120.9421         D2E/DX2 =    0.0916             !
 ! A11   A(2,4,13)             120.9497         D2E/DX2 =    0.3751             !
 ! A12   A(9,4,13)             118.1082         D2E/DX2 =    0.101              !
 ! A13   A(1,5,3)              110.4194         D2E/DX2 =    0.1233             !
 ! A14   A(1,5,22)             124.9924         D2E/DX2 =    0.1379             !
 ! A15   A(3,5,22)             124.5881         D2E/DX2 =    0.1292             !
 ! A16   A(1,10,11)            109.1305         D2E/DX2 =    0.14               !
 ! A17   A(3,11,10)            102.9861         D2E/DX2 =    0.1216             !
 ! A18   A(3,11,12)            136.6566         D2E/DX2 =    0.1422             !
 ! A19   A(10,11,12)           120.3573         D2E/DX2 =    0.1652             !
 ! A20   A(4,13,14)            125.9404         D2E/DX2 =    0.3322             !
 ! A21   A(4,13,15)            111.1209         D2E/DX2 =    0.2327             !
 ! A22   A(14,13,15)           122.9387         D2E/DX2 =    0.2835             !
 ! A23   A(13,14,22)            37.9801         D2E/DX2 =    0.0703             !
 ! A24   A(13,15,16)           116.4665         D2E/DX2 =    0.3531             !
 ! A25   A(15,16,17)           106.3448         D2E/DX2 =    0.1554             !
 ! A26   A(15,16,18)           110.9271         D2E/DX2 =    0.1608             !
 ! A27   A(15,16,19)           110.8851         D2E/DX2 =    0.161              !
 ! A28   A(17,16,18)           110.1065         D2E/DX2 =    0.0822             !
 ! A29   A(17,16,19)           110.072          D2E/DX2 =    0.0823             !
 ! A30   A(18,16,19)           108.502          D2E/DX2 =    0.0818             !
 ! A31   A(5,22,14)              0.2078         D2E/DX2 =    0.1988             !
 ! A32   L(1,20,21,19,-1)      180.9742         D2E/DX2 =    0.0971             !
 ! A33   L(1,20,21,19,-2)      179.8532         D2E/DX2 =    0.0741             !
 ! D1    D(10,1,5,3)             0.0266         D2E/DX2 =    0.0269             !
 ! D2    D(10,1,5,22)         -179.9968         D2E/DX2 =    0.0509             !
 ! D3    D(20,1,5,3)          -179.9809         D2E/DX2 =    0.0289             !
 ! D4    D(20,1,5,22)           -0.0042         D2E/DX2 =    0.0339             !
 ! D5    D(5,1,10,11)           -0.0048         D2E/DX2 =    0.0255             !
 ! D6    D(20,1,10,11)        -179.9976         D2E/DX2 =    0.0425             !
 ! D7    D(6,2,4,9)              0.0223         D2E/DX2 =    0.0284             !
 ! D8    D(6,2,4,13)           179.9184         D2E/DX2 =    0.0441             !
 ! D9    D(7,2,4,9)           -179.936          D2E/DX2 =    0.0341             !
 ! D10   D(7,2,4,13)            -0.04           D2E/DX2 =    0.0312             !
 ! D11   D(8,3,5,1)            179.9971         D2E/DX2 =    0.0331             !
 ! D12   D(8,3,5,22)             0.0203         D2E/DX2 =    0.0284             !
 ! D13   D(11,3,5,1)            -0.0375         D2E/DX2 =    0.0267             !
 ! D14   D(11,3,5,22)          179.9858         D2E/DX2 =    0.0556             !
 ! D15   D(5,3,11,10)            0.0321         D2E/DX2 =    0.0229             !
 ! D16   D(5,3,11,12)         -179.9525         D2E/DX2 =    0.0243             !
 ! D17   D(8,3,11,10)          179.9948         D2E/DX2 =    0.0311             !
 ! D18   D(8,3,11,12)            0.0102         D2E/DX2 =    0.0176             !
 ! D19   D(2,4,13,14)            0.1388         D2E/DX2 =    0.02               !
 ! D20   D(2,4,13,15)         -179.8246         D2E/DX2 =    0.0255             !
 ! D21   D(9,4,13,14)         -179.9623         D2E/DX2 =    0.0256             !
 ! D22   D(9,4,13,15)            0.0743         D2E/DX2 =    0.0224             !
 ! D23   D(1,5,22,14)          -93.5077         D2E/DX2 =    0.0184             !
 ! D24   D(3,5,22,14)           86.4657         D2E/DX2 =    0.0243             !
 ! D25   D(1,10,11,3)           -0.0171         D2E/DX2 =    0.0218             !
 ! D26   D(1,10,11,12)         179.9706         D2E/DX2 =    0.0236             !
 ! D27   D(4,13,14,22)           0.4887         D2E/DX2 =    0.0301             !
 ! D28   D(15,13,14,22)       -179.5521         D2E/DX2 =    0.022              !
 ! D29   D(4,13,15,16)         179.9751         D2E/DX2 =    0.0281             !
 ! D30   D(14,13,15,16)          0.0105         D2E/DX2 =    0.03               !
 ! D31   D(13,14,22,5)         -95.2958         D2E/DX2 =    0.0203             !
 ! D32   D(13,15,16,17)        179.2288         D2E/DX2 =    0.0398             !
 ! D33   D(13,15,16,18)         59.5134         D2E/DX2 =    0.0385             !
 ! D34   D(13,15,16,19)        -61.1207         D2E/DX2 =    0.0397             !
 --------------------------------------------------------------------------------
 Trust Radius=1.00D-01 FncErr=1.00D-07 GrdErr=1.00D-06 EigMax=2.50D+02 EigMin=1.00D-04
 Number of steps in this run=     50 maximum allowed number of steps=    132.
 Search for a saddle point of order  1.
 GradGradGradGradGradGradGradGradGradGradGradGradGradGradGradGradGradGrad

                          Input orientation:                          
 ---------------------------------------------------------------------
 Center     Atomic      Atomic             Coordinates (Angstroms)
 Number     Number       Type             X           Y           Z
 ---------------------------------------------------------------------
      1          6           0        4.157453   -0.638468   -0.878304
      2          6           0       -0.611544   -0.783898    1.235991
      3          6           0        4.345143    1.431491   -0.146844
      4          6           0       -0.786374    0.389873    1.844430
      5          7           0        4.949395    0.421427   -0.825740
      6          1           0        0.314908   -0.996836    0.698106
      7          1           0       -1.391339   -1.550420    1.264978
      8          1           0        4.811566    2.395157    0.018352
      9          1           0       -0.010517    1.157718    1.816664
     10          8           0        3.025993   -0.379259   -0.252968
     11          6           0        3.067604    0.973972    0.262385
     12          8           0        2.134008    1.420604    0.869692
     13          6           0       -2.042662    0.690752    2.577070
     14          8           0       -2.988025   -0.051308    2.697859
     15          8           0       -2.009673    1.919606    3.106665
     16          6           0       -3.157238    2.325418    3.833364
     17          1           0       -2.948596    3.336597    4.199580
     18          1           0       -3.346209    1.648542    4.679157
     19          1           0       -4.047415    2.334042    3.187640
     20          6           0        4.443925   -1.874868   -1.499194
     21          7           0        4.696577   -2.881852   -2.013850
     22          1           0        5.878419    0.475510   -1.233832
 ---------------------------------------------------------------------
                    Distance matrix (angstroms):
                    1          2          3          4          5
     1  C    0.000000
     2  C    5.218691   0.000000
     3  C    2.203405   5.602583   0.000000
     4  C    5.736915   1.333605   5.602018   0.000000
     5  N    1.324127   6.052073   1.358767   6.326915   0.000000
     6  H    4.168771   1.092235   4.780534   2.109465   5.080555
     7  H    6.017841   1.093835   6.617572   2.113406   6.961622
     8  H    3.230284   6.403059   1.083278   6.220342   2.151069
     9  H    5.278363   2.113833   4.785613   1.091930   5.667905
    10  O    1.318498   3.951254   2.242819   4.418686   2.160704
    11  C    2.255861   4.192153   1.417356   4.206803   2.242868
    12  O    3.374849   3.540065   2.433636   3.246714   3.435003
    13  C    7.221347   2.453810   6.983727   1.485108   7.780778
    14  O    8.011963   2.884685   8.004148   2.402134   8.697233
    15  O    7.775421   3.572551   7.155925   2.330189   8.132464
    16  C    9.191798   4.784846   8.539724   3.650094   9.542008
    17  H    9.595936   5.587768   8.701693   4.348001   9.804606
    18  H    9.613570   5.024992   9.082637   4.021527  10.031288
    19  H    9.627439   5.033458   9.075705   4.027207  10.035333
    20  C    1.412889   5.850575   3.573601   6.607943   2.445816
    21  N    2.571554   6.568031   4.713189   7.460112   3.519542
    22  H    2.080642   7.057320   2.108644   7.341832   1.016145
                    6          7          8          9         10
     6  H    0.000000
     7  H    1.881244   0.000000
     8  H    5.673413   7.456385   0.000000
     9  H    2.449322   3.089505   5.293172   0.000000
    10  O    2.938694   4.815454   3.310479   3.983224   0.000000
    11  C    3.413396   5.221104   2.262901   3.453169   1.448639
    12  O    3.030277   4.627235   2.973861   2.358994   2.301198
    13  C    3.454937   2.677435   7.512155   2.219433   5.902990
    14  O    3.975223   2.617230   8.602242   3.332236   6.706962
    15  O    4.439647   3.976837   7.502874   2.498239   6.475326
    16  C    5.737858   4.973643   8.835215   3.915667   7.889596
    17  H    6.456734   5.909304   8.865049   4.365559   8.326372
    18  H    6.020844   5.070650   9.424958   4.422851   8.309199
    19  H    6.026806   5.083347   9.409021   4.422653   8.320630
    20  C    4.758976   6.465000   4.546561   6.327208   2.408414
    21  N    5.486986   7.041743   5.655960   7.290247   3.486334
    22  H    6.070654   7.949706   2.528079   6.667121   3.135134
                   11         12         13         14         15
    11  C    0.000000
    12  O    1.199960   0.000000
    13  C    5.617187   4.570819   0.000000
    14  O    6.607070   5.634176   1.207872   0.000000
    15  O    5.896007   4.735308   1.338522   2.238034   0.000000
    16  C    7.302531   6.131828   2.343648   2.639475   1.417632
    17  H    7.568234   6.371188   3.233226   3.706025   2.020867
    18  H    7.816644   6.678080   2.652427   2.635019   2.081474
    19  H    7.812196   6.664626   2.663125   2.655577   2.081036
    20  C    3.621231   4.669848   8.079242   8.727801   8.789818
    21  N    4.764680   5.778642   8.902661   9.448031   9.708113
    22  H    3.223013   4.397571   8.792771   9.713370   9.118515
                   16         17         18         19         20
    16  C    0.000000
    17  H    1.095504   0.000000
    18  H    1.099653   1.799339   0.000000
    19  H    1.099749   1.799039   1.784999   0.000000
    20  C   10.190989  10.690405  10.548585  10.572805   0.000000
    21  N   11.089995  11.650085  11.402071  11.433217   1.158758
    22  H   10.523390  10.752859  11.019673  11.023872   2.766310
                   21         22
    21  N    0.000000
    22  H    3.643770   0.000000
 Stoichiometry    C8H8N2O4
 Framework group  C1[X(C8H8N2O4)]
 Deg. of freedom    60
 Full point group                 C1      NOp   1
 Largest Abelian subgroup         C1      NOp   1
 Largest concise Abelian subgroup C1      NOp   1
                         Standard orientation:                         
 ---------------------------------------------------------------------
 Center     Atomic      Atomic             Coordinates (Angstroms)
 Number     Number       Type             X           Y           Z
 ---------------------------------------------------------------------
      1          6           0        3.543385    0.127053   -0.010242
      2          6           0       -1.469436    1.576973    0.053715
      3          6           0        2.867286   -1.969902    0.015526
      4          6           0       -2.184272    0.451745    0.016613
      5          7           0        3.940092   -1.136226   -0.002344
      6          1           0       -0.377884    1.540073    0.065083
      7          1           0       -1.963262    2.552780    0.074002
      8          1           0        2.957181   -3.049406    0.024591
      9          1           0       -1.694659   -0.524071   -0.002674
     10          8           0        2.225980    0.179235    0.002347
     11          6           0        1.697583   -1.169482    0.020114
     12          8           0        0.512342   -1.356325    0.034142
     13          6           0       -3.668819    0.490101    0.002661
     14          8           0       -4.352478    1.485726    0.019848
     15          8           0       -4.182917   -0.745284   -0.031519
     16          6           0       -5.597236   -0.840835   -0.047364
     17          1           0       -5.833570   -1.909730   -0.089089
     18          1           0       -6.015844   -0.326602   -0.924614
     19          1           0       -6.030582   -0.393574    0.859068
     20          6           0        4.372542    1.270907   -0.029042
     21          7           0        5.068502    2.197254   -0.044479
     22          1           0        4.908850   -1.442844   -0.009042
 ---------------------------------------------------------------------
 Rotational constants (GHZ):           1.6178831           0.2000989           0.1782978
 Standard basis: def2SVP (5D, 7F)
 There are   250 symmetry adapted cartesian basis functions of A   symmetry.
 There are   236 symmetry adapted basis functions of A   symmetry.
   236 basis functions,   406 primitive gaussians,   250 cartesian basis functions
    51 alpha electrons       51 beta electrons
       nuclear repulsion energy       771.6224387264 Hartrees.
 NAtoms=   22 NActive=   22 NUniq=   22 SFac= 1.00D+00 NAtFMM=   60 NAOKFM=F Big=F
 Integral buffers will be    131072 words long.
 Raffenetti 2 integral format.
 Two-electron integral symmetry is turned on.
 Nuclear repulsion after empirical dispersion term =      771.6139731068 Hartrees.
 ------------------------------------------------------------------------------
 Polarizable Continuum Model (PCM)
 =================================
 Model                : PCM.
 Atomic radii         : UFF (Universal Force Field).
 Polarization charges : Total charges.
 Charge compensation  : None.
 Solution method      : On-the-fly selection.
 Cavity type          : Scaled VdW (van der Waals Surface) (Alpha=1.100).
 Cavity algorithm     : GePol (No added spheres)
                        Default sphere list used, NSphG=   22.
                        Lebedev-Laikov grids with approx.  5.0 points / Ang**2.
                        Smoothing algorithm: York/Karplus (Gamma=1.0000).
                        Polarization charges: spherical gaussians, with
                                              point-specific exponents (IZeta= 3).
                        Self-potential: point-specific (ISelfS= 7).
                        Self-field    : sphere-specific E.n sum rule (ISelfD= 2).
 1st derivatives      : Analytical E(r).r(x)/FMM algorithm (CHGder, D1EAlg=3).
                        Cavity 1st derivative terms included.
 Solvent              : Toluene, Eps=   2.374100 Eps(inf)=   2.238315
 ------------------------------------------------------------------------------
 One-electron integrals computed using PRISM.
   1 Symmetry operations used in ECPInt.
 ECPInt:  NShTT=    5886 NPrTT=   21942 LenC2=    4989 LenP2D=   13060.
 LDataN:  DoStor=T MaxTD1= 4 Len=   56
 NBasis=   236 RedAO= T EigKep=  3.36D-04  NBF=   236
 NBsUse=   236 1.00D-06 EigRej= -1.00D+00 NBFU=   236
 ExpMin= 1.22D-01 ExpMax= 2.27D+03 ExpMxC= 3.41D+02 IAcc=3 IRadAn=         5 AccDes= 0.00D+00
 Harris functional with IExCor= 4639 and IRadAn=       5 diagonalized for initial guess.
 HarFok:  IExCor= 4639 AccDes= 0.00D+00 IRadAn=         5 IDoV= 1 UseB2=F ITyADJ=14
 ICtDFT=  3500011 ScaDFX=  1.000000  1.000000  1.000000  1.000000
 FoFCou: FMM=F IPFlag=           0 FMFlag=      100000 FMFlg1=           0
         NFxFlg=           0 DoJE=T BraDBF=F KetDBF=T FulRan=T
         wScrn=  0.000000 ICntrl=       500 IOpCl=  0 I1Cent=   200000004 NGrid=           0
         NMat0=    1 NMatS0=      1 NMatT0=    0 NMatD0=    1 NMtDS0=    0 NMtDT0=    0
 Petite list used in FoFCou.
 Requested convergence on RMS density matrix=1.00D-08 within 128 cycles.
 Requested convergence on MAX density matrix=1.00D-06.
 Requested convergence on             energy=1.00D-06.
 No special actions if energy rises.
 Inv3:  Mode=1 IEnd=    13790208.
 Iteration    1 A*A^-1 deviation from unit magnitude is 3.11D-15 for   1275.
 Iteration    1 A*A^-1 deviation from orthogonality  is 2.28D-15 for    817    542.
 Iteration    1 A^-1*A deviation from unit magnitude is 2.89D-15 for    745.
 Iteration    1 A^-1*A deviation from orthogonality  is 2.89D-15 for   1970    277.
 Error on total polarization charges =  0.00525
 SCF Done:  E(RwB97XD) =  -719.225602640     A.U. after   15 cycles
            NFock= 15  Conv=0.94D-08     -V/T= 2.0089

 **********************************************************************

            Population analysis using the SCF Density.

 **********************************************************************

 Orbital symmetries:
       Occupied  (A) (A) (A) (A) (A) (A) (A) (A) (A) (A) (A) (A)
                 (A) (A) (A) (A) (A) (A) (A) (A) (A) (A) (A) (A)
                 (A) (A) (A) (A) (A) (A) (A) (A) (A) (A) (A) (A)
                 (A) (A) (A) (A) (A) (A) (A) (A) (A) (A) (A) (A)
                 (A) (A) (A)
       Virtual   (A) (A) (A) (A) (A) (A) (A) (A) (A) (A) (A) (A)
                 (A) (A) (A) (A) (A) (A) (A) (A) (A) (A) (A) (A)
                 (A) (A) (A) (A) (A) (A) (A) (A) (A) (A) (A) (A)
                 (A) (A) (A) (A) (A) (A) (A) (A) (A) (A) (A) (A)
                 (A) (A) (A) (A) (A) (A) (A) (A) (A) (A) (A) (A)
                 (A) (A) (A) (A) (A) (A) (A) (A) (A) (A) (A) (A)
                 (A) (A) (A) (A) (A) (A) (A) (A) (A) (A) (A) (A)
                 (A) (A) (A) (A) (A) (A) (A) (A) (A) (A) (A) (A)
                 (A) (A) (A) (A) (A) (A) (A) (A) (A) (A) (A) (A)
                 (A) (A) (A) (A) (A) (A) (A) (A) (A) (A) (A) (A)
                 (A) (A) (A) (A) (A) (A) (A) (A) (A) (A) (A) (A)
                 (A) (A) (A) (A) (A) (A) (A) (A) (A) (A) (A) (A)
                 (A) (A) (A) (A) (A) (A) (A) (A) (A) (A) (A) (A)
                 (A) (A) (A) (A) (A) (A) (A) (A) (A) (A) (A) (A)
                 (A) (A) (A) (A) (A) (A) (A) (A) (A) (A) (A) (A)
                 (A) (A) (A) (A) (A)
 The electronic state is 1-A.
 Alpha  occ. eigenvalues --  -19.36207 -19.29655 -19.24414 -19.23551 -14.58760
 Alpha  occ. eigenvalues --  -14.49136 -10.46328 -10.44089 -10.41896 -10.38599
 Alpha  occ. eigenvalues --  -10.36173 -10.34715 -10.30674 -10.29908  -1.27415
 Alpha  occ. eigenvalues --   -1.19707  -1.14312  -1.11044  -1.10039  -1.03892
 Alpha  occ. eigenvalues --   -0.91350  -0.87804  -0.81653  -0.80859  -0.76911
 Alpha  occ. eigenvalues --   -0.73966  -0.70089  -0.64642  -0.63597  -0.63086
 Alpha  occ. eigenvalues --   -0.59502  -0.58805  -0.57140  -0.56168  -0.54060
 Alpha  occ. eigenvalues --   -0.52607  -0.51974  -0.50916  -0.49191  -0.49130
 Alpha  occ. eigenvalues --   -0.48588  -0.48214  -0.47276  -0.45601  -0.45418
 Alpha  occ. eigenvalues --   -0.43309  -0.38434  -0.38325  -0.35752  -0.35640
 Alpha  occ. eigenvalues --   -0.29970
 Alpha virt. eigenvalues --   -0.02728   0.03355   0.04615   0.10720   0.12594
 Alpha virt. eigenvalues --    0.16708   0.16792   0.17127   0.18055   0.18776
 Alpha virt. eigenvalues --    0.19880   0.20481   0.21709   0.21955   0.22190
 Alpha virt. eigenvalues --    0.23075   0.25076   0.26643   0.31096   0.33725
 Alpha virt. eigenvalues --    0.33992   0.35504   0.38460   0.39881   0.40412
 Alpha virt. eigenvalues --    0.41164   0.47195   0.49205   0.50459   0.51225
 Alpha virt. eigenvalues --    0.52214   0.53085   0.53277   0.54784   0.55283
 Alpha virt. eigenvalues --    0.56285   0.56670   0.58318   0.59871   0.61516
 Alpha virt. eigenvalues --    0.61826   0.63610   0.64804   0.65766   0.67471
 Alpha virt. eigenvalues --    0.69072   0.69177   0.71829   0.72396   0.73053
 Alpha virt. eigenvalues --    0.73376   0.73883   0.74394   0.74651   0.75560
 Alpha virt. eigenvalues --    0.75956   0.78479   0.78963   0.81936   0.82830
 Alpha virt. eigenvalues --    0.84089   0.84500   0.85078   0.90706   0.92698
 Alpha virt. eigenvalues --    0.92928   0.94299   0.97063   1.01261   1.05098
 Alpha virt. eigenvalues --    1.07180   1.07644   1.08496   1.09669   1.12065
 Alpha virt. eigenvalues --    1.14542   1.15615   1.16568   1.17400   1.19918
 Alpha virt. eigenvalues --    1.23961   1.27316   1.28335   1.28569   1.28738
 Alpha virt. eigenvalues --    1.32745   1.33497   1.35661   1.36867   1.39545
 Alpha virt. eigenvalues --    1.41011   1.43342   1.48323   1.50478   1.51907
 Alpha virt. eigenvalues --    1.55897   1.60227   1.61891   1.63495   1.65598
 Alpha virt. eigenvalues --    1.65769   1.67137   1.68123   1.68549   1.69442
 Alpha virt. eigenvalues --    1.73371   1.74468   1.75734   1.78650   1.80086
 Alpha virt. eigenvalues --    1.81381   1.81436   1.81856   1.85655   1.86396
 Alpha virt. eigenvalues --    1.88109   1.88236   1.91670   1.92493   1.97711
 Alpha virt. eigenvalues --    1.97837   2.00810   2.01262   2.02247   2.03376
 Alpha virt. eigenvalues --    2.03562   2.08740   2.09576   2.11792   2.14512
 Alpha virt. eigenvalues --    2.15708   2.23251   2.23696   2.27085   2.27791
 Alpha virt. eigenvalues --    2.29797   2.31215   2.32505   2.33740   2.38404
 Alpha virt. eigenvalues --    2.39975   2.44699   2.45117   2.46064   2.53833
 Alpha virt. eigenvalues --    2.54188   2.60669   2.60786   2.62160   2.68451
 Alpha virt. eigenvalues --    2.71968   2.73038   2.74903   2.78308   2.79086
 Alpha virt. eigenvalues --    2.81685   2.82226   2.84915   2.88457   2.89212
 Alpha virt. eigenvalues --    2.92094   2.95952   2.97266   2.99074   2.99913
 Alpha virt. eigenvalues --    3.01849   3.06911   3.07633   3.10560   3.13246
 Alpha virt. eigenvalues --    3.16388   3.21020   3.26012   3.28637   3.31799
 Alpha virt. eigenvalues --    3.37089   3.38401   3.44251   3.47601   3.53834
 Alpha virt. eigenvalues --    3.70570   3.75106   3.75777   3.77813   3.82674
          Condensed to atoms (all electrons):
               1          2          3          4          5          6
     1  C    5.147462  -0.000038  -0.108207   0.000001   0.548039   0.000250
     2  C   -0.000038   4.693062  -0.000068   0.622649  -0.000002   0.375820
     3  C   -0.108207  -0.000068   5.223085   0.000002   0.368100   0.000463
     4  C    0.000001   0.622649   0.000002   5.136490   0.000000  -0.014507
     5  N    0.548039  -0.000002   0.368100   0.000000   5.998477   0.000033
     6  H    0.000250   0.375820   0.000463  -0.014507   0.000033   0.598568
     7  H    0.000000   0.394235  -0.000000  -0.024444   0.000000  -0.037257
     8  H    0.005034   0.000001   0.414892  -0.000001  -0.026029  -0.000005
     9  H   -0.000002  -0.026573   0.000100   0.376501  -0.000003  -0.011270
    10  O    0.458726  -0.001427  -0.116544  -0.000073  -0.082048   0.006655
    11  C   -0.081745  -0.000410   0.399469   0.000253  -0.031372   0.001952
    12  O    0.002777  -0.002439  -0.066910  -0.006639   0.001174   0.004299
    13  C   -0.000000  -0.038602   0.000002   0.250026  -0.000000   0.009688
    14  O    0.000000   0.009567  -0.000000  -0.105350   0.000000   0.000200
    15  O   -0.000000   0.005689  -0.000000  -0.110268   0.000000  -0.000083
    16  C   -0.000000  -0.000400   0.000000   0.010180  -0.000000   0.000006
    17  H    0.000000  -0.000003   0.000000   0.000086  -0.000000  -0.000000
    18  H   -0.000000   0.000023  -0.000000   0.000475   0.000000  -0.000000
    19  H   -0.000000   0.000027  -0.000000   0.000403   0.000000  -0.000000
    20  C    0.057341   0.000036   0.010664  -0.000001  -0.130209  -0.000225
    21  N   -0.092292   0.000000   0.000140  -0.000000  -0.004329  -0.000007
    22  H   -0.003258   0.000000  -0.016328  -0.000000   0.372598  -0.000000
               7          8          9         10         11         12
     1  C    0.000000   0.005034  -0.000002   0.458726  -0.081745   0.002777
     2  C    0.394235   0.000001  -0.026573  -0.001427  -0.000410  -0.002439
     3  C   -0.000000   0.414892   0.000100  -0.116544   0.399469  -0.066910
     4  C   -0.024444  -0.000001   0.376501  -0.000073   0.000253  -0.006639
     5  N    0.000000  -0.026029  -0.000003  -0.082048  -0.031372   0.001174
     6  H   -0.037257  -0.000005  -0.011270   0.006655   0.001952   0.004299
     7  H    0.599134  -0.000000   0.006543   0.000002  -0.000003   0.000020
     8  H   -0.000000   0.544907   0.000003   0.003455  -0.022591   0.001060
     9  H    0.006543   0.000003   0.581772   0.000114  -0.001371   0.025751
    10  O    0.000002   0.003455   0.000114   7.887802   0.253306  -0.064015
    11  C   -0.000003  -0.022591  -0.001371   0.253306   4.486670   0.723599
    12  O    0.000020   0.001060   0.025751  -0.064015   0.723599   7.624308
    13  C   -0.017522  -0.000000  -0.028680  -0.000001   0.000021   0.000489
    14  O    0.012476  -0.000000   0.002927   0.000000  -0.000000  -0.000000
    15  O    0.000592  -0.000000   0.009111  -0.000000  -0.000001  -0.000003
    16  C   -0.000041  -0.000000  -0.000310  -0.000000   0.000000   0.000000
    17  H   -0.000001  -0.000000  -0.000158  -0.000000   0.000000   0.000000
    18  H   -0.000009   0.000000   0.000048   0.000000  -0.000000  -0.000000
    19  H   -0.000008   0.000000   0.000047   0.000000  -0.000000  -0.000000
    20  C   -0.000000  -0.000320   0.000005  -0.092354  -0.004560  -0.000239
    21  N   -0.000000  -0.000000   0.000000  -0.002593  -0.000106  -0.000000
    22  H   -0.000000  -0.004500   0.000000   0.002342   0.007412  -0.000040
              13         14         15         16         17         18
     1  C   -0.000000   0.000000  -0.000000  -0.000000   0.000000  -0.000000
     2  C   -0.038602   0.009567   0.005689  -0.000400  -0.000003   0.000023
     3  C    0.000002  -0.000000  -0.000000   0.000000   0.000000  -0.000000
     4  C    0.250026  -0.105350  -0.110268   0.010180   0.000086   0.000475
     5  N   -0.000000   0.000000   0.000000  -0.000000  -0.000000   0.000000
     6  H    0.009688   0.000200  -0.000083   0.000006  -0.000000  -0.000000
     7  H   -0.017522   0.012476   0.000592  -0.000041  -0.000001  -0.000009
     8  H   -0.000000  -0.000000  -0.000000  -0.000000  -0.000000   0.000000
     9  H   -0.028680   0.002927   0.009111  -0.000310  -0.000158   0.000048
    10  O   -0.000001   0.000000  -0.000000  -0.000000  -0.000000   0.000000
    11  C    0.000021  -0.000000  -0.000001   0.000000   0.000000  -0.000000
    12  O    0.000489  -0.000000  -0.000003   0.000000   0.000000  -0.000000
    13  C    4.538228   0.704013   0.370113  -0.032558   0.004811  -0.004750
    14  O    0.704013   7.721050  -0.087387   0.003453   0.000816   0.007231
    15  O    0.370113  -0.087387   7.957895   0.263230  -0.022570  -0.026838
    16  C   -0.032558   0.003453   0.263230   4.419108   0.399659   0.405116
    17  H    0.004811   0.000816  -0.022570   0.399659   0.606125  -0.023067
    18  H   -0.004750   0.007231  -0.026838   0.405116  -0.023067   0.619771
    19  H   -0.004520   0.006608  -0.026830   0.405522  -0.023199  -0.030365
    20  C    0.000000  -0.000000  -0.000000   0.000000   0.000000  -0.000000
    21  N   -0.000000  -0.000000  -0.000000  -0.000000   0.000000  -0.000000
    22  H    0.000000  -0.000000  -0.000000   0.000000   0.000000  -0.000000
              19         20         21         22
     1  C   -0.000000   0.057341  -0.092292  -0.003258
     2  C    0.000027   0.000036   0.000000   0.000000
     3  C   -0.000000   0.010664   0.000140  -0.016328
     4  C    0.000403  -0.000001  -0.000000  -0.000000
     5  N    0.000000  -0.130209  -0.004329   0.372598
     6  H   -0.000000  -0.000225  -0.000007  -0.000000
     7  H   -0.000008  -0.000000  -0.000000  -0.000000
     8  H    0.000000  -0.000320  -0.000000  -0.004500
     9  H    0.000047   0.000005   0.000000   0.000000
    10  O    0.000000  -0.092354  -0.002593   0.002342
    11  C   -0.000000  -0.004560  -0.000106   0.007412
    12  O   -0.000000  -0.000239  -0.000000  -0.000040
    13  C   -0.004520   0.000000  -0.000000   0.000000
    14  O    0.006608  -0.000000  -0.000000  -0.000000
    15  O   -0.026830  -0.000000  -0.000000  -0.000000
    16  C    0.405522   0.000000  -0.000000   0.000000
    17  H   -0.023199   0.000000   0.000000   0.000000
    18  H   -0.030365  -0.000000  -0.000000  -0.000000
    19  H    0.619965  -0.000000  -0.000000  -0.000000
    20  C   -0.000000   5.363976   0.877020  -0.024644
    21  N   -0.000000   0.877020   6.128948  -0.000391
    22  H   -0.000000  -0.024644  -0.000391   0.464044
 Mulliken charges:
               1
     1  C    0.065911
     2  C   -0.031146
     3  C   -0.108861
     4  C   -0.135785
     5  N   -0.014428
     6  H    0.065423
     7  H    0.066281
     8  H    0.084094
     9  H    0.065447
    10  O   -0.253347
    11  C    0.269475
    12  O   -0.243193
    13  C    0.249242
    14  O   -0.275605
    15  O   -0.332650
    16  C    0.127035
    17  H    0.057503
    18  H    0.052365
    19  H    0.052351
    20  C   -0.056490
    21  N    0.093610
    22  H    0.202765
 Sum of Mulliken charges =  -0.00000
 Mulliken charges with hydrogens summed into heavy atoms:
               1
     1  C    0.065911
     2  C    0.100558
     3  C   -0.024767
     4  C   -0.070337
     5  N    0.188337
    10  O   -0.253347
    11  C    0.269475
    12  O   -0.243193
    13  C    0.249242
    14  O   -0.275605
    15  O   -0.332650
    16  C    0.289255
    20  C   -0.056490
    21  N    0.093610
 Electronic spatial extent (au):  <R**2>=           5535.1274
 Charge=             -0.0000 electrons
 Dipole moment (field-independent basis, Debye):
    X=              6.5750    Y=             -5.4853    Z=             -0.0461  Tot=              8.5628
 Quadrupole moment (field-independent basis, Debye-Ang):
   XX=            -57.5170   YY=            -82.8043   ZZ=            -79.6140
   XY=            -14.2175   XZ=              0.4776   YZ=              0.2054
 Traceless Quadrupole moment (field-independent basis, Debye-Ang):
   XX=             15.7948   YY=             -9.4925   ZZ=             -6.3022
   XY=            -14.2175   XZ=              0.4776   YZ=              0.2054
 Octapole moment (field-independent basis, Debye-Ang**2):
  XXX=             18.0672  YYY=            -41.9696  ZZZ=             -0.1572  XYY=              1.3594
  XXY=           -193.5496  XXZ=             -0.8616  XZZ=             -9.4777  YZZ=             -0.7391
  YYZ=              0.3803  XYZ=              0.7430
 Hexadecapole moment (field-independent basis, Debye-Ang**3):
 XXXX=          -5561.5173 YYYY=           -828.4076 ZZZZ=            -80.1957 XXXY=           -342.3998
 XXXZ=             16.1888 YYYX=           -143.4842 YYYZ=              1.3291 ZZZX=              0.6132
 ZZZY=             -0.0468 XXYY=          -1317.5460 XXZZ=          -1041.6457 YYZZ=           -162.2990
 XXYZ=              3.6722 YYXZ=              3.0311 ZZXY=             -1.0437
 N-N= 7.716139731068D+02 E-N=-3.222915476045D+03  KE= 7.128921520515D+02
   1 Symmetry operations used in ECPInt.
 ECPInt:  NShTT=    5886 NPrTT=   21942 LenC2=    4989 LenP2D=   13060.
 LDataN:  DoStor=T MaxTD1= 5 Len=  102
 D1PCM: PCM CHGder 1st derivatives, ID1Alg=3 FixD1E=F DoIter=F DoCFld=F I1PDM=0.
 Calling FoFJK, ICntrl=      2127 FMM=F ISym2X=0 I1Cent= 0 IOpClX= 0 NMat=1 NMatS=1 NMatT=0.
 ***** Axes restored to original set *****
 -------------------------------------------------------------------
 Center     Atomic                   Forces (Hartrees/Bohr)
 Number     Number              X              Y              Z
 -------------------------------------------------------------------
      1        6          -0.000186745    0.000028760    0.000018079
      2        6          -0.000193030    0.000162521    0.000142158
      3        6          -0.000145774   -0.000121509   -0.000027105
      4        6          -0.000045944   -0.000109639   -0.000066687
      5        7           0.000169108    0.001769953    0.000677634
      6        1           0.000052095   -0.000016618    0.000012326
      7        1          -0.000012715   -0.000005925   -0.000002942
      8        1          -0.000002397    0.000002368   -0.000006404
      9        1           0.000017022    0.000024291   -0.000021520
     10        8           0.000116407    0.000028565   -0.000047177
     11        6           0.000017165   -0.000020616    0.000007872
     12        8          -0.000020578   -0.000039456    0.000026245
     13        6          -0.000070464    0.000092710   -0.000008601
     14        8           0.000369380   -0.000209563   -0.000223787
     15        8           0.000043108   -0.000065150    0.000069486
     16        6          -0.000002214    0.000027188   -0.000016100
     17        1          -0.000007227    0.000010607   -0.000014574
     18        1           0.000022736    0.000017330    0.000000935
     19        1          -0.000003637   -0.000030074   -0.000001007
     20        6           0.000010578   -0.000004764    0.000019538
     21        7           0.000000161   -0.000004516   -0.000005645
     22        1          -0.000127034   -0.001536463   -0.000532725
 -------------------------------------------------------------------
 Cartesian Forces:  Max     0.001769953 RMS     0.000319561

 GradGradGradGradGradGradGradGradGradGradGradGradGradGradGradGradGradGrad
 Berny optimization.
 FormGI is forming the generalized inverse of G from B-inverse, IUseBI=4.
 Internal  Forces:  Max     0.000306898 RMS     0.000085740
 Search for a saddle point.
 Step number   1 out of a maximum of   50
 All quantities printed in internal units (Hartrees-Bohrs-Radians)
 Swapping is turned off.
 Second derivative matrix not updated -- first step.
 ITU=  0
     Eigenvalues ---   -0.00064   0.00119   0.00240   0.00597   0.00795
     Eigenvalues ---    0.01188   0.01276   0.01541   0.02269   0.02747
     Eigenvalues ---    0.03170   0.03806   0.03885   0.04624   0.05680
     Eigenvalues ---    0.06632   0.06955   0.07256   0.09629   0.09743
     Eigenvalues ---    0.10024   0.10256   0.10588   0.10895   0.13534
     Eigenvalues ---    0.14014   0.14572   0.15877   0.17584   0.20984
     Eigenvalues ---    0.21323   0.21448   0.24939   0.26371   0.27257
     Eigenvalues ---    0.28402   0.28767   0.30063   0.32203   0.35403
     Eigenvalues ---    0.36106   0.36364   0.36532   0.36727   0.36951
     Eigenvalues ---    0.37065   0.37364   0.37819   0.39631   0.39946
     Eigenvalues ---    0.43568   0.46317   0.48099   0.51004   0.52730
     Eigenvalues ---    0.56597   0.82312   0.96399   1.02241   1.28979
 Eigenvectors required to have negative eigenvalues:
                          D31       D23       D24       D27       D28
   1                    0.66107   0.40244   0.39972   0.26577   0.26046
                          A31       R17       D21       D22       D19
   1                    0.25859  -0.18397  -0.02466  -0.01988  -0.01771
 RFO step:  Lambda0=1.291300036D-08 Lambda=-7.59230125D-06.
 Linear search not attempted -- option 19 set.
 Iteration  1 RMS(Cart)=  0.00999400 RMS(Int)=  0.00022567
 Iteration  2 RMS(Cart)=  0.00003536 RMS(Int)=  0.00000016
 Iteration  3 RMS(Cart)=  0.00000003 RMS(Int)=  0.00000016
 Variable       Old X    -DE/DX   Delta X   Delta X   Delta X     New X
                                 (Linear)    (Quad)   (Total)
    R1        2.50224   0.00005   0.00000   0.00001   0.00001   2.50224
    R2        2.49160  -0.00014   0.00000  -0.00029  -0.00029   2.49131
    R3        2.66997  -0.00000   0.00000  -0.00002  -0.00002   2.66995
    R4        2.52015  -0.00021   0.00000  -0.00032  -0.00032   2.51983
    R5        2.06402   0.00004   0.00000   0.00012   0.00012   2.06414
    R6        2.06705   0.00001   0.00000   0.00002   0.00002   2.06707
    R7        2.56770   0.00001   0.00000  -0.00021  -0.00021   2.56749
    R8        2.04710   0.00000   0.00000  -0.00000  -0.00000   2.04710
    R9        2.67841   0.00001   0.00000  -0.00049  -0.00049   2.67792
   R10        2.06345   0.00003   0.00000  -0.00013  -0.00013   2.06332
   R11        2.80645  -0.00019   0.00000  -0.00056  -0.00056   2.80589
   R12        1.92024   0.00021   0.00000  -0.00008  -0.00008   1.92016
   R13        2.73753  -0.00008   0.00000   0.00008   0.00008   2.73761
   R14        2.26760   0.00002   0.00000  -0.00007  -0.00007   2.26753
   R15        2.28255  -0.00012   0.00000  -0.00021  -0.00021   2.28234
   R16        2.52944  -0.00004   0.00000  -0.00005  -0.00005   2.52939
   R17       18.35561  -0.00020   0.00000  -0.03080  -0.03080  18.32481
   R18        2.67894  -0.00002   0.00000  -0.00003  -0.00003   2.67890
   R19        2.07020  -0.00000   0.00000   0.00000   0.00000   2.07020
   R20        2.07804  -0.00001   0.00000   0.00006   0.00006   2.07810
   R21        2.07822   0.00001   0.00000  -0.00004  -0.00004   2.07818
   R22        2.18973   0.00000   0.00000  -0.00000  -0.00000   2.18973
    A1        1.91458   0.00007   0.00000  -0.00011  -0.00011   1.91447
    A2        2.21010  -0.00005   0.00000  -0.00003  -0.00003   2.21008
    A3        2.15850  -0.00002   0.00000   0.00014   0.00014   2.15864
    A4        2.10304  -0.00001   0.00000  -0.00036  -0.00036   2.10268
    A5        2.10741   0.00000   0.00000   0.00027   0.00027   2.10768
    A6        2.07273   0.00000   0.00000   0.00009   0.00009   2.07282
    A7        2.14839  -0.00001   0.00000  -0.00009  -0.00009   2.14830
    A8        1.88088   0.00003   0.00000   0.00009   0.00009   1.88097
    A9        2.25392  -0.00002   0.00000  -0.00001  -0.00001   2.25391
   A10        2.11084   0.00011   0.00000  -0.00023  -0.00023   2.11061
   A11        2.11097  -0.00023   0.00000   0.00005   0.00005   2.11102
   A12        2.06138   0.00012   0.00000   0.00018   0.00018   2.06156
   A13        1.92718  -0.00011   0.00000   0.00002   0.00002   1.92720
   A14        2.18153  -0.00020   0.00000   0.00045   0.00045   2.18198
   A15        2.17447   0.00031   0.00000  -0.00046  -0.00046   2.17401
   A16        1.90469   0.00003   0.00000   0.00004   0.00004   1.90473
   A17        1.79745  -0.00002   0.00000  -0.00004  -0.00004   1.79741
   A18        2.38511   0.00005   0.00000  -0.00012  -0.00012   2.38499
   A19        2.10063  -0.00004   0.00000   0.00016   0.00016   2.10079
   A20        2.19808  -0.00025   0.00000  -0.00080  -0.00080   2.19727
   A21        1.93943   0.00012   0.00000   0.00051   0.00051   1.93994
   A22        2.14568   0.00014   0.00000   0.00029   0.00029   2.14597
   A23        0.66288   0.00008   0.00000   0.00458   0.00458   0.66746
   A24        2.03272  -0.00003   0.00000   0.00003   0.00003   2.03275
   A25        1.85607   0.00001   0.00000   0.00005   0.00005   1.85612
   A26        1.93604  -0.00002   0.00000  -0.00018  -0.00018   1.93587
   A27        1.93531  -0.00001   0.00000   0.00021   0.00021   1.93552
   A28        1.92172   0.00000   0.00000  -0.00027  -0.00027   1.92146
   A29        1.92112   0.00001   0.00000   0.00017   0.00017   1.92129
   A30        1.89372   0.00000   0.00000   0.00001   0.00001   1.89373
   A31        0.00363  -0.00027   0.00000   0.00231   0.00231   0.00593
   A32        3.15860   0.00001   0.00000   0.00002   0.00002   3.15861
   A33        3.13903  -0.00001   0.00000   0.00009   0.00009   3.13912
    D1        0.00046  -0.00002   0.00000  -0.00037  -0.00037   0.00009
    D2       -3.14154  -0.00003   0.00000   0.00145   0.00145  -3.14008
    D3       -3.14126   0.00001   0.00000  -0.00068  -0.00068   3.14124
    D4       -0.00007   0.00000   0.00000   0.00114   0.00114   0.00107
    D5       -0.00008   0.00001   0.00000   0.00031   0.00031   0.00023
    D6       -3.14155  -0.00002   0.00000   0.00061   0.00061  -3.14094
    D7        0.00039   0.00003   0.00000  -0.00003  -0.00003   0.00035
    D8        3.14017   0.00004   0.00000   0.00055   0.00055   3.14072
    D9       -3.14048  -0.00000   0.00000   0.00018   0.00018  -3.14030
   D10       -0.00070   0.00001   0.00000   0.00076   0.00076   0.00007
   D11        3.14154   0.00000   0.00000  -0.00025  -0.00025   3.14129
   D12        0.00035   0.00001   0.00000  -0.00207  -0.00207  -0.00171
   D13       -0.00065   0.00003   0.00000   0.00028   0.00028  -0.00038
   D14        3.14134   0.00004   0.00000  -0.00154  -0.00154   3.13980
   D15        0.00056  -0.00003   0.00000  -0.00008  -0.00008   0.00048
   D16       -3.14076  -0.00003   0.00000   0.00022   0.00022  -3.14055
   D17        3.14150   0.00000   0.00000   0.00049   0.00049  -3.14120
   D18        0.00018   0.00000   0.00000   0.00079   0.00079   0.00096
   D19        0.00242  -0.00002   0.00000  -0.00020  -0.00020   0.00222
   D20       -3.13853  -0.00001   0.00000  -0.00034  -0.00034  -3.13887
   D21       -3.14094  -0.00001   0.00000   0.00037   0.00037  -3.14057
   D22        0.00130  -0.00000   0.00000   0.00024   0.00024   0.00153
   D23       -1.63202  -0.00003   0.00000  -0.00550  -0.00550  -1.63752
   D24        1.50911  -0.00003   0.00000  -0.00342  -0.00342   1.50569
   D25       -0.00030   0.00001   0.00000  -0.00014  -0.00014  -0.00044
   D26        3.14108   0.00002   0.00000  -0.00037  -0.00037   3.14071
   D27        0.00853   0.00002   0.00000   0.00321   0.00321   0.01173
   D28       -3.13378   0.00001   0.00000   0.00335   0.00335  -3.13042
   D29        3.14116  -0.00000   0.00000   0.00026   0.00026   3.14141
   D30        0.00018   0.00000   0.00000   0.00013   0.00013   0.00031
   D31       -1.66323   0.00007   0.00000   0.00007   0.00007  -1.66315
   D32        3.12813   0.00004   0.00000   0.00911   0.00911   3.13724
   D33        1.03870   0.00004   0.00000   0.00950   0.00950   1.04820
   D34       -1.06676   0.00006   0.00000   0.00946   0.00946  -1.05729
         Item               Value     Threshold  Converged?
 Maximum Force            0.000307     0.000450     YES
 RMS     Force            0.000086     0.000300     YES
 Maximum Displacement     0.031803     0.001800     NO 
 RMS     Displacement     0.009986     0.001200     NO 
 Predicted change in Energy=-3.789785D-06
 GradGradGradGradGradGradGradGradGradGradGradGradGradGradGradGradGradGrad

                          Input orientation:                          
 ---------------------------------------------------------------------
 Center     Atomic      Atomic             Coordinates (Angstroms)
 Number     Number       Type             X           Y           Z
 ---------------------------------------------------------------------
      1          6           0        4.150878   -0.641085   -0.876909
      2          6           0       -0.599691   -0.774659    1.233208
      3          6           0        4.340326    1.427939   -0.143479
      4          6           0       -0.779376    0.397746    1.842492
      5          7           0        4.944930    0.417043   -0.820604
      6          1           0        0.328046   -0.983184    0.695684
      7          1           0       -1.376431   -1.544345    1.260801
      8          1           0        4.808393    2.390365    0.024272
      9          1           0       -0.006386    1.168415    1.815684
     10          8           0        3.017929   -0.379835   -0.255450
     11          6           0        3.060563    0.973062    0.260812
     12          8           0        2.125751    1.421590    0.864771
     13          6           0       -2.036643    0.692848    2.575201
     14          8           0       -2.978483   -0.053705    2.694708
     15          8           0       -2.009161    1.921143    3.106345
     16          6           0       -3.158519    2.320934    3.833513
     17          1           0       -2.958234    3.336202    4.193024
     18          1           0       -3.338782    1.647676    4.684121
     19          1           0       -4.050547    2.317213    3.190341
     20          6           0        4.436780   -1.877438   -1.498131
     21          7           0        4.689002   -2.884410   -2.013015
     22          1           0        5.875057    0.470284   -1.226187
 ---------------------------------------------------------------------
                    Distance matrix (angstroms):
                    1          2          3          4          5
     1  C    0.000000
     2  C    5.199841   0.000000
     3  C    2.203331   5.581261   0.000000
     4  C    5.725532   1.333434   5.587194   0.000000
     5  N    1.324131   6.031676   1.358659   6.313488   0.000000
     6  H    4.147785   1.092297   4.755638   2.109152   5.057210
     7  H    5.994734   1.093848   6.594527   2.113423   6.938220
     8  H    3.230192   6.381715   1.083278   6.204807   2.150920
     9  H    5.273252   2.113486   4.774890   1.091862   5.659514
    10  O    1.318346   3.931814   2.242614   4.407439   2.160496
    11  C    2.255807   4.171037   1.417094   4.192593   2.242644
    12  O    3.374791   3.519558   2.433301   3.231711   3.434730
    13  C    7.209845   2.453437   6.971178   1.484812   7.768521
    14  O    7.995577   2.883471   7.988463   2.401281   8.680984
    15  O    7.770290   3.572477   7.149867   2.330329   8.126661
    16  C    9.186344   4.784546   8.535021   3.650087   9.536849
    17  H    9.594921   5.587702   8.701477   4.348212   9.803976
    18  H    9.605128   5.027835   9.073187   4.023399  10.021793
    19  H    9.620676   5.029756   9.072591   4.025122  10.030798
    20  C    1.412878   5.834585   3.573500   6.598827   2.445793
    21  N    2.571541   6.554334   4.713078   7.452560   3.519509
    22  H    2.080848   7.037107   2.108260   7.328270   1.016105
                    6          7          8          9         10
     6  H    0.000000
     7  H    1.881357   0.000000
     8  H    5.648463   7.433909   0.000000
     9  H    2.448596   3.089334   5.280570   0.000000
    10  O    2.916188   4.792234   3.310289   3.979089   0.000000
    11  C    3.388608   5.198484   2.262655   3.444121   1.448680
    12  O    3.007202   4.606396   2.973472   2.348263   2.301305
    13  C    3.454479   2.677417   7.499555   2.219228   5.891683
    14  O    3.974062   2.616231   8.587209   3.331610   6.690796
    15  O    4.439475   3.976931   7.496559   2.498702   6.470533
    16  C    5.737535   4.973436   8.831016   3.916105   7.884306
    17  H    6.456634   5.909295   8.865303   4.366286   8.325405
    18  H    6.022847   5.075326   9.415002   4.422950   8.301683
    19  H    6.023953   5.077957   9.407984   4.423195   8.313296
    20  C    4.742806   6.443298   4.546421   6.324580   2.408362
    21  N    5.474454   7.021619   5.655798   7.289101   3.486319
    22  H    6.047767   7.926407   2.527475   6.658208   3.134998
                   11         12         13         14         15
    11  C    0.000000
    12  O    1.199924   0.000000
    13  C    5.605036   4.558745   0.000000
    14  O    6.591524   5.619463   1.207761   0.000000
    15  O    5.890503   4.729874   1.338498   2.238092   0.000000
    16  C    7.297804   6.127459   2.343633   2.639735   1.417614
    17  H    7.567869   6.371021   3.233265   3.706323   2.020892
    18  H    7.808482   6.670808   2.656088   2.642400   2.081359
    19  H    7.807481   6.660110   2.659467   2.648816   2.081149
    20  C    3.621216   4.669876   8.068681   8.711603   8.785247
    21  N    4.764682   5.778715   8.892852   9.432172   9.703946
    22  H    3.222627   4.397088   8.780381   9.697070   9.112449
                   16         17         18         19         20
    16  C    0.000000
    17  H    1.095505   0.000000
    18  H    1.099685   1.799199   0.000000
    19  H    1.099726   1.799127   1.785012   0.000000
    20  C   10.185348  10.689131  10.540685  10.564638   0.000000
    21  N   11.084272  11.648655  11.394593  11.424163   1.158756
    22  H   10.518126  10.752133  11.009670  11.019731   2.766657
                   21         22
    21  N    0.000000
    22  H    3.644146   0.000000
 Stoichiometry    C8H8N2O4
 Framework group  C1[X(C8H8N2O4)]
 Deg. of freedom    60
 Full point group                 C1      NOp   1
 Largest Abelian subgroup         C1      NOp   1
 Largest concise Abelian subgroup C1      NOp   1
                         Standard orientation:                         
 ---------------------------------------------------------------------
 Center     Atomic      Atomic             Coordinates (Angstroms)
 Number     Number       Type             X           Y           Z
 ---------------------------------------------------------------------
      1          6           0        3.538661    0.126986   -0.010944
      2          6           0       -1.457773    1.565660    0.053893
      3          6           0        2.861014   -1.969423    0.012152
      4          6           0       -2.178013    0.444061    0.017594
      5          7           0        3.934341   -1.136640   -0.007750
      6          1           0       -0.366375    1.523022    0.065859
      7          1           0       -1.946558    2.544038    0.073114
      8          1           0        2.950151   -3.049012    0.017927
      9          1           0       -1.692991   -0.533993   -0.000450
     10          8           0        2.221498    0.180066    0.006383
     11          6           0        1.692130   -1.168330    0.022881
     12          8           0        0.506873   -1.354492    0.041019
     13          6           0       -3.662046    0.489623    0.002126
     14          8           0       -4.339997    1.489039    0.017523
     15          8           0       -4.182746   -0.742987   -0.031330
     16          6           0       -5.597520   -0.830970   -0.048800
     17          1           0       -5.839689   -1.898916   -0.080072
     18          1           0       -6.011547   -0.323704   -0.932299
     19          1           0       -6.030243   -0.371875    0.851965
     20          6           0        4.368730    1.270172   -0.029284
     21          7           0        5.065443    2.195957   -0.044406
     22          1           0        4.902653   -1.444451   -0.017421
 ---------------------------------------------------------------------
 Rotational constants (GHZ):           1.6228847           0.2005863           0.1787470
 Standard basis: def2SVP (5D, 7F)
 There are   250 symmetry adapted cartesian basis functions of A   symmetry.
 There are   236 symmetry adapted basis functions of A   symmetry.
   236 basis functions,   406 primitive gaussians,   250 cartesian basis functions
    51 alpha electrons       51 beta electrons
       nuclear repulsion energy       772.1482291952 Hartrees.
 NAtoms=   22 NActive=   22 NUniq=   22 SFac= 1.00D+00 NAtFMM=   60 NAOKFM=F Big=F
 Integral buffers will be    131072 words long.
 Raffenetti 2 integral format.
 Two-electron integral symmetry is turned on.
 Nuclear repulsion after empirical dispersion term =      772.1397353154 Hartrees.
 ------------------------------------------------------------------------------
 Polarizable Continuum Model (PCM)
 =================================
 Model                : PCM.
 Atomic radii         : UFF (Universal Force Field).
 Polarization charges : Total charges.
 Charge compensation  : None.
 Solution method      : On-the-fly selection.
 Cavity type          : Scaled VdW (van der Waals Surface) (Alpha=1.100).
 Cavity algorithm     : GePol (No added spheres)
                        Default sphere list used, NSphG=   22.
                        Lebedev-Laikov grids with approx.  5.0 points / Ang**2.
                        Smoothing algorithm: York/Karplus (Gamma=1.0000).
                        Polarization charges: spherical gaussians, with
                                              point-specific exponents (IZeta= 3).
                        Self-potential: point-specific (ISelfS= 7).
                        Self-field    : sphere-specific E.n sum rule (ISelfD= 2).
 1st derivatives      : Analytical E(r).r(x)/FMM algorithm (CHGder, D1EAlg=3).
                        Cavity 1st derivative terms included.
 Solvent              : Toluene, Eps=   2.374100 Eps(inf)=   2.238315
 ------------------------------------------------------------------------------
 One-electron integrals computed using PRISM.
   1 Symmetry operations used in ECPInt.
 ECPInt:  NShTT=    5886 NPrTT=   21942 LenC2=    4992 LenP2D=   13074.
 LDataN:  DoStor=T MaxTD1= 4 Len=   56
 NBasis=   236 RedAO= T EigKep=  3.36D-04  NBF=   236
 NBsUse=   236 1.00D-06 EigRej= -1.00D+00 NBFU=   236
 Initial guess from the checkpoint file:  "cyclic-1_1_hf.chk"
 B after Tr=    -0.000000    0.000000    0.000000
         Rot=    1.000000    0.000043   -0.000003    0.000351 Ang=   0.04 deg.
 ExpMin= 1.22D-01 ExpMax= 2.27D+03 ExpMxC= 3.41D+02 IAcc=3 IRadAn=         5 AccDes= 0.00D+00
 Harris functional with IExCor= 4639 and IRadAn=       5 diagonalized for initial guess.
 HarFok:  IExCor= 4639 AccDes= 0.00D+00 IRadAn=         5 IDoV= 1 UseB2=F ITyADJ=14
 ICtDFT=  3500011 ScaDFX=  1.000000  1.000000  1.000000  1.000000
 FoFCou: FMM=F IPFlag=           0 FMFlag=      100000 FMFlg1=           0
         NFxFlg=           0 DoJE=T BraDBF=F KetDBF=T FulRan=T
         wScrn=  0.000000 ICntrl=       500 IOpCl=  0 I1Cent=   200000004 NGrid=           0
         NMat0=    1 NMatS0=      1 NMatT0=    0 NMatD0=    1 NMtDS0=    0 NMtDT0=    0
 Petite list used in FoFCou.
 Requested convergence on RMS density matrix=1.00D-08 within 128 cycles.
 Requested convergence on MAX density matrix=1.00D-06.
 Requested convergence on             energy=1.00D-06.
 No special actions if energy rises.
 Inv3:  Mode=1 IEnd=    13738800.
 Iteration    1 A*A^-1 deviation from unit magnitude is 3.00D-15 for    196.
 Iteration    1 A*A^-1 deviation from orthogonality  is 2.22D-15 for   1998    392.
 Iteration    1 A^-1*A deviation from unit magnitude is 3.11D-15 for   1252.
 Iteration    1 A^-1*A deviation from orthogonality  is 2.89D-15 for   1966    275.
 Error on total polarization charges =  0.00527
 SCF Done:  E(RwB97XD) =  -719.225606321     A.U. after   10 cycles
            NFock= 10  Conv=0.78D-08     -V/T= 2.0089
   1 Symmetry operations used in ECPInt.
 ECPInt:  NShTT=    5886 NPrTT=   21942 LenC2=    4992 LenP2D=   13074.
 LDataN:  DoStor=T MaxTD1= 5 Len=  102
 D1PCM: PCM CHGder 1st derivatives, ID1Alg=3 FixD1E=F DoIter=F DoCFld=F I1PDM=0.
 Calling FoFJK, ICntrl=      2127 FMM=F ISym2X=0 I1Cent= 0 IOpClX= 0 NMat=1 NMatS=1 NMatT=0.
 ***** Axes restored to original set *****
 -------------------------------------------------------------------
 Center     Atomic                   Forces (Hartrees/Bohr)
 Number     Number              X              Y              Z
 -------------------------------------------------------------------
      1        6          -0.000046576    0.000027233   -0.000028258
      2        6          -0.000114320   -0.000021465   -0.000000575
      3        6          -0.000024483   -0.000016793    0.000004042
      4        6           0.000020450    0.000110150    0.000035840
      5        7           0.000190605    0.001774199    0.000564024
      6        1           0.000006400   -0.000016399    0.000013568
      7        1          -0.000001583    0.000005663    0.000018515
      8        1          -0.000012532    0.000007761   -0.000009843
      9        1          -0.000010918   -0.000001974   -0.000025548
     10        8          -0.000038620    0.000029997    0.000027575
     11        6          -0.000022710   -0.000025265   -0.000002023
     12        8           0.000009494   -0.000019504    0.000040687
     13        6          -0.000001020    0.000043091   -0.000050033
     14        8           0.000075945   -0.000258560   -0.000100283
     15        8           0.000035059   -0.000022300    0.000054448
     16        6          -0.000010175    0.000017182   -0.000016912
     17        1           0.000000968    0.000004983   -0.000007253
     18        1           0.000012759    0.000008779   -0.000005399
     19        1           0.000004462   -0.000018767    0.000000387
     20        6           0.000007729   -0.000024089    0.000016843
     21        7           0.000000098   -0.000000405   -0.000003124
     22        1          -0.000081031   -0.001603516   -0.000526677
 -------------------------------------------------------------------
 Cartesian Forces:  Max     0.001774199 RMS     0.000313627

 GradGradGradGradGradGradGradGradGradGradGradGradGradGradGradGradGradGrad
 Berny optimization.
 FormGI is forming the generalized inverse of G from B-inverse, IUseBI=4.
 Internal  Forces:  Max     0.000337622 RMS     0.000058113
 Search for a saddle point.
 Step number   2 out of a maximum of   50
 All quantities printed in internal units (Hartrees-Bohrs-Radians)
 Swapping is turned off.
 Update second derivatives using D2CorX and points    1    2
 ITU=  0  0
     Eigenvalues ---   -0.00064   0.00171   0.00336   0.00425   0.00801
     Eigenvalues ---    0.01187   0.01260   0.01550   0.02272   0.02745
     Eigenvalues ---    0.03171   0.03806   0.03882   0.04621   0.05680
     Eigenvalues ---    0.06632   0.06955   0.07256   0.09629   0.09742
     Eigenvalues ---    0.10024   0.10256   0.10586   0.10894   0.13533
     Eigenvalues ---    0.14015   0.14572   0.15862   0.17585   0.20984
     Eigenvalues ---    0.21325   0.21449   0.24939   0.26356   0.27238
     Eigenvalues ---    0.28378   0.28758   0.30052   0.32186   0.35400
     Eigenvalues ---    0.36106   0.36364   0.36532   0.36726   0.36950
     Eigenvalues ---    0.37065   0.37361   0.37818   0.39631   0.39944
     Eigenvalues ---    0.43564   0.46316   0.48098   0.51002   0.52730
     Eigenvalues ---    0.56596   0.82282   0.96399   1.02230   1.28979
 Eigenvectors required to have negative eigenvalues:
                          D31       D23       D24       A31       D27
   1                    0.65992   0.46936   0.45574   0.21701   0.20073
                          D28       D33       D34       D32       D21
   1                    0.19301  -0.05658  -0.05541  -0.05367  -0.02754
 RFO step:  Lambda0=2.171785836D-06 Lambda=-4.02590587D-06.
 Linear search not attempted -- option 19 set.
 Iteration  1 RMS(Cart)=  0.01268161 RMS(Int)=  0.00162121
 Iteration  2 RMS(Cart)=  0.00012847 RMS(Int)=  0.00000043
 Iteration  3 RMS(Cart)=  0.00000399 RMS(Int)=  0.00000022
 Iteration  4 RMS(Cart)=  0.00000000 RMS(Int)=  0.00000022
 Variable       Old X    -DE/DX   Delta X   Delta X   Delta X     New X
                                 (Linear)    (Quad)   (Total)
    R1        2.50224   0.00004   0.00000   0.00001   0.00001   2.50225
    R2        2.49131   0.00004   0.00000   0.00018   0.00018   2.49149
    R3        2.66995   0.00001   0.00000   0.00002   0.00002   2.66998
    R4        2.51983   0.00000   0.00000   0.00010   0.00010   2.51992
    R5        2.06414   0.00000   0.00000   0.00001   0.00001   2.06415
    R6        2.06707  -0.00000   0.00000  -0.00002  -0.00002   2.06705
    R7        2.56749   0.00004   0.00000   0.00009   0.00009   2.56758
    R8        2.04710   0.00000   0.00000   0.00001   0.00001   2.04711
    R9        2.67792   0.00003   0.00000  -0.00001  -0.00001   2.67791
   R10        2.06332  -0.00001   0.00000  -0.00012  -0.00012   2.06320
   R11        2.80589  -0.00012   0.00000  -0.00032  -0.00032   2.80557
   R12        1.92016   0.00009   0.00000   0.00001   0.00001   1.92017
   R13        2.73761  -0.00004   0.00000   0.00004   0.00004   2.73764
   R14        2.26753   0.00001   0.00000  -0.00003  -0.00003   2.26749
   R15        2.28234  -0.00000   0.00000   0.00002   0.00002   2.28236
   R16        2.52939  -0.00002   0.00000   0.00000   0.00000   2.52939
   R17       18.32481  -0.00004   0.00000  -0.00507  -0.00507  18.31974
   R18        2.67890  -0.00002   0.00000  -0.00004  -0.00004   2.67886
   R19        2.07020  -0.00000   0.00000  -0.00001  -0.00001   2.07020
   R20        2.07810  -0.00001   0.00000   0.00002   0.00002   2.07812
   R21        2.07818  -0.00000   0.00000  -0.00006  -0.00006   2.07812
   R22        2.18973  -0.00000   0.00000  -0.00000  -0.00000   2.18973
    A1        1.91447   0.00003   0.00000  -0.00001  -0.00001   1.91446
    A2        2.21008  -0.00002   0.00000   0.00009   0.00009   2.21017
    A3        2.15864  -0.00001   0.00000  -0.00008  -0.00008   2.15856
    A4        2.10268   0.00002   0.00000  -0.00002  -0.00002   2.10266
    A5        2.10768  -0.00002   0.00000  -0.00004  -0.00004   2.10764
    A6        2.07282   0.00000   0.00000   0.00006   0.00006   2.07288
    A7        2.14830  -0.00000   0.00000   0.00001   0.00001   2.14831
    A8        1.88097   0.00003   0.00000   0.00010   0.00010   1.88107
    A9        2.25391  -0.00002   0.00000  -0.00010  -0.00011   2.25381
   A10        2.11061   0.00011   0.00000   0.00018   0.00018   2.11079
   A11        2.11102  -0.00023   0.00000  -0.00020  -0.00020   2.11082
   A12        2.06156   0.00012   0.00000   0.00002   0.00002   2.06158
   A13        1.92720  -0.00006   0.00000  -0.00005  -0.00005   1.92714
   A14        2.18198   0.00001   0.00000   0.00057   0.00057   2.18254
   A15        2.17401   0.00005   0.00000  -0.00051  -0.00052   2.17349
   A16        1.90473   0.00000   0.00000   0.00002   0.00002   1.90475
   A17        1.79741   0.00000   0.00000  -0.00005  -0.00005   1.79736
   A18        2.38499   0.00001   0.00000  -0.00008  -0.00008   2.38491
   A19        2.10079  -0.00001   0.00000   0.00013   0.00013   2.10091
   A20        2.19727  -0.00016   0.00000  -0.00015  -0.00015   2.19712
   A21        1.93994   0.00008   0.00000   0.00017   0.00017   1.94011
   A22        2.14597   0.00008   0.00000  -0.00002  -0.00002   2.14595
   A23        0.66746  -0.00002   0.00000   0.00155   0.00155   0.66901
   A24        2.03275  -0.00005   0.00000  -0.00012  -0.00012   2.03264
   A25        1.85612   0.00001   0.00000   0.00003   0.00003   1.85615
   A26        1.93587  -0.00001   0.00000  -0.00013  -0.00013   1.93574
   A27        1.93552  -0.00001   0.00000   0.00006   0.00006   1.93558
   A28        1.92146   0.00001   0.00000  -0.00016  -0.00016   1.92130
   A29        1.92129   0.00001   0.00000   0.00023   0.00023   1.92152
   A30        1.89373   0.00000   0.00000  -0.00004  -0.00004   1.89369
   A31        0.00593  -0.00034   0.00000   0.00181   0.00181   0.00774
   A32        3.15861   0.00001   0.00000   0.00019   0.00019   3.15880
   A33        3.13912  -0.00000   0.00000  -0.00006  -0.00006   3.13906
    D1        0.00009  -0.00002   0.00000  -0.00052  -0.00052  -0.00043
    D2       -3.14008  -0.00005   0.00000   0.00157   0.00157  -3.13851
    D3        3.14124   0.00002   0.00000  -0.00035  -0.00035   3.14089
    D4        0.00107  -0.00001   0.00000   0.00174   0.00174   0.00282
    D5        0.00023   0.00000   0.00000   0.00042   0.00042   0.00065
    D6       -3.14094  -0.00003   0.00000   0.00025   0.00025  -3.14069
    D7        0.00035   0.00002   0.00000  -0.00098  -0.00098  -0.00062
    D8        3.14072   0.00001   0.00000   0.00008   0.00008   3.14080
    D9       -3.14030  -0.00001   0.00000  -0.00093  -0.00093  -3.14123
   D10        0.00007  -0.00001   0.00000   0.00012   0.00012   0.00019
   D11        3.14129  -0.00000   0.00000  -0.00076  -0.00076   3.14053
   D12       -0.00171   0.00003   0.00000  -0.00284  -0.00284  -0.00456
   D13       -0.00038   0.00003   0.00000   0.00041   0.00041   0.00003
   D14        3.13980   0.00006   0.00000  -0.00167  -0.00167   3.13813
   D15        0.00048  -0.00002   0.00000  -0.00014  -0.00014   0.00033
   D16       -3.14055  -0.00004   0.00000  -0.00008  -0.00008  -3.14062
   D17       -3.14120   0.00001   0.00000   0.00112   0.00112  -3.14007
   D18        0.00096  -0.00001   0.00000   0.00119   0.00119   0.00215
   D19        0.00222  -0.00002   0.00000   0.00238   0.00238   0.00460
   D20       -3.13887  -0.00000   0.00000   0.00228   0.00228  -3.13659
   D21       -3.14057  -0.00003   0.00000   0.00340   0.00340  -3.13716
   D22        0.00153  -0.00001   0.00000   0.00330   0.00330   0.00484
   D23       -1.63752  -0.00001   0.00000   0.02800   0.02800  -1.60952
   D24        1.50569  -0.00004   0.00000   0.03038   0.03038   1.53608
   D25       -0.00044   0.00001   0.00000  -0.00016  -0.00016  -0.00060
   D26        3.14071   0.00003   0.00000  -0.00022  -0.00022   3.14049
   D27        0.01173   0.00004   0.00000   0.00224   0.00224   0.01397
   D28       -3.13042   0.00001   0.00000   0.00235   0.00235  -3.12807
   D29        3.14141  -0.00002   0.00000  -0.00106  -0.00106   3.14035
   D30        0.00031  -0.00001   0.00000  -0.00116  -0.00116  -0.00085
   D31       -1.66315   0.00007   0.00000   0.04785   0.04785  -1.61531
   D32        3.13724   0.00002   0.00000   0.00752   0.00752  -3.13842
   D33        1.04820   0.00002   0.00000   0.00776   0.00776   1.05596
   D34       -1.05729   0.00003   0.00000   0.00786   0.00786  -1.04944
         Item               Value     Threshold  Converged?
 Maximum Force            0.000338     0.000450     YES
 RMS     Force            0.000058     0.000300     YES
 Maximum Displacement     0.042443     0.001800     NO 
 RMS     Displacement     0.012679     0.001200     NO 
 Predicted change in Energy=-9.234761D-07
 GradGradGradGradGradGradGradGradGradGradGradGradGradGradGradGradGradGrad

                          Input orientation:                          
 ---------------------------------------------------------------------
 Center     Atomic      Atomic             Coordinates (Angstroms)
 Number     Number       Type             X           Y           Z
 ---------------------------------------------------------------------
      1          6           0        4.146444   -0.639097   -0.883574
      2          6           0       -0.592248   -0.776221    1.242721
      3          6           0        4.344693    1.423636   -0.134911
      4          6           0       -0.776143    0.398544    1.846288
      5          7           0        4.945608    0.414658   -0.818246
      6          1           0        0.335948   -0.983754    0.705592
      7          1           0       -1.365962   -1.548766    1.274697
      8          1           0        4.817416    2.382290    0.041216
      9          1           0       -0.006009    1.171844    1.815958
     10          8           0        3.013848   -0.376908   -0.261665
     11          6           0        3.062177    0.972068    0.264315
     12          8           0        2.128697    1.420882    0.870084
     13          6           0       -2.033980    0.692012    2.578332
     14          8           0       -2.971617   -0.058821    2.704031
     15          8           0       -2.012588    1.924015    3.101100
     16          6           0       -3.163920    2.322853    3.825625
     17          1           0       -2.972005    3.344408    4.171621
     18          1           0       -3.336093    1.659084    4.685331
     19          1           0       -4.057307    2.302583    3.184707
     20          6           0        4.427098   -1.872274   -1.513471
     21          7           0        4.675244   -2.876589   -2.035475
     22          1           0        5.876101    0.467352   -1.223074
 ---------------------------------------------------------------------
                    Distance matrix (angstroms):
                    1          2          3          4          5
     1  C    0.000000
     2  C    5.195684   0.000000
     3  C    2.203331   5.577690   0.000000
     4  C    5.723697   1.333485   5.585600   0.000000
     5  N    1.324134   6.027738   1.358707   6.311770   0.000000
     6  H    4.142960   1.092302   4.751001   2.109190   5.052386
     7  H    5.989345   1.093838   6.590429   2.113438   6.933351
     8  H    3.230204   6.378422   1.083284   6.203341   2.150973
     9  H    5.273505   2.113583   4.774715   1.091796   5.659583
    10  O    1.318442   3.927665   2.242583   4.405544   2.160569
    11  C    2.255912   4.167567   1.417090   4.190975   2.242757
    12  O    3.374927   3.517053   2.433241   3.230518   3.434812
    13  C    7.207932   2.453193   6.970254   1.484643   7.767131
    14  O    7.992148   2.882966   7.986593   2.401044   8.678311
    15  O    7.770511   3.572424   7.151026   2.330324   8.127479
    16  C    9.186464   4.784261   8.536610   3.649961   9.537882
    17  H    9.596647   5.587601   8.704577   4.348230   9.806672
    18  H    9.606388   5.031000   9.071089   4.025229  10.021204
    19  H    9.618000   5.025633   9.076675   4.022781  10.031968
    20  C    1.412892   5.830245   3.573548   6.596841   2.445863
    21  N    2.571551   6.550159   4.713103   7.450651   3.519523
    22  H    2.081154   7.033218   2.108029   7.326532   1.016110
                    6          7          8          9         10
     6  H    0.000000
     7  H    1.881386   0.000000
     8  H    5.644041   7.430265   0.000000
     9  H    2.448765   3.089361   5.280182   0.000000
    10  O    2.911185   4.787107   3.310252   3.979282   0.000000
    11  C    3.384124   5.194602   2.262601   3.444020   1.448699
    12  O    3.003878   4.603820   2.973304   2.348120   2.301391
    13  C    3.454259   2.677088   7.499041   2.219035   5.889715
    14  O    3.973569   2.615543   8.585956   3.331372   6.687475
    15  O    4.439504   3.976693   7.498123   2.498741   6.470509
    16  C    5.737362   4.972858   8.833289   3.916118   7.884127
    17  H    6.456694   5.908866   8.869103   4.366499   8.326623
    18  H    6.025512   5.079778   9.411192   4.422687   8.302998
    19  H    6.020525   5.071920   9.415338   4.423241   8.310138
    20  C    4.738272   6.437242   4.546506   6.324887   2.408405
    21  N    5.470445   7.015449   5.655852   7.289546   3.486408
    22  H    6.043075   7.921557   2.527100   6.658172   3.135215
                   11         12         13         14         15
    11  C    0.000000
    12  O    1.199906   0.000000
    13  C    5.603920   4.558206   0.000000
    14  O    6.589509   5.618371   1.207772   0.000000
    15  O    5.891247   4.730836   1.338498   2.238089   0.000000
    16  C    7.298755   6.128667   2.343532   2.639568   1.417594
    17  H    7.570098   6.373167   3.233213   3.706182   2.020894
    18  H    7.807383   6.669091   2.658979   2.647562   2.081260
    19  H    7.809354   6.663447   2.656216   2.643105   2.081149
    20  C    3.621300   4.669996   8.066223   8.707292   8.784966
    21  N    4.764785   5.778878   8.890209   9.427472   9.703468
[...]
    22  H    6.037396   7.915769   2.527628   6.662153   3.135240
                   11         12         13         14         15
    11  C    0.000000
    12  O    1.199934   0.000000
    13  C    5.605264   4.558644   0.000000
    14  O    6.587953   5.616366   1.207772   0.000000
    15  O    5.897886   4.736922   1.338460   2.238215   0.000000
    16  C    7.305983   6.135591   2.343545   2.639867   1.417616
    17  H    7.580421   6.383152   3.233195   3.706434   2.020917
    18  H    7.814482   6.673354   2.661647   2.653274   2.081111
    19  H    7.813911   6.670357   2.653593   2.638047   2.081309
    20  C    3.621167   4.669822   8.069473   8.706496   8.792361
    21  N    4.764648   5.778685   8.893818   9.426856   9.710908
    22  H    3.222826   4.397292   8.781124   9.693337   9.120486
                   16         17         18         19         20
    16  C    0.000000
    17  H    1.095500   0.000000
    18  H    1.099731   1.799055   0.000000
    19  H    1.099661   1.799299   1.784991   0.000000
    20  C   10.191479  10.699780  10.553621  10.558727   0.000000
    21  N   11.089788  11.658651  11.408936  11.415323   1.158757
    22  H   10.527128  10.766234  11.020186  11.022822   2.766843
                   21         22
    21  N    0.000000
    22  H    3.644227   0.000000
 Stoichiometry    C8H8N2O4
 Framework group  C1[X(C8H8N2O4)]
 Deg. of freedom    60
 Full point group                 C1      NOp   1
 Largest Abelian subgroup         C1      NOp   1
 Largest concise Abelian subgroup C1      NOp   1
                         Standard orientation:                         
 ---------------------------------------------------------------------
 Center     Atomic      Atomic             Coordinates (Angstroms)
 Number     Number       Type             X           Y           Z
 ---------------------------------------------------------------------
      1          6           0        3.539433    0.127789   -0.003808
      2          6           0       -1.453764    1.555064    0.022340
      3          6           0        2.862070   -1.968737    0.007977
      4          6           0       -2.178310    0.435742    0.005624
      5          7           0        3.935469   -1.135767    0.000828
      6          1           0       -0.362455    1.508532    0.025808
      7          1           0       -1.939155    2.535227    0.032938
      8          1           0        2.951234   -3.048334    0.012803
      9          1           0       -1.697234   -0.544310   -0.004252
     10          8           0        2.222110    0.180537   -0.000010
     11          6           0        1.692949   -1.167901    0.007705
     12          8           0        0.507591   -1.354313    0.012071
     13          6           0       -3.662033    0.488334    0.001213
     14          8           0       -4.334310    1.491659    0.010929
     15          8           0       -4.189477   -0.741719   -0.014589
     16          6           0       -5.604800   -0.822178   -0.019285
     17          1           0       -5.853021   -1.889182   -0.021961
     18          1           0       -6.022354   -0.335233   -0.912561
     19          1           0       -6.028477   -0.337803    0.872417
     20          6           0        4.369363    1.271208   -0.012304
     21          7           0        5.066065    2.197100   -0.019217
     22          1           0        4.903961   -1.443472   -0.000457
 ---------------------------------------------------------------------
 Rotational constants (GHZ):           1.6272929           0.2004601           0.1786809

 **********************************************************************

            Population analysis using the SCF Density.

 **********************************************************************

 Orbital symmetries:
       Occupied  (A) (A) (A) (A) (A) (A) (A) (A) (A) (A) (A) (A)
                 (A) (A) (A) (A) (A) (A) (A) (A) (A) (A) (A) (A)
                 (A) (A) (A) (A) (A) (A) (A) (A) (A) (A) (A) (A)
                 (A) (A) (A) (A) (A) (A) (A) (A) (A) (A) (A) (A)
                 (A) (A) (A)
       Virtual   (A) (A) (A) (A) (A) (A) (A) (A) (A) (A) (A) (A)
                 (A) (A) (A) (A) (A) (A) (A) (A) (A) (A) (A) (A)
                 (A) (A) (A) (A) (A) (A) (A) (A) (A) (A) (A) (A)
                 (A) (A) (A) (A) (A) (A) (A) (A) (A) (A) (A) (A)
                 (A) (A) (A) (A) (A) (A) (A) (A) (A) (A) (A) (A)
                 (A) (A) (A) (A) (A) (A) (A) (A) (A) (A) (A) (A)
                 (A) (A) (A) (A) (A) (A) (A) (A) (A) (A) (A) (A)
                 (A) (A) (A) (A) (A) (A) (A) (A) (A) (A) (A) (A)
                 (A) (A) (A) (A) (A) (A) (A) (A) (A) (A) (A) (A)
                 (A) (A) (A) (A) (A) (A) (A) (A) (A) (A) (A) (A)
                 (A) (A) (A) (A) (A) (A) (A) (A) (A) (A) (A) (A)
                 (A) (A) (A) (A) (A) (A) (A) (A) (A) (A) (A) (A)
                 (A) (A) (A) (A) (A) (A) (A) (A) (A) (A) (A) (A)
                 (A) (A) (A) (A) (A) (A) (A) (A) (A) (A) (A) (A)
                 (A) (A) (A) (A) (A) (A) (A) (A) (A) (A) (A) (A)
                 (A) (A) (A) (A) (A)
 The electronic state is 1-A.
 Alpha  occ. eigenvalues --  -19.36219 -19.29649 -19.24419 -19.23531 -14.58765
 Alpha  occ. eigenvalues --  -14.49139 -10.46336 -10.44093 -10.41875 -10.38602
 Alpha  occ. eigenvalues --  -10.36175 -10.34713 -10.30639 -10.29870  -1.27431
 Alpha  occ. eigenvalues --   -1.19700  -1.14321  -1.11053  -1.10034  -1.03895
 Alpha  occ. eigenvalues --   -0.91358  -0.87786  -0.81644  -0.80867  -0.76920
 Alpha  occ. eigenvalues --   -0.73977  -0.70070  -0.64652  -0.63588  -0.63097
 Alpha  occ. eigenvalues --   -0.59499  -0.58810  -0.57135  -0.56157  -0.54065
 Alpha  occ. eigenvalues --   -0.52614  -0.51957  -0.50923  -0.49175  -0.49126
 Alpha  occ. eigenvalues --   -0.48595  -0.48209  -0.47278  -0.45609  -0.45395
 Alpha  occ. eigenvalues --   -0.43296  -0.38441  -0.38319  -0.35737  -0.35614
 Alpha  occ. eigenvalues --   -0.29976
 Alpha virt. eigenvalues --   -0.02733   0.03377   0.04612   0.10715   0.12592
 Alpha virt. eigenvalues --    0.16712   0.16788   0.17151   0.18052   0.18837
 Alpha virt. eigenvalues --    0.19888   0.20493   0.21710   0.21957   0.22204
 Alpha virt. eigenvalues --    0.23079   0.25110   0.26658   0.31104   0.33706
 Alpha virt. eigenvalues --    0.34010   0.35496   0.38520   0.39892   0.40434
 Alpha virt. eigenvalues --    0.41191   0.47196   0.49222   0.50453   0.51244
 Alpha virt. eigenvalues --    0.52226   0.53107   0.53280   0.54774   0.55276
 Alpha virt. eigenvalues --    0.56302   0.56684   0.58346   0.59877   0.61539
 Alpha virt. eigenvalues --    0.61814   0.63712   0.64827   0.65765   0.67475
 Alpha virt. eigenvalues --    0.69093   0.69162   0.71845   0.72395   0.73070
 Alpha virt. eigenvalues --    0.73418   0.73900   0.74397   0.74694   0.75568
 Alpha virt. eigenvalues --    0.75965   0.78581   0.78963   0.81929   0.82843
 Alpha virt. eigenvalues --    0.84190   0.84495   0.85084   0.90765   0.92682
 Alpha virt. eigenvalues --    0.92923   0.94349   0.97077   1.01293   1.05138
 Alpha virt. eigenvalues --    1.07243   1.07653   1.08485   1.09671   1.12078
 Alpha virt. eigenvalues --    1.14535   1.15668   1.16628   1.17557   1.19948
 Alpha virt. eigenvalues --    1.23892   1.27591   1.28359   1.28583   1.28814
 Alpha virt. eigenvalues --    1.32767   1.33511   1.35654   1.36890   1.39814
 Alpha virt. eigenvalues --    1.41006   1.43356   1.48364   1.50470   1.51902
 Alpha virt. eigenvalues --    1.55902   1.60229   1.61795   1.63520   1.65590
 Alpha virt. eigenvalues --    1.65764   1.67151   1.68231   1.68636   1.69428
 Alpha virt. eigenvalues --    1.73405   1.74596   1.75738   1.78710   1.80115
 Alpha virt. eigenvalues --    1.81392   1.81479   1.81861   1.85669   1.86406
 Alpha virt. eigenvalues --    1.88114   1.88232   1.91667   1.92501   1.97732
 Alpha virt. eigenvalues --    1.97873   2.00829   2.01261   2.02282   2.03403
 Alpha virt. eigenvalues --    2.03553   2.08748   2.09639   2.11818   2.14584
 Alpha virt. eigenvalues --    2.15763   2.23306   2.23701   2.27096   2.27796
 Alpha virt. eigenvalues --    2.29819   2.31214   2.32502   2.33815   2.38410
 Alpha virt. eigenvalues --    2.39979   2.44757   2.45124   2.46080   2.53866
 Alpha virt. eigenvalues --    2.54204   2.60662   2.60948   2.62173   2.68445
 Alpha virt. eigenvalues --    2.71960   2.73052   2.74908   2.78314   2.79119
 Alpha virt. eigenvalues --    2.81730   2.82212   2.84907   2.88515   2.89217
 Alpha virt. eigenvalues --    2.92094   2.95954   2.97318   2.99093   2.99912
 Alpha virt. eigenvalues --    3.01837   3.06952   3.07636   3.10567   3.13246
 Alpha virt. eigenvalues --    3.16476   3.21063   3.26014   3.28637   3.31831
 Alpha virt. eigenvalues --    3.37107   3.38451   3.44259   3.47621   3.53846
 Alpha virt. eigenvalues --    3.70574   3.75129   3.75827   3.77853   3.82720
          Condensed to atoms (all electrons):
               1          2          3          4          5          6
     1  C    5.147582  -0.000039  -0.108271   0.000001   0.548051   0.000258
     2  C   -0.000039   4.693115  -0.000073   0.622936  -0.000003   0.375616
     3  C   -0.108271  -0.000073   5.221192   0.000004   0.368122   0.000507
     4  C    0.000001   0.622936   0.000004   5.137320   0.000000  -0.014560
     5  N    0.548051  -0.000003   0.368122   0.000000   5.998798   0.000037
     6  H    0.000258   0.375616   0.000507  -0.014560   0.000037   0.598611
     7  H    0.000000   0.394167  -0.000000  -0.024461   0.000000  -0.037266
     8  H    0.005044   0.000001   0.414970  -0.000001  -0.026040  -0.000006
     9  H   -0.000002  -0.026480   0.000088   0.376794  -0.000003  -0.011351
    10  O    0.458926  -0.001550  -0.116229  -0.000074  -0.082056   0.007067
    11  C   -0.081914  -0.000410   0.400286   0.000251  -0.031204   0.002013
    12  O    0.002772  -0.002550  -0.066713  -0.006709   0.001175   0.004570
    13  C   -0.000000  -0.038579   0.000002   0.249353  -0.000000   0.009719
    14  O    0.000000   0.009570  -0.000000  -0.105742   0.000000   0.000205
    15  O   -0.000000   0.005684  -0.000000  -0.110384   0.000000  -0.000082
    16  C   -0.000000  -0.000400   0.000000   0.010188  -0.000000   0.000005
    17  H    0.000000  -0.000003   0.000000   0.000086  -0.000000  -0.000000
    18  H   -0.000000   0.000025  -0.000000   0.000419   0.000000  -0.000000
    19  H   -0.000000   0.000025  -0.000000   0.000457   0.000000  -0.000000
    20  C    0.056893   0.000040   0.010684  -0.000001  -0.130538  -0.000237
    21  N   -0.092383   0.000000   0.000141  -0.000000  -0.004340  -0.000007
    22  H   -0.003288   0.000000  -0.016318  -0.000000   0.372594  -0.000000
               7          8          9         10         11         12
     1  C    0.000000   0.005044  -0.000002   0.458926  -0.081914   0.002772
     2  C    0.394167   0.000001  -0.026480  -0.001550  -0.000410  -0.002550
     3  C   -0.000000   0.414970   0.000088  -0.116229   0.400286  -0.066713
     4  C   -0.024461  -0.000001   0.376794  -0.000074   0.000251  -0.006709
     5  N    0.000000  -0.026040  -0.000003  -0.082056  -0.031204   0.001175
     6  H   -0.037266  -0.000006  -0.011351   0.007067   0.002013   0.004570
     7  H    0.599372  -0.000000   0.006555   0.000002  -0.000003   0.000025
     8  H   -0.000000   0.544895   0.000003   0.003455  -0.022662   0.001055
     9  H    0.006555   0.000003   0.582012   0.000126  -0.001424   0.025680
    10  O    0.000002   0.003455   0.000126   7.887476   0.253052  -0.064015
    11  C   -0.000003  -0.022662  -0.001424   0.253052   4.486802   0.723179
    12  O    0.000025   0.001055   0.025680  -0.064015   0.723179   7.624465
    13  C   -0.017603  -0.000000  -0.028980  -0.000001   0.000022   0.000510
    14  O    0.012579  -0.000000   0.002940   0.000000  -0.000000  -0.000000
    15  O    0.000594  -0.000000   0.009102  -0.000000  -0.000001  -0.000003
    16  C   -0.000041  -0.000000  -0.000313  -0.000000   0.000000   0.000000
    17  H   -0.000001  -0.000000  -0.000157  -0.000000   0.000000   0.000000
    18  H   -0.000008   0.000000   0.000047   0.000000  -0.000000  -0.000000
    19  H   -0.000008   0.000000   0.000047   0.000000  -0.000000  -0.000000
    20  C   -0.000001  -0.000319   0.000005  -0.092572  -0.004654  -0.000240
    21  N   -0.000000  -0.000000   0.000000  -0.002597  -0.000107  -0.000000
    22  H   -0.000000  -0.004503   0.000000   0.002342   0.007413  -0.000040
              13         14         15         16         17         18
     1  C   -0.000000   0.000000  -0.000000  -0.000000   0.000000  -0.000000
     2  C   -0.038579   0.009570   0.005684  -0.000400  -0.000003   0.000025
     3  C    0.000002  -0.000000  -0.000000   0.000000   0.000000  -0.000000
     4  C    0.249353  -0.105742  -0.110384   0.010188   0.000086   0.000419
     5  N   -0.000000   0.000000   0.000000  -0.000000  -0.000000   0.000000
     6  H    0.009719   0.000205  -0.000082   0.000005  -0.000000  -0.000000
     7  H   -0.017603   0.012579   0.000594  -0.000041  -0.000001  -0.000008
     8  H   -0.000000  -0.000000  -0.000000  -0.000000  -0.000000   0.000000
     9  H   -0.028980   0.002940   0.009102  -0.000313  -0.000157   0.000047
    10  O   -0.000001   0.000000  -0.000000  -0.000000  -0.000000   0.000000
    11  C    0.000022  -0.000000  -0.000001   0.000000   0.000000  -0.000000
    12  O    0.000510  -0.000000  -0.000003   0.000000   0.000000  -0.000000
    13  C    4.538701   0.703989   0.370414  -0.032551   0.004804  -0.004545
    14  O    0.703989   7.721342  -0.087289   0.003457   0.000815   0.006686
    15  O    0.370414  -0.087289   7.957599   0.263227  -0.022561  -0.026843
    16  C   -0.032551   0.003457   0.263227   4.419119   0.399658   0.405465
    17  H    0.004804   0.000815  -0.022561   0.399658   0.606154  -0.023189
    18  H   -0.004545   0.006686  -0.026843   0.405465  -0.023189   0.620007
    19  H   -0.004705   0.007153  -0.026857   0.405183  -0.023072  -0.030376
    20  C    0.000000  -0.000000  -0.000000   0.000000   0.000000  -0.000000
    21  N   -0.000000  -0.000000  -0.000000   0.000000   0.000000  -0.000000
    22  H    0.000000  -0.000000  -0.000000   0.000000   0.000000  -0.000000
              19         20         21         22
     1  C   -0.000000   0.056893  -0.092383  -0.003288
     2  C    0.000025   0.000040   0.000000   0.000000
     3  C   -0.000000   0.010684   0.000141  -0.016318
     4  C    0.000457  -0.000001  -0.000000  -0.000000
     5  N    0.000000  -0.130538  -0.004340   0.372594
     6  H   -0.000000  -0.000237  -0.000007  -0.000000
     7  H   -0.000008  -0.000001  -0.000000  -0.000000
     8  H    0.000000  -0.000319  -0.000000  -0.004503
     9  H    0.000047   0.000005   0.000000   0.000000
    10  O    0.000000  -0.092572  -0.002597   0.002342
    11  C   -0.000000  -0.004654  -0.000107   0.007413
    12  O   -0.000000  -0.000240  -0.000000  -0.000040
    13  C   -0.004705   0.000000  -0.000000   0.000000
    14  O    0.007153  -0.000000  -0.000000  -0.000000
    15  O   -0.026857  -0.000000  -0.000000  -0.000000
    16  C    0.405183   0.000000   0.000000   0.000000
    17  H   -0.023072   0.000000   0.000000   0.000000
    18  H   -0.030376  -0.000000  -0.000000  -0.000000
    19  H    0.619770  -0.000000  -0.000000  -0.000000
    20  C   -0.000000   5.365105   0.876988  -0.024625
    21  N   -0.000000   0.876988   6.129002  -0.000391
    22  H   -0.000000  -0.024625  -0.000391   0.463977
 Mulliken charges:
               1
     1  C    0.066370
     2  C   -0.031095
     3  C   -0.108391
     4  C   -0.135878
     5  N   -0.014592
     6  H    0.064901
     7  H    0.066097
     8  H    0.084107
     9  H    0.065312
    10  O   -0.253352
    11  C    0.269362
    12  O   -0.243160
    13  C    0.249451
    14  O   -0.275704
    15  O   -0.332601
    16  C    0.127002
    17  H    0.057468
    18  H    0.052313
    19  H    0.052384
    20  C   -0.056528
    21  N    0.093695
    22  H    0.202839
 Sum of Mulliken charges =  -0.00000
 Mulliken charges with hydrogens summed into heavy atoms:
               1
     1  C    0.066370
     2  C    0.099903
     3  C   -0.024285
     4  C   -0.070566
     5  N    0.188247
    10  O   -0.253352
    11  C    0.269362
    12  O   -0.243160
    13  C    0.249451
    14  O   -0.275704
    15  O   -0.332601
    16  C    0.289167
    20  C   -0.056528
    21  N    0.093695
 Electronic spatial extent (au):  <R**2>=           5523.6192
 Charge=             -0.0000 electrons
 Dipole moment (field-independent basis, Debye):
    X=              6.5664    Y=             -5.4985    Z=             -0.0112  Tot=              8.5645
 Quadrupole moment (field-independent basis, Debye-Ang):
   XX=            -57.3454   YY=            -82.8994   ZZ=            -79.6119
   XY=            -14.2807   XZ=              0.2397   YZ=              0.0613
 Traceless Quadrupole moment (field-independent basis, Debye-Ang):
   XX=             15.9402   YY=             -9.6138   ZZ=             -6.3264
   XY=            -14.2807   XZ=              0.2397   YZ=              0.0613
 Octapole moment (field-independent basis, Debye-Ang**2):
  XXX=             15.7489  YYY=            -42.0988  ZZZ=             -0.0912  XYY=              1.7469
  XXY=           -192.5847  XXZ=             -0.2356  XZZ=             -9.4603  YZZ=             -0.6788
  YYZ=              0.2178  XYZ=              0.3293
 Hexadecapole moment (field-independent basis, Debye-Ang**3):
 XXXX=          -5540.4255 YYYY=           -824.4013 ZZZZ=            -79.8103 XXXY=           -346.2194
 XXXZ=              7.7030 YYYX=           -143.1097 YYYZ=              0.4090 ZZZX=              0.3568
 ZZZY=              0.0304 XXYY=          -1316.2772 XXZZ=          -1039.9236 YYZZ=           -161.3832
 XXYZ=              1.1186 YYXZ=              1.2791 ZZXY=             -1.2178
 N-N= 7.722069027170D+02 E-N=-3.224106030814D+03  KE= 7.128955895338D+02
 Unable to Open any file for archive entry.
 1\1\GINC-NODE-001\FTS\RwB97XD\def2SVP\C8H8N2O4\JP2658\26-Dec-2023\0\\#
  wb97xd def2svp geom=allchk scrf=(iefpcm,solvent=toluene) opt=(readfc,
 ts,noeigen,maxcycles=50,maxstep=10)\\cyclic_ts_133_reopt.out\\0,1\C,4.
 1454639035,-0.6400280376,-0.8889320409\C,-0.5835773278,-0.7731120933,1
 .2530929308\C,4.3468075479,1.4201432002,-0.1342553495\C,-0.7715323349,
 0.4023000541,1.8540977461\N,4.9429018578,0.4153420863,-0.8278848457\H,
 0.3482737449,-0.98128367,0.7225739784\H,-1.3573853079,-1.5456763246,1.
 2814335464\H,4.8186139671,2.3796187993,0.039838863\H,-0.0016752695,1.1
 760143717,1.8272473822\O,3.0187037436,-0.3828128833,-0.2545899509\C,3.
 0696692256,0.9638425512,0.2767072365\O,2.1418181464,1.4075621145,0.894
 8064749\C,-2.0346376894,0.6951041562,2.5773198062\O,-2.9735232545,-0.0
 556807721,2.6936309527\O,-2.0165969151,1.9257475954,3.1033119038\C,-3.
 1730149073,2.3232524403,3.8204750248\H,-2.9860703531,3.3464309628,4.16
 43899962\H,-3.3473434316,1.66156107,4.6813940709\H,-4.0630656194,2.298
 1080316,3.1751600463\C,4.4230240868,-1.8705083089,-1.5254396855\N,4.66
 8493275,-2.8725944007,-2.0529672298\H,5.8700529118,0.4704690569,-1.240
 2108569\\Version=ES64L-G16RevC.01\State=1-A\HF=-719.2256085\RMSD=5.683
 e-09\RMSF=3.136e-04\Dipole=2.9695508,1.3632379,-0.8228939\Quadrupole=1
 3.1068901,-10.3250807,-2.7818094,3.2300918,-7.1968063,-3.781124\PG=C01
  [X(C8H8N2O4)]\\@
 The archive entry for this job was punched.


 SLITHERY-DITHERY
 FRIEDRICH A. KEKULE
 DREAMT ON A BUS OF THINGS
 FREUD WOULD THINK KEEN.
 MOST OF THE TIME THEY WERE
 HERPETOLOGICAL
 BITING THEIR TAILS IN THE
 SHAPE OF BENZENE.
 Job cpu time:       0 days  0 hours 26 minutes 15.7 seconds.
 Elapsed time:       0 days  0 hours  2 minutes 15.7 seconds.
 File lengths (MBytes):  RWF=    117 Int=      0 D2E=      0 Chk=     12 Scr=      1
 Normal termination of Gaussian 16 at Tue Dec 26 17:53:44 2023.
