Unloading slurm/anatra/current
  ERROR: No such file or directory on
    '/cm/local/modulefiles/slurm/anatra/current'
environment: line 0: unalias: gv: not found
environment: line 0: unalias: sl: not found
 Entering Gaussian System, Link 0=g16
 Initial command:
 /apps/gaussian/g16/C.01/g16/l1.exe "/local/jobs/1153160/Gau-1731907.inp" -scrdir="/local/jobs/1153160/"
 Entering Link 1 = /apps/gaussian/g16/C.01/g16/l1.exe PID=   1731911.
  
 Copyright (c) 1988-2019, Gaussian, Inc.  All Rights Reserved.
  
 This is part of the Gaussian(R) 16 program.  It is based on
 the Gaussian(R) 09 system (copyright 2009, Gaussian, Inc.),
 the Gaussian(R) 03 system (copyright 2003, Gaussian, Inc.),
 the Gaussian(R) 98 system (copyright 1998, Gaussian, Inc.),
 the Gaussian(R) 94 system (copyright 1995, Gaussian, Inc.),
 the Gaussian 92(TM) system (copyright 1992, Gaussian, Inc.),
 the Gaussian 90(TM) system (copyright 1990, Gaussian, Inc.),
 the Gaussian 88(TM) system (copyright 1988, Gaussian, Inc.),
 the Gaussian 86(TM) system (copyright 1986, Carnegie Mellon
 University), and the Gaussian 82(TM) system (copyright 1983,
 Carnegie Mellon University). Gaussian is a federally registered
 trademark of Gaussian, Inc.
  
 This software contains proprietary and confidential information,
 including trade secrets, belonging to Gaussian, Inc.
  
 This software is provided under written license and may be
 used, copied, transmitted, or stored only in accord with that
 written license.
  
 The following legend is applicable only to US Government
 contracts under FAR:
  
                    RESTRICTED RIGHTS LEGEND
  
 Use, reproduction and disclosure by the US Government is
 subject to restrictions as set forth in subparagraphs (a)
 and (c) of the Commercial Computer Software - Restricted
 Rights clause in FAR 52.227-19.
  
 Gaussian, Inc.
 340 Quinnipiac St., Bldg. 40, Wallingford CT 06492
  
  
 ---------------------------------------------------------------
 Warning -- This program may not be used in any manner that
 competes with the business of Gaussian, Inc. or will provide
 assistance to any competitor of Gaussian, Inc.  The licensee
 of this program is prohibited from giving any competitor of
 Gaussian, Inc. access to this program.  By using this program,
 the user acknowledges that Gaussian, Inc. is engaged in the
 business of creating and licensing software in the field of
 computational chemistry and represents and warrants to the
 licensee that it is not a competitor of Gaussian, Inc. and that
 it will not use this program in any manner prohibited above.
 ---------------------------------------------------------------
  

 Cite this work as:
 Gaussian 16, Revision C.01,
 M. J. Frisch, G. W. Trucks, H. B. Schlegel, G. E. Scuseria, 
 M. A. Robb, J. R. Cheeseman, G. Scalmani, V. Barone, 
 G. A. Petersson, H. Nakatsuji, X. Li, M. Caricato, A. V. Marenich, 
 J. Bloino, B. G. Janesko, R. Gomperts, B. Mennucci, H. P. Hratchian, 
 J. V. Ortiz, A. F. Izmaylov, J. L. Sonnenberg, D. Williams-Young, 
 F. Ding, F. Lipparini, F. Egidi, J. Goings, B. Peng, A. Petrone, 
 T. Henderson, D. Ranasinghe, V. G. Zakrzewski, J. Gao, N. Rega, 
 G. Zheng, W. Liang, M. Hada, M. Ehara, K. Toyota, R. Fukuda, 
 J. Hasegawa, M. Ishida, T. Nakajima, Y. Honda, O. Kitao, H. Nakai, 
 T. Vreven, K. Throssell, J. A. Montgomery, Jr., J. E. Peralta, 
 F. Ogliaro, M. J. Bearpark, J. J. Heyd, E. N. Brothers, K. N. Kudin, 
 V. N. Staroverov, T. A. Keith, R. Kobayashi, J. Normand, 
 K. Raghavachari, A. P. Rendell, J. C. Burant, S. S. Iyengar, 
 J. Tomasi, M. Cossi, J. M. Millam, M. Klene, C. Adamo, R. Cammi, 
 J. W. Ochterski, R. L. Martin, K. Morokuma, O. Farkas, 
 J. B. Foresman, and D. J. Fox, Gaussian, Inc., Wallingford CT, 2019.
 
 ******************************************
 Gaussian 16:  ES64L-G16RevC.01  3-Jul-2019
                30-Dec-2023 
 ******************************************
 %chk=cyclic-1_1_opt_sqm_re7_freq.chk
 %nprocshared=12
 Will use up to   12 processors via shared memory.
 %mem=48GB
 -----------------------------------------------------------
 # wb97xd def2svp scrf=(iefpcm,solvent=toluene) freq=noraman
 -----------------------------------------------------------
 1/10=4,30=1,38=1/1,3;
 2/12=2,17=6,18=5,40=1/2;
 3/5=43,7=101,11=2,25=1,30=1,70=2201,71=2,72=13,74=-58,140=1/1,2,3;
 4//1;
 5/5=2,38=5,53=13,98=1/2;
 8/6=4,10=90,11=11/1;
 11/6=1,8=1,9=11,15=111,16=1/1,2,10;
 10/6=1/2;
 6/7=2,8=2,9=2,10=2,28=1/1;
 7/8=1,10=1,25=1/1,2,3,16;
 1/10=4,30=1/3;
 99//99;
 --------------------------
 cyclic-1_1_opt_sqm_re7.out
 --------------------------
 Symbolic Z-matrix:
 Charge =  0 Multiplicity = 1
 C                     1.42679   0.7372    0.03241 
 C                    -1.0705   -1.42175   1.95975 
 C                     2.29408  -1.09507  -0.80005 
 C                    -2.06921  -0.66119   1.50919 
 N                     1.14974  -0.4092   -0.56418 
 H                    -0.90394  -1.55737   3.03011 
 H                    -0.39637  -1.94484   1.27632 
 H                     2.3142   -2.0636   -1.28527 
 H                    -2.76497  -0.15792   2.18342 
 O                     2.73004   0.86128   0.21005 
 C                     3.38149  -0.31721  -0.31753 
 O                     4.57618  -0.42487  -0.26399 
 C                    -2.30807  -0.4734    0.05862 
 O                    -1.51894  -0.77442  -0.82295 
 O                    -3.48883   0.06202  -0.1753 
 C                    -3.8869    0.35011  -1.5146 
 H                    -4.81731  -0.19638  -1.71212 
 H                    -3.1088    0.04878  -2.22473 
 H                    -4.07059   1.42954  -1.58307 
 C                     0.47651   1.70215   0.43494 
 N                    -0.33185   2.47024   0.75324 
 H                     0.16986  -0.70265  -0.76699 
 

 GradGradGradGradGradGradGradGradGradGradGradGradGradGradGradGradGradGrad
 Berny optimization.
 Initialization pass.
 Trust Radius=3.00D-01 FncErr=1.00D-07 GrdErr=1.00D-07 EigMax=2.50D+02 EigMin=1.00D-04
 Number of steps in this run=      2 maximum allowed number of steps=      2.
 GradGradGradGradGradGradGradGradGradGradGradGradGradGradGradGradGradGrad

                          Input orientation:                          
 ---------------------------------------------------------------------
 Center     Atomic      Atomic             Coordinates (Angstroms)
 Number     Number       Type             X           Y           Z
 ---------------------------------------------------------------------
      1          6           0        1.426790    0.737200    0.032410
      2          6           0       -1.070500   -1.421750    1.959750
      3          6           0        2.294080   -1.095070   -0.800050
      4          6           0       -2.069210   -0.661190    1.509190
      5          7           0        1.149740   -0.409200   -0.564180
      6          1           0       -0.903940   -1.557370    3.030110
      7          1           0       -0.396370   -1.944840    1.276320
      8          1           0        2.314200   -2.063600   -1.285270
      9          1           0       -2.764970   -0.157920    2.183420
     10          8           0        2.730040    0.861280    0.210050
     11          6           0        3.381490   -0.317210   -0.317530
     12          8           0        4.576180   -0.424870   -0.263990
     13          6           0       -2.308070   -0.473400    0.058620
     14          8           0       -1.518940   -0.774420   -0.822950
     15          8           0       -3.488830    0.062020   -0.175300
     16          6           0       -3.886900    0.350110   -1.514600
     17          1           0       -4.817310   -0.196380   -1.712120
     18          1           0       -3.108800    0.048780   -2.224730
     19          1           0       -4.070590    1.429540   -1.583070
     20          6           0        0.476510    1.702150    0.434940
     21          7           0       -0.331850    2.470240    0.753240
     22          1           0        0.169860   -0.702650   -0.766990
 ---------------------------------------------------------------------
                    Distance matrix (angstroms):
                    1          2          3          4          5
     1  C    0.000000
     2  C    3.822586   0.000000
     3  C    2.191437   4.363899   0.000000
     4  C    4.044551   1.333746   4.955718   0.000000
     5  N    1.321707   3.510690   1.354831   3.837187   0.000000
     6  H    4.436616   1.091698   5.011106   2.115228   4.295907
     7  H    3.473408   1.093230   3.503133   2.121410   2.852383
     8  H    3.219978   4.732686   1.083464   5.384240   2.147784
     9  H    4.795721   2.125682   5.947548   1.091764   4.789301
    10  O    1.321141   4.766317   2.244475   5.199854   2.170461
    11  C    2.248353   5.121155   1.421391   5.758937   2.247222
    12  O    3.370003   6.150104   2.438136   6.881949   3.439600
    13  C    3.926247   2.458707   4.722666   1.482050   3.514036
    14  O    3.419643   2.891981   3.826547   2.398853   2.705956
    15  O    4.966118   3.550821   5.930533   2.318590   4.678633
    16  C    5.547827   4.810687   6.387773   3.670154   5.181466
    17  H    6.550095   5.387276   7.225744   4.259688   6.080193
    18  H    5.112747   4.881291   5.703439   3.940427   4.593728
    19  H    5.771507   5.448116   6.891720   4.235416   5.627695
    20  C    1.412866   3.804870   3.557134   3.635943   2.430901
    21  N    2.572127   4.141118   4.692510   3.660018   3.495980
    22  H    2.071734   3.080699   2.160416   3.193141   1.042789
                    6          7          8          9         10
     6  H    0.000000
     7  H    1.866424   0.000000
     8  H    5.406958   3.731359   0.000000
     9  H    2.477656   3.102608   6.439052   0.000000
    10  O    5.196962   4.334245   3.311167   5.926896   0.000000
    11  C    5.577598   4.411549   2.263958   6.637703   1.446225
    12  O    6.493486   5.423017   2.974055   7.742969   2.299376
    13  C    3.460683   2.702319   5.069532   2.196147   5.214101
    14  O    3.979611   2.652731   4.070465   3.312238   4.668665
    15  O    4.424786   3.962070   6.278969   2.477076   6.281851
    16  C    5.761156   5.023926   6.658245   3.897714   6.857084
    17  H    6.297262   5.615389   7.384250   4.403273   7.859763
    18  H    5.920681   4.856866   5.895224   4.426368   6.378116
    19  H    6.342770   5.749995   7.283972   4.290818   7.055974
    20  C    4.389194   3.843225   4.529581   4.126044   2.415789
    21  N    4.661874   4.446426   5.631413   3.856516   3.501282
    22  H    4.037519   2.457391   2.592102   4.197008   3.155155
                   11         12         13         14         15
    11  C    0.000000
    12  O    1.200725   0.000000
    13  C    5.704119   6.891976   0.000000
    14  O    4.947596   6.130670   1.220862   0.000000
    15  O    6.882248   8.080180   1.317417   2.235967   0.000000
    16  C    7.396471   8.590014   2.376109   2.711122   1.426597
    17  H    8.317440   9.507205   3.083593   3.464679   2.047790
    18  H    6.774601   7.945298   2.475384   2.273829   2.084409
    19  H    7.757978   8.941221   3.069659   3.456319   2.047040
    20  C    3.617034   4.671189   3.553663   3.420162   4.334321
    21  N    4.765010   5.788366   3.612888   3.797549   4.077773
    22  H    3.265753   4.443628   2.621893   1.691250   3.784287
                   16         17         18         19         20
    16  C    0.000000
    17  H    1.096963   0.000000
    18  H    1.095684   1.800522   0.000000
    19  H    1.097087   1.793840   1.800907   0.000000
    20  C    4.966696   6.019868   4.760454   4.982248   0.000000
    21  N    4.719791   5.771327   4.737428   4.529854   1.159622
    22  H    4.257291   5.101122   3.665960   4.815977   2.705870
                   21         22
    21  N    0.000000
    22  H    3.553877   0.000000
 Stoichiometry    C8H8N2O4
 Framework group  C1[X(C8H8N2O4)]
 Deg. of freedom    60
 Full point group                 C1      NOp   1
 Largest Abelian subgroup         C1      NOp   1
 Largest concise Abelian subgroup C1      NOp   1
                         Standard orientation:                         
 ---------------------------------------------------------------------
 Center     Atomic      Atomic             Coordinates (Angstroms)
 Number     Number       Type             X           Y           Z
 ---------------------------------------------------------------------
      1          6           0        1.426789    0.737200    0.032410
      2          6           0       -1.070500   -1.421750    1.959750
      3          6           0        2.294080   -1.095070   -0.800050
      4          6           0       -2.069210   -0.661190    1.509190
      5          7           0        1.149740   -0.409200   -0.564180
      6          1           0       -0.903940   -1.557370    3.030110
      7          1           0       -0.396370   -1.944840    1.276320
      8          1           0        2.314200   -2.063600   -1.285270
      9          1           0       -2.764970   -0.157920    2.183420
     10          8           0        2.730039    0.861281    0.210050
     11          6           0        3.381490   -0.317209   -0.317530
     12          8           0        4.576180   -0.424869   -0.263990
     13          6           0       -2.308070   -0.473400    0.058620
     14          8           0       -1.518940   -0.774420   -0.822950
     15          8           0       -3.488830    0.062020   -0.175300
     16          6           0       -3.886901    0.350110   -1.514600
     17          1           0       -4.817310   -0.196380   -1.712120
     18          1           0       -3.108800    0.048780   -2.224730
     19          1           0       -4.070591    1.429540   -1.583070
     20          6           0        0.476509    1.702150    0.434940
     21          7           0       -0.331851    2.470240    0.753240
     22          1           0        0.169860   -0.702650   -0.766990
 ---------------------------------------------------------------------
 Rotational constants (GHZ):           1.3236808           0.3433114           0.3317508
 Standard basis: def2SVP (5D, 7F)
 There are   250 symmetry adapted cartesian basis functions of A   symmetry.
 There are   236 symmetry adapted basis functions of A   symmetry.
   236 basis functions,   406 primitive gaussians,   250 cartesian basis functions
    51 alpha electrons       51 beta electrons
       nuclear repulsion energy       845.5791809944 Hartrees.
 NAtoms=   22 NActive=   22 NUniq=   22 SFac= 1.00D+00 NAtFMM=   60 NAOKFM=F Big=F
 Integral buffers will be    131072 words long.
 Raffenetti 2 integral format.
 Two-electron integral symmetry is turned on.
 Nuclear repulsion after empirical dispersion term =      845.5673994362 Hartrees.
 Force inversion solution in PCM.
 ------------------------------------------------------------------------------
 Polarizable Continuum Model (PCM)
 =================================
 Model                : PCM.
 Atomic radii         : UFF (Universal Force Field).
 Polarization charges : Total charges.
 Charge compensation  : None.
 Solution method      : Matrix inversion.
 Cavity type          : Scaled VdW (van der Waals Surface) (Alpha=1.100).
 Cavity algorithm     : GePol (No added spheres)
                        Default sphere list used, NSphG=   22.
                        Lebedev-Laikov grids with approx.  5.0 points / Ang**2.
                        Smoothing algorithm: York/Karplus (Gamma=1.0000).
                        Polarization charges: spherical gaussians, with
                                              point-specific exponents (IZeta= 3).
                        Self-potential: point-specific (ISelfS= 7).
                        Self-field    : sphere-specific E.n sum rule (ISelfD= 2).
 1st derivatives      : Analytical E(r).r(x)/FMM algorithm (CHGder, D1EAlg=3).
                        Cavity 1st derivative terms included.
 2nd derivatives      : Analytical E(r).r(xy)/FMM algorithm (CHGder, D2EAlg=3).
                        Cavity 2nd derivative terms included.
 Solvent              : Toluene, Eps=   2.374100 Eps(inf)=   2.238315
 ------------------------------------------------------------------------------
 One-electron integrals computed using PRISM.
   1 Symmetry operations used in ECPInt.
 ECPInt:  NShTT=    5886 NPrTT=   21942 LenC2=    5508 LenP2D=   14787.
 LDataN:  DoStor=T MaxTD1= 4 Len=   56
 NBasis=   236 RedAO= T EigKep=  3.31D-04  NBF=   236
 NBsUse=   236 1.00D-06 EigRej= -1.00D+00 NBFU=   236
 ExpMin= 1.22D-01 ExpMax= 2.27D+03 ExpMxC= 3.41D+02 IAcc=3 IRadAn=         5 AccDes= 0.00D+00
 Harris functional with IExCor= 4639 and IRadAn=       5 diagonalized for initial guess.
 HarFok:  IExCor= 4639 AccDes= 0.00D+00 IRadAn=         5 IDoV= 1 UseB2=F ITyADJ=14
 ICtDFT=  3500011 ScaDFX=  1.000000  1.000000  1.000000  1.000000
 FoFCou: FMM=F IPFlag=           0 FMFlag=      100000 FMFlg1=           0
         NFxFlg=           0 DoJE=T BraDBF=F KetDBF=T FulRan=T
         wScrn=  0.000000 ICntrl=       500 IOpCl=  0 I1Cent=   200000004 NGrid=           0
         NMat0=    1 NMatS0=      1 NMatT0=    0 NMatD0=    1 NMtDS0=    0 NMtDT0=    0
 Petite list used in FoFCou.
 Requested convergence on RMS density matrix=1.00D-08 within 128 cycles.
 Requested convergence on MAX density matrix=1.00D-06.
 Requested convergence on             energy=1.00D-06.
 No special actions if energy rises.
 Inv3:  Mode=1 IEnd=    12301875.
 Iteration    1 A*A^-1 deviation from unit magnitude is 3.11D-15 for   1806.
 Iteration    1 A*A^-1 deviation from orthogonality  is 1.57D-15 for   2016    880.
 Iteration    1 A^-1*A deviation from unit magnitude is 3.11D-15 for   1806.
 Iteration    1 A^-1*A deviation from orthogonality  is 2.01D-15 for   1368    354.
 Error on total polarization charges =  0.00716
 SCF Done:  E(RwB97XD) =  -719.240534518     A.U. after   15 cycles
            NFock= 15  Conv=0.66D-08     -V/T= 2.0089
 DoSCS=F DFT=T ScalE2(SS,OS)=  1.000000  1.000000
 Range of M.O.s used for correlation:     1   236
 NBasis=   236 NAE=    51 NBE=    51 NFC=     0 NFV=     0
 NROrb=    236 NOA=    51 NOB=    51 NVA=   185 NVB=   185
   1 Symmetry operations used in ECPInt.
 ECPInt:  NShTT=    5886 NPrTT=   21942 LenC2=    5508 LenP2D=   14787.
 LDataN:  DoStor=T MaxTD1= 5 Len=  102
 Symmetrizing basis deriv contribution to polar:
 IMax=3 JMax=2 DiffMx= 0.00D+00
 G2DrvN: will do    23 centers at a time, making    1 passes.
 Calling FoFCou, ICntrl=  3107 FMM=F I1Cent=   0 AccDes= 0.00D+00.
 NEqPCM:  Using equilibrium solvation (IEInf=0, Eps=   2.3741, EpsInf=   2.2383)
 G2PCM: DoFxE=T DoFxN=T DoGrad=T DoDP/DQ/DG/TGxP=FFFF NFrqRd=   0 IEInf=0 SqF1=F DoCFld=F IF1Alg=4.
 End of G2Drv F.D. properties file   721 does not exist.
 End of G2Drv F.D. properties file   722 does not exist.
 End of G2Drv F.D. properties file   788 does not exist.
          IDoAtm=1111111111111111111111
 NEqPCM:  Using equilibrium solvation (IEInf=0, Eps=   2.3741, EpsInf=   2.2383)
          Differentiating once with respect to electric field.
                with respect to dipole field.
          Differentiating once with respect to nuclear coordinates.
 Keep R1 ints in memory in canonical form, NReq=801733543.
          There are    69 degrees of freedom in the 1st order CPHF.  IDoFFX=6 NUNeed=     3.
     66 vectors produced by pass  0 Test12= 1.37D-14 1.45D-09 XBig12= 7.67D+01 4.77D+00.
 AX will form    66 AO Fock derivatives at one time.
     66 vectors produced by pass  1 Test12= 1.37D-14 1.45D-09 XBig12= 1.09D+01 6.85D-01.
     66 vectors produced by pass  2 Test12= 1.37D-14 1.45D-09 XBig12= 3.85D-01 8.10D-02.
     66 vectors produced by pass  3 Test12= 1.37D-14 1.45D-09 XBig12= 5.84D-03 1.26D-02.
     66 vectors produced by pass  4 Test12= 1.37D-14 1.45D-09 XBig12= 5.53D-05 1.35D-03.
     66 vectors produced by pass  5 Test12= 1.37D-14 1.45D-09 XBig12= 3.39D-07 6.00D-05.
     62 vectors produced by pass  6 Test12= 1.37D-14 1.45D-09 XBig12= 1.52D-09 3.73D-06.
     27 vectors produced by pass  7 Test12= 1.37D-14 1.45D-09 XBig12= 6.87D-12 2.34D-07.
      3 vectors produced by pass  8 Test12= 1.37D-14 1.45D-09 XBig12= 3.13D-14 1.98D-08.
      1 vectors produced by pass  9 Test12= 1.37D-14 1.45D-09 XBig12= 1.45D-16 1.47D-09.
 InvSVY:  IOpt=1 It=  1 EMax= 6.22D-15
 Solved reduced A of dimension   489 with    69 vectors.
 Isotropic polarizability for W=    0.000000      125.48 Bohr**3.
 End of Minotr F.D. properties file   721 does not exist.
 End of Minotr F.D. properties file   722 does not exist.
 End of Minotr F.D. properties file   788 does not exist.

 **********************************************************************

            Population analysis using the SCF Density.

 **********************************************************************

 Orbital symmetries:
       Occupied  (A) (A) (A) (A) (A) (A) (A) (A) (A) (A) (A) (A)
                 (A) (A) (A) (A) (A) (A) (A) (A) (A) (A) (A) (A)
                 (A) (A) (A) (A) (A) (A) (A) (A) (A) (A) (A) (A)
                 (A) (A) (A) (A) (A) (A) (A) (A) (A) (A) (A) (A)
                 (A) (A) (A)
       Virtual   (A) (A) (A) (A) (A) (A) (A) (A) (A) (A) (A) (A)
                 (A) (A) (A) (A) (A) (A) (A) (A) (A) (A) (A) (A)
                 (A) (A) (A) (A) (A) (A) (A) (A) (A) (A) (A) (A)
                 (A) (A) (A) (A) (A) (A) (A) (A) (A) (A) (A) (A)
                 (A) (A) (A) (A) (A) (A) (A) (A) (A) (A) (A) (A)
                 (A) (A) (A) (A) (A) (A) (A) (A) (A) (A) (A) (A)
                 (A) (A) (A) (A) (A) (A) (A) (A) (A) (A) (A) (A)
                 (A) (A) (A) (A) (A) (A) (A) (A) (A) (A) (A) (A)
                 (A) (A) (A) (A) (A) (A) (A) (A) (A) (A) (A) (A)
                 (A) (A) (A) (A) (A) (A) (A) (A) (A) (A) (A) (A)
                 (A) (A) (A) (A) (A) (A) (A) (A) (A) (A) (A) (A)
                 (A) (A) (A) (A) (A) (A) (A) (A) (A) (A) (A) (A)
                 (A) (A) (A) (A) (A) (A) (A) (A) (A) (A) (A) (A)
                 (A) (A) (A) (A) (A) (A) (A) (A) (A) (A) (A) (A)
                 (A) (A) (A) (A) (A) (A) (A) (A) (A) (A) (A) (A)
                 (A) (A) (A) (A) (A)
 The electronic state is 1-A.
 Alpha  occ. eigenvalues --  -19.34376 -19.33290 -19.28142 -19.22779 -14.55629
 Alpha  occ. eigenvalues --  -14.47841 -10.46540 -10.44145 -10.42495 -10.37474
 Alpha  occ. eigenvalues --  -10.36809 -10.34474 -10.34191 -10.33617  -1.25495
 Alpha  occ. eigenvalues --   -1.23643  -1.14267  -1.12553  -1.08772  -1.02659
 Alpha  occ. eigenvalues --   -0.91444  -0.89546  -0.85050  -0.78489  -0.74545
 Alpha  occ. eigenvalues --   -0.73370  -0.72230  -0.66978  -0.63743  -0.63062
 Alpha  occ. eigenvalues --   -0.61213  -0.60271  -0.59843  -0.56965  -0.55639
 Alpha  occ. eigenvalues --   -0.52886  -0.52328  -0.51706  -0.50540  -0.49456
 Alpha  occ. eigenvalues --   -0.48817  -0.48109  -0.46729  -0.46067  -0.45846
 Alpha  occ. eigenvalues --   -0.44169  -0.41615  -0.40745  -0.39034  -0.36762
 Alpha  occ. eigenvalues --   -0.28376
 Alpha virt. eigenvalues --   -0.01047  -0.00226   0.05958   0.12846   0.13921
 Alpha virt. eigenvalues --    0.14356   0.15706   0.16201   0.17953   0.18626
 Alpha virt. eigenvalues --    0.19004   0.19889   0.20691   0.21401   0.21811
 Alpha virt. eigenvalues --    0.23476   0.25318   0.26783   0.30553   0.33887
 Alpha virt. eigenvalues --    0.34206   0.35377   0.36856   0.37586   0.38634
 Alpha virt. eigenvalues --    0.43440   0.45744   0.47487   0.48095   0.50003
 Alpha virt. eigenvalues --    0.50762   0.51988   0.53007   0.53825   0.54769
 Alpha virt. eigenvalues --    0.56195   0.57503   0.58539   0.60313   0.60669
 Alpha virt. eigenvalues --    0.62586   0.64529   0.65948   0.66761   0.67770
 Alpha virt. eigenvalues --    0.68655   0.70173   0.70335   0.71405   0.72232
 Alpha virt. eigenvalues --    0.72948   0.73466   0.73781   0.74613   0.75023
 Alpha virt. eigenvalues --    0.75633   0.77550   0.78412   0.80065   0.81547
 Alpha virt. eigenvalues --    0.82210   0.83101   0.88000   0.89831   0.92050
 Alpha virt. eigenvalues --    0.93452   0.96186   0.97038   1.01452   1.03006
 Alpha virt. eigenvalues --    1.05990   1.09580   1.10231   1.10607   1.13071
 Alpha virt. eigenvalues --    1.15305   1.16507   1.17199   1.18629   1.21590
 Alpha virt. eigenvalues --    1.22420   1.27109   1.28009   1.29554   1.30528
 Alpha virt. eigenvalues --    1.32061   1.34454   1.36749   1.37310   1.39682
 Alpha virt. eigenvalues --    1.43430   1.44632   1.50549   1.51694   1.52112
 Alpha virt. eigenvalues --    1.58030   1.58880   1.60453   1.62848   1.64098
 Alpha virt. eigenvalues --    1.66061   1.66711   1.68077   1.70954   1.71660
 Alpha virt. eigenvalues --    1.71943   1.74995   1.76685   1.76911   1.78536
 Alpha virt. eigenvalues --    1.79489   1.80313   1.81565   1.83761   1.85409
 Alpha virt. eigenvalues --    1.88317   1.89100   1.91294   1.92247   1.93786
 Alpha virt. eigenvalues --    1.95434   1.97605   2.02592   2.03369   2.04720
 Alpha virt. eigenvalues --    2.06397   2.07549   2.12806   2.12937   2.14896
 Alpha virt. eigenvalues --    2.19724   2.19893   2.22866   2.28541   2.29152
 Alpha virt. eigenvalues --    2.29857   2.31756   2.32481   2.33965   2.38984
 Alpha virt. eigenvalues --    2.39763   2.40567   2.41523   2.47435   2.50223
 Alpha virt. eigenvalues --    2.52744   2.55890   2.63007   2.64417   2.69557
 Alpha virt. eigenvalues --    2.70776   2.73199   2.73621   2.76313   2.79788
 Alpha virt. eigenvalues --    2.80278   2.83689   2.85075   2.86749   2.87890
 Alpha virt. eigenvalues --    2.93781   2.94422   2.95957   2.98753   3.01586
 Alpha virt. eigenvalues --    3.01790   3.03791   3.07341   3.12083   3.12307
 Alpha virt. eigenvalues --    3.14584   3.18134   3.27340   3.29160   3.30082
 Alpha virt. eigenvalues --    3.36669   3.38206   3.45964   3.49158   3.51814
 Alpha virt. eigenvalues --    3.70276   3.74271   3.75886   3.75992   3.83238
          Condensed to atoms (all electrons):
               1          2          3          4          5          6
     1  C    5.205253   0.004045  -0.109757   0.000916   0.562689  -0.000035
     2  C    0.004045   4.687606  -0.000889   0.599250  -0.000620   0.390825
     3  C   -0.109757  -0.000889   5.296190   0.000291   0.364844  -0.000006
     4  C    0.000916   0.599250   0.000291   5.044213  -0.000767  -0.012249
     5  N    0.562689  -0.000620   0.364844  -0.000767   6.058830   0.000034
     6  H   -0.000035   0.390825  -0.000006  -0.012249   0.000034   0.566967
     7  H   -0.000577   0.398121   0.001735  -0.026556   0.001912  -0.033871
     8  H    0.005355   0.000007   0.415407  -0.000002  -0.027832  -0.000000
     9  H   -0.000014  -0.023530   0.000001   0.391325   0.000003  -0.010234
    10  O    0.453364  -0.000040  -0.125130   0.000012  -0.082216  -0.000001
    11  C   -0.083005  -0.000110   0.359443  -0.000004  -0.030058   0.000001
    12  O    0.002331   0.000000  -0.076905  -0.000000   0.001502   0.000000
    13  C   -0.000324  -0.035090  -0.000018   0.304941   0.000646   0.007665
    14  O   -0.005118   0.010148  -0.000352  -0.101469  -0.030503   0.000232
    15  O   -0.000009   0.004662  -0.000001  -0.099886  -0.000022  -0.000076
    16  C   -0.000003  -0.000215  -0.000000   0.006678   0.000002   0.000004
    17  H   -0.000000   0.000037  -0.000000  -0.000263   0.000000  -0.000000
    18  H    0.000027  -0.000034  -0.000001   0.002325   0.000010  -0.000000
    19  H    0.000001  -0.000014   0.000000  -0.000060  -0.000001  -0.000000
    20  C    0.031841  -0.002201   0.015294  -0.000049  -0.133591   0.000062
    21  N   -0.095822  -0.000859   0.000197   0.000527  -0.004574   0.000001
    22  H   -0.000228   0.000879  -0.016893  -0.001306   0.342690  -0.000005
               7          8          9         10         11         12
     1  C   -0.000577   0.005355  -0.000014   0.453364  -0.083005   0.002331
     2  C    0.398121   0.000007  -0.023530  -0.000040  -0.000110   0.000000
     3  C    0.001735   0.415407   0.000001  -0.125130   0.359443  -0.076905
     4  C   -0.026556  -0.000002   0.391325   0.000012  -0.000004  -0.000000
     5  N    0.001912  -0.027832   0.000003  -0.082216  -0.030058   0.001502
     6  H   -0.033871  -0.000000  -0.010234  -0.000001   0.000001   0.000000
     7  H    0.590482   0.000051   0.006457  -0.000007   0.000047  -0.000001
     8  H    0.000051   0.560027   0.000000   0.003682  -0.025087   0.001303
     9  H    0.006457   0.000000   0.579819   0.000000   0.000000  -0.000000
    10  O   -0.000007   0.003682   0.000000   7.900011   0.261463  -0.064790
    11  C    0.000047  -0.025087   0.000000   0.261463   4.495196   0.764443
    12  O   -0.000001   0.001303  -0.000000  -0.064790   0.764443   7.631212
    13  C   -0.016055   0.000008  -0.029118  -0.000002  -0.000002   0.000000
    14  O    0.006283   0.000084   0.002849  -0.000004  -0.000024   0.000000
    15  O    0.000287   0.000000   0.007004  -0.000000   0.000000   0.000000
    16  C    0.000011   0.000000  -0.000228  -0.000000   0.000000  -0.000000
    17  H    0.000001   0.000000  -0.000044   0.000000   0.000000  -0.000000
    18  H   -0.000037  -0.000000  -0.000002   0.000000  -0.000000  -0.000000
    19  H   -0.000001  -0.000000  -0.000053   0.000000  -0.000000   0.000000
    20  C   -0.000686  -0.000388   0.000038  -0.088704  -0.006075  -0.000284
    21  N    0.000035  -0.000001   0.000239  -0.002255  -0.000108  -0.000000
    22  H    0.001384  -0.004254  -0.000047   0.001517   0.006392  -0.000027
              13         14         15         16         17         18
     1  C   -0.000324  -0.005118  -0.000009  -0.000003  -0.000000   0.000027
     2  C   -0.035090   0.010148   0.004662  -0.000215   0.000037  -0.000034
     3  C   -0.000018  -0.000352  -0.000001  -0.000000  -0.000000  -0.000001
     4  C    0.304941  -0.101469  -0.099886   0.006678  -0.000263   0.002325
     5  N    0.000646  -0.030503  -0.000022   0.000002   0.000000   0.000010
     6  H    0.007665   0.000232  -0.000076   0.000004  -0.000000  -0.000000
     7  H   -0.016055   0.006283   0.000287   0.000011   0.000001  -0.000037
     8  H    0.000008   0.000084   0.000000   0.000000   0.000000  -0.000000
     9  H   -0.029118   0.002849   0.007004  -0.000228  -0.000044  -0.000002
    10  O   -0.000002  -0.000004  -0.000000  -0.000000   0.000000   0.000000
    11  C   -0.000002  -0.000024   0.000000   0.000000   0.000000  -0.000000
    12  O    0.000000   0.000000   0.000000  -0.000000  -0.000000  -0.000000
    13  C    4.508889   0.601872   0.397418  -0.032142   0.001857  -0.010316
    14  O    0.601872   7.834734  -0.075859  -0.015505   0.000144   0.026906
    15  O    0.397418  -0.075859   7.890900   0.254072  -0.023109  -0.025640
    16  C   -0.032142  -0.015505   0.254072   4.471811   0.405623   0.398867
    17  H    0.001857   0.000144  -0.023109   0.405623   0.582780  -0.020404
    18  H   -0.010316   0.026906  -0.025640   0.398867  -0.020404   0.575007
    19  H    0.001663   0.000283  -0.023593   0.406773  -0.020628  -0.019854
    20  C    0.003134   0.005874  -0.000439   0.000030  -0.000002  -0.000007
    21  N    0.000804  -0.000566   0.000062  -0.000071   0.000002  -0.000004
    22  H   -0.006836   0.071860   0.000520  -0.000021  -0.000007   0.000100
              19         20         21         22
     1  C    0.000001   0.031841  -0.095822  -0.000228
     2  C   -0.000014  -0.002201  -0.000859   0.000879
     3  C    0.000000   0.015294   0.000197  -0.016893
     4  C   -0.000060  -0.000049   0.000527  -0.001306
     5  N   -0.000001  -0.133591  -0.004574   0.342690
     6  H   -0.000000   0.000062   0.000001  -0.000005
     7  H   -0.000001  -0.000686   0.000035   0.001384
     8  H   -0.000000  -0.000388  -0.000001  -0.004254
     9  H   -0.000053   0.000038   0.000239  -0.000047
    10  O    0.000000  -0.088704  -0.002255   0.001517
    11  C   -0.000000  -0.006075  -0.000108   0.006392
    12  O    0.000000  -0.000284  -0.000000  -0.000027
    13  C    0.001663   0.003134   0.000804  -0.006836
    14  O    0.000283   0.005874  -0.000566   0.071860
    15  O   -0.023593  -0.000439   0.000062   0.000520
    16  C    0.406773   0.000030  -0.000071  -0.000021
    17  H   -0.020628  -0.000002   0.000002  -0.000007
    18  H   -0.019854  -0.000007  -0.000004   0.000100
    19  H    0.576789   0.000060   0.000032   0.000018
    20  C    0.000060   5.401238   0.857788  -0.023813
    21  N    0.000032   0.857788   6.168618  -0.000391
    22  H    0.000018  -0.023813  -0.000391   0.431962
 Mulliken charges:
               1
     1  C    0.029069
     2  C   -0.031978
     3  C   -0.123450
     4  C   -0.107867
     5  N   -0.022977
     6  H    0.090686
     7  H    0.070985
     8  H    0.071641
     9  H    0.075534
    10  O   -0.256900
    11  C    0.257489
    12  O   -0.258785
    13  C    0.301006
    14  O   -0.331870
    15  O   -0.306291
    16  C    0.104316
    17  H    0.074013
    18  H    0.073057
    19  H    0.078583
    20  C   -0.059116
    21  N    0.076347
    22  H    0.196506
 Sum of Mulliken charges =  -0.00000
 Mulliken charges with hydrogens summed into heavy atoms:
               1
     1  C    0.029069
     2  C    0.129694
     3  C   -0.051809
     4  C   -0.032333
     5  N    0.173528
    10  O   -0.256900
    11  C    0.257489
    12  O   -0.258785
    13  C    0.301006
    14  O   -0.331870
    15  O   -0.306291
    16  C    0.329969
    20  C   -0.059116
    21  N    0.076347
 APT charges:
               1
     1  C   -0.082542
     2  C   -0.007880
     3  C   -0.601923
     4  C   -0.273506
     5  N    0.208124
     6  H    0.073753
     7  H    0.076955
     8  H    0.147470
     9  H    0.079454
    10  O   -0.342258
    11  C    1.166153
    12  O   -1.045095
    13  C    1.511623
    14  O   -1.015214
    15  O   -1.023159
    16  C    0.457961
    17  H    0.005944
    18  H    0.049313
    19  H    0.011099
    20  C    0.551186
    21  N   -0.550512
    22  H    0.603055
 Sum of APT charges =  -0.00000
 APT charges with hydrogens summed into heavy atoms:
               1
     1  C   -0.082542
     2  C    0.142828
     3  C   -0.454453
     4  C   -0.194052
     5  N    0.811179
    10  O   -0.342258
    11  C    1.166153
    12  O   -1.045095
    13  C    1.511623
    14  O   -1.015214
    15  O   -1.023159
    16  C    0.524317
    20  C    0.551186
    21  N   -0.550512
 Electronic spatial extent (au):  <R**2>=           3393.1649
 Charge=             -0.0000 electrons
 Dipole moment (field-independent basis, Debye):
    X=             -8.0288    Y=             -3.0551    Z=             -0.8378  Tot=              8.6311
 Quadrupole moment (field-independent basis, Debye-Ang):
   XX=           -100.5679   YY=            -83.4025   ZZ=            -71.9913
   XY=              0.4273   XZ=              4.2445   YZ=             -4.9395
 Traceless Quadrupole moment (field-independent basis, Debye-Ang):
   XX=            -15.2474   YY=              1.9181   ZZ=             13.3293
   XY=              0.4273   XZ=              4.2445   YZ=             -4.9395
 Octapole moment (field-independent basis, Debye-Ang**2):
  XXX=           -224.9948  YYY=            -28.4845  ZZZ=              3.6098  XYY=              6.3903
  XXY=             12.4719  XXZ=            -24.3293  XZZ=            -16.6509  YZZ=             -8.1683
  YYZ=            -11.7089  XYZ=              7.9608
 Hexadecapole moment (field-independent basis, Debye-Ang**3):
 XXXX=          -3751.4918 YYYY=           -669.2007 ZZZZ=           -474.2056 XXXY=             34.7787
 XXXZ=            164.8557 YYYX=             -1.7601 YYYZ=            -11.8416 ZZZX=             13.9250
 ZZZY=            -18.7878 XXYY=           -623.5977 XXZZ=           -546.3016 YYZZ=           -185.4550
 XXYZ=            -10.1937 YYXZ=              5.7494 ZZXY=             -5.4505
 N-N= 8.455673994362D+02 E-N=-3.369846722055D+03  KE= 7.129047491195D+02
  Exact polarizability:     159.375     -48.365     120.721      -3.479      13.168      96.334
 Approx polarizability:     157.176     -50.601     130.980      -8.733      20.331      96.446
   1 Symmetry operations used in ECPInt.
 ECPInt:  NShTT=    5886 NPrTT=   21942 LenC2=    5508 LenP2D=   14787.
 LDataN:  DoStor=T MaxTD1= 6 Len=  172
 D2PCM: PCM CHGder 2nd derivatives, FixD1E=F FixD2E=F DoIter=F DoCFld=F I1PDM=0
 Calling FoFJK, ICntrl=    100127 FMM=F ISym2X=0 I1Cent= 0 IOpClX= 0 NMat=1 NMatS=1 NMatT=0.
 Full mass-weighted force constant matrix:
 Low frequencies --- -115.9863  -21.2744  -10.0148   -1.6693   -0.0006   -0.0005
 Low frequencies ---   -0.0003   16.1930   27.1418
 ******    1 imaginary frequencies (negative Signs) ****** 
 Diagonal vibrational polarizability:
      203.6434289      57.2842297      96.5163034
 Harmonic frequencies (cm**-1), IR intensities (KM/Mole), Raman scattering
 activities (A**4/AMU), depolarization ratios for plane and unpolarized
 incident light, reduced masses (AMU), force constants (mDyne/A),
 and normal coordinates:
                      1                      2                      3
                      A                      A                      A
 Frequencies --   -115.9812                15.3946                26.4503
 Red. masses --      1.0321                 6.0102                 5.3169
 Frc consts  --      0.0082                 0.0008                 0.0022
 IR Inten    --      0.0122                 1.0373                 1.4671
  Atom  AN      X      Y      Z        X      Y      Z        X      Y      Z
     1   6     0.00   0.00  -0.00     0.06   0.00   0.08    -0.01  -0.04  -0.01
     2   6     0.00   0.00  -0.00    -0.12   0.20   0.12    -0.20  -0.08   0.14
     3   6     0.00   0.00  -0.00    -0.01   0.04  -0.08     0.05  -0.04   0.04
     4   6    -0.01  -0.01   0.00    -0.15   0.09   0.01    -0.15  -0.06   0.07
     5   7     0.00   0.00  -0.00     0.01   0.04   0.03     0.02  -0.10   0.07
     6   1    -0.00  -0.01  -0.00    -0.19   0.26   0.14    -0.29  -0.10   0.15
     7   1     0.01   0.02  -0.00    -0.02   0.23   0.19    -0.14  -0.07   0.18
     8   1     0.00   0.00  -0.00    -0.05   0.06  -0.13     0.09  -0.06   0.10
     9   1    -0.02  -0.03   0.00    -0.24   0.06  -0.06    -0.20  -0.06   0.02
    10   8     0.00   0.00   0.00     0.08  -0.02   0.00    -0.01   0.05  -0.10
    11   6     0.00   0.00   0.00     0.03  -0.00  -0.10     0.03   0.07  -0.07
    12   8     0.00   0.00   0.00     0.03  -0.02  -0.19     0.04   0.15  -0.15
    13   6    -0.00  -0.00   0.00    -0.06   0.00  -0.02    -0.01  -0.02   0.05
    14   8     0.01   0.02   0.00     0.02   0.02   0.05     0.03  -0.10   0.11
    15   8    -0.01  -0.03  -0.00    -0.09  -0.10  -0.12     0.07   0.11  -0.04
    16   6    -0.00  -0.00  -0.00    -0.03  -0.21  -0.16     0.22   0.19  -0.07
    17   1    -0.31   0.45   0.20     0.01  -0.27  -0.18     0.19   0.27  -0.17
    18   1    -0.23  -0.51  -0.04     0.03  -0.21  -0.10     0.26   0.15  -0.00
    19   1     0.55   0.09  -0.16    -0.08  -0.22  -0.25     0.31   0.21  -0.04
    20   6     0.00   0.00  -0.00     0.10  -0.01   0.18    -0.05  -0.08  -0.02
    21   7     0.00   0.00  -0.00     0.13  -0.01   0.26    -0.09  -0.11  -0.02
    22   1     0.00   0.01  -0.00     0.00   0.06   0.06     0.03  -0.15   0.13
                      4                      5                      6
                      A                      A                      A
 Frequencies --     47.3292                69.8712                87.4117
 Red. masses --      5.5467                 5.0066                 5.8047
 Frc consts  --      0.0073                 0.0144                 0.0261
 IR Inten    --      1.8604                 5.9200                 4.1161
  Atom  AN      X      Y      Z        X      Y      Z        X      Y      Z
     1   6    -0.08  -0.09   0.05    -0.01   0.06   0.06     0.05  -0.08   0.04
     2   6     0.12   0.16  -0.01    -0.04  -0.18  -0.09    -0.10  -0.09  -0.09
     3   6    -0.00   0.00  -0.06    -0.12  -0.04   0.18     0.12  -0.09   0.14
     4   6     0.20   0.25  -0.03     0.12   0.04  -0.06     0.03   0.12  -0.04
     5   7    -0.03  -0.06  -0.03    -0.09  -0.00   0.21     0.09  -0.14   0.14
     6   1     0.21   0.31  -0.01     0.02  -0.14  -0.09    -0.09  -0.14  -0.10
     7   1    -0.05  -0.07   0.00    -0.24  -0.42  -0.11    -0.24  -0.22  -0.13
     8   1     0.04   0.03  -0.12    -0.18  -0.09   0.27     0.16  -0.12   0.20
     9   1     0.35   0.48  -0.04     0.30   0.27  -0.03     0.15   0.23   0.00
    10   8    -0.09  -0.04   0.06     0.01   0.06  -0.07     0.05   0.02  -0.03
    11   6    -0.04   0.02  -0.01    -0.06  -0.00  -0.01     0.10   0.03   0.00
    12   8    -0.03   0.06  -0.02    -0.05  -0.01  -0.14     0.11   0.12  -0.08
    13   6     0.08   0.06  -0.04     0.04  -0.03  -0.05    -0.02   0.15  -0.03
    14   8    -0.02  -0.15  -0.06    -0.02  -0.15  -0.07    -0.01   0.25  -0.05
    15   8     0.11   0.14  -0.02     0.07   0.03  -0.03    -0.09   0.01   0.03
    16   6     0.03  -0.03  -0.03     0.01  -0.05  -0.03    -0.22  -0.08   0.05
    17   1    -0.03   0.01   0.13    -0.03  -0.01   0.06    -0.20  -0.16   0.15
    18   1    -0.05  -0.19  -0.05    -0.04  -0.15  -0.05    -0.26  -0.07  -0.00
    19   1     0.10  -0.02  -0.16     0.07  -0.05  -0.10    -0.30  -0.10  -0.00
    20   6    -0.11  -0.14   0.09     0.05   0.13   0.06     0.00  -0.10  -0.01
    21   7    -0.14  -0.18   0.13     0.11   0.19   0.06    -0.05  -0.14  -0.06
    22   1    -0.02  -0.09  -0.05    -0.10  -0.01   0.25     0.09  -0.13   0.14
                      7                      8                      9
                      A                      A                      A
 Frequencies --    119.9385               130.9267               153.1926
 Red. masses --      3.6042                10.5607                 7.9427
 Frc consts  --      0.0305                 0.1067                 0.1098
 IR Inten    --      3.1218                 2.3547                 2.6709
  Atom  AN      X      Y      Z        X      Y      Z        X      Y      Z
     1   6    -0.02  -0.03   0.05    -0.03  -0.18   0.39     0.01   0.09   0.06
     2   6     0.21   0.20  -0.04    -0.02  -0.02   0.01     0.01  -0.09   0.03
     3   6    -0.04  -0.08   0.14     0.01   0.09  -0.18    -0.17   0.03   0.01
     4   6    -0.00  -0.09  -0.05    -0.01  -0.01   0.01     0.07   0.01   0.05
     5   7    -0.04  -0.07   0.15    -0.00  -0.01   0.06    -0.09   0.12   0.06
     6   1     0.23   0.25  -0.04    -0.02  -0.02   0.01    -0.06  -0.21   0.02
     7   1     0.39   0.39  -0.02    -0.03  -0.03   0.01     0.02  -0.06   0.01
     8   1    -0.05  -0.10   0.19     0.03   0.24  -0.46    -0.27   0.03  -0.00
     9   1    -0.15  -0.30  -0.05     0.00   0.01   0.01     0.05  -0.03   0.06
    10   8    -0.01   0.00  -0.02    -0.03  -0.20   0.40     0.03  -0.00   0.01
    11   6    -0.02  -0.01   0.00     0.01   0.03  -0.05    -0.09  -0.07  -0.04
    12   8    -0.02   0.03  -0.10     0.02   0.11  -0.24    -0.10  -0.19  -0.11
    13   6    -0.02  -0.05  -0.05    -0.00  -0.01   0.01     0.14   0.12   0.06
    14   8     0.01   0.06  -0.06    -0.01  -0.04   0.01     0.23   0.29   0.08
    15   8    -0.04  -0.10  -0.03     0.00   0.00   0.01     0.09  -0.05  -0.02
    16   6     0.03   0.13   0.00     0.00   0.00   0.01     0.19  -0.14  -0.08
    17   1     0.03   0.18  -0.14     0.00   0.00   0.01     0.24  -0.21  -0.12
    18   1     0.06   0.25  -0.01     0.00  -0.00   0.01     0.26  -0.13   0.01
    19   1     0.05   0.15   0.18     0.01   0.00   0.01     0.13  -0.15  -0.16
    20   6    -0.02  -0.02   0.03     0.00  -0.00   0.03    -0.05   0.06   0.03
    21   7    -0.03  -0.01   0.00     0.04   0.22  -0.42    -0.29  -0.14  -0.10
    22   1    -0.04  -0.06   0.14     0.01   0.03  -0.04    -0.14   0.20   0.11
                     10                     11                     12
                      A                      A                      A
 Frequencies --    170.9541               197.2958               244.8482
 Red. masses --      9.7079                 2.8852                 3.1366
 Frc consts  --      0.1672                 0.0662                 0.1108
 IR Inten    --     28.5520                 2.3992                 9.1061
  Atom  AN      X      Y      Z        X      Y      Z        X      Y      Z
     1   6    -0.23  -0.19  -0.09     0.01   0.01   0.01    -0.01   0.00  -0.00
     2   6     0.03  -0.05   0.02     0.07   0.03  -0.06    -0.09   0.01   0.23
     3   6    -0.00  -0.10  -0.03    -0.00  -0.01   0.04    -0.02   0.00   0.00
     4   6     0.03  -0.03   0.04    -0.09  -0.16  -0.00     0.00  -0.05  -0.08
     5   7    -0.08  -0.22  -0.09     0.00   0.00   0.02    -0.01   0.00  -0.00
     6   1    -0.05  -0.17   0.02     0.01  -0.14  -0.07    -0.41   0.11   0.29
     7   1     0.10   0.05   0.01     0.28   0.34  -0.09     0.14  -0.01   0.47
     8   1     0.12  -0.10  -0.03    -0.01  -0.02   0.04    -0.02   0.00  -0.00
     9   1    -0.04  -0.14   0.05    -0.28  -0.46   0.03    -0.16  -0.06  -0.24
    10   8    -0.25  -0.07  -0.04     0.01   0.00   0.01    -0.01  -0.00   0.00
    11   6    -0.11   0.03   0.01     0.00  -0.00   0.01    -0.02  -0.00  -0.00
    12   8    -0.09   0.19   0.06     0.01   0.00  -0.02    -0.02  -0.01  -0.01
    13   6     0.10   0.10   0.05    -0.00   0.04   0.01     0.13  -0.03  -0.11
    14   8     0.17   0.26   0.05    -0.03  -0.03   0.01     0.10   0.01  -0.15
    15   8     0.07  -0.01  -0.01     0.09   0.26   0.01     0.12  -0.01   0.00
    16   6     0.13  -0.12  -0.06    -0.06  -0.13  -0.02    -0.13   0.03   0.10
    17   1     0.17  -0.18  -0.06    -0.05  -0.25   0.23    -0.16   0.02   0.26
    18   1     0.18  -0.13   0.01    -0.11  -0.28  -0.02    -0.26   0.08  -0.07
    19   1     0.08  -0.13  -0.14    -0.14  -0.16  -0.31    -0.17   0.03   0.18
    20   6    -0.12  -0.10  -0.05     0.00   0.01   0.01    -0.01   0.01  -0.00
    21   7     0.30   0.26   0.14    -0.01  -0.01  -0.00    -0.01   0.01   0.00
    22   1    -0.07  -0.25  -0.10     0.01   0.01   0.00    -0.01   0.00  -0.02
                     13                     14                     15
                      A                      A                      A
 Frequencies --    299.1292               387.0555               458.0425
 Red. masses --      9.7261                 4.3408                10.8277
 Frc consts  --      0.5127                 0.3832                 1.3384
 IR Inten    --      2.5591                38.7280                 9.7880
  Atom  AN      X      Y      Z        X      Y      Z        X      Y      Z
     1   6     0.03   0.14  -0.28    -0.02  -0.00  -0.00     0.09  -0.04  -0.01
     2   6    -0.03  -0.01   0.01    -0.04   0.04  -0.17    -0.00   0.00  -0.01
     3   6    -0.03  -0.17   0.35    -0.01  -0.00   0.00    -0.21  -0.09  -0.06
     4   6     0.00   0.03   0.01    -0.09   0.08   0.03    -0.00   0.00   0.01
     5   7     0.03   0.14  -0.28     0.00  -0.00  -0.01    -0.16   0.02  -0.00
     6   1    -0.03  -0.03   0.01     0.11  -0.19  -0.22    -0.01  -0.04  -0.01
     7   1    -0.05  -0.02  -0.01    -0.12   0.20  -0.37     0.01   0.03  -0.01
     8   1    -0.02  -0.15   0.31    -0.01  -0.01   0.01    -0.36  -0.09  -0.08
     9   1     0.02   0.06   0.00    -0.13  -0.01   0.06    -0.02  -0.03   0.01
    10   8    -0.03  -0.16   0.33    -0.01   0.00   0.00     0.05  -0.23  -0.10
    11   6    -0.01  -0.09   0.18    -0.01   0.00   0.00    -0.15  -0.03  -0.03
    12   8     0.03   0.14  -0.29    -0.02  -0.02  -0.01    -0.11   0.42   0.20
    13   6     0.00  -0.00   0.01     0.08   0.01   0.01     0.01   0.01   0.01
    14   8    -0.01  -0.02   0.00     0.25  -0.12   0.21     0.02  -0.01   0.01
    15   8    -0.01  -0.02   0.01     0.08  -0.06  -0.11     0.02  -0.01  -0.02
    16   6     0.02  -0.00   0.01    -0.20   0.09   0.02    -0.01   0.01  -0.00
    17   1     0.02   0.01  -0.02    -0.25   0.12   0.18    -0.02   0.01   0.02
    18   1     0.03   0.00   0.02    -0.37   0.19  -0.21    -0.03   0.02  -0.03
    19   1     0.02   0.00   0.01    -0.24   0.10   0.21    -0.02   0.01   0.02
    20   6     0.02   0.08  -0.17    -0.03  -0.01  -0.00     0.49   0.17   0.12
    21   7    -0.01  -0.06   0.12    -0.00   0.01   0.01     0.03  -0.24  -0.12
    22   1     0.04   0.19  -0.38    -0.01  -0.02   0.04    -0.23   0.14   0.08
                     16                     17                     18
                      A                      A                      A
 Frequencies --    476.9155               486.0944               542.6429
 Red. masses --      3.1175                11.6331                 1.9188
 Frc consts  --      0.4178                 1.6195                 0.3329
 IR Inten    --      4.6456                 4.5293                 1.7463
  Atom  AN      X      Y      Z        X      Y      Z        X      Y      Z
     1   6    -0.00  -0.00   0.00     0.02   0.08  -0.16     0.00   0.00  -0.01
     2   6    -0.14   0.08  -0.15     0.03  -0.02   0.04    -0.04   0.06  -0.05
     3   6    -0.00  -0.01   0.01    -0.02  -0.08   0.17    -0.00   0.00  -0.00
     4   6    -0.10   0.13  -0.06     0.03  -0.02   0.01    -0.12  -0.07  -0.05
     5   7     0.00   0.00  -0.00     0.02   0.11  -0.22     0.00   0.00  -0.00
     6   1    -0.26  -0.33  -0.18     0.03   0.05   0.05     0.39   0.56  -0.06
     7   1    -0.02   0.42  -0.28     0.01  -0.08   0.07    -0.37  -0.31  -0.10
     8   1    -0.00  -0.00   0.01    -0.01  -0.05   0.09    -0.00   0.00   0.00
     9   1    -0.37  -0.13  -0.14     0.08   0.03   0.03     0.15   0.37  -0.10
    10   8     0.00   0.01  -0.02     0.01   0.06  -0.12     0.00  -0.00   0.00
    11   6     0.00  -0.00   0.00    -0.01  -0.05   0.10    -0.01   0.00   0.00
    12   8    -0.00   0.00  -0.00     0.00   0.02  -0.04    -0.01   0.00  -0.00
    13   6     0.09   0.04  -0.02    -0.02  -0.00   0.00    -0.04  -0.14  -0.02
    14   8    -0.02  -0.05  -0.09    -0.00   0.01   0.02     0.06   0.06  -0.00
    15   8     0.04  -0.07   0.13    -0.01   0.01  -0.03     0.05   0.05   0.05
    16   6     0.14  -0.07   0.17    -0.03   0.01  -0.04     0.04  -0.03   0.07
    17   1     0.15  -0.05   0.07    -0.03   0.01  -0.02     0.05  -0.06   0.11
    18   1     0.19  -0.08   0.23    -0.04   0.02  -0.05     0.04  -0.05   0.08
    19   1     0.17  -0.06   0.15    -0.03   0.01  -0.03     0.02  -0.04   0.00
    20   6    -0.00  -0.02   0.04    -0.06  -0.36   0.71     0.00  -0.01   0.00
    21   7    -0.00   0.01  -0.02     0.02   0.15  -0.30     0.01  -0.00  -0.00
    22   1     0.01   0.01  -0.05     0.02   0.08  -0.15    -0.01   0.00   0.02
                     19                     20                     21
                      A                      A                      A
 Frequencies --    563.4884               617.8575               639.0300
 Red. masses --     11.5095                 6.6211                 1.1569
 Frc consts  --      2.1532                 1.4892                 0.2783
 IR Inten    --      2.8485                 2.7802                50.5243
  Atom  AN      X      Y      Z        X      Y      Z        X      Y      Z
     1   6     0.10  -0.05  -0.02    -0.16  -0.08  -0.06    -0.00  -0.03   0.06
     2   6     0.00  -0.00   0.01     0.00   0.00  -0.00     0.00  -0.00   0.00
     3   6    -0.05   0.17   0.07     0.19   0.05   0.03     0.00   0.03  -0.06
     4   6     0.01   0.01   0.00    -0.00  -0.00   0.00     0.00  -0.00  -0.00
     5   7    -0.01   0.01   0.01     0.03  -0.19  -0.10     0.00   0.03  -0.05
     6   1    -0.05  -0.06   0.01     0.02   0.01  -0.00     0.00  -0.00   0.00
     7   1     0.05   0.03   0.02    -0.01  -0.01  -0.00    -0.00   0.00  -0.00
     8   1     0.28   0.16   0.11     0.57  -0.02   0.17    -0.09  -0.44   0.88
     9   1    -0.02  -0.05   0.01     0.01   0.01   0.00     0.00   0.00  -0.00
    10   8     0.06   0.23   0.12    -0.14   0.01  -0.00     0.00  -0.01   0.01
    11   6    -0.25   0.37   0.16    -0.03   0.21   0.10     0.00   0.01  -0.03
    12   8    -0.32  -0.11  -0.08    -0.04  -0.17  -0.09     0.00   0.00   0.00
    13   6    -0.00   0.02   0.00     0.00   0.00  -0.00    -0.00   0.00  -0.00
    14   8    -0.02  -0.01  -0.01     0.00   0.01   0.00    -0.00   0.00  -0.00
    15   8    -0.01  -0.00  -0.00    -0.01   0.00   0.00    -0.00   0.00   0.00
    16   6    -0.00   0.00  -0.01    -0.00  -0.00   0.00     0.00  -0.00  -0.00
    17   1    -0.00   0.00  -0.01     0.00  -0.00  -0.01     0.00  -0.00  -0.00
    18   1     0.00   0.00  -0.00     0.00  -0.00   0.00     0.00  -0.00   0.00
    19   1     0.00   0.00  -0.00     0.00  -0.00  -0.01     0.00  -0.00  -0.00
    20   6     0.16  -0.36  -0.16     0.29   0.32   0.19    -0.01  -0.01  -0.00
    21   7     0.34  -0.27  -0.11    -0.13  -0.02  -0.02     0.00   0.00   0.00
    22   1    -0.07   0.11   0.06     0.10  -0.36  -0.15    -0.00   0.01   0.00
                     22                     23                     24
                      A                      A                      A
 Frequencies --    658.4171               686.7739               734.9948
 Red. masses --      7.9386                 3.3535                11.2007
 Frc consts  --      2.0277                 0.9319                 3.5650
 IR Inten    --      3.2879                 5.5317                26.0953
  Atom  AN      X      Y      Z        X      Y      Z        X      Y      Z
     1   6    -0.04  -0.24   0.49     0.00   0.01  -0.03     0.09   0.08   0.04
     2   6    -0.00  -0.01   0.02     0.00   0.00   0.06     0.00  -0.00   0.02
     3   6    -0.02  -0.12   0.23     0.00   0.02  -0.01     0.07  -0.16  -0.06
     4   6    -0.01  -0.00   0.04    -0.09   0.02   0.28    -0.01   0.00   0.04
     5   7     0.03   0.15  -0.31    -0.02  -0.01   0.03     0.31  -0.08  -0.00
     6   1     0.10  -0.01   0.00     0.51  -0.27  -0.06     0.08  -0.06  -0.00
     7   1    -0.06   0.01  -0.06    -0.31   0.18  -0.39    -0.04   0.04  -0.06
     8   1     0.04   0.18  -0.35     0.00  -0.00   0.04     0.23  -0.15  -0.08
     9   1     0.01   0.05   0.03    -0.09   0.10   0.22    -0.01   0.02   0.03
    10   8     0.02   0.11  -0.22    -0.01   0.00   0.02     0.39  -0.31  -0.11
    11   6    -0.01  -0.04   0.10     0.02   0.00  -0.01    -0.25   0.28   0.09
    12   8    -0.00   0.01  -0.03     0.02  -0.01   0.00    -0.30   0.05   0.00
    13   6     0.01  -0.02   0.01     0.06  -0.05   0.06     0.01  -0.01  -0.00
    14   8    -0.01   0.01  -0.02    -0.12   0.06  -0.16    -0.02   0.00  -0.03
    15   8     0.02  -0.00  -0.02     0.15  -0.06  -0.09    -0.01   0.00  -0.00
    16   6    -0.00   0.00  -0.01    -0.01   0.01  -0.05    -0.00   0.00  -0.01
    17   1    -0.01   0.00   0.01    -0.05   0.02   0.12    -0.00   0.00  -0.02
    18   1    -0.03   0.01  -0.04    -0.16   0.09  -0.24    -0.00   0.00  -0.01
    19   1    -0.01   0.00   0.01    -0.06   0.01   0.11    -0.00   0.00  -0.01
    20   6     0.02   0.06  -0.11     0.00  -0.01   0.01    -0.22   0.05   0.01
    21   7    -0.00  -0.02   0.04     0.01  -0.00  -0.01    -0.15   0.18   0.08
    22   1     0.05   0.21  -0.43    -0.02   0.02  -0.04     0.34  -0.05  -0.10
                     25                     26                     27
                      A                      A                      A
 Frequencies --    738.1396               791.1032               841.0366
 Red. masses --     11.9639                 9.9507                 4.4461
 Frc consts  --      3.8406                 3.6692                 1.8529
 IR Inten    --     31.2276                30.9382                41.0946
  Atom  AN      X      Y      Z        X      Y      Z        X      Y      Z
     1   6     0.00   0.01  -0.01     0.13   0.03   0.02     0.00   0.00   0.00
     2   6     0.00   0.00   0.00     0.00  -0.00   0.01     0.01  -0.01  -0.01
     3   6     0.03   0.18  -0.37     0.12  -0.37  -0.18    -0.00  -0.01  -0.00
     4   6    -0.00  -0.00   0.01     0.00   0.01   0.02    -0.14  -0.20  -0.01
     5   7    -0.00  -0.05   0.09     0.28  -0.02   0.03     0.00  -0.00  -0.00
     6   1     0.01  -0.01  -0.00     0.05  -0.05  -0.00     0.34   0.63   0.03
     7   1    -0.01   0.00  -0.01    -0.03   0.04  -0.05    -0.12  -0.29   0.09
     8   1    -0.01  -0.07   0.14     0.05  -0.39  -0.15    -0.01  -0.01  -0.00
     9   1    -0.01  -0.01   0.01    -0.01   0.02   0.01     0.20   0.16   0.08
    10   8     0.03   0.07  -0.16    -0.12   0.38   0.18     0.00   0.01   0.00
    11   6    -0.07  -0.36   0.75    -0.14  -0.32  -0.17    -0.00  -0.01  -0.00
    12   8     0.01   0.10  -0.20    -0.25   0.07   0.01    -0.00   0.00   0.00
    13   6     0.00   0.00  -0.00     0.01  -0.02  -0.01     0.19   0.43   0.02
    14   8    -0.00   0.00  -0.00     0.00  -0.00  -0.01    -0.05  -0.11  -0.02
    15   8     0.00  -0.00  -0.00    -0.01   0.01   0.00    -0.03  -0.09  -0.01
    16   6     0.00  -0.00  -0.00    -0.00   0.00  -0.00     0.01  -0.01   0.02
    17   1    -0.00   0.00   0.00    -0.00   0.00  -0.03     0.01   0.01  -0.01
    18   1    -0.00   0.00  -0.00     0.01  -0.01   0.01     0.00   0.00   0.01
    19   1    -0.00  -0.00   0.00    -0.00   0.00  -0.03     0.01  -0.00   0.07
    20   6    -0.01   0.01  -0.03     0.08   0.10   0.06    -0.00   0.00   0.00
    21   7    -0.00   0.00   0.01    -0.03   0.00  -0.00    -0.00   0.00   0.00
    22   1    -0.00  -0.05   0.09     0.31   0.08  -0.02     0.01  -0.01  -0.01
                     28                     29                     30
                      A                      A                      A
 Frequencies --    901.5225               994.9941              1010.8370
 Red. masses --      2.8419                 2.7159                 1.5397
 Frc consts  --      1.3608                 1.5842                 0.9269
 IR Inten    --     16.1801                84.8899                66.6482
  Atom  AN      X      Y      Z        X      Y      Z        X      Y      Z
     1   6     0.01  -0.00   0.00     0.03  -0.06  -0.02    -0.00   0.03   0.02
     2   6    -0.01   0.01  -0.11     0.03   0.04   0.01     0.05   0.07   0.01
     3   6     0.01  -0.02  -0.01    -0.09  -0.09  -0.05     0.05   0.04   0.03
     4   6     0.02   0.01  -0.09    -0.00   0.01   0.01     0.00   0.01   0.00
     5   7    -0.00  -0.01  -0.02    -0.13  -0.09  -0.13     0.07   0.08  -0.01
     6   1    -0.48   0.30   0.00    -0.01  -0.13  -0.01    -0.11  -0.18  -0.00
     7   1     0.25  -0.18   0.30    -0.21  -0.23  -0.02    -0.38  -0.49  -0.00
     8   1     0.05  -0.02  -0.01     0.07  -0.08  -0.09     0.04   0.07  -0.00
     9   1     0.10  -0.11   0.08    -0.15  -0.16  -0.02    -0.23  -0.31   0.01
    10   8     0.02   0.02   0.01     0.16   0.12   0.08    -0.08  -0.06  -0.03
    11   6    -0.00   0.00   0.00     0.03   0.04   0.03    -0.02  -0.04  -0.01
    12   8    -0.01   0.00   0.00     0.05   0.01   0.01    -0.03  -0.00  -0.00
    13   6    -0.06  -0.00   0.11     0.00   0.01  -0.01     0.00   0.01  -0.01
    14   8    -0.16   0.06   0.09     0.02  -0.01  -0.02    -0.01  -0.00  -0.01
    15   8     0.17  -0.06  -0.13    -0.01   0.00   0.02     0.00  -0.00  -0.01
    16   6     0.07  -0.03   0.07    -0.01   0.01  -0.02     0.00  -0.00   0.01
    17   1    -0.02   0.01   0.33    -0.00  -0.00  -0.03     0.00   0.00   0.01
    18   1    -0.18   0.10  -0.26     0.02  -0.01   0.02    -0.00   0.00   0.00
    19   1    -0.04  -0.04   0.31     0.01   0.01  -0.03     0.00  -0.00   0.01
    20   6    -0.01   0.01   0.00    -0.02   0.03   0.01     0.01  -0.01  -0.01
    21   7    -0.01   0.01   0.00    -0.05   0.04   0.02     0.02  -0.02  -0.01
    22   1    -0.04  -0.02   0.10    -0.29  -0.35   0.69     0.06  -0.25   0.55
                     31                     32                     33
                      A                      A                      A
 Frequencies --   1026.1539              1029.2883              1059.6886
 Red. masses --      1.2552                 1.1852                 4.3413
 Frc consts  --      0.7787                 0.7398                 2.8723
 IR Inten    --      0.2883                42.4254                18.4821
  Atom  AN      X      Y      Z        X      Y      Z        X      Y      Z
     1   6    -0.00   0.00   0.00     0.01   0.01   0.01     0.01   0.00   0.00
     2   6     0.06   0.08   0.00    -0.05  -0.07  -0.01    -0.03   0.04  -0.15
     3   6    -0.00   0.00   0.00     0.03   0.02   0.02     0.02   0.01   0.01
     4   6    -0.06  -0.09  -0.00    -0.01   0.00   0.01    -0.05  -0.00   0.04
     5   7     0.00   0.00  -0.00     0.02   0.04  -0.04    -0.00   0.01   0.01
     6   1    -0.40  -0.56  -0.00     0.15   0.15  -0.01    -0.52   0.33  -0.04
     7   1    -0.00   0.01  -0.01     0.38   0.46   0.02     0.16  -0.19   0.23
     8   1    -0.00   0.00  -0.00     0.07   0.04  -0.02     0.13   0.01   0.02
     9   1     0.41   0.57  -0.01     0.19   0.25   0.03     0.09   0.02   0.16
    10   8    -0.00  -0.00   0.00    -0.02  -0.02  -0.01    -0.01  -0.01  -0.01
    11   6     0.00  -0.00  -0.00    -0.01  -0.02  -0.00    -0.01  -0.02  -0.01
    12   8    -0.00   0.00  -0.00    -0.02   0.00  -0.00    -0.01   0.00   0.00
    13   6    -0.00   0.00  -0.01    -0.01  -0.00  -0.01     0.13  -0.08   0.14
    14   8    -0.00   0.00   0.00     0.00   0.00  -0.01    -0.01   0.01  -0.05
    15   8    -0.00  -0.00  -0.01     0.00   0.00   0.00     0.06  -0.05   0.28
    16   6     0.00  -0.00   0.01     0.00  -0.00  -0.00    -0.10   0.07  -0.32
    17   1     0.00  -0.00   0.01     0.00  -0.00   0.00    -0.10   0.03  -0.19
    18   1     0.00  -0.00   0.01     0.00  -0.00   0.01    -0.07   0.06  -0.28
    19   1     0.00  -0.00   0.01     0.00  -0.00   0.00    -0.07   0.08  -0.17
    20   6     0.00   0.00  -0.00    -0.00  -0.00  -0.01    -0.00  -0.00  -0.00
    21   7     0.00  -0.00  -0.00     0.01  -0.00  -0.00    -0.00   0.00   0.00
    22   1     0.00  -0.02   0.03    -0.03  -0.30   0.63    -0.02   0.04  -0.02
                     34                     35                     36
                      A                      A                      A
 Frequencies --   1077.6106              1086.1221              1182.2620
 Red. masses --      1.5841                 1.8240                 1.2741
 Frc consts  --      1.0838                 1.2678                 1.0492
 IR Inten    --     64.1828                15.5770                 0.6047
  Atom  AN      X      Y      Z        X      Y      Z        X      Y      Z
     1   6     0.08  -0.01   0.00     0.02  -0.00  -0.00     0.00  -0.00  -0.00
     2   6    -0.00   0.00   0.03     0.02  -0.01  -0.08     0.00  -0.00   0.00
     3   6     0.07   0.06   0.03     0.01   0.02   0.01    -0.00   0.00   0.00
     4   6     0.01  -0.01  -0.04    -0.06   0.04   0.15    -0.00  -0.00  -0.00
     5   7    -0.11   0.00   0.00    -0.03  -0.00   0.00    -0.00  -0.00   0.00
     6   1     0.10  -0.07   0.00    -0.33   0.21   0.00     0.01   0.00   0.00
     7   1    -0.07   0.05  -0.08     0.22  -0.22   0.28    -0.00  -0.00  -0.00
     8   1     0.90   0.05   0.11     0.22   0.01   0.03     0.00   0.00   0.00
     9   1    -0.06   0.04  -0.15     0.22  -0.19   0.63     0.00   0.00   0.00
    10   8     0.03  -0.02  -0.01     0.01  -0.00  -0.00     0.00   0.00   0.00
    11   6    -0.03  -0.10  -0.05    -0.01  -0.02  -0.01    -0.00  -0.00  -0.00
    12   8    -0.05   0.02   0.01    -0.01   0.01   0.00    -0.00   0.00   0.00
    13   6    -0.00   0.01   0.01    -0.02  -0.02  -0.07    -0.00   0.00  -0.00
    14   8    -0.01   0.00   0.02     0.07  -0.02  -0.07     0.00   0.00   0.00
    15   8     0.00  -0.00   0.00    -0.04   0.03  -0.06     0.02   0.06   0.01
    16   6     0.00  -0.00  -0.00    -0.00  -0.01   0.09    -0.05  -0.13  -0.01
    17   1    -0.00  -0.00   0.02     0.04  -0.02  -0.07    -0.22   0.33  -0.51
    18   1    -0.01   0.00  -0.02     0.09  -0.06   0.21     0.12   0.30   0.00
    19   1    -0.01  -0.00   0.01     0.05  -0.01  -0.06     0.35  -0.03   0.57
    20   6    -0.02   0.00  -0.00    -0.01   0.00   0.00     0.00   0.00   0.00
    21   7    -0.01   0.02   0.01    -0.00   0.01   0.00    -0.00   0.00   0.00
    22   1    -0.17   0.17  -0.07    -0.04   0.05  -0.07     0.00  -0.00  -0.01
                     37                     38                     39
                      A                      A                      A
 Frequencies --   1208.8661              1223.6891              1286.0586
 Red. masses --      1.5455                 2.3628                 1.4776
 Frc consts  --      1.3307                 2.0846                 1.4399
 IR Inten    --     84.6223               114.6731                67.0878
  Atom  AN      X      Y      Z        X      Y      Z        X      Y      Z
     1   6     0.00   0.00   0.00     0.00  -0.04  -0.02     0.00  -0.00  -0.00
     2   6     0.01  -0.01  -0.02    -0.00   0.00  -0.00    -0.08   0.06   0.06
     3   6    -0.00   0.01   0.00    -0.02   0.21   0.10     0.00   0.00   0.00
     4   6     0.00  -0.00  -0.00     0.00   0.00  -0.00     0.05  -0.04  -0.09
     5   7     0.00  -0.00  -0.00     0.03  -0.10  -0.05     0.00  -0.00  -0.00
     6   1    -0.05   0.05  -0.01     0.00  -0.00  -0.00     0.04  -0.03   0.02
     7   1     0.04  -0.03   0.03    -0.00   0.01  -0.00    -0.27   0.23  -0.26
     8   1    -0.02   0.01   0.00    -0.36   0.25   0.09    -0.01   0.00  -0.00
     9   1    -0.15   0.12  -0.25     0.01  -0.01   0.01     0.47  -0.36   0.57
    10   8     0.00   0.00   0.00     0.09   0.03   0.02     0.00   0.00   0.00
    11   6    -0.00  -0.01  -0.00    -0.01  -0.15  -0.07    -0.00  -0.00  -0.00
    12   8    -0.00   0.00   0.00    -0.07   0.04   0.01    -0.00   0.00   0.00
    13   6     0.07  -0.03   0.08     0.00  -0.00  -0.00    -0.05   0.02  -0.03
    14   8    -0.05   0.02   0.01    -0.00   0.01   0.00    -0.01   0.01   0.02
    15   8     0.06  -0.02  -0.07    -0.01   0.00   0.00     0.08  -0.04   0.03
    16   6    -0.12   0.04   0.06     0.01  -0.00  -0.00    -0.05   0.02  -0.02
    17   1     0.07  -0.09  -0.49    -0.01   0.01   0.04     0.03  -0.08  -0.10
    18   1     0.24  -0.14   0.54    -0.03   0.02  -0.07     0.11  -0.06   0.19
    19   1     0.17   0.07  -0.43    -0.02  -0.01   0.03     0.10   0.04  -0.08
    20   6    -0.00  -0.00   0.00     0.00   0.01   0.01     0.00   0.00   0.00
    21   7    -0.00   0.00  -0.00    -0.01   0.01   0.00    -0.00   0.00   0.00
    22   1     0.02  -0.06   0.00     0.29  -0.70  -0.32    -0.00   0.00   0.00
                     40                     41                     42
                      A                      A                      A
 Frequencies --   1350.5474              1374.4930              1429.1181
 Red. masses --      2.2267                 2.1171                 1.2382
 Frc consts  --      2.3929                 2.3565                 1.4900
 IR Inten    --    441.4146               242.6226               128.8272
  Atom  AN      X      Y      Z        X      Y      Z        X      Y      Z
     1   6    -0.13   0.16   0.07     0.04  -0.04  -0.01     0.01  -0.00  -0.00
     2   6    -0.01   0.01  -0.00    -0.04   0.03   0.00    -0.04   0.03   0.00
     3   6    -0.19  -0.05  -0.04     0.05   0.00   0.01     0.01  -0.00  -0.00
     4   6     0.02  -0.01  -0.01     0.07  -0.06  -0.01    -0.05   0.04  -0.08
     5   7     0.05   0.00   0.00    -0.02   0.00  -0.00    -0.01   0.00   0.00
     6   1    -0.07   0.05   0.01    -0.35   0.28   0.06     0.48  -0.37  -0.12
     7   1    -0.07   0.05  -0.08    -0.30   0.25  -0.40     0.22  -0.19   0.41
     8   1     0.67  -0.08   0.02    -0.15   0.01  -0.01    -0.02  -0.01  -0.00
     9   1     0.06  -0.04   0.04     0.16  -0.10   0.08     0.13  -0.10   0.21
    10   8     0.02   0.00   0.00    -0.01  -0.00  -0.00    -0.00  -0.00  -0.00
    11   6     0.00  -0.01  -0.00     0.00   0.01   0.01    -0.00   0.00   0.00
    12   8     0.06   0.00   0.01    -0.01  -0.00  -0.00    -0.00  -0.00  -0.00
    13   6     0.05  -0.02   0.03     0.14  -0.07   0.13     0.06  -0.03   0.03
    14   8    -0.01   0.01   0.00     0.01  -0.00  -0.03    -0.01   0.01   0.01
    15   8    -0.03   0.01  -0.01    -0.12   0.06  -0.06    -0.01   0.01   0.01
    16   6     0.01  -0.01   0.02     0.05  -0.03   0.08     0.02  -0.01   0.05
    17   1    -0.01   0.05  -0.04    -0.05   0.20  -0.17     0.01   0.10  -0.26
    18   1    -0.07   0.04  -0.10    -0.22   0.13  -0.30    -0.21   0.12  -0.25
    19   1    -0.05  -0.02  -0.05    -0.17  -0.07  -0.20    -0.05  -0.04  -0.27
    20   6     0.02  -0.02  -0.01    -0.01   0.00   0.00    -0.00  -0.00  -0.00
    21   7     0.05  -0.05  -0.02    -0.01   0.01   0.00    -0.00   0.00   0.00
    22   1     0.29  -0.52  -0.19    -0.08   0.09   0.11    -0.00   0.00  -0.02
                     43                     44                     45
                      A                      A                      A
 Frequencies --   1471.0785              1471.7700              1480.3386
 Red. masses --      1.3155                 3.4076                 1.0404
 Frc consts  --      1.6773                 4.3489                 1.3433
 IR Inten    --     43.5050                52.0173                11.4988
  Atom  AN      X      Y      Z        X      Y      Z        X      Y      Z
     1   6     0.05  -0.04  -0.01    -0.19   0.12   0.04     0.00   0.00   0.00
     2   6     0.02  -0.01   0.00     0.02  -0.01   0.00    -0.00  -0.00  -0.00
     3   6    -0.08   0.03   0.01     0.27  -0.10  -0.02     0.00  -0.00  -0.00
     4   6     0.00  -0.00   0.03     0.00  -0.00   0.02     0.00   0.00   0.00
     5   7     0.05  -0.03  -0.01    -0.18   0.08   0.03    -0.00  -0.00  -0.00
     6   1    -0.10   0.08   0.03    -0.10   0.07   0.03     0.00  -0.00  -0.00
     7   1    -0.03   0.03  -0.08    -0.04   0.03  -0.08     0.00  -0.00   0.00
     8   1     0.09   0.03   0.02    -0.29  -0.11  -0.08    -0.00  -0.00  -0.00
     9   1    -0.05   0.04  -0.05    -0.04   0.03  -0.04    -0.00  -0.00  -0.00
    10   8    -0.03   0.00  -0.00     0.11   0.00   0.01    -0.00  -0.00  -0.00
    11   6    -0.00   0.01   0.00     0.00  -0.02  -0.01     0.00   0.00   0.00
    12   8     0.01  -0.00   0.00    -0.05   0.00  -0.00     0.00  -0.00  -0.00
    13   6    -0.04   0.02  -0.05    -0.03   0.02  -0.05    -0.00   0.00  -0.00
    14   8    -0.00  -0.00   0.01     0.00   0.00   0.01    -0.00  -0.00  -0.00
    15   8     0.01  -0.01   0.03     0.01  -0.01   0.02    -0.00  -0.01  -0.00
    16   6    -0.02   0.00   0.05    -0.02   0.00   0.03    -0.02  -0.05  -0.00
    17   1     0.27  -0.40  -0.19     0.21  -0.32  -0.11    -0.21   0.14   0.43
    18   1    -0.34   0.23  -0.41    -0.24   0.17  -0.29     0.32   0.64   0.07
    19   1     0.51   0.08  -0.19     0.41   0.06  -0.12     0.21  -0.02  -0.43
    20   6     0.00   0.00   0.00    -0.00  -0.01  -0.01    -0.00  -0.00  -0.00
    21   7    -0.02   0.01   0.01     0.05  -0.05  -0.02    -0.00   0.00   0.00
    22   1     0.01   0.10   0.06    -0.03  -0.34  -0.18     0.00  -0.00  -0.00
                     46                     47                     48
                      A                      A                      A
 Frequencies --   1493.3388              1508.7938              1640.0200
 Red. masses --      1.4946                 3.3200                 4.0660
 Frc consts  --      1.9638                 4.4530                 6.4435
 IR Inten    --    201.9268                76.9584                68.0376
  Atom  AN      X      Y      Z        X      Y      Z        X      Y      Z
     1   6    -0.02  -0.00  -0.00     0.34   0.12   0.09    -0.01   0.33   0.16
     2   6     0.03  -0.03   0.01     0.01  -0.01  -0.00     0.00  -0.00   0.00
     3   6    -0.00   0.00   0.00     0.03  -0.07  -0.03     0.03   0.07   0.04
     4   6    -0.00   0.00   0.04     0.00   0.00   0.01    -0.01   0.00  -0.01
     5   7     0.01   0.00   0.00    -0.13  -0.03  -0.02     0.03  -0.29  -0.14
     6   1    -0.15   0.11   0.05    -0.03   0.03   0.01     0.01  -0.01   0.00
     7   1    -0.04   0.04  -0.12    -0.01   0.00  -0.02     0.00  -0.00   0.00
     8   1     0.01   0.00   0.00    -0.15  -0.08  -0.05    -0.26   0.09   0.02
     9   1    -0.09   0.06  -0.07    -0.02   0.01  -0.01     0.00  -0.00   0.00
    10   8     0.01   0.00   0.00    -0.14  -0.02  -0.02    -0.03  -0.02  -0.01
    11   6     0.00  -0.01  -0.00    -0.01   0.09   0.05     0.02  -0.05  -0.02
    12   8    -0.00   0.00   0.00     0.01  -0.02  -0.01    -0.02   0.01   0.00
    13   6    -0.08   0.04  -0.11    -0.01   0.01  -0.04    -0.02   0.01   0.03
    14   8    -0.01   0.00   0.03    -0.00   0.01   0.02     0.02  -0.01  -0.02
    15   8     0.08  -0.04   0.05     0.02  -0.01   0.01     0.00   0.00  -0.00
    16   6     0.04  -0.02   0.05     0.00   0.00  -0.00     0.00  -0.00   0.00
    17   1    -0.17   0.49  -0.41    -0.01   0.03  -0.03     0.00   0.01  -0.02
    18   1    -0.11   0.03  -0.13    -0.00  -0.02   0.00    -0.01   0.01  -0.01
    19   1    -0.47  -0.13  -0.43    -0.04  -0.01  -0.01    -0.00  -0.00  -0.02
    20   6     0.00   0.00   0.00    -0.03  -0.02  -0.01    -0.00  -0.02  -0.01
    21   7     0.00  -0.00  -0.00    -0.02   0.02   0.01     0.04  -0.04  -0.01
    22   1    -0.00   0.04   0.01     0.19  -0.77  -0.37    -0.43   0.64   0.27
                     49                     50                     51
                      A                      A                      A
 Frequencies --   1737.5707              1797.7669              1912.4559
 Red. masses --      5.2950                 9.2438                12.4150
 Frc consts  --      9.4189                17.6022                26.7534
 IR Inten    --     56.2689               503.4181              1283.3640
  Atom  AN      X      Y      Z        X      Y      Z        X      Y      Z
     1   6    -0.00   0.01   0.00     0.01  -0.01  -0.00    -0.01  -0.01  -0.01
     2   6    -0.29   0.23  -0.15    -0.06   0.04  -0.01    -0.00   0.00   0.00
     3   6     0.00   0.00   0.00     0.00  -0.01  -0.01    -0.14  -0.05  -0.04
     4   6     0.32  -0.24   0.24     0.08  -0.05  -0.03     0.00  -0.00  -0.00
     5   7    -0.00  -0.01  -0.00     0.01   0.04   0.02    -0.02   0.03   0.01
     6   1     0.21  -0.16  -0.35     0.10  -0.10  -0.07     0.00  -0.01  -0.00
     7   1     0.04  -0.06   0.50     0.01   0.00   0.13    -0.00  -0.01   0.01
     8   1    -0.01   0.00   0.00     0.02  -0.02  -0.01     0.19  -0.10  -0.03
     9   1    -0.04   0.01  -0.40    -0.04   0.04  -0.25    -0.00  -0.00  -0.01
    10   8     0.00  -0.00  -0.00    -0.01   0.00  -0.00    -0.03  -0.04  -0.02
    11   6     0.00  -0.00  -0.00    -0.03   0.00  -0.00     0.83   0.04   0.09
    12   8    -0.00   0.00   0.00     0.02  -0.00   0.00    -0.48   0.03  -0.03
    13   6    -0.01   0.02  -0.12    -0.46   0.18   0.49    -0.02   0.01   0.02
    14   8    -0.02   0.00   0.04     0.26  -0.10  -0.30     0.01  -0.00  -0.01
    15   8    -0.00   0.00  -0.01     0.07  -0.03  -0.02     0.01  -0.00   0.00
    16   6     0.01  -0.00   0.01    -0.01  -0.00   0.04    -0.00   0.00   0.00
    17   1     0.00   0.01   0.00     0.02   0.05  -0.20     0.00   0.00  -0.01
    18   1    -0.00   0.00  -0.01    -0.13   0.06  -0.09    -0.01   0.00  -0.00
    19   1    -0.00  -0.01   0.00    -0.01  -0.03  -0.20    -0.00  -0.00  -0.01
    20   6     0.00  -0.00  -0.00     0.00  -0.00   0.00     0.02  -0.01  -0.01
    21   7     0.00  -0.00  -0.00    -0.00   0.00   0.00    -0.01   0.01   0.01
    22   1    -0.01   0.07   0.01     0.01  -0.25  -0.18     0.02  -0.02  -0.01
                     52                     53                     54
                      A                      A                      A
 Frequencies --   2385.3597              3084.6871              3170.4503
 Red. masses --     12.6407                 1.0305                 1.1007
 Frc consts  --     42.3770                 5.7775                 6.5186
 IR Inten    --    222.6103                40.9016              1375.7906
  Atom  AN      X      Y      Z        X      Y      Z        X      Y      Z
     1   6    -0.10   0.09   0.04    -0.00   0.00   0.00     0.00   0.00   0.00
     2   6     0.00  -0.00   0.00     0.00  -0.00   0.00    -0.01   0.01  -0.00
     3   6     0.03  -0.01   0.00     0.00   0.00   0.00     0.00  -0.00   0.00
     4   6    -0.00   0.00   0.00     0.00  -0.00   0.00     0.00  -0.00  -0.00
     5   7    -0.01   0.02   0.01    -0.00  -0.00  -0.00    -0.08  -0.03  -0.02
     6   1    -0.00  -0.00   0.00    -0.00   0.00  -0.00     0.01  -0.01   0.08
     7   1     0.00  -0.00   0.00    -0.00   0.00   0.00     0.06  -0.05  -0.06
     8   1    -0.00  -0.02  -0.01    -0.00   0.00   0.00    -0.00   0.01   0.00
     9   1    -0.00  -0.00   0.00    -0.00   0.00   0.00    -0.01   0.01   0.00
    10   8    -0.01   0.01   0.00     0.00   0.00   0.00     0.00   0.00   0.00
    11   6    -0.02  -0.02  -0.01    -0.00   0.00   0.00    -0.00   0.00   0.00
    12   8     0.01   0.00   0.00     0.00   0.00   0.00     0.00   0.00   0.00
    13   6     0.00  -0.00  -0.00    -0.00   0.00  -0.00    -0.01   0.00   0.01
    14   8    -0.00   0.00   0.00     0.00  -0.00  -0.00     0.00  -0.00  -0.01
    15   8    -0.00   0.00   0.00     0.00  -0.00   0.00     0.00  -0.00  -0.00
    16   6     0.00   0.00  -0.00     0.02  -0.01   0.04    -0.00  -0.00  -0.00
    17   1    -0.00  -0.00  -0.00    -0.50  -0.30  -0.10     0.01   0.01   0.00
    18   1    -0.00  -0.00   0.00     0.38  -0.15  -0.34    -0.02   0.01   0.01
    19   1    -0.00  -0.00   0.00    -0.10   0.59  -0.03     0.00  -0.01   0.00
    20   6     0.56  -0.54  -0.22     0.00  -0.00  -0.00     0.00  -0.00  -0.00
    21   7    -0.40   0.38   0.16    -0.00   0.00   0.00    -0.00   0.00   0.00
    22   1    -0.03  -0.01  -0.01     0.03   0.01   0.01     0.91   0.31   0.23
                     55                     56                     57
                      A                      A                      A
 Frequencies --   3176.0629              3198.8231              3218.1765
 Red. masses --      1.0633                 1.1098                 1.1093
 Frc consts  --      6.3193                 6.6906                 6.7687
 IR Inten    --     29.1579                 7.9251                 0.7174
  Atom  AN      X      Y      Z        X      Y      Z        X      Y      Z
     1   6    -0.00  -0.00  -0.00    -0.00   0.00   0.00     0.00   0.00   0.00
     2   6    -0.05   0.04  -0.02    -0.00   0.00   0.00    -0.00   0.00  -0.00
     3   6    -0.00   0.00  -0.00    -0.00  -0.00  -0.00     0.00  -0.00   0.00
     4   6     0.00  -0.00   0.01    -0.00  -0.00   0.00     0.00  -0.00  -0.00
     5   7     0.01   0.00   0.00     0.00   0.00   0.00    -0.00  -0.00  -0.00
     6   1     0.09  -0.07   0.63     0.00   0.00   0.00     0.00  -0.00   0.00
     7   1     0.46  -0.35  -0.47     0.00  -0.00  -0.00     0.00  -0.00  -0.00
     8   1     0.00  -0.00  -0.00    -0.00   0.00   0.00    -0.00   0.00   0.00
     9   1     0.07  -0.05  -0.06     0.00  -0.00  -0.00    -0.01   0.01   0.01
    10   8    -0.00  -0.00  -0.00    -0.00  -0.00  -0.00     0.00   0.00   0.00
    11   6     0.00  -0.00  -0.00     0.00   0.00   0.00     0.00   0.00   0.00
    12   8    -0.00  -0.00  -0.00    -0.00   0.00  -0.00     0.00   0.00  -0.00
    13   6     0.00  -0.00  -0.00    -0.00  -0.00  -0.00    -0.00   0.00   0.00
    14   8    -0.00  -0.00   0.00     0.00   0.00   0.00    -0.00   0.00  -0.00
    15   8    -0.00   0.00  -0.00     0.00   0.00   0.00     0.00  -0.00  -0.00
    16   6     0.00  -0.00   0.00    -0.04  -0.09  -0.01    -0.08   0.03   0.04
    17   1    -0.00  -0.00  -0.00     0.60   0.35   0.12     0.31   0.20   0.06
[...]
 65424,0.00025333,-0.00036669,0.00001005,0.00000706,0.00000165,0.027541
 35,-0.00432923,0.01062789,-0.04352399,-0.00493626,-0.07638946,0.037455
 87,0.01662182,0.04687076,-0.00289624,-0.00475371,-0.00256060,-0.002179
 52,0.00442687,-0.02456431,-0.00030392,0.00301875,0.00125125,-0.0892966
 5,0.00591470,-0.02537038,0.00638779,0.00121370,0.00013388,0.00197070,0
 .00913633,0.00002173,-0.00469979,-0.00309175,-0.00127270,-0.00011173,0
 .00000779,0.00006287,0.00425901,-0.00222122,0.02106005,0.00349721,0.00
 042974,0.00053306,-0.00400606,0.00014171,-0.00018645,0.00346857,0.0000
 5810,0.00030696,0.73872836,0.00068944,0.00155652,0.00097095,0.00513628
 ,0.00060691,0.02094472,0.00137358,-0.00180650,-0.00060646,0.00846853,-
 0.08978828,0.01527909,-0.00567607,0.00055833,0.00005784,0.00918988,0.0
 0732202,0.00024314,-0.00414719,-0.00638525,0.00074389,0.00008146,0.000
 05166,-0.00005579,-0.00294295,0.00294575,-0.01463945,-0.00188613,-0.00
 030673,-0.00035358,0.00061481,-0.00058105,-0.00033711,-0.00068756,-0.0
 0003578,-0.00003028,-0.22301083,0.31785112,0.00131318,0.00300142,0.001
 87590,-0.01917619,0.01329947,-0.01113695,0.00143975,-0.00265739,-0.001
 74719,-0.00384604,0.00282666,-0.22711008,-0.01391404,-0.00157617,-0.00
 107345,0.00156720,-0.00109320,0.00091120,0.00254815,-0.00113006,-0.000
 35290,0.00009097,-0.00001830,0.00025701,-0.00401467,0.00519837,-0.0095
 4304,-0.00331283,-0.00053275,-0.00093575,0.00118647,-0.00081673,0.0001
 4065,-0.00154441,0.00001557,-0.00035609,-0.16521664,0.03684188,0.84737
 108,0.00166547,0.00737714,0.00403003,-0.00474493,0.00342904,-0.0023525
 7,0.00135393,-0.00675635,-0.00323071,0.01104564,0.00229939,0.01808385,
 -0.03261118,-0.00330026,-0.00150046,0.00052714,-0.00133148,-0.00033116
 ,0.00149951,-0.00101837,-0.00035220,0.00001090,0.00009654,0.00011229,0
 .00153355,0.00078578,-0.00028089,-0.00661538,-0.00116653,-0.00147548,0
 .00358851,-0.00096711,-0.00014867,-0.00415121,-0.00013234,-0.00048019,
 -0.33038572,0.09402547,0.26154285,0.43219196,0.00097129,0.00053666,0.0
 0024845,0.00195291,-0.00198833,0.00079748,-0.00134910,-0.00043388,-0.0
 0044227,0.00075794,0.02070813,-0.00300113,-0.00170802,0.00396087,0.000
 41458,-0.00149174,-0.00055075,0.00023219,-0.00076387,0.00133392,0.0000
 5216,-0.00013957,-0.00002501,0.00002245,0.00123444,0.00118641,0.001169
 99,0.00043984,0.00015408,0.00018769,0.00021441,0.00055646,0.00041554,-
 0.00043000,-0.00005005,-0.00009746,0.09867962,-0.11710810,-0.10009190,
 -0.14182965,0.09509064,-0.00040366,-0.00226836,-0.00120949,0.00658695,
 -0.00470024,-0.00005985,-0.00119897,0.00164123,0.00124999,0.02882265,-
 0.00789338,-0.04798998,0.00995266,0.00211835,0.00513349,-0.00075793,-0
 .00035914,0.00012230,-0.00031067,0.00088553,0.00015311,-0.00009903,0.0
 0000133,-0.00015166,-0.00241797,0.00193828,-0.00791337,0.00245064,0.00
 062725,0.00045077,-0.00119286,0.00064875,-0.00013745,0.00127238,-0.000
 01069,0.00023594,0.26637784,-0.09718129,-0.43537539,-0.31837763,0.1204
 8174,0.47425673,0.00119677,0.00291249,0.00157307,0.00405411,-0.0019634
 3,-0.00336302,0.00052831,-0.00207223,-0.00080282,-0.02441617,0.0181311
 7,-0.01832910,-0.00628426,-0.00158680,-0.00054085,-0.00059500,0.000485
 89,-0.00037235,0.00040001,-0.00087368,0.00094139,0.00008634,0.00002304
 ,-0.00006975,-0.00019623,-0.00065126,-0.00060914,-0.00232477,-0.000380
 93,-0.00039853,0.00230932,-0.00020589,-0.00001625,-0.00203418,-0.00005
 015,-0.00015025,-0.28575186,0.09868183,-0.03992098,-0.08971928,0.04656
 189,0.03701713,0.48183338,-0.00065310,-0.00151418,-0.00083257,-0.00140
 844,0.00199453,0.00153886,-0.00055374,0.00139907,0.00050483,0.01852917
 ,0.00061868,0.01047378,0.00450126,0.00018966,0.00006984,-0.00023403,-0
 .00105158,0.00023065,0.00015429,0.00070972,-0.00031627,-0.00003453,-0.
 00003392,0.00003601,-0.00001015,-0.00033693,0.00068168,0.00139752,0.00
 023756,0.00025611,-0.00086715,0.00023260,0.00010175,0.00088085,0.00003
 707,0.00006577,0.10147723,-0.10839515,0.02287446,0.05019869,0.00826352
 ,-0.01590696,-0.18636571,0.16290309,0.00025129,0.00039166,0.00015491,0
 .00188883,-0.00115276,-0.00767470,-0.00032536,-0.00013006,0.00012923,-
 0.04846536,0.02353892,-0.01691721,0.00087937,-0.00010739,0.00009498,-0
 .00108396,0.00197193,-0.00052725,-0.00043301,-0.00039201,0.00042853,0.
 00000281,0.00002214,-0.00010832,-0.00104322,0.00043483,0.00107159,-0.0
 0001792,0.00001001,0.00009970,0.00064376,0.00020326,-0.00001969,-0.000
 45513,-0.00003433,0.00003792,-0.05533201,0.02787912,-0.14447328,0.0369
 6722,-0.01485376,0.02153468,0.10065801,-0.07189377,0.42711334,-0.00017
 906,-0.00039772,-0.00021051,-0.00013076,0.00004148,-0.00105395,0.00006
 114,0.00021330,0.00009812,-0.00009592,0.00336161,0.00234264,0.00068600
 ,0.00025342,0.00013624,-0.00034343,-0.00017392,0.00001502,0.00011523,0
 .00008420,0.00002144,-0.00001028,0.00000218,0.00000627,0.00001514,-0.0
 0003851,-0.00042247,0.00025153,0.00003680,0.00003293,-0.00041275,-0.00
 002758,-0.00003475,0.00034218,0.00000792,0.00002604,-0.01949674,0.0108
 3579,-0.04306641,0.00387290,-0.00212352,-0.00314936,-0.09367994,0.0118
 3378,-0.00930889,0.62553815,0.00011547,0.00017001,0.00007261,0.0001290
 5,0.00023299,0.00001834,0.00013166,-0.00017163,-0.00005721,0.00285663,
 0.00587221,-0.00120158,-0.00055395,-0.00002288,-0.00005377,-0.00058382
 ,-0.00068514,-0.00004659,0.00021087,0.00030311,0.00005839,0.00001008,0
 .00000590,-0.00000662,-0.00021182,-0.00011637,0.00037451,-0.00020038,-
 0.00003954,-0.00002664,0.00009897,-0.00004827,-0.00002886,-0.00009520,
 -0.00000737,-0.00000236,0.01132337,-0.00930295,0.01902517,-0.00415223,
 -0.00064931,0.00218218,0.01397747,-0.07546733,0.01658138,-0.00109827,0
 .61159431,-0.00038098,-0.00095729,-0.00048634,-0.00092425,0.00034954,0
 .00067517,0.00012498,0.00058216,0.00016718,0.00362056,-0.00129150,0.00
 441814,0.00177001,0.00059611,0.00018834,0.00010283,-0.00027453,0.00018
 166,0.00004490,0.00020395,-0.00021770,-0.00001290,-0.00002256,0.000061
 41,0.00032251,-0.00003858,0.00011550,0.00058853,0.00009783,0.00006524,
 -0.00084789,-0.00008268,-0.00001053,0.00073202,0.00003265,0.00002478,-
 0.04459146,0.02064356,-0.00947366,0.01710448,-0.00605006,-0.01204191,-
 0.03213456,0.02551871,-0.20713614,-0.04441255,0.03128280,0.47969424,0.
 00004436,0.00012502,0.00007141,0.00014823,-0.00000885,-0.00012685,-0.0
 0004142,-0.00005224,-0.00002850,-0.00047494,0.00026241,-0.00022909,-0.
 00013744,-0.00008434,-0.00003478,-0.00004800,0.00000816,-0.00001919,0.
 00000348,-0.00000807,0.00001833,-0.00000155,-0.00000298,-0.00000219,-0
 .00000675,-0.00001691,0.00001686,-0.00005277,-0.00000380,-0.00000803,0
 .00012006,0.00001462,0.00001779,-0.00009950,0.00000012,-0.00000844,0.0
 0148961,-0.00238441,-0.00022093,-0.00060787,0.00072917,-0.00045560,-0.
 00700642,0.00128303,-0.00760139,-0.25432077,-0.12263794,-0.03486248,0.
 26679424,0.00000844,0.00001789,0.00001731,-0.00000398,-0.00002582,0.00
 012135,-0.00004806,0.00000990,-0.00000148,0.00003015,-0.00048095,-0.00
 007635,0.00003103,-0.00002880,-0.00001637,0.00006178,0.00003190,0.0000
 1196,-0.00001188,-0.00002237,-0.00000543,0.00000091,-0.00000043,-0.000
 00027,-0.00001240,0.00001240,-0.00000293,0.00000909,0.00000291,-0.0000
 0099,0.00005353,0.00001941,0.00001803,-0.00003929,-0.00000082,-0.00000
 541,0.00137267,0.00015363,0.00173226,-0.00011802,-0.00033603,0.0000115
 7,0.01183083,0.00795078,0.00396389,-0.12667291,-0.12674231,-0.02447902
 ,0.13050439,0.12451730,0.00004842,0.00009303,0.00004204,0.00018737,-0.
 00007265,-0.00041360,0.00002754,-0.00007720,-0.00001671,-0.00050596,0.
 00201374,-0.00021289,-0.00019687,-0.00003005,-0.00001847,-0.00017846,-
 0.00005257,-0.00003180,0.00002824,0.00001240,0.00004273,0.00000447,0.0
 0000382,-0.00000732,-0.00004258,-0.00005038,0.00003663,-0.00008319,-0.
 00001663,-0.00000712,0.00007748,-0.00000468,-0.00001144,-0.00006696,-0
 .00000455,-0.00000075,0.00625475,-0.00535704,-0.00467574,-0.00202872,-
 0.00035561,0.00306168,-0.03982893,-0.00982018,-0.02010825,-0.02672952,
 -0.01883648,-0.05084466,0.04627891,0.02080108,0.06561133,-0.00004720,-
 0.00012025,-0.00007265,-0.00009585,0.00006427,0.00004852,0.00000486,0.
 00006304,0.00003801,-0.00030685,0.00018384,0.00036978,0.00016529,0.000
 06686,0.00006524,0.00001525,0.00000722,0.00000935,-0.00001945,0.000016
 49,-0.00006076,-0.00000292,0.00000456,-0.00000162,0.00014260,-0.000067
 12,0.00023105,0.00008092,0.00000913,0.00001455,-0.00012539,0.00000139,
 -0.00001282,0.00010194,-0.00000056,0.00000955,0.00101914,0.00056031,-0
 .00182335,-0.00384533,0.00123495,-0.00257032,0.01063470,-0.00413480,-0
 .01063883,-0.20311923,0.05799180,0.13661814,-0.01298872,0.00946301,0.0
 1501540,0.20906096,0.00000427,-0.00002408,-0.00002585,0.00002723,-0.00
 004421,-0.00002088,0.00009650,-0.00004517,0.00000093,0.00025221,0.0000
 7872,-0.00014700,-0.00018901,0.00004528,0.00003334,-0.00000012,-0.0000
 0181,-0.00000409,0.00001152,-0.00000483,0.00002082,0.00000848,0.000005
 94,-0.00000071,-0.00006044,0.00004006,-0.00012137,-0.00005784,-0.00001
 853,-0.00000521,-0.00005362,-0.00003189,-0.00003772,0.00003654,-0.0000
 0482,0.00000887,-0.00031189,0.00201937,0.00089612,0.00107007,-0.002128
 27,0.00081690,-0.00603585,0.00225801,0.00780957,0.05907355,-0.07633772
 ,-0.05431924,-0.01214167,0.00638722,0.01202521,-0.06377425,0.07135465,
 -0.00001674,-0.00004313,-0.00003493,-0.00002038,0.00001701,0.00002686,
 0.00002261,0.00001173,0.00001046,-0.00059520,0.00026798,-0.00008357,0.
 00004784,0.00005480,0.00001380,-0.00002137,0.00003547,0.00000126,-0.00
 005107,0.00002927,-0.00002809,0.00000020,-0.00000028,0.00000022,0.0000
 2686,-0.00000700,0.00033171,0.00001889,0.00000076,0.00000867,-0.000042
 38,-0.00000681,-0.00000987,0.00003612,-0.00000035,0.00000413,0.0103202
 4,-0.00437002,-0.00152217,-0.00264208,0.00079548,0.00401311,0.01397870
 ,-0.00372273,-0.03635705,0.12337870,-0.04824231,-0.16030091,-0.0047936
 0,0.00198676,0.00610308,-0.13727899,0.05223629,0.18417572,0.00000101,-
 0.00001486,-0.00002663,0.00003881,-0.00008230,-0.00013174,0.00012243,-
 0.00005250,-0.00000073,-0.00054156,-0.00002142,-0.00012680,-0.00015133
 ,0.00005487,0.00002800,0.00002856,0.00008625,-0.00001572,-0.00001707,-
 0.00003742,0.00001120,0.00000504,0.00000415,-0.00000211,0.00002535,0.0
 0000131,0.00000069,-0.00005964,-0.00001660,-0.00000280,-0.00007388,-0.
 00004538,-0.00004452,0.00005285,-0.00000189,0.00001103,0.00080894,0.00
 134646,-0.00085080,-0.00074497,-0.00040516,-0.00060171,-0.00335268,0.0
 1223133,-0.00574273,-0.05765081,0.04162900,0.00102037,0.00683640,-0.02
 641551,0.00125274,-0.00027346,0.02176895,-0.00217238,0.05464547,-0.000
 03341,-0.00004876,-0.00002032,-0.00009496,0.00008682,0.00006257,-0.000
 04234,0.00005484,0.00001272,0.00036290,-0.00026716,0.00028701,0.000154
 02,0.00000549,0.00000063,0.00000975,-0.00002585,0.00001146,-0.00000447
 ,0.00001725,-0.00001368,-0.00000513,-0.00000271,0.00000321,0.00000522,
 -0.00000055,-0.00001626,0.00006464,0.00001234,0.00000702,-0.00003803,0
 .00001362,0.00001315,0.00003360,0.00000308,-0.00000048,-0.00353612,0.0
 0051503,-0.00054170,0.00077904,-0.00027748,-0.00001974,0.00511600,0.00
 025663,0.00626483,0.04483336,-0.32868969,0.00853344,0.00444881,-0.0114
 2933,-0.00035333,-0.00156375,-0.00371309,0.00096876,-0.05018327,0.3435
 7192,0.00005947,0.00013166,0.00007451,0.00019015,-0.00015059,-0.000248
 53,0.00001952,-0.00009872,-0.00003128,-0.00167994,-0.00085311,-0.00028
 023,-0.00025418,-0.00004476,-0.00001582,0.00006756,0.00021049,-0.00002
 199,-0.00005054,-0.00009228,0.00002102,0.00000078,0.00000127,-0.000006
 76,0.00002006,0.00004069,-0.00005017,-0.00009509,-0.00001260,-0.000013
 23,0.00010201,-0.00000828,-0.00000173,-0.00009007,-0.00000149,-0.00000
 604,0.00793775,-0.00043497,-0.00424565,-0.00126345,0.00113263,0.003184
 97,-0.01733901,0.03990823,-0.01641678,0.00234540,-0.00131015,-0.045497
 76,0.00202090,-0.00405071,0.00145806,0.00011840,-0.01918842,0.00360133
 ,0.00730891,-0.01519443,0.05854057,-0.19153001,0.10937649,0.04130883,0
 .00042059,-0.00027303,0.00000664,0.02284575,-0.00429699,-0.00034751,-0
 .00045195,0.00011509,0.00015643,-0.00150859,0.02642476,0.01328362,-0.0
 0006268,-0.00003340,0.00003111,0.00014294,-0.00002214,0.00001215,0.000
 59057,0.00064321,0.00004436,-0.00010388,0.00001333,0.00000443,-0.05299
 521,0.04032060,0.01604612,-0.01126747,-0.02763832,-0.01434618,0.005629
 01,0.00513537,0.00278027,-0.00179552,-0.00114924,-0.00011213,-0.000541
 70,0.00088773,0.00019534,0.00014758,0.00006602,0.00032673,-0.00009923,
 -0.00002744,-0.00028972,0.00004552,0.00002900,0.00001509,-0.00002657,-
 0.00006616,-0.00002378,-0.00007450,0.00001876,0.00003641,0.84895261,0.
 11581730,-0.18237916,-0.06489969,-0.00074285,-0.00016546,0.00008847,-0
 .02862553,0.00195809,-0.00512815,0.00001812,-0.00069538,0.00007952,0.0
 4079693,-0.05584374,-0.02137832,0.00004228,0.00003093,-0.00005592,0.00
 001884,-0.00001515,-0.00008642,0.00134250,-0.00044161,-0.00123273,0.00
 017174,0.00005912,-0.00006104,0.02064557,-0.00332631,0.00391557,0.0107
 2973,0.01655306,0.01086139,-0.00970687,-0.00096387,-0.00286416,-0.0008
 7560,0.00078067,0.00068558,0.00081876,-0.00119868,-0.00066962,0.000572
 38,-0.00047486,0.00001540,0.00002572,0.00006742,-0.00006052,-0.0000316
 0,-0.00003222,0.00004529,0.00000948,0.00010041,0.00003871,0.00010592,-
 0.00004691,0.00002275,-0.70655975,0.78968178,0.04460045,-0.06567068,-0
 .06163991,-0.00014405,0.00010668,-0.00002661,-0.01290953,-0.00252295,0
 .00383394,0.00012646,0.00012077,-0.00037156,0.02106837,-0.02308593,-0.
 01495205,0.00004139,0.00005610,-0.00004900,-0.00004468,0.00010464,0.00
 003350,0.00043622,-0.00141396,0.00191512,0.00003167,-0.00000682,-0.000
 03795,0.00635273,0.00535986,-0.00395902,0.00468592,0.00777089,0.000680
 42,-0.00458933,-0.00157878,0.00186245,-0.00005309,0.00032740,0.0013858
 7,0.00059098,-0.00036484,-0.00111750,0.00005682,-0.00010003,-0.0003153
 6,0.00007099,0.00002493,0.00014758,-0.00001632,-0.00000709,-0.00001117
 ,0.00000434,0.00001490,0.00000516,0.00002025,0.00000089,-0.00000781,-0
 .29017616,0.29719522,0.20386917,-0.00659172,0.03258012,0.01479472,-0.0
 0064866,0.00003287,-0.00001314,-0.01200062,0.00212142,-0.00010413,0.00
 019369,-0.00064098,0.00001486,0.00480996,-0.01380292,-0.00661572,0.000
 04923,0.00002158,-0.00002561,-0.00004934,0.00002725,-0.00001514,-0.000
 16757,-0.00038016,-0.00008248,0.00015287,0.00009974,-0.00009877,0.0099
 5757,-0.00572885,-0.00216407,0.00733468,0.00981259,0.00537224,-0.00537
 880,-0.00142448,-0.00111564,0.00022139,0.00083578,0.00050906,0.0006328
 5,-0.00110523,-0.00057618,0.00017080,-0.00032490,-0.00024733,0.0001370
 2,0.00007853,0.00025818,-0.00004223,-0.00004054,0.00000141,0.00002499,
 0.00006585,0.00003167,0.00012406,-0.00001709,0.00003107,-0.62135589,0.
 55584985,0.23023683,0.62510558,0.02438135,-0.01377793,-0.01107527,-0.0
 0002301,-0.00007897,-0.00014160,0.01159578,-0.00156612,0.00091786,-0.0
 0000518,-0.00030677,0.00012582,-0.00772706,0.01532315,0.00556310,-0.00
 001577,0.00000892,0.00001937,0.00005082,0.00005241,-0.00000501,-0.0001
 2045,0.00023561,0.00037140,0.00000840,0.00003740,-0.00004612,-0.006189
 41,0.00230415,-0.00079489,-0.00660288,-0.00736150,-0.00484043,0.005442
 96,0.00067716,0.00120853,0.00031112,-0.00076189,-0.00019197,-0.0009651
 2,0.00029042,0.00025708,-0.00048535,0.00030005,-0.00014196,0.00008444,
 -0.00007963,0.00020100,-0.00000103,0.00001253,-0.00003525,0.00000519,-
 0.00005240,-0.00001751,-0.00004510,0.00002894,-0.00000557,0.55696405,-
 0.56382247,-0.21742178,-0.57798020,0.56832973,0.01072653,-0.01043249,0
 .00800416,0.00035433,0.00012330,0.00005549,0.00493912,-0.00010785,-0.0
 0062746,0.00006258,0.00029032,0.00009074,-0.00374431,0.00520647,0.0050
 3429,-0.00001979,-0.00006101,0.00004883,-0.00001919,-0.00005259,-0.000
 01643,-0.00000384,0.00039945,-0.00044534,-0.00011765,-0.00005415,0.000
 04018,-0.00254137,-0.00069268,0.00218336,-0.00284454,-0.00355571,-0.00
 071275,0.00236779,0.00061813,-0.00027359,-0.00002726,0.00003351,-0.001
 31408,-0.00061906,-0.00012388,0.00066323,0.00001945,-0.00005349,0.0003
 0073,-0.00002276,0.00006323,-0.00013164,-0.00000185,-0.00002751,0.0000
 3078,0.00001039,0.00003636,0.00003153,0.00007650,-0.00001471,0.0000226
 3,0.23085467,-0.21756143,-0.12880229,-0.23999555,0.22603321,0.11543964
 ,0.00365073,-0.00957207,-0.00453677,0.00123487,-0.00080456,-0.00138984
 ,-0.01021162,0.00008302,-0.00049117,-0.00043256,0.00146190,-0.00318553
 ,-0.32456086,-0.08032753,-0.05959978,-0.00001805,0.00014659,-0.0002070
 4,0.00052816,-0.00033825,0.00070012,0.00114115,-0.00031710,-0.00006379
 ,-0.00009578,0.00016002,-0.00098812,0.01382989,0.00299276,0.00237420,-
 0.00732190,0.00519686,0.00178092,0.00522690,-0.00049201,0.00023819,-0.
 02092696,0.01004474,0.02682181,0.01604520,-0.00231832,-0.02056370,0.01
 399947,-0.00796662,-0.00092290,-0.00148037,0.00100816,-0.00385071,0.00
 034649,-0.00003227,0.00046940,-0.00039969,0.00027567,-0.00020384,0.000
 25100,-0.00030753,0.00051389,0.00303865,-0.00042293,-0.00039027,-0.002
 67984,0.00131645,0.00054581,0.30883515,-0.02754167,-0.00212414,-0.0020
 8099,-0.00046973,0.00059048,-0.00005884,0.01365312,0.01367517,0.008370
 23,0.00047394,-0.00044854,-0.00027000,-0.07508171,-0.09276491,-0.03433
 150,0.00023116,-0.00010450,-0.00016470,-0.00001290,-0.00053154,0.00108
 680,-0.00054868,-0.00045996,0.00062279,0.00008055,0.00004053,-0.000118
 21,0.00044394,-0.00262557,-0.00559299,0.00299405,-0.00235319,-0.002637
 20,0.00213252,0.00100022,0.00078381,0.00028942,0.00011066,0.00225321,0
 .00085754,-0.00733522,-0.00260076,0.00237830,-0.00007702,-0.00038089,-
 0.00015513,0.00011419,-0.00046577,-0.00000189,-0.00001679,0.00007203,-
 0.00002082,0.00011717,-0.00003287,0.00009317,-0.00006443,-0.00000163,0
 .00007204,0.00017435,0.00109058,-0.00008025,0.00020722,-0.00006646,0.0
 8021302,0.09287584,-0.01392922,-0.00027663,-0.00314524,0.00048626,-0.0
 0077852,-0.00037553,0.00561498,0.00670381,0.00235009,-0.00039092,-0.00
 035122,-0.00066574,-0.05729587,-0.03477721,-0.05385966,-0.00026738,0.0
 0015709,0.00019549,0.00018816,0.00138471,-0.00101348,-0.00006096,0.000
 72251,-0.00150246,-0.00009266,0.00005849,-0.00006586,0.00000342,-0.005
 87239,0.00604487,0.00069121,-0.00234732,0.00233281,0.00109177,0.000447
 91,0.00021576,0.00491453,-0.00059911,0.00139371,-0.00334843,-0.0005694
 6,-0.00806341,-0.00036903,0.00038531,-0.00091158,-0.00006260,0.0001290
 5,0.00040201,-0.00001497,0.00000934,-0.00002641,-0.00009340,-0.0000288
 2,0.00000954,-0.00001101,0.00000896,-0.00005930,0.00019328,0.00105012,
 -0.00244298,-0.00019628,0.00002000,0.00037799,0.06294912,0.03452337,0.
 05880937\\-0.00000295,0.00000731,0.00000231,0.00000216,0.00000095,-0.0
 0000817,0.00000247,-0.00000654,-0.00000117,0.00000062,0.00000494,-0.00
 000398,0.00000552,-0.00000170,0.00000362,0.00000221,0.00000269,0.00000
 730,-0.00000284,0.00000420,0.00000528,-0.00000040,0.00000243,0.0000033
 6,-0.00000117,0.00000052,0.00000187,-0.00000581,-0.00000252,-0.0000023
 8,0.00000926,0.00000234,0.00000141,-0.00000693,-0.00000121,-0.00000142
 ,0.00000699,0.00000186,-0.00000863,-0.00000179,-0.00000269,0.00000657,
 0.00000041,-0.00000201,0.00000306,-0.00000262,-0.00001111,-0.00000069,
 0.00000225,0.00000100,0.00000032,0.00000217,-0.00000210,-0.00000006,-0
 .00000063,0.00000520,-0.00000172,0.00001602,-0.00001170,-0.00000836,-0
 .00001201,0.00001066,0.00000282,-0.00001292,-0.00000251,-0.00000134\\\
 @
 The archive entry for this job was punched.


 WE'RE IN THE POSITION OF A VISITOR FROM ANOTHER
 DIMENSION WHO COMES TO EARTH AND SEES A CHESS MATCH.
 ASSUMING HE KNOWS IT'S A GAME, HE'S GOT TWO PROBLEMS:
 FIRST, FIGURE OUT THE RULES, AND SECOND, FIGURE OUT HOW TO WIN.
 NINETY PERCENT OF SCIENCE (INCLUDING VIRTUALLY ALL OF CHEMISRY)
 IS IN THAT SECOND CATEGORY.  THEY'RE TRYING TO APPLY
 THE LAWS THAT ARE ALREADY KNOWN.

                     -- SHELDON GLASHOW, 1979
 Job cpu time:       0 days  0 hours 22 minutes 27.6 seconds.
 Elapsed time:       0 days  0 hours  1 minutes 53.7 seconds.
 File lengths (MBytes):  RWF=    227 Int=      0 D2E=      0 Chk=     11 Scr=      1
 Normal termination of Gaussian 16 at Sat Dec 30 20:53:08 2023.
