Unloading slurm/anatra/current
  ERROR: No such file or directory on
    '/cm/local/modulefiles/slurm/anatra/current'
environment: line 0: unalias: gv: not found
environment: line 0: unalias: sl: not found
 Entering Gaussian System, Link 0=g16
 Initial command:
 /apps/gaussian/g16/C.01/g16/l1.exe "/local/jobs/1153161/Gau-1731908.inp" -scrdir="/local/jobs/1153161/"
 Entering Link 1 = /apps/gaussian/g16/C.01/g16/l1.exe PID=   1731913.
  
 Copyright (c) 1988-2019, Gaussian, Inc.  All Rights Reserved.
  
 This is part of the Gaussian(R) 16 program.  It is based on
 the Gaussian(R) 09 system (copyright 2009, Gaussian, Inc.),
 the Gaussian(R) 03 system (copyright 2003, Gaussian, Inc.),
 the Gaussian(R) 98 system (copyright 1998, Gaussian, Inc.),
 the Gaussian(R) 94 system (copyright 1995, Gaussian, Inc.),
 the Gaussian 92(TM) system (copyright 1992, Gaussian, Inc.),
 the Gaussian 90(TM) system (copyright 1990, Gaussian, Inc.),
 the Gaussian 88(TM) system (copyright 1988, Gaussian, Inc.),
 the Gaussian 86(TM) system (copyright 1986, Carnegie Mellon
 University), and the Gaussian 82(TM) system (copyright 1983,
 Carnegie Mellon University). Gaussian is a federally registered
 trademark of Gaussian, Inc.
  
 This software contains proprietary and confidential information,
 including trade secrets, belonging to Gaussian, Inc.
  
 This software is provided under written license and may be
 used, copied, transmitted, or stored only in accord with that
 written license.
  
 The following legend is applicable only to US Government
 contracts under FAR:
  
                    RESTRICTED RIGHTS LEGEND
  
 Use, reproduction and disclosure by the US Government is
 subject to restrictions as set forth in subparagraphs (a)
 and (c) of the Commercial Computer Software - Restricted
 Rights clause in FAR 52.227-19.
  
 Gaussian, Inc.
 340 Quinnipiac St., Bldg. 40, Wallingford CT 06492
  
  
 ---------------------------------------------------------------
 Warning -- This program may not be used in any manner that
 competes with the business of Gaussian, Inc. or will provide
 assistance to any competitor of Gaussian, Inc.  The licensee
 of this program is prohibited from giving any competitor of
 Gaussian, Inc. access to this program.  By using this program,
 the user acknowledges that Gaussian, Inc. is engaged in the
 business of creating and licensing software in the field of
 computational chemistry and represents and warrants to the
 licensee that it is not a competitor of Gaussian, Inc. and that
 it will not use this program in any manner prohibited above.
 ---------------------------------------------------------------
  

 Cite this work as:
 Gaussian 16, Revision C.01,
 M. J. Frisch, G. W. Trucks, H. B. Schlegel, G. E. Scuseria, 
 M. A. Robb, J. R. Cheeseman, G. Scalmani, V. Barone, 
 G. A. Petersson, H. Nakatsuji, X. Li, M. Caricato, A. V. Marenich, 
 J. Bloino, B. G. Janesko, R. Gomperts, B. Mennucci, H. P. Hratchian, 
 J. V. Ortiz, A. F. Izmaylov, J. L. Sonnenberg, D. Williams-Young, 
 F. Ding, F. Lipparini, F. Egidi, J. Goings, B. Peng, A. Petrone, 
 T. Henderson, D. Ranasinghe, V. G. Zakrzewski, J. Gao, N. Rega, 
 G. Zheng, W. Liang, M. Hada, M. Ehara, K. Toyota, R. Fukuda, 
 J. Hasegawa, M. Ishida, T. Nakajima, Y. Honda, O. Kitao, H. Nakai, 
 T. Vreven, K. Throssell, J. A. Montgomery, Jr., J. E. Peralta, 
 F. Ogliaro, M. J. Bearpark, J. J. Heyd, E. N. Brothers, K. N. Kudin, 
 V. N. Staroverov, T. A. Keith, R. Kobayashi, J. Normand, 
 K. Raghavachari, A. P. Rendell, J. C. Burant, S. S. Iyengar, 
 J. Tomasi, M. Cossi, J. M. Millam, M. Klene, C. Adamo, R. Cammi, 
 J. W. Ochterski, R. L. Martin, K. Morokuma, O. Farkas, 
 J. B. Foresman, and D. J. Fox, Gaussian, Inc., Wallingford CT, 2019.
 
 ******************************************
 Gaussian 16:  ES64L-G16RevC.01  3-Jul-2019
                30-Dec-2023 
 ******************************************
 %chk=cyclic-1_1_opt_sqm_reopt9_freq.chk
 %nprocshared=12
 Will use up to   12 processors via shared memory.
 %mem=48GB
 -----------------------------------------------------------
 # wb97xd def2svp scrf=(iefpcm,solvent=toluene) freq=noraman
 -----------------------------------------------------------
 1/10=4,30=1,38=1/1,3;
 2/12=2,17=6,18=5,40=1/2;
 3/5=43,7=101,11=2,25=1,30=1,70=2201,71=2,72=13,74=-58,140=1/1,2,3;
 4//1;
 5/5=2,38=5,53=13,98=1/2;
 8/6=4,10=90,11=11/1;
 11/6=1,8=1,9=11,15=111,16=1/1,2,10;
 10/6=1/2;
 6/7=2,8=2,9=2,10=2,28=1/1;
 7/8=1,10=1,25=1/1,2,3,16;
 1/10=4,30=1/3;
 99//99;
 -----------------------------
 cyclic-1_1_opt_sqm_reopt9.out
 -----------------------------
 Symbolic Z-matrix:
 Charge =  0 Multiplicity = 1
 C                     1.86139   0.76266   0.01495 
 C                    -2.84446   2.20132  -0.0249 
 C                     2.10773  -1.41403   0.02477 
 C                    -3.46405   1.0197   -0.03549 
 N                     1.21901  -0.39182   0.04249 
 H                    -3.41263   3.13353  -0.04853 
 H                    -1.75416   2.27353   0.00873 
 H                     1.81065  -2.45563   0.03909 
 H                    -4.5518    0.93022  -0.06773 
 O                     3.16692   0.56319  -0.02139 
 C                     3.41613  -0.86138  -0.01806 
 O                     4.54094  -1.28074  -0.04844 
 C                    -2.70189  -0.24776  -0.00405 
 O                    -1.48916  -0.33799   0.02659 
 O                    -3.49552  -1.3057   -0.01417 
 C                    -2.8794   -2.58843   0.01 
 H                    -3.69332  -3.31729  -0.0547 
 H                    -2.3193   -2.7291    0.94521 
 H                    -2.19591  -2.70586  -0.84249 
 C                     1.25754   2.03947   0.02076 
 N                     0.72784   3.07095   0.02658 
 H                     0.18521  -0.46255   0.0684 
 

 GradGradGradGradGradGradGradGradGradGradGradGradGradGradGradGradGradGrad
 Berny optimization.
 Initialization pass.
 Trust Radius=3.00D-01 FncErr=1.00D-07 GrdErr=1.00D-07 EigMax=2.50D+02 EigMin=1.00D-04
 Number of steps in this run=      2 maximum allowed number of steps=      2.
 GradGradGradGradGradGradGradGradGradGradGradGradGradGradGradGradGradGrad

                          Input orientation:                          
 ---------------------------------------------------------------------
 Center     Atomic      Atomic             Coordinates (Angstroms)
 Number     Number       Type             X           Y           Z
 ---------------------------------------------------------------------
      1          6           0        1.861390    0.762660    0.014950
      2          6           0       -2.844460    2.201320   -0.024900
      3          6           0        2.107730   -1.414030    0.024770
      4          6           0       -3.464050    1.019700   -0.035490
      5          7           0        1.219010   -0.391820    0.042490
      6          1           0       -3.412630    3.133530   -0.048530
      7          1           0       -1.754160    2.273530    0.008730
      8          1           0        1.810650   -2.455630    0.039090
      9          1           0       -4.551800    0.930220   -0.067730
     10          8           0        3.166920    0.563190   -0.021390
     11          6           0        3.416130   -0.861380   -0.018060
     12          8           0        4.540940   -1.280740   -0.048440
     13          6           0       -2.701890   -0.247760   -0.004050
     14          8           0       -1.489160   -0.337990    0.026590
     15          8           0       -3.495520   -1.305700   -0.014170
     16          6           0       -2.879400   -2.588430    0.010000
     17          1           0       -3.693320   -3.317290   -0.054700
     18          1           0       -2.319300   -2.729100    0.945210
     19          1           0       -2.195910   -2.705860   -0.842490
     20          6           0        1.257540    2.039470    0.020760
     21          7           0        0.727840    3.070950    0.026580
     22          1           0        0.185210   -0.462550    0.068400
 ---------------------------------------------------------------------
                    Distance matrix (angstroms):
                    1          2          3          4          5
     1  C    0.000000
     2  C    4.921012   0.000000
     3  C    2.190607   6.131673   0.000000
     4  C    5.331878   1.334253   6.080412   0.000000
     5  N    1.321452   4.820861   1.354640   4.891781   0.000000
     6  H    5.782762   1.091967   7.152625   2.114496   5.821380
     7  H    3.918542   1.093206   5.339714   2.120794   3.993115
     8  H    3.218780   6.584932   1.083232   6.317115   2.146942
     9  H    6.415911   2.128976   7.060694   1.091900   5.921333
    10  O    1.321180   6.230584   2.243527   6.646681   2.170364
    11  C    2.248513   6.969589   1.420974   7.132716   2.247552
    12  O    3.370384   8.165135   2.437958   8.328989   3.440010
    13  C    4.673846   2.453315   4.949087   1.479301   3.923822
    14  O    3.526720   2.878817   3.754395   2.397367   2.708752
    15  O    5.742425   3.566957   5.604432   2.325711   4.802622
    16  C    5.805594   4.790005   5.123563   3.655474   4.650066
    17  H    6.892434   5.583593   6.105808   4.343088   5.718287
    18  H    5.525933   5.052321   4.709057   4.040511   4.335599
    19  H    5.406248   5.016920   4.576274   4.017365   4.218963
    20  C    1.412414   4.105446   3.556614   4.830787   2.431692
    21  N    2.571629   3.676987   4.692456   4.667271   3.497467
    22  H    2.076915   4.035320   2.145530   3.940172   1.036541
                    6          7          8          9         10
     6  H    0.000000
     7  H    1.869064   0.000000
     8  H    7.650427   5.922309   0.000000
     9  H    2.480454   3.104371   7.208062   0.000000
    10  O    7.063842   5.209913   3.310045   7.727580   0.000000
    11  C    7.911523   6.046509   2.263286   8.167019   1.446208
    12  O    9.096431   7.229411   2.973636   9.357705   2.299726
    13  C    3.455467   2.693559   5.023900   2.194051   5.924599
    14  O    3.969487   2.624992   3.920880   3.316175   4.742732
    15  O    4.440137   3.980420   5.429605   2.473446   6.919603
    16  C    5.747050   4.990473   4.692020   3.896647   6.818481
    17  H    6.456927   5.917908   5.571799   4.333417   7.881759
    18  H    6.045934   5.120809   4.237019   4.404626   6.470865
    19  H    6.017413   5.070902   4.110027   4.401312   6.334101
    20  C    4.797109   3.020805   4.529039   5.914955   2.413900
    21  N    4.141624   2.607014   5.631671   5.697913   3.498610
    22  H    5.088214   3.354229   2.572019   4.939393   3.154489
                   11         12         13         14         15
    11  C    0.000000
    12  O    1.200826   0.000000
    13  C    6.148731   7.316256   0.000000
    14  O    4.933336   6.103811   1.216468   0.000000
    15  O    6.925918   8.036572   1.322569   2.227915   0.000000
    16  C    6.528184   7.534913   2.347433   2.645283   1.423230
    17  H    7.521776   8.482371   3.226068   3.706907   2.021698
    18  H    6.108308   7.081524   2.684123   2.692657   2.080858
    19  H    5.964628   6.931568   2.645988   2.619466   2.082198
    20  C    3.616068   4.670043   4.572649   3.632728   5.812311
    21  N    4.763624   5.786412   4.772612   4.066443   6.082228
    22  H    3.256591   4.433449   2.895985   1.679517   3.776969
                   16         17         18         19         20
    16  C    0.000000
    17  H    1.094481   0.000000
    18  H    1.099144   1.798254   0.000000
    19  H    1.098948   1.799082   1.792104   0.000000
    20  C    6.207403   7.294627   6.032218   5.932089   0.000000
    21  N    6.711262   7.769355   6.615854   6.532620   1.159555
    22  H    3.730229   4.817436   3.489787   3.395864   2.722548
                   21         22
    21  N    0.000000
    22  H    3.575167   0.000000
 Stoichiometry    C8H8N2O4
 Framework group  C1[X(C8H8N2O4)]
 Deg. of freedom    60
 Full point group                 C1      NOp   1
 Largest Abelian subgroup         C1      NOp   1
 Largest concise Abelian subgroup C1      NOp   1
                         Standard orientation:                         
 ---------------------------------------------------------------------
 Center     Atomic      Atomic             Coordinates (Angstroms)
 Number     Number       Type             X           Y           Z
 ---------------------------------------------------------------------
      1          6           0        1.861390    0.762658    0.014949
      2          6           0       -2.844460    2.201320   -0.024901
      3          6           0        2.107729   -1.414032    0.024769
      4          6           0       -3.464050    1.019700   -0.035491
      5          7           0        1.219009   -0.391822    0.042489
      6          1           0       -3.412630    3.133530   -0.048531
      7          1           0       -1.754160    2.273529    0.008729
      8          1           0        1.810649   -2.455632    0.039089
      9          1           0       -4.551800    0.930220   -0.067731
     10          8           0        3.166919    0.563188   -0.021391
     11          6           0        3.416129   -0.861382   -0.018061
     12          8           0        4.540939   -1.280743   -0.048441
     13          6           0       -2.701891   -0.247761   -0.004051
     14          8           0       -1.489161   -0.337991    0.026589
     15          8           0       -3.495521   -1.305700   -0.014171
     16          6           0       -2.879401   -2.588430    0.009999
     17          1           0       -3.693322   -3.317290   -0.054701
     18          1           0       -2.319302   -2.729101    0.945209
     19          1           0       -2.195912   -2.705861   -0.842491
     20          6           0        1.257540    2.039468    0.020759
     21          7           0        0.727840    3.070948    0.026579
     22          1           0        0.185209   -0.462551    0.068399
 ---------------------------------------------------------------------
 Rotational constants (GHZ):           1.0397924           0.3380373           0.2555596
 Standard basis: def2SVP (5D, 7F)
 There are   250 symmetry adapted cartesian basis functions of A   symmetry.
 There are   236 symmetry adapted basis functions of A   symmetry.
   236 basis functions,   406 primitive gaussians,   250 cartesian basis functions
    51 alpha electrons       51 beta electrons
       nuclear repulsion energy       816.2764405961 Hartrees.
 NAtoms=   22 NActive=   22 NUniq=   22 SFac= 1.00D+00 NAtFMM=   60 NAOKFM=F Big=F
 Integral buffers will be    131072 words long.
 Raffenetti 2 integral format.
 Two-electron integral symmetry is turned on.
 Nuclear repulsion after empirical dispersion term =      816.2666599909 Hartrees.
 Force inversion solution in PCM.
 ------------------------------------------------------------------------------
 Polarizable Continuum Model (PCM)
 =================================
 Model                : PCM.
 Atomic radii         : UFF (Universal Force Field).
 Polarization charges : Total charges.
 Charge compensation  : None.
 Solution method      : Matrix inversion.
 Cavity type          : Scaled VdW (van der Waals Surface) (Alpha=1.100).
 Cavity algorithm     : GePol (No added spheres)
                        Default sphere list used, NSphG=   22.
                        Lebedev-Laikov grids with approx.  5.0 points / Ang**2.
                        Smoothing algorithm: York/Karplus (Gamma=1.0000).
                        Polarization charges: spherical gaussians, with
                                              point-specific exponents (IZeta= 3).
                        Self-potential: point-specific (ISelfS= 7).
                        Self-field    : sphere-specific E.n sum rule (ISelfD= 2).
 1st derivatives      : Analytical E(r).r(x)/FMM algorithm (CHGder, D1EAlg=3).
                        Cavity 1st derivative terms included.
 2nd derivatives      : Analytical E(r).r(xy)/FMM algorithm (CHGder, D2EAlg=3).
                        Cavity 2nd derivative terms included.
 Solvent              : Toluene, Eps=   2.374100 Eps(inf)=   2.238315
 ------------------------------------------------------------------------------
 One-electron integrals computed using PRISM.
   1 Symmetry operations used in ECPInt.
 ECPInt:  NShTT=    5886 NPrTT=   21942 LenC2=    5391 LenP2D=   14229.
 LDataN:  DoStor=T MaxTD1= 4 Len=   56
 NBasis=   236 RedAO= T EigKep=  3.32D-04  NBF=   236
 NBsUse=   236 1.00D-06 EigRej= -1.00D+00 NBFU=   236
 ExpMin= 1.22D-01 ExpMax= 2.27D+03 ExpMxC= 3.41D+02 IAcc=3 IRadAn=         5 AccDes= 0.00D+00
 Harris functional with IExCor= 4639 and IRadAn=       5 diagonalized for initial guess.
 HarFok:  IExCor= 4639 AccDes= 0.00D+00 IRadAn=         5 IDoV= 1 UseB2=F ITyADJ=14
 ICtDFT=  3500011 ScaDFX=  1.000000  1.000000  1.000000  1.000000
 FoFCou: FMM=F IPFlag=           0 FMFlag=      100000 FMFlg1=           0
         NFxFlg=           0 DoJE=T BraDBF=F KetDBF=T FulRan=T
         wScrn=  0.000000 ICntrl=       500 IOpCl=  0 I1Cent=   200000004 NGrid=           0
         NMat0=    1 NMatS0=      1 NMatT0=    0 NMatD0=    1 NMtDS0=    0 NMtDT0=    0
 Petite list used in FoFCou.
 Requested convergence on RMS density matrix=1.00D-08 within 128 cycles.
 Requested convergence on MAX density matrix=1.00D-06.
 Requested convergence on             energy=1.00D-06.
 No special actions if energy rises.
 Inv3:  Mode=1 IEnd=    13192227.
 Iteration    1 A*A^-1 deviation from unit magnitude is 2.89D-15 for    246.
 Iteration    1 A*A^-1 deviation from orthogonality  is 1.44D-15 for   1801    102.
 Iteration    1 A^-1*A deviation from unit magnitude is 2.66D-15 for    246.
 Iteration    1 A^-1*A deviation from orthogonality  is 2.22D-15 for   1985   1875.
 Error on total polarization charges =  0.00712
 SCF Done:  E(RwB97XD) =  -719.241175527     A.U. after   14 cycles
            NFock= 14  Conv=0.65D-08     -V/T= 2.0089
 DoSCS=F DFT=T ScalE2(SS,OS)=  1.000000  1.000000
 Range of M.O.s used for correlation:     1   236
 NBasis=   236 NAE=    51 NBE=    51 NFC=     0 NFV=     0
 NROrb=    236 NOA=    51 NOB=    51 NVA=   185 NVB=   185

 **** Warning!!: The largest alpha MO coefficient is  0.10133900D+02

   1 Symmetry operations used in ECPInt.
 ECPInt:  NShTT=    5886 NPrTT=   21942 LenC2=    5391 LenP2D=   14229.
 LDataN:  DoStor=T MaxTD1= 5 Len=  102
 Symmetrizing basis deriv contribution to polar:
 IMax=3 JMax=2 DiffMx= 0.00D+00
 G2DrvN: will do    23 centers at a time, making    1 passes.
 Calling FoFCou, ICntrl=  3107 FMM=F I1Cent=   0 AccDes= 0.00D+00.
 NEqPCM:  Using equilibrium solvation (IEInf=0, Eps=   2.3741, EpsInf=   2.2383)
 G2PCM: DoFxE=T DoFxN=T DoGrad=T DoDP/DQ/DG/TGxP=FFFF NFrqRd=   0 IEInf=0 SqF1=F DoCFld=F IF1Alg=4.
 End of G2Drv F.D. properties file   721 does not exist.
 End of G2Drv F.D. properties file   722 does not exist.
 End of G2Drv F.D. properties file   788 does not exist.
          IDoAtm=1111111111111111111111
 NEqPCM:  Using equilibrium solvation (IEInf=0, Eps=   2.3741, EpsInf=   2.2383)
          Differentiating once with respect to electric field.
                with respect to dipole field.
          Differentiating once with respect to nuclear coordinates.
 Keep R1 ints in memory in canonical form, NReq=801733536.
          There are    69 degrees of freedom in the 1st order CPHF.  IDoFFX=6 NUNeed=     3.
     66 vectors produced by pass  0 Test12= 1.37D-14 1.45D-09 XBig12= 9.91D+01 6.38D+00.
 AX will form    66 AO Fock derivatives at one time.
     66 vectors produced by pass  1 Test12= 1.37D-14 1.45D-09 XBig12= 1.48D+01 7.58D-01.
     66 vectors produced by pass  2 Test12= 1.37D-14 1.45D-09 XBig12= 4.39D-01 1.03D-01.
     66 vectors produced by pass  3 Test12= 1.37D-14 1.45D-09 XBig12= 6.05D-03 1.20D-02.
     66 vectors produced by pass  4 Test12= 1.37D-14 1.45D-09 XBig12= 5.85D-05 1.12D-03.
     66 vectors produced by pass  5 Test12= 1.37D-14 1.45D-09 XBig12= 3.69D-07 1.23D-04.
     58 vectors produced by pass  6 Test12= 1.37D-14 1.45D-09 XBig12= 1.95D-09 5.40D-06.
     25 vectors produced by pass  7 Test12= 1.37D-14 1.45D-09 XBig12= 8.37D-12 4.99D-07.
      3 vectors produced by pass  8 Test12= 1.37D-14 1.45D-09 XBig12= 3.98D-14 3.82D-08.
      1 vectors produced by pass  9 Test12= 1.37D-14 1.45D-09 XBig12= 1.52D-16 2.21D-09.
 InvSVY:  IOpt=1 It=  1 EMax= 4.22D-15
 Solved reduced A of dimension   483 with    69 vectors.
 Isotropic polarizability for W=    0.000000      126.35 Bohr**3.
 End of Minotr F.D. properties file   721 does not exist.
 End of Minotr F.D. properties file   722 does not exist.
 End of Minotr F.D. properties file   788 does not exist.

 **********************************************************************

            Population analysis using the SCF Density.

 **********************************************************************

 Orbital symmetries:
       Occupied  (A) (A) (A) (A) (A) (A) (A) (A) (A) (A) (A) (A)
                 (A) (A) (A) (A) (A) (A) (A) (A) (A) (A) (A) (A)
                 (A) (A) (A) (A) (A) (A) (A) (A) (A) (A) (A) (A)
                 (A) (A) (A) (A) (A) (A) (A) (A) (A) (A) (A) (A)
                 (A) (A) (A)
       Virtual   (A) (A) (A) (A) (A) (A) (A) (A) (A) (A) (A) (A)
                 (A) (A) (A) (A) (A) (A) (A) (A) (A) (A) (A) (A)
                 (A) (A) (A) (A) (A) (A) (A) (A) (A) (A) (A) (A)
                 (A) (A) (A) (A) (A) (A) (A) (A) (A) (A) (A) (A)
                 (A) (A) (A) (A) (A) (A) (A) (A) (A) (A) (A) (A)
                 (A) (A) (A) (A) (A) (A) (A) (A) (A) (A) (A) (A)
                 (A) (A) (A) (A) (A) (A) (A) (A) (A) (A) (A) (A)
                 (A) (A) (A) (A) (A) (A) (A) (A) (A) (A) (A) (A)
                 (A) (A) (A) (A) (A) (A) (A) (A) (A) (A) (A) (A)
                 (A) (A) (A) (A) (A) (A) (A) (A) (A) (A) (A) (A)
                 (A) (A) (A) (A) (A) (A) (A) (A) (A) (A) (A) (A)
                 (A) (A) (A) (A) (A) (A) (A) (A) (A) (A) (A) (A)
                 (A) (A) (A) (A) (A) (A) (A) (A) (A) (A) (A) (A)
                 (A) (A) (A) (A) (A) (A) (A) (A) (A) (A) (A) (A)
                 (A) (A) (A) (A) (A) (A) (A) (A) (A) (A) (A) (A)
                 (A) (A) (A) (A) (A)
 The electronic state is 1-A.
 Alpha  occ. eigenvalues --  -19.34327 -19.33194 -19.27993 -19.22730 -14.55650
 Alpha  occ. eigenvalues --  -14.47904 -10.46235 -10.44107 -10.42450 -10.37569
 Alpha  occ. eigenvalues --  -10.37254 -10.34433 -10.33563 -10.33064  -1.25452
 Alpha  occ. eigenvalues --   -1.23662  -1.14041  -1.12511  -1.08773  -1.02743
 Alpha  occ. eigenvalues --   -0.91036  -0.89508  -0.84779  -0.78615  -0.74687
 Alpha  occ. eigenvalues --   -0.73178  -0.72186  -0.66887  -0.64417  -0.62158
 Alpha  occ. eigenvalues --   -0.61202  -0.60470  -0.59743  -0.56961  -0.55338
 Alpha  occ. eigenvalues --   -0.52409  -0.52133  -0.51581  -0.50496  -0.49345
 Alpha  occ. eigenvalues --   -0.48920  -0.47906  -0.46745  -0.46435  -0.45852
 Alpha  occ. eigenvalues --   -0.44132  -0.42005  -0.40359  -0.38618  -0.36744
 Alpha  occ. eigenvalues --   -0.28338
 Alpha virt. eigenvalues --   -0.00981   0.00135   0.05720   0.13115   0.13704
 Alpha virt. eigenvalues --    0.14185   0.15924   0.16941   0.17876   0.18172
 Alpha virt. eigenvalues --    0.19298   0.20177   0.20845   0.21243   0.22038
 Alpha virt. eigenvalues --    0.25306   0.26685   0.26810   0.31411   0.34044
 Alpha virt. eigenvalues --    0.34627   0.35255   0.36998   0.37696   0.38827
 Alpha virt. eigenvalues --    0.44344   0.47229   0.48105   0.50660   0.50849
 Alpha virt. eigenvalues --    0.51833   0.52348   0.53759   0.54111   0.54294
 Alpha virt. eigenvalues --    0.56173   0.56581   0.56687   0.58934   0.60765
 Alpha virt. eigenvalues --    0.62125   0.63150   0.64595   0.66368   0.68360
 Alpha virt. eigenvalues --    0.68706   0.68992   0.69910   0.70841   0.72155
 Alpha virt. eigenvalues --    0.72270   0.73088   0.73233   0.74786   0.75359
 Alpha virt. eigenvalues --    0.76058   0.79257   0.79710   0.81080   0.83623
 Alpha virt. eigenvalues --    0.85107   0.85638   0.86578   0.88914   0.93592
 Alpha virt. eigenvalues --    0.94238   0.96420   1.01383   1.04424   1.04571
 Alpha virt. eigenvalues --    1.07660   1.09476   1.10085   1.11918   1.12482
 Alpha virt. eigenvalues --    1.12662   1.14941   1.16507   1.20004   1.22425
 Alpha virt. eigenvalues --    1.23706   1.25921   1.28932   1.29280   1.29707
 Alpha virt. eigenvalues --    1.31670   1.33969   1.34217   1.37436   1.38362
 Alpha virt. eigenvalues --    1.40677   1.44375   1.48665   1.50798   1.52097
 Alpha virt. eigenvalues --    1.57789   1.59217   1.62023   1.63185   1.63306
 Alpha virt. eigenvalues --    1.65888   1.67094   1.68926   1.71105   1.71383
 Alpha virt. eigenvalues --    1.72224   1.75078   1.76189   1.77139   1.78959
 Alpha virt. eigenvalues --    1.79235   1.81013   1.82783   1.83463   1.85164
 Alpha virt. eigenvalues --    1.88149   1.89959   1.92533   1.93960   1.95637
 Alpha virt. eigenvalues --    1.96420   1.98546   2.00265   2.03181   2.05892
 Alpha virt. eigenvalues --    2.06230   2.08787   2.11969   2.12162   2.12891
 Alpha virt. eigenvalues --    2.20092   2.20465   2.24603   2.29052   2.29236
 Alpha virt. eigenvalues --    2.31059   2.32262   2.34059   2.35510   2.37770
 Alpha virt. eigenvalues --    2.40706   2.41362   2.43666   2.50304   2.51545
 Alpha virt. eigenvalues --    2.52177   2.55489   2.63049   2.64809   2.68580
 Alpha virt. eigenvalues --    2.71470   2.72887   2.73758   2.74709   2.77491
 Alpha virt. eigenvalues --    2.80067   2.84613   2.85915   2.86490   2.86655
 Alpha virt. eigenvalues --    2.94110   2.95190   2.95836   2.98004   3.01589
 Alpha virt. eigenvalues --    3.03245   3.03773   3.04788   3.12036   3.13148
 Alpha virt. eigenvalues --    3.14512   3.17640   3.26898   3.28665   3.30126
 Alpha virt. eigenvalues --    3.36415   3.38193   3.44514   3.48330   3.53451
 Alpha virt. eigenvalues --    3.69250   3.72786   3.74782   3.79687   3.87714
          Condensed to atoms (all electrons):
               1          2          3          4          5          6
     1  C    5.177964  -0.000068  -0.110153   0.000035   0.561940   0.000001
     2  C   -0.000068   4.674032  -0.000002   0.607732   0.000018   0.389856
     3  C   -0.110153  -0.000002   5.287807  -0.000002   0.369320   0.000000
     4  C    0.000035   0.607732  -0.000002   5.018481  -0.000081  -0.015152
     5  N    0.561940   0.000018   0.369320  -0.000081   6.040417  -0.000000
     6  H    0.000001   0.389856   0.000000  -0.015152  -0.000000   0.576865
     7  H   -0.000188   0.386359   0.000014  -0.018942  -0.000034  -0.034196
     8  H    0.005474   0.000000   0.413979   0.000000  -0.027831  -0.000000
     9  H    0.000000  -0.024638   0.000000   0.396588   0.000002  -0.010721
    10  O    0.455006  -0.000000  -0.124651  -0.000000  -0.082392   0.000000
    11  C   -0.082681  -0.000000   0.362749   0.000000  -0.030193   0.000000
    12  O    0.002320   0.000000  -0.076669  -0.000000   0.001487   0.000000
    13  C   -0.000033  -0.035741   0.000039   0.318999   0.000296   0.008251
    14  O   -0.002438   0.008640  -0.000498  -0.094031  -0.029174   0.000211
    15  O   -0.000001   0.004855   0.000000  -0.097543   0.000000  -0.000081
    16  C   -0.000001  -0.000344  -0.000013   0.009309  -0.000063   0.000004
    17  H    0.000000  -0.000005   0.000000   0.000031  -0.000000  -0.000000
    18  H    0.000001   0.000028   0.000017   0.000161   0.000003  -0.000000
    19  H    0.000003   0.000020   0.000040   0.000336   0.000020  -0.000000
    20  C    0.053238  -0.000586   0.015750  -0.000406  -0.135540   0.000033
    21  N   -0.095708  -0.005453   0.000212   0.000391  -0.004831   0.000031
    22  H   -0.000556  -0.000042  -0.017196   0.001110   0.347236   0.000004
               7          8          9         10         11         12
     1  C   -0.000188   0.005474   0.000000   0.455006  -0.082681   0.002320
     2  C    0.386359   0.000000  -0.024638  -0.000000  -0.000000   0.000000
     3  C    0.000014   0.413979   0.000000  -0.124651   0.362749  -0.076669
     4  C   -0.018942   0.000000   0.396588  -0.000000   0.000000  -0.000000
     5  N   -0.000034  -0.027831   0.000002  -0.082392  -0.030193   0.001487
     6  H   -0.034196  -0.000000  -0.010721   0.000000   0.000000   0.000000
     7  H    0.577900  -0.000001   0.006725   0.000003  -0.000001   0.000000
     8  H   -0.000001   0.563854  -0.000000   0.003736  -0.024364   0.001332
     9  H    0.006725  -0.000000   0.592894   0.000000  -0.000000  -0.000000
    10  O    0.000003   0.003736   0.000000   7.900843   0.261399  -0.064781
    11  C   -0.000001  -0.024364  -0.000000   0.261399   4.492100   0.764138
    12  O    0.000000   0.001332  -0.000000  -0.064781   0.764138   7.632124
    13  C   -0.019243   0.000007  -0.036107  -0.000000  -0.000003   0.000000
    14  O    0.010494   0.000128   0.002736  -0.000003  -0.000019   0.000000
    15  O    0.000470  -0.000001   0.007026   0.000000  -0.000000   0.000000
    16  C   -0.000037   0.000019  -0.000261  -0.000000   0.000000  -0.000000
    17  H   -0.000001  -0.000001  -0.000136  -0.000000   0.000000   0.000000
    18  H   -0.000005   0.000034   0.000036   0.000000   0.000001   0.000000
    19  H   -0.000008   0.000058   0.000038   0.000000   0.000001   0.000000
    20  C    0.002072  -0.000383  -0.000001  -0.090974  -0.006410  -0.000286
    21  N    0.017163  -0.000001  -0.000002  -0.002347  -0.000110  -0.000000
    22  H   -0.000182  -0.004732  -0.000038   0.001420   0.006874  -0.000029
              13         14         15         16         17         18
     1  C   -0.000033  -0.002438  -0.000001  -0.000001   0.000000   0.000001
     2  C   -0.035741   0.008640   0.004855  -0.000344  -0.000005   0.000028
     3  C    0.000039  -0.000498   0.000000  -0.000013   0.000000   0.000017
     4  C    0.318999  -0.094031  -0.097543   0.009309   0.000031   0.000161
     5  N    0.000296  -0.029174   0.000000  -0.000063  -0.000000   0.000003
     6  H    0.008251   0.000211  -0.000081   0.000004  -0.000000  -0.000000
     7  H   -0.019243   0.010494   0.000470  -0.000037  -0.000001  -0.000005
     8  H    0.000007   0.000128  -0.000001   0.000019  -0.000001   0.000034
     9  H   -0.036107   0.002736   0.007026  -0.000261  -0.000136   0.000036
    10  O   -0.000000  -0.000003   0.000000  -0.000000  -0.000000   0.000000
    11  C   -0.000003  -0.000019  -0.000000   0.000000   0.000000   0.000001
    12  O    0.000000   0.000000   0.000000  -0.000000   0.000000   0.000000
    13  C    4.498983   0.606334   0.399835  -0.032938   0.004265  -0.004481
    14  O    0.606334   7.813470  -0.084970   0.005818   0.000770   0.004874
    15  O    0.399835  -0.084970   7.897796   0.254601  -0.020676  -0.025168
    16  C   -0.032938   0.005818   0.254601   4.432468   0.402597   0.407152
    17  H    0.004265   0.000770  -0.020676   0.402597   0.580266  -0.020731
    18  H   -0.004481   0.004874  -0.025168   0.407152  -0.020731   0.603382
    19  H   -0.005197   0.006668  -0.025305   0.405503  -0.020490  -0.028784
    20  C    0.000432   0.003377   0.000003  -0.000001  -0.000000  -0.000001
    21  N   -0.000130  -0.000375  -0.000000   0.000000   0.000000   0.000000
    22  H   -0.007235   0.071013  -0.000112   0.000448   0.000009   0.000173
              19         20         21         22
     1  C    0.000003   0.053238  -0.095708  -0.000556
     2  C    0.000020  -0.000586  -0.005453  -0.000042
     3  C    0.000040   0.015750   0.000212  -0.017196
     4  C    0.000336  -0.000406   0.000391   0.001110
     5  N    0.000020  -0.135540  -0.004831   0.347236
     6  H   -0.000000   0.000033   0.000031   0.000004
     7  H   -0.000008   0.002072   0.017163  -0.000182
     8  H    0.000058  -0.000383  -0.000001  -0.004732
     9  H    0.000038  -0.000001  -0.000002  -0.000038
    10  O    0.000000  -0.090974  -0.002347   0.001420
    11  C    0.000001  -0.006410  -0.000110   0.006874
    12  O    0.000000  -0.000286  -0.000000  -0.000029
    13  C   -0.005197   0.000432  -0.000130  -0.007235
    14  O    0.006668   0.003377  -0.000375   0.071013
    15  O   -0.025305   0.000003  -0.000000  -0.000112
    16  C    0.405503  -0.000001   0.000000   0.000448
    17  H   -0.020490  -0.000000   0.000000   0.000009
    18  H   -0.028784  -0.000001   0.000000   0.000173
    19  H    0.604784  -0.000002   0.000000   0.000143
    20  C   -0.000002   5.408982   0.796944  -0.025756
    21  N    0.000000   0.796944   6.247067  -0.000379
    22  H    0.000143  -0.025756  -0.000379   0.443639
 Mulliken charges:
               1
     1  C    0.035847
     2  C   -0.004661
     3  C   -0.120744
     4  C   -0.127018
     5  N   -0.010599
     6  H    0.084895
     7  H    0.071637
     8  H    0.068693
     9  H    0.065859
    10  O   -0.257258
    11  C    0.256517
    12  O   -0.259634
    13  C    0.303666
    14  O   -0.323022
    15  O   -0.310728
    16  C    0.115739
    17  H    0.074102
    18  H    0.063309
    19  H    0.062173
    20  C   -0.020484
    21  N    0.047527
    22  H    0.184186
 Sum of Mulliken charges =  -0.00000
 Mulliken charges with hydrogens summed into heavy atoms:
               1
     1  C    0.035847
     2  C    0.151870
     3  C   -0.052051
     4  C   -0.061159
     5  N    0.173586
    10  O   -0.257258
    11  C    0.256517
    12  O   -0.259634
    13  C    0.303666
    14  O   -0.323022
    15  O   -0.310728
    16  C    0.315323
    20  C   -0.020484
    21  N    0.047527
 APT charges:
               1
     1  C   -0.069726
     2  C    0.025364
     3  C   -0.620569
     4  C   -0.317605
     5  N    0.235844
     6  H    0.065719
     7  H    0.103195
     8  H    0.145220
     9  H    0.067932
    10  O   -0.339198
    11  C    1.167874
    12  O   -1.047166
    13  C    1.528264
    14  O   -1.054617
    15  O   -1.008987
    16  C    0.494489
    17  H    0.020600
    18  H   -0.005819
    19  H   -0.003174
    20  C    0.577340
    21  N   -0.579240
    22  H    0.614259
 Sum of APT charges =  -0.00000
 APT charges with hydrogens summed into heavy atoms:
               1
     1  C   -0.069726
     2  C    0.194278
     3  C   -0.475349
     4  C   -0.249672
     5  N    0.850103
    10  O   -0.339198
    11  C    1.167874
    12  O   -1.047166
    13  C    1.528264
    14  O   -1.054617
    15  O   -1.008987
    16  C    0.506097
    20  C    0.577340
    21  N   -0.579240
 Electronic spatial extent (au):  <R**2>=           3928.8136
 Charge=             -0.0000 electrons
 Dipole moment (field-independent basis, Debye):
    X=             -9.2233    Y=             -2.7373    Z=              0.1187  Tot=              9.6217
 Quadrupole moment (field-independent basis, Debye-Ang):
   XX=           -102.1667   YY=            -78.2426   ZZ=            -79.4710
   XY=              6.9537   XZ=              0.5914   YZ=             -0.3606
 Traceless Quadrupole moment (field-independent basis, Debye-Ang):
   XX=            -15.5399   YY=              8.3842   ZZ=              7.1558
   XY=              6.9537   XZ=              0.5914   YZ=             -0.3606
 Octapole moment (field-independent basis, Debye-Ang**2):
  XXX=           -207.7336  YYY=            -69.2440  ZZZ=              0.0727  XYY=            -50.6411
  XXY=             40.4900  XXZ=              1.5705  XZZ=              3.0475  YZZ=             -6.1744
  YYZ=             -0.2208  XYZ=             -0.0965
 Hexadecapole moment (field-independent basis, Debye-Ang**3):
 XXXX=          -4307.1248 YYYY=          -1349.6142 ZZZZ=            -79.7280 XXXY=            189.7700
 XXXZ=             13.1993 YYYX=             29.8350 YYYZ=             -2.6670 ZZZX=             -1.9701
 ZZZY=             -0.0529 XXYY=           -766.5882 XXZZ=           -620.4201 YYZZ=           -239.6207
 XXYZ=             -3.8783 YYXZ=              1.4717 ZZXY=             16.5179
 N-N= 8.162666599909D+02 E-N=-3.311268023923D+03  KE= 7.129077233632D+02
  Exact polarizability:     134.120     -27.245     186.407      -0.287      -0.062      58.508
 Approx polarizability:     132.427     -24.692     185.116      -0.430       0.068      63.665
   1 Symmetry operations used in ECPInt.
 ECPInt:  NShTT=    5886 NPrTT=   21942 LenC2=    5391 LenP2D=   14229.
 LDataN:  DoStor=T MaxTD1= 6 Len=  172
 D2PCM: PCM CHGder 2nd derivatives, FixD1E=F FixD2E=F DoIter=F DoCFld=F I1PDM=0
 Calling FoFJK, ICntrl=    100127 FMM=F ISym2X=0 I1Cent= 0 IOpClX= 0 NMat=1 NMatS=1 NMatT=0.
 Full mass-weighted force constant matrix:
 Low frequencies ---  -24.7279   -7.7663   -2.9147   -0.0009    0.0008    0.0009
 Low frequencies ---    5.8366   14.4705   25.4572
 ******    1 imaginary frequencies (negative Signs) ****** 
 Diagonal vibrational polarizability:
       62.5676113      79.7778774     107.0056837
 Harmonic frequencies (cm**-1), IR intensities (KM/Mole), Raman scattering
 activities (A**4/AMU), depolarization ratios for plane and unpolarized
 incident light, reduced masses (AMU), force constants (mDyne/A),
 and normal coordinates:
                      1                      2                      3
                      A                      A                      A
 Frequencies --    -24.7157                14.2474                25.3038
 Red. masses --      6.1502                 5.2976                 5.5940
 Frc consts  --      0.0022                 0.0006                 0.0021
 IR Inten    --      0.9493                 0.0734                 0.6513
  Atom  AN      X      Y      Z        X      Y      Z        X      Y      Z
     1   6    -0.06  -0.12   0.00    -0.00   0.00   0.08    -0.00   0.01   0.01
     2   6    -0.21   0.11  -0.01     0.01  -0.00  -0.29     0.00  -0.00   0.04
     3   6     0.06  -0.10   0.00    -0.00  -0.00  -0.10    -0.01   0.01   0.17
     4   6    -0.10   0.05  -0.01     0.01  -0.00  -0.23     0.01  -0.01  -0.13
     5   7     0.01  -0.15   0.00     0.00  -0.00   0.00    -0.00   0.01   0.19
     6   1    -0.30   0.05  -0.01     0.02  -0.00  -0.43     0.00  -0.00  -0.09
     7   1    -0.21   0.21  -0.01     0.01  -0.00  -0.19    -0.01  -0.00   0.30
     8   1     0.12  -0.12   0.00     0.00  -0.00  -0.18    -0.01   0.01   0.29
     9   1    -0.09  -0.06  -0.01     0.01  -0.00  -0.32     0.02  -0.01  -0.40
    10   8    -0.05  -0.05  -0.00    -0.00   0.00   0.02    -0.01  -0.00  -0.13
    11   6     0.03  -0.03  -0.00    -0.00   0.00  -0.10    -0.01  -0.00  -0.04
    12   8     0.06   0.03  -0.01    -0.00   0.01  -0.16    -0.02  -0.01  -0.14
    13   6     0.03   0.12   0.00     0.00  -0.00  -0.04     0.01  -0.00   0.04
    14   8     0.04   0.26   0.00    -0.00  -0.00   0.05    -0.00   0.00   0.38
    15   8     0.14   0.04   0.00    -0.00   0.00   0.05     0.01  -0.01  -0.21
    16   6     0.27   0.10   0.00    -0.01   0.00   0.24     0.02  -0.00  -0.09
    17   1     0.34   0.02   0.00    -0.01  -0.00   0.29     0.04  -0.01  -0.33
    18   1     0.28   0.16   0.00    -0.05   0.12   0.28    -0.23  -0.03   0.05
    19   1     0.28   0.17   0.00     0.03  -0.11   0.29     0.24   0.03   0.08
    20   6    -0.12  -0.15   0.00    -0.00  -0.00   0.19     0.00   0.01  -0.03
    21   7    -0.17  -0.17   0.00     0.00  -0.00   0.28     0.01   0.01  -0.05
    22   1     0.01  -0.18   0.01     0.00  -0.00   0.02    -0.00   0.02   0.30
                      4                      5                      6
                      A                      A                      A
 Frequencies --     58.7180                80.0963               106.0886
 Red. masses --      6.2388                 5.1135                 3.1886
 Frc consts  --      0.0127                 0.0193                 0.0211
 IR Inten    --      1.7587                 8.7722                 6.4534
  Atom  AN      X      Y      Z        X      Y      Z        X      Y      Z
     1   6     0.06   0.08   0.01    -0.00  -0.00   0.11     0.00   0.00   0.00
     2   6    -0.22  -0.04  -0.02     0.01  -0.00  -0.13    -0.01   0.00   0.26
     3   6    -0.15   0.05  -0.01     0.01   0.00   0.25     0.00   0.00   0.07
     4   6    -0.13  -0.09   0.01     0.00   0.00   0.11     0.00  -0.00  -0.16
     5   7    -0.05   0.14  -0.00     0.01  -0.00   0.30     0.00   0.00   0.06
     6   1    -0.29  -0.08  -0.01     0.01   0.00  -0.05    -0.02   0.00   0.32
     7   1    -0.22   0.03  -0.05     0.02  -0.00  -0.41    -0.02   0.01   0.55
     8   1    -0.26   0.08  -0.02     0.01   0.00   0.36     0.00   0.00   0.11
     9   1    -0.13  -0.18   0.04    -0.01   0.01   0.38     0.01  -0.01  -0.42
    10   8     0.04  -0.05   0.01    -0.01   0.00  -0.08     0.00  -0.00  -0.03
    11   6    -0.10  -0.08  -0.00    -0.00   0.00  -0.03    -0.00  -0.00   0.00
    12   8    -0.14  -0.19  -0.00    -0.01   0.00  -0.22    -0.00  -0.00  -0.04
    13   6    -0.02  -0.02  -0.00     0.00  -0.00  -0.03     0.00  -0.00  -0.15
    14   8    -0.01   0.10  -0.02     0.01  -0.01  -0.23     0.00   0.00  -0.17
    15   8     0.09  -0.11   0.01    -0.00   0.00   0.08     0.00  -0.00  -0.05
    16   6     0.24  -0.04   0.00    -0.00  -0.00  -0.10    -0.00   0.00   0.17
    17   1     0.33  -0.13   0.02    -0.02   0.01  -0.00    -0.00  -0.01   0.29
    18   1     0.28   0.03  -0.01     0.15  -0.06  -0.20    -0.01   0.16   0.20
    19   1     0.24   0.04  -0.01    -0.15   0.05  -0.22     0.00  -0.15   0.19
    20   6     0.16   0.13   0.01    -0.00  -0.00   0.04     0.00   0.00  -0.01
    21   7     0.22   0.16   0.01    -0.01  -0.00  -0.00     0.00   0.00  -0.00
    22   1    -0.06   0.22  -0.01     0.01  -0.00   0.32     0.00   0.00   0.05
                      7                      8                      9
                      A                      A                      A
 Frequencies --    120.8497               130.6571               146.6893
 Red. masses --      6.5374                10.1586                 1.0705
 Frc consts  --      0.0563                 0.1022                 0.0136
 IR Inten    --      1.5422                 2.5285                 0.6642
  Atom  AN      X      Y      Z        X      Y      Z        X      Y      Z
     1   6    -0.13   0.02  -0.00     0.01   0.00   0.42     0.00  -0.00   0.00
     2   6     0.32  -0.02   0.01    -0.00   0.00   0.04    -0.00   0.00   0.00
     3   6    -0.18   0.02  -0.01    -0.00  -0.00  -0.20     0.00  -0.00  -0.00
     4   6     0.22   0.03   0.00     0.00  -0.00  -0.01    -0.00   0.00  -0.03
     5   7    -0.15   0.03  -0.01     0.00  -0.00   0.05     0.00  -0.00   0.00
     6   1     0.39   0.02   0.01    -0.00   0.00   0.04    -0.00   0.00  -0.03
     7   1     0.32  -0.11   0.01    -0.00   0.00   0.07    -0.01  -0.00   0.06
     8   1    -0.20   0.02  -0.02    -0.01  -0.01  -0.52     0.01  -0.00  -0.00
     9   1     0.22   0.10  -0.00     0.00  -0.00  -0.05    -0.00   0.00  -0.08
    10   8    -0.14  -0.00   0.01     0.01   0.00   0.44     0.00   0.00   0.00
    11   6    -0.17  -0.01   0.00    -0.00   0.00  -0.06     0.00   0.00   0.00
    12   8    -0.18  -0.04   0.01    -0.01   0.00  -0.26     0.00   0.00  -0.00
    13   6     0.15  -0.01  -0.00     0.00   0.00  -0.00    -0.01  -0.00   0.01
    14   8     0.15  -0.03  -0.01    -0.00   0.00   0.03    -0.01  -0.00   0.05
    15   8     0.16  -0.00   0.01     0.00   0.00  -0.03    -0.01   0.00  -0.00
    16   6     0.20   0.01   0.00    -0.00   0.00   0.03     0.00   0.00  -0.03
    17   1     0.21  -0.01   0.09     0.00  -0.00  -0.02    -0.03  -0.01   0.53
    18   1     0.27   0.06  -0.03    -0.07   0.01   0.07     0.48   0.20  -0.29
    19   1     0.14   0.00  -0.04     0.06  -0.01   0.08    -0.43  -0.18  -0.36
    20   6    -0.13   0.02  -0.00     0.00  -0.00   0.04     0.00  -0.00  -0.00
    21   7    -0.15   0.01  -0.00    -0.01  -0.00  -0.45     0.01   0.00  -0.01
    22   1    -0.15   0.05  -0.02    -0.00  -0.00  -0.05     0.00  -0.00   0.00
                     10                     11                     12
                      A                      A                      A
 Frequencies --    165.3136               204.0684               248.0123
 Red. masses --     10.6236                 2.6997                 3.2152
 Frc consts  --      0.1711                 0.0662                 0.1165
 IR Inten    --     20.3733                 4.6473                22.0315
  Atom  AN      X      Y      Z        X      Y      Z        X      Y      Z
     1   6    -0.27  -0.16   0.00    -0.00  -0.00   0.00    -0.03  -0.00   0.00
     2   6     0.05  -0.03   0.00    -0.00   0.00   0.03    -0.19   0.10  -0.01
     3   6     0.04  -0.12  -0.00    -0.00  -0.00   0.00    -0.03  -0.00  -0.00
     4   6    -0.00   0.00   0.00     0.01  -0.00  -0.18     0.09  -0.05   0.01
     5   7    -0.12  -0.25   0.00    -0.00  -0.00   0.00    -0.02  -0.01  -0.00
     6   1     0.11   0.00   0.01    -0.00  -0.00  -0.17    -0.46  -0.06  -0.01
     7   1     0.06  -0.09  -0.00    -0.02   0.01   0.41    -0.21   0.41  -0.02
     8   1     0.19  -0.17  -0.00    -0.00  -0.00   0.00    -0.02  -0.00  -0.01
     9   1    -0.01   0.04   0.01     0.02  -0.01  -0.53     0.11  -0.25   0.01
    10   8    -0.25  -0.00   0.00    -0.00   0.00   0.01    -0.03  -0.00  -0.00
    11   6    -0.04   0.08   0.00    -0.00   0.00   0.00    -0.03   0.00  -0.00
    12   8     0.04   0.28  -0.00    -0.00   0.00  -0.00    -0.03  -0.00   0.00
    13   6    -0.02  -0.01  -0.00     0.00   0.00   0.05     0.18   0.00   0.00
    14   8    -0.02   0.02  -0.01     0.00   0.00  -0.01     0.18  -0.04   0.01
    15   8     0.01  -0.02  -0.00    -0.00   0.00   0.26     0.11   0.06  -0.00
    16   6     0.06  -0.00   0.01    -0.00  -0.00  -0.14    -0.17  -0.07  -0.00
    17   1     0.09  -0.03  -0.03    -0.00   0.01  -0.37    -0.35   0.12   0.03
    18   1     0.03   0.01   0.03     0.02  -0.31  -0.20    -0.19  -0.19  -0.01
    19   1     0.09   0.03   0.03    -0.02   0.28  -0.20    -0.23  -0.24  -0.02
    20   6    -0.09  -0.08   0.00    -0.00   0.00  -0.00    -0.02   0.00   0.00
    21   7     0.56   0.25  -0.01     0.00   0.00  -0.01     0.03   0.03  -0.00
    22   1    -0.11  -0.37   0.00    -0.00  -0.00  -0.00    -0.02  -0.01   0.00
                     13                     14                     15
                      A                      A                      A
 Frequencies --    296.0509               338.2999               458.1470
 Red. masses --      9.5121                 4.1607                10.7523
 Frc consts  --      0.4912                 0.2806                 1.3297
 IR Inten    --      1.9706                22.0564                 5.8927
  Atom  AN      X      Y      Z        X      Y      Z        X      Y      Z
     1   6    -0.01  -0.00  -0.31     0.00   0.01   0.00     0.08  -0.06  -0.00
     2   6    -0.00   0.00  -0.01     0.11  -0.15   0.00     0.00   0.03  -0.00
     3   6     0.01   0.00   0.40     0.00   0.00  -0.00    -0.23  -0.05   0.01
     4   6     0.00  -0.00   0.01    -0.09  -0.04  -0.00     0.01   0.02  -0.00
     5   7    -0.01  -0.00  -0.29     0.00   0.01   0.00    -0.14   0.07   0.01
     6   1    -0.01  -0.00  -0.02     0.34  -0.01   0.01    -0.03   0.01   0.00
     7   1    -0.00   0.01   0.00     0.13  -0.42   0.00    -0.00   0.07  -0.00
     8   1     0.01   0.00   0.36    -0.00   0.01  -0.00    -0.39  -0.01   0.01
     9   1     0.00  -0.00   0.00    -0.09   0.04  -0.00     0.01   0.02   0.00
    10   8     0.01   0.00   0.36     0.00   0.00  -0.00    -0.02  -0.26   0.00
    11   6     0.00   0.00   0.21     0.00  -0.00  -0.00    -0.15  -0.00   0.00
    12   8    -0.01  -0.00  -0.33    -0.00  -0.01   0.00     0.03   0.47  -0.00
    13   6     0.00   0.00   0.01     0.00   0.03  -0.00    -0.00  -0.00  -0.00
    14   8     0.00   0.00   0.02     0.03   0.35   0.00    -0.00   0.01  -0.00
    15   8     0.00   0.00  -0.01     0.11  -0.05   0.00     0.02  -0.02   0.00
    16   6    -0.00  -0.00   0.00    -0.17  -0.17  -0.00    -0.00  -0.03   0.00
    17   1    -0.01   0.00  -0.00    -0.35   0.03   0.03    -0.02  -0.01   0.00
    18   1    -0.01  -0.00   0.01    -0.19  -0.31  -0.01    -0.00  -0.05   0.00
    19   1     0.00  -0.01   0.01    -0.23  -0.36  -0.03    -0.01  -0.05  -0.00
    20   6    -0.01  -0.00  -0.18    -0.00   0.01   0.00     0.53   0.05  -0.02
    21   7     0.00   0.00   0.13    -0.01   0.00  -0.00    -0.05  -0.27   0.01
    22   1    -0.01  -0.00  -0.45     0.00   0.00   0.00    -0.16   0.22  -0.00
                     16                     17                     18
                      A                      A                      A
 Frequencies --    484.5812               486.9268               532.1132
 Red. masses --     11.8945                 4.2102                 1.5993
 Frc consts  --      1.6456                 0.5881                 0.2668
 IR Inten    --      5.8500                 6.8492                 0.0096
  Atom  AN      X      Y      Z        X      Y      Z        X      Y      Z
     1   6    -0.00  -0.00  -0.18    -0.00   0.00   0.00    -0.00  -0.00  -0.00
     2   6     0.00   0.01   0.00     0.04   0.29  -0.00    -0.00   0.00   0.03
     3   6     0.00   0.00   0.19     0.01   0.00  -0.00     0.00   0.00  -0.00
     4   6     0.01   0.01  -0.01     0.10   0.21   0.00     0.00   0.00  -0.12
     5   7    -0.01  -0.00  -0.25     0.00  -0.00   0.00     0.00  -0.00   0.00
     6   1    -0.01   0.01   0.04    -0.15   0.18  -0.02    -0.02   0.01   0.71
     7   1     0.00   0.03  -0.02     0.02   0.54   0.01     0.02  -0.00  -0.49
     8   1     0.00   0.00   0.11     0.02   0.00  -0.00     0.00   0.00   0.01
     9   1     0.00   0.02   0.01     0.08   0.38  -0.01    -0.01   0.01   0.43
    10   8    -0.00  -0.00  -0.14     0.00   0.01   0.00     0.00   0.00   0.00
    11   6     0.00   0.00   0.11     0.01  -0.00  -0.00     0.00   0.00  -0.00
    12   8    -0.00   0.00  -0.04     0.01  -0.02   0.00    -0.00  -0.00  -0.00
    13   6    -0.00  -0.00  -0.01    -0.10  -0.04   0.00     0.00  -0.00  -0.15
    14   8    -0.00   0.00   0.00    -0.10   0.03  -0.00    -0.00  -0.00   0.08
    15   8     0.00  -0.01   0.00     0.02  -0.19   0.00    -0.00  -0.00   0.07
    16   6     0.00  -0.01  -0.00     0.04  -0.27   0.00     0.00  -0.00  -0.01
    17   1    -0.00  -0.01  -0.00    -0.00  -0.23   0.01     0.00   0.00  -0.04
    18   1     0.00  -0.02  -0.00     0.03  -0.29   0.01     0.03  -0.07  -0.03
    19   1     0.00  -0.01  -0.00     0.02  -0.30  -0.01    -0.02   0.06  -0.03
    20   6     0.03   0.01   0.82    -0.02  -0.00  -0.01    -0.00  -0.00  -0.01
    21   7    -0.01  -0.01  -0.34     0.00   0.01   0.01     0.00  -0.00   0.00
    22   1    -0.01  -0.00  -0.18     0.01  -0.01   0.00     0.00  -0.00   0.01
                     19                     20                     21
                      A                      A                      A
 Frequencies --    563.8105               615.6864               639.5699
 Red. masses --     11.6362                 6.6016                 1.1569
 Frc consts  --      2.1794                 1.4744                 0.2788
 IR Inten    --      4.2618                 1.3229                49.9889
  Atom  AN      X      Y      Z        X      Y      Z        X      Y      Z
     1   6     0.08  -0.08   0.00    -0.18  -0.04   0.00     0.00   0.00   0.06
     2   6    -0.00   0.00   0.00     0.00  -0.00   0.00    -0.00  -0.00  -0.00
     3   6     0.00   0.19   0.00     0.19  -0.00  -0.01    -0.00  -0.00  -0.06
     4   6    -0.01   0.00   0.00     0.01  -0.01   0.00     0.00  -0.00   0.00
     5   7    -0.01   0.02  -0.00    -0.03  -0.21   0.00    -0.00  -0.00  -0.06
     6   1     0.00   0.00  -0.00    -0.03  -0.02  -0.00     0.00  -0.00  -0.00
     7   1     0.00  -0.00   0.00    -0.00   0.03  -0.00    -0.00   0.00   0.00
     8   1     0.33   0.10  -0.01     0.56  -0.11  -0.01     0.03   0.01   0.99
     9   1    -0.01   0.00  -0.00     0.01  -0.01   0.00     0.00  -0.00  -0.00
    10   8     0.14   0.23  -0.01    -0.13   0.04   0.00     0.00  -0.00   0.01
    11   6    -0.13   0.46   0.00     0.04   0.23  -0.00    -0.00  -0.00  -0.03
    12   8    -0.35  -0.04   0.01    -0.10  -0.17   0.00     0.00   0.00   0.00
    13   6    -0.01   0.00   0.00     0.00  -0.01   0.00     0.00  -0.00  -0.00
    14   8    -0.00   0.00  -0.00     0.00   0.01  -0.00     0.00   0.00  -0.00
    15   8     0.00  -0.00  -0.00    -0.01  -0.00  -0.00     0.00   0.00  -0.00
    16   6     0.00  -0.00   0.00    -0.00   0.01   0.00    -0.00  -0.00  -0.00
    17   1    -0.00  -0.00   0.00     0.01  -0.01  -0.00    -0.00   0.00   0.00
    18   1    -0.00  -0.00   0.00     0.00   0.01   0.00     0.00   0.00   0.00
    19   1    -0.00  -0.00  -0.00     0.00   0.02   0.00    -0.00  -0.00  -0.00
    20   6     0.05  -0.42   0.00     0.39   0.27  -0.01    -0.00  -0.00   0.00
    21   7     0.24  -0.38  -0.00    -0.14   0.01   0.00     0.00   0.00  -0.00
    22   1    -0.03   0.14  -0.01    -0.02  -0.44   0.01    -0.00   0.00   0.00
                     22                     23                     24
                      A                      A                      A
 Frequencies --    658.6308               678.6088               735.3911
 Red. masses --      7.8085                 3.3213                11.6009
 Frc consts  --      1.9957                 0.9012                 3.6964
 IR Inten    --      2.6514                10.5804                20.6152
  Atom  AN      X      Y      Z        X      Y      Z        X      Y      Z
     1   6     0.01   0.00   0.54     0.01   0.00   0.00    -0.11  -0.07   0.01
     2   6    -0.00  -0.00  -0.00     0.04  -0.04   0.00     0.00  -0.01   0.00
     3   6     0.01   0.00   0.26    -0.01   0.00   0.00    -0.01   0.19   0.01
     4   6    -0.00  -0.00  -0.00     0.25  -0.15   0.01     0.01  -0.01   0.00
     5   7    -0.01  -0.00  -0.34     0.00   0.01  -0.00    -0.28   0.17   0.00
     6   1    -0.00  -0.00   0.01    -0.46  -0.35  -0.01    -0.03  -0.03  -0.00
     7   1     0.00  -0.00  -0.00     0.00   0.52  -0.01    -0.00   0.03   0.00
     8   1    -0.01  -0.00  -0.40    -0.02   0.01  -0.00    -0.17   0.23   0.00
     9   1    -0.00  -0.00   0.01     0.25  -0.07   0.01     0.02  -0.02   0.00
    10   8    -0.01  -0.00  -0.25     0.01  -0.00  -0.00    -0.29   0.43   0.01
    11   6     0.00   0.00   0.11    -0.00  -0.00   0.00     0.16  -0.36  -0.02
    12   8    -0.00  -0.00  -0.03    -0.00   0.01  -0.00     0.28  -0.13  -0.00
    13   6    -0.00   0.00  -0.00    -0.02  -0.11   0.00    -0.00   0.00  -0.00
    14   8    -0.00  -0.00   0.01    -0.00   0.20  -0.00    -0.01   0.00  -0.00
    15   8     0.00   0.00   0.00    -0.19  -0.04  -0.00     0.02   0.01   0.00
    16   6     0.00   0.00   0.00    -0.02   0.06  -0.00    -0.00   0.00  -0.00
    17   1    -0.00   0.00  -0.00     0.17  -0.15   0.00    -0.02   0.02  -0.00
    18   1    -0.00  -0.00   0.00     0.03   0.21  -0.01    -0.01  -0.00   0.00
    19   1     0.00   0.00   0.00     0.01   0.23   0.01    -0.00  -0.01  -0.00
    20   6    -0.00   0.00  -0.12    -0.01  -0.01   0.00     0.21  -0.11  -0.00
    21   7    -0.00   0.00   0.05     0.00  -0.00  -0.00     0.09  -0.24  -0.00
    22   1    -0.02  -0.00  -0.51     0.01  -0.01   0.00    -0.29   0.17  -0.01
                     25                     26                     27
                      A                      A                      A
 Frequencies --    737.9715               791.9034               841.5530
 Red. masses --     11.8928                10.1402                 4.5640
 Frc consts  --      3.8160                 3.7466                 1.9044
 IR Inten    --     32.3151                26.6127                44.3570
  Atom  AN      X      Y      Z        X      Y      Z        X      Y      Z
     1   6    -0.00  -0.00  -0.01     0.13  -0.00  -0.00     0.00   0.00   0.00
     2   6     0.00  -0.00   0.00    -0.00   0.01  -0.00    -0.00   0.00   0.00
     3   6    -0.01   0.00  -0.41    -0.01  -0.43   0.00    -0.00   0.00  -0.00
     4   6     0.00  -0.00   0.00    -0.01   0.01  -0.00     0.01  -0.00  -0.25
     5   7    -0.00   0.00   0.10     0.27  -0.10  -0.01    -0.00  -0.00  -0.00
     6   1     0.00  -0.00  -0.01     0.03   0.03   0.00    -0.02   0.01   0.71
     7   1    -0.00   0.00   0.00    -0.00  -0.03   0.00     0.01  -0.01  -0.30
     8   1     0.00   0.00   0.16    -0.05  -0.43   0.01    -0.00   0.00   0.00
     9   1     0.00  -0.00  -0.00    -0.01   0.01  -0.00    -0.01   0.00   0.28
    10   8    -0.01   0.00  -0.17     0.01   0.44  -0.00    -0.00   0.00  -0.00
    11   6     0.03   0.00   0.83    -0.24  -0.30   0.01     0.00  -0.00   0.00
    12   8    -0.00  -0.00  -0.23    -0.22   0.14   0.01     0.00  -0.00  -0.00
    13   6     0.00  -0.00  -0.00     0.01  -0.00   0.00    -0.01   0.00   0.48
    14   8     0.00   0.00  -0.00     0.01   0.00   0.00     0.00  -0.00  -0.12
    15   8    -0.00   0.00   0.00    -0.02  -0.01  -0.00     0.00  -0.00  -0.10
    16   6    -0.00  -0.00   0.00    -0.00  -0.00   0.00     0.00  -0.00  -0.01
    17   1    -0.00   0.00   0.00     0.02  -0.03   0.00    -0.00  -0.00   0.05
    18   1    -0.00   0.00   0.00     0.01   0.01  -0.00    -0.04   0.08   0.02
    19   1    -0.00  -0.00   0.00     0.00   0.01   0.00     0.03  -0.08   0.02
    20   6     0.00  -0.00  -0.03     0.11   0.09  -0.00    -0.00  -0.00  -0.00
    21   7     0.00  -0.00   0.01    -0.03   0.02   0.00    -0.00   0.00   0.00
    22   1    -0.00   0.00   0.12     0.30   0.02   0.01     0.00   0.00   0.01
                     28                     29                     30
                      A                      A                      A
 Frequencies --    910.4030               990.6777              1004.2552
 Red. masses --      2.6710                 1.1309                 8.2669
 Frc consts  --      1.3043                 0.6539                 4.9122
 IR Inten    --      5.1644                53.1264                55.0333
  Atom  AN      X      Y      Z        X      Y      Z        X      Y      Z
     1   6     0.01  -0.01  -0.00    -0.00   0.01   0.01    -0.01  -0.14   0.01
     2   6     0.07  -0.10   0.00     0.00  -0.00   0.00    -0.01   0.02   0.00
     3   6    -0.00  -0.02  -0.00     0.01   0.01   0.01    -0.27  -0.14   0.01
     4   6     0.06  -0.06   0.00    -0.00  -0.00   0.00     0.01  -0.00   0.00
     5   7    -0.01  -0.01   0.00     0.02   0.01  -0.09    -0.36  -0.20  -0.02
     6   1    -0.44  -0.41  -0.01    -0.01  -0.01  -0.01     0.08   0.07   0.00
     7   1     0.02   0.45  -0.00     0.00   0.01  -0.05    -0.00  -0.08  -0.03
     8   1     0.03  -0.03   0.00    -0.01   0.02  -0.07    -0.10  -0.22  -0.02
     9   1     0.04   0.18   0.00     0.00   0.01  -0.05     0.02  -0.09  -0.03
    10   8     0.02   0.01  -0.00    -0.02  -0.01   0.01     0.41   0.18  -0.01
    11   6    -0.00   0.00  -0.00    -0.00  -0.00   0.01     0.10   0.11  -0.00
    12   8    -0.00   0.00   0.00    -0.01   0.00  -0.00     0.12  -0.02  -0.00
    13   6    -0.12   0.06  -0.00    -0.00   0.00  -0.00     0.01  -0.00  -0.00
    14   8    -0.18  -0.04  -0.00    -0.00  -0.00  -0.01     0.02   0.01  -0.00
    15   8     0.20   0.04   0.00     0.00  -0.00   0.00    -0.02   0.01  -0.00
    16   6     0.01   0.08  -0.00    -0.00   0.00  -0.00     0.00  -0.02   0.00
    17   1    -0.26   0.38  -0.01    -0.01   0.01   0.00     0.03  -0.06   0.00
    18   1    -0.08  -0.15   0.02    -0.00  -0.01  -0.00     0.01   0.02   0.00
    19   1    -0.05  -0.18  -0.02    -0.00  -0.00  -0.00     0.01   0.02  -0.00
    20   6    -0.00   0.01   0.00     0.00  -0.00  -0.01    -0.01   0.07  -0.00
    21   7    -0.00   0.01  -0.00     0.00  -0.01   0.00    -0.06   0.11   0.00
    22   1    -0.02   0.03  -0.02     0.05  -0.00   0.99    -0.44   0.03   0.41
                     31                     32                     33
                      A                      A                      A
 Frequencies --   1026.1766              1041.5458              1068.0239
 Red. masses --      1.0853                 1.3538                 4.2275
 Frc consts  --      0.6734                 0.8653                 2.8412
 IR Inten    --     23.3619                26.7788                 5.5432
  Atom  AN      X      Y      Z        X      Y      Z        X      Y      Z
     1   6    -0.00  -0.00   0.00    -0.00  -0.00   0.00    -0.01   0.01   0.00
     2   6    -0.00  -0.00   0.01     0.01  -0.00  -0.17    -0.07   0.13  -0.00
     3   6    -0.00  -0.00   0.00    -0.00  -0.00   0.00    -0.02  -0.00   0.00
     4   6     0.00  -0.00  -0.08    -0.00   0.00   0.06     0.07  -0.01   0.00
     5   7    -0.00  -0.00  -0.00    -0.00  -0.00  -0.00     0.01  -0.01   0.00
     6   1     0.01  -0.00  -0.37    -0.02   0.00   0.66     0.41   0.43   0.01
     7   1    -0.01   0.00   0.46    -0.02   0.01   0.73    -0.03  -0.34   0.00
     8   1    -0.00  -0.00  -0.00    -0.00  -0.00  -0.00    -0.17   0.04   0.01
     9   1    -0.02   0.01   0.80    -0.00   0.00  -0.01     0.08  -0.20   0.01
    10   8     0.00   0.00   0.00     0.00   0.00   0.00     0.00   0.01  -0.00
    11   6     0.00   0.00   0.00     0.00   0.00   0.00     0.01   0.02  -0.00
    12   8     0.00  -0.00  -0.00     0.00  -0.00  -0.00     0.01  -0.00  -0.00
    13   6     0.00  -0.00  -0.01     0.00   0.00  -0.01    -0.03  -0.20   0.00
    14   8     0.00  -0.00   0.00     0.00  -0.00   0.00    -0.04   0.03  -0.00
    15   8     0.00  -0.00  -0.00    -0.00   0.00   0.00     0.16  -0.24   0.01
    16   6    -0.00  -0.00   0.00    -0.00  -0.00   0.00    -0.14   0.30  -0.01
    17   1     0.00  -0.00  -0.00     0.00  -0.00  -0.00    -0.09   0.25  -0.00
    18   1     0.00  -0.01  -0.00     0.00  -0.00  -0.00    -0.11   0.21  -0.03
    19   1    -0.00   0.01  -0.00    -0.00   0.00  -0.00    -0.11   0.21   0.02
    20   6     0.00   0.00  -0.00     0.00   0.00   0.00     0.00  -0.00  -0.00
    21   7    -0.00   0.00  -0.00    -0.00   0.00  -0.00     0.00  -0.00  -0.00
    22   1     0.00   0.00   0.06     0.00   0.00   0.04     0.03  -0.08  -0.01
                     34                     35                     36
                      A                      A                      A
 Frequencies --   1076.5219              1087.4957              1180.8651
 Red. masses --      1.5741                 1.8890                 1.2972
 Frc consts  --      1.0748                 1.3163                 1.0657
 IR Inten    --     46.9791                25.2178                 1.2293
  Atom  AN      X      Y      Z        X      Y      Z        X      Y      Z
     1   6     0.07  -0.03  -0.00     0.02  -0.01  -0.00    -0.00  -0.00  -0.00
     2   6    -0.03   0.02  -0.00     0.06  -0.04   0.00    -0.00   0.00  -0.00
     3   6     0.08   0.04  -0.00     0.02   0.02  -0.00    -0.00   0.00   0.00
     4   6     0.05  -0.02   0.00    -0.16   0.06  -0.00    -0.00   0.00  -0.00
     5   7    -0.10   0.03   0.00    -0.04   0.01   0.00     0.00  -0.00  -0.00
     6   1     0.11   0.11   0.00    -0.26  -0.23  -0.01     0.00   0.00   0.00
     7   1    -0.01  -0.14   0.00     0.03   0.38  -0.00    -0.00  -0.00   0.01
     8   1     0.88  -0.18  -0.03     0.31  -0.06  -0.01    -0.00   0.00  -0.00
     9   1     0.07  -0.21   0.00    -0.21   0.65  -0.01    -0.00   0.01   0.01
    10   8     0.02  -0.03  -0.00     0.02  -0.01  -0.00     0.00   0.00   0.00
    11   6    -0.06  -0.10   0.00    -0.02  -0.03   0.00    -0.00  -0.00   0.00
    12   8    -0.04   0.03   0.00    -0.01   0.01   0.00    -0.00   0.00   0.00
    13   6    -0.01   0.00  -0.00     0.04  -0.07   0.00    -0.00  -0.00  -0.01
    14   8    -0.03   0.01  -0.00     0.10  -0.01   0.00     0.00   0.00   0.00
    15   8     0.00   0.01   0.00     0.02  -0.08   0.00    -0.00   0.00   0.07
    16   6     0.01  -0.00   0.00    -0.07   0.07  -0.00     0.01   0.00  -0.14
    17   1    -0.02   0.03   0.00     0.09  -0.11   0.00    -0.01  -0.02   0.33
    18   1    -0.00  -0.02   0.00     0.01   0.18  -0.03    -0.35   0.55   0.15
    19   1    -0.00  -0.03  -0.00    -0.01   0.19   0.03     0.33  -0.52   0.19
    20   6    -0.02   0.01   0.00    -0.01   0.00   0.00     0.00   0.00  -0.00
    21   7    -0.01   0.02   0.00    -0.00   0.01   0.00    -0.00  -0.00  -0.00
    22   1    -0.12   0.17   0.03    -0.05   0.04  -0.00     0.00  -0.00   0.00
                     37                     38                     39
                      A                      A                      A
 Frequencies --   1205.9140              1215.4978              1277.7270
 Red. masses --      1.9838                 1.6277                 1.5926
 Frc consts  --      1.6997                 1.4169                 1.5319
 IR Inten    --     96.1309                 5.0956               130.9891
  Atom  AN      X      Y      Z        X      Y      Z        X      Y      Z
     1   6     0.00   0.02  -0.00     0.00   0.01  -0.00    -0.00  -0.00   0.00
     2   6     0.01  -0.00   0.00    -0.02   0.01  -0.00    -0.11  -0.01  -0.00
     3   6    -0.03  -0.18   0.00    -0.02  -0.08   0.00     0.01   0.00  -0.00
     4   6     0.01  -0.00   0.00    -0.01   0.00  -0.00     0.10  -0.03   0.00
     5   7     0.01   0.08  -0.00    -0.00   0.04  -0.00     0.00  -0.00  -0.00
     6   1    -0.00  -0.01   0.00     0.03   0.04   0.00     0.04   0.07   0.00
     7   1     0.00   0.01  -0.00    -0.01  -0.02   0.00    -0.09  -0.42  -0.00
     8   1     0.19  -0.27  -0.00     0.11  -0.13  -0.00    -0.03   0.01   0.00
     9   1     0.02  -0.12   0.00    -0.04   0.26  -0.00     0.04   0.84  -0.01
    10   8    -0.08  -0.01   0.00    -0.03  -0.00   0.00     0.00   0.00  -0.00
    11   6     0.05   0.13  -0.00     0.02   0.06  -0.00    -0.00  -0.00   0.00
    12   8     0.05  -0.05  -0.00     0.02  -0.02  -0.00    -0.00   0.00   0.00
    13   6    -0.00   0.04  -0.00     0.01  -0.08   0.00    -0.02  -0.10   0.00
    14   8    -0.02  -0.01  -0.00     0.05   0.01   0.00    -0.02   0.01  -0.00
    15   8     0.05  -0.00   0.00    -0.09  -0.01  -0.00     0.04   0.10  -0.00
    16   6    -0.07  -0.03  -0.00     0.13   0.06   0.01    -0.01  -0.06   0.00
    17   1     0.16  -0.30   0.01    -0.31   0.55  -0.01     0.01  -0.08  -0.01
    18   1     0.09   0.21  -0.06    -0.16  -0.36   0.11     0.06   0.14  -0.02
    19   1     0.07   0.22   0.08    -0.13  -0.38  -0.13     0.05   0.16   0.02
    20   6    -0.00  -0.01   0.00    -0.00  -0.00   0.00    -0.00   0.00  -0.00
    21   7     0.01  -0.01  -0.00     0.00  -0.00  -0.00    -0.00  -0.00   0.00
    22   1    -0.05   0.75  -0.00    -0.02   0.31  -0.00    -0.00  -0.01   0.00
                     40                     41                     42
                      A                      A                      A
 Frequencies --   1349.2584              1363.4026              1429.0070
 Red. masses --      2.2595                 2.2070                 1.2845
 Frc consts  --      2.4236                 2.4171                 1.5455
 IR Inten    --    217.4924               345.7758               166.2904
  Atom  AN      X      Y      Z        X      Y      Z        X      Y      Z
     1   6    -0.07   0.22   0.00     0.01  -0.03  -0.00    -0.00  -0.00   0.00
     2   6    -0.01  -0.01  -0.00    -0.05  -0.04  -0.00    -0.04  -0.04  -0.00
     3   6    -0.20  -0.02   0.01     0.02   0.01  -0.00    -0.00   0.01   0.00
     4   6     0.01   0.01   0.00     0.10   0.05   0.00     0.01  -0.10   0.00
     5   7     0.05   0.00  -0.00    -0.01  -0.00   0.00     0.00  -0.01  -0.00
     6   1    -0.05  -0.04  -0.00    -0.38  -0.26  -0.01     0.55   0.34   0.01
     7   1    -0.00  -0.08   0.00    -0.03  -0.62   0.00    -0.07   0.51  -0.01
     8   1     0.63  -0.28  -0.02    -0.06   0.03   0.00     0.01   0.00  -0.00
     9   1     0.01   0.04   0.00     0.10   0.29   0.00    -0.01   0.30  -0.00
    10   8     0.01  -0.00  -0.00    -0.00   0.00  -0.00     0.00   0.00  -0.00
    11   6     0.00  -0.00  -0.00     0.00  -0.00  -0.00    -0.00  -0.00   0.00
    12   8     0.07  -0.02  -0.00    -0.01   0.00   0.00     0.00   0.00  -0.00
    13   6     0.01   0.03  -0.00     0.04   0.23  -0.00     0.02   0.08  -0.00
    14   8    -0.00  -0.00   0.00     0.01  -0.02   0.00    -0.01  -0.01  -0.00
    15   8     0.00  -0.01   0.00    -0.04  -0.14   0.00    -0.01  -0.01   0.00
    16   6    -0.00   0.01  -0.00    -0.03   0.09  -0.00    -0.02   0.05   0.00
    17   1     0.03  -0.04   0.00     0.18  -0.16   0.01     0.21  -0.22  -0.00
    18   1     0.00  -0.03  -0.01    -0.04  -0.25  -0.03     0.02  -0.22  -0.05
    19   1     0.00  -0.03   0.01    -0.04  -0.27   0.03     0.00  -0.24   0.05
    20   6     0.01  -0.03  -0.00    -0.00   0.00  -0.00     0.00   0.00  -0.00
    21   7     0.03  -0.07  -0.00    -0.00   0.01   0.00    -0.00   0.00   0.00
    22   1     0.12  -0.62  -0.01    -0.01   0.08  -0.00     0.01   0.02  -0.00
                     43                     44                     45
                      A                      A                      A
 Frequencies --   1469.1894              1470.2417              1475.9211
 Red. masses --      1.6790                 1.6276                 1.1362
 Frc consts  --      2.1353                 2.0729                 1.4582
 IR Inten    --     26.7517                43.3333                69.4611
  Atom  AN      X      Y      Z        X      Y      Z        X      Y      Z
     1   6     0.04  -0.09  -0.00    -0.05   0.09   0.00    -0.03   0.03   0.00
     2   6    -0.01  -0.01  -0.00    -0.00  -0.00  -0.00    -0.01  -0.01  -0.00
     3   6    -0.13   0.10   0.00     0.12  -0.10  -0.00     0.04  -0.03  -0.00
     4   6     0.01  -0.01   0.00    -0.00  -0.00   0.00     0.01  -0.01   0.00
     5   7     0.09  -0.08  -0.00    -0.08   0.08   0.00    -0.03   0.02   0.00
     6   1     0.04   0.02  -0.00     0.01   0.00  -0.00     0.04   0.02   0.00
     7   1    -0.01   0.02   0.00    -0.00   0.01   0.00    -0.01   0.03  -0.00
     8   1     0.18   0.03  -0.01    -0.17  -0.03   0.00    -0.06  -0.01   0.00
     9   1     0.01   0.03  -0.00    -0.00   0.01  -0.00     0.00   0.03  -0.00
    10   8    -0.04   0.01   0.00     0.04  -0.01  -0.00     0.02  -0.00  -0.00
    11   6    -0.00  -0.00   0.00     0.00  -0.00  -0.00     0.00  -0.00   0.00
    12   8     0.02  -0.00  -0.00    -0.02   0.01   0.00    -0.01   0.00   0.00
    13   6    -0.00   0.03  -0.00     0.00   0.00  -0.00    -0.00   0.03  -0.00
    14   8     0.01  -0.00   0.00    -0.00  -0.00   0.00     0.01  -0.00   0.00
    15   8    -0.01  -0.02  -0.01     0.00   0.00  -0.01    -0.03  -0.03   0.00
    16   6    -0.01  -0.02  -0.04     0.00   0.01  -0.05    -0.04  -0.02   0.00
    17   1    -0.22   0.17   0.58     0.01  -0.06   0.66    -0.32   0.33  -0.13
    18   1    -0.02  -0.29  -0.06    -0.24  -0.44   0.05     0.55   0.09  -0.32
    19   1     0.33   0.44   0.17     0.16   0.38   0.04     0.44  -0.06   0.38
    20   6     0.01   0.01  -0.00    -0.01  -0.01   0.00    -0.00  -0.00   0.00
    21   7    -0.02   0.03   0.00     0.02  -0.03  -0.00     0.01  -0.01  -0.00
    22   1     0.08   0.24  -0.01    -0.07  -0.23  -0.00    -0.02  -0.06   0.00
                     46                     47                     48
                      A                      A                      A
 Frequencies --   1488.4666              1501.9422              1640.6605
 Red. masses --      1.4704                 3.7118                 4.5033
 Frc consts  --      1.9194                 4.9333                 7.1420
 IR Inten    --     91.3124                89.2490               121.4637
  Atom  AN      X      Y      Z        X      Y      Z        X      Y      Z
     1   6    -0.05   0.02   0.00     0.40  -0.01  -0.01     0.12   0.38  -0.01
     2   6    -0.03  -0.03  -0.00    -0.01  -0.01  -0.00     0.00   0.01   0.00
     3   6     0.02  -0.01  -0.00    -0.02  -0.07   0.00     0.06   0.06  -0.00
     4   6     0.03  -0.03   0.00     0.01  -0.01   0.00    -0.00  -0.00  -0.00
     5   7     0.00   0.01  -0.00    -0.12   0.00   0.00    -0.09  -0.33   0.00
     6   1     0.17   0.08   0.00     0.07   0.03   0.00    -0.01  -0.00  -0.00
     7   1    -0.04   0.13  -0.00    -0.01   0.06  -0.00     0.01  -0.02   0.00
     8   1    -0.01   0.00   0.00    -0.14  -0.05   0.00    -0.24   0.16   0.01
     9   1     0.03   0.12  -0.00     0.01   0.05  -0.00    -0.00   0.00  -0.00
    10   8     0.03  -0.00  -0.00    -0.17   0.01   0.00    -0.04  -0.01   0.00
    11   6    -0.00  -0.01   0.00     0.03   0.11  -0.00     0.01  -0.06   0.00
    12   8    -0.01   0.00   0.00     0.01  -0.03  -0.00    -0.02   0.01   0.00
    13   6     0.00   0.13  -0.00     0.01   0.05  -0.00     0.00  -0.01   0.00
    14   8     0.02  -0.01   0.00     0.00  -0.00   0.00     0.00   0.00  -0.00
    15   8    -0.01  -0.08   0.00    -0.00  -0.02   0.00    -0.00   0.00  -0.00
    16   6     0.04  -0.08   0.01     0.01  -0.03   0.00     0.00   0.00   0.00
    17   1    -0.31   0.32  -0.07    -0.12   0.12  -0.01     0.01  -0.00  -0.00
    18   1    -0.22   0.51   0.24    -0.02   0.14   0.04    -0.00  -0.01  -0.00
    19   1    -0.22   0.45  -0.27    -0.01   0.13  -0.04    -0.00  -0.01   0.00
    20   6     0.00  -0.00  -0.00    -0.03  -0.01   0.00    -0.01  -0.02   0.00
    21   7     0.01  -0.01  -0.00    -0.02   0.04   0.00     0.03  -0.05  -0.00
    22   1    -0.00   0.05  -0.00    -0.06  -0.81   0.01    -0.21   0.76   0.00
                     49                     50                     51
                      A                      A                      A
 Frequencies --   1735.4099              1822.5926              1913.2262
 Red. masses --      5.2511                10.8199                12.4108
 Frc consts  --      9.3176                21.1763                26.7659
 IR Inten    --     66.2857               613.6966              1269.1764
  Atom  AN      X      Y      Z        X      Y      Z        X      Y      Z
     1   6     0.00   0.00  -0.00    -0.01  -0.01   0.00    -0.01  -0.01   0.00
     2   6    -0.17  -0.36  -0.00     0.04   0.05   0.00    -0.00  -0.00  -0.00
     3   6    -0.00   0.00  -0.00    -0.01   0.01   0.00    -0.15  -0.02   0.00
     4   6     0.13   0.44   0.00    -0.09  -0.02  -0.00     0.01   0.00   0.00
     5   7    -0.00  -0.00   0.00    -0.01  -0.00   0.00    -0.01   0.04  -0.00
     6   1     0.43  -0.07   0.01    -0.14  -0.05  -0.00     0.01   0.00   0.00
     7   1    -0.29   0.41  -0.01     0.07  -0.09   0.00    -0.00   0.00   0.00
     8   1    -0.00   0.00   0.00     0.01   0.00  -0.00     0.15  -0.15  -0.00
     9   1     0.24  -0.33   0.01    -0.13   0.20  -0.01     0.01  -0.01   0.00
    10   8     0.00  -0.00  -0.00     0.01  -0.00  -0.00    -0.04  -0.03   0.00
    11   6     0.00  -0.00  -0.00     0.04  -0.01  -0.00     0.82  -0.17  -0.02
    12   8    -0.00   0.00   0.00    -0.02   0.01   0.00    -0.45   0.15   0.01
    13   6     0.05  -0.10   0.00     0.76  -0.06   0.02    -0.04   0.00  -0.00
    14   8    -0.03   0.01  -0.00    -0.46   0.04  -0.01     0.03  -0.00   0.00
    15   8     0.00  -0.01   0.00    -0.06  -0.02  -0.00     0.00   0.00   0.00
    16   6    -0.00   0.01  -0.00     0.02  -0.03  -0.00    -0.00   0.00   0.00
    17   1     0.00   0.01   0.00    -0.14   0.15  -0.00     0.01  -0.01  -0.00
    18   1     0.01  -0.01  -0.01     0.03   0.13   0.04    -0.01  -0.01   0.00
    19   1     0.01  -0.01   0.01     0.04   0.13  -0.03    -0.01  -0.01  -0.00
    20   6    -0.00   0.00   0.00    -0.00  -0.00   0.00     0.01  -0.02  -0.00
    21   7     0.00  -0.00   0.00    -0.00   0.00   0.00    -0.01   0.02   0.00
    22   1     0.00   0.02  -0.00     0.07   0.05  -0.01     0.02  -0.03  -0.00
                     52                     53                     54
                      A                      A                      A
 Frequencies --   2384.9076              3070.3240              3173.8612
 Red. masses --     12.6409                 1.0323                 1.1088
 Frc consts  --     42.3615                 5.7337                 6.5809
 IR Inten    --    245.0715                22.3628                12.3285
  Atom  AN      X      Y      Z        X      Y      Z        X      Y      Z
     1   6     0.06  -0.12  -0.00    -0.00  -0.00   0.00     0.00  -0.00  -0.00
     2   6     0.00   0.00   0.00    -0.00   0.00  -0.00    -0.00  -0.00   0.00
     3   6    -0.03   0.01   0.00     0.00   0.00  -0.00    -0.00  -0.00   0.00
     4   6    -0.00  -0.00  -0.00     0.00   0.00   0.00    -0.00   0.00  -0.00
     5   7     0.01  -0.02   0.00    -0.00  -0.00   0.00    -0.00  -0.00   0.00
     6   1    -0.00  -0.00  -0.00     0.00  -0.00   0.00    -0.00   0.00   0.00
     7   1    -0.01  -0.00  -0.00    -0.00  -0.00  -0.00     0.00   0.00  -0.00
     8   1     0.01   0.02  -0.00     0.00  -0.00  -0.00     0.00   0.00  -0.00
     9   1    -0.00  -0.00  -0.00    -0.00  -0.00  -0.00     0.00   0.00  -0.00
    10   8     0.00  -0.01  -0.00     0.00  -0.00   0.00     0.00  -0.00   0.00
    11   6     0.03   0.02  -0.00    -0.00   0.00   0.00     0.00  -0.00  -0.00
    12   8    -0.01   0.00   0.00     0.00  -0.00   0.00    -0.00  -0.00   0.00
    13   6    -0.00   0.00  -0.00    -0.00  -0.00  -0.00     0.00   0.00   0.00
    14   8     0.00  -0.00   0.00     0.00  -0.00   0.00    -0.00   0.00   0.00
    15   8     0.00  -0.00   0.00     0.00   0.00   0.00    -0.00  -0.00   0.00
    16   6    -0.00   0.00   0.00    -0.03   0.03  -0.00     0.01  -0.00  -0.10
    17   1     0.00  -0.00  -0.00    -0.32  -0.29  -0.03     0.02   0.02  -0.01
    18   1    -0.00  -0.00  -0.00     0.32  -0.08   0.55     0.36  -0.08   0.60
    19   1    -0.00  -0.00   0.00     0.38  -0.06  -0.49    -0.44   0.06   0.55
    20   6    -0.37   0.72   0.00    -0.00   0.00   0.00    -0.00   0.00  -0.00
    21   7     0.26  -0.51  -0.00     0.00  -0.00   0.00     0.00  -0.00   0.00
    22   1     0.03  -0.00  -0.00     0.01   0.00  -0.00     0.00  -0.00  -0.00
                     55                     56                     57
                      A                      A                      A
 Frequencies --   3178.5667              3218.4507              3228.6746
 Red. masses --      1.0618                 1.1080                 1.0978
 Frc consts  --      6.3207                 6.7623                 6.7422
 IR Inten    --      6.3359                11.7112                 3.7540
  Atom  AN      X      Y      Z        X      Y      Z        X      Y      Z
     1   6    -0.00  -0.00   0.00    -0.00  -0.00   0.00    -0.00   0.00   0.00
     2   6    -0.03  -0.06  -0.00     0.00  -0.00   0.00     0.02   0.01   0.00
     3   6     0.00  -0.00  -0.00    -0.00   0.00   0.00    -0.00   0.00   0.00
     4   6    -0.01   0.01  -0.00    -0.00  -0.00  -0.00    -0.09  -0.01  -0.00
     5   7     0.00   0.00  -0.00     0.00   0.00  -0.00     0.00   0.00  -0.00
     6   1    -0.36   0.58  -0.01    -0.00   0.00  -0.00     0.00  -0.01   0.00
     7   1     0.71   0.04   0.02    -0.00   0.00  -0.00    -0.15  -0.01  -0.00
     8   1    -0.00  -0.00   0.00     0.00  -0.00  -0.00    -0.00  -0.00  -0.00
     9   1     0.12   0.01   0.00     0.01   0.00   0.00     0.98   0.08   0.03
    10   8    -0.00  -0.00   0.00    -0.00   0.00   0.00    -0.00   0.00   0.00
    11   6    -0.00  -0.00   0.00     0.00  -0.00  -0.00     0.00  -0.00  -0.00
    12   8     0.00  -0.00  -0.00    -0.00   0.00   0.00    -0.00   0.00   0.00
    13   6    -0.00  -0.00  -0.00    -0.00   0.00  -0.00     0.00  -0.00   0.00
    14   8     0.00   0.00   0.00     0.00  -0.00   0.00     0.00  -0.00  -0.00
    15   8     0.00  -0.00   0.00     0.00   0.00   0.00     0.00   0.00  -0.00
    16   6    -0.00   0.00   0.00    -0.08  -0.05  -0.00     0.00   0.00   0.00
[...]
 .06898507,-0.04420591,-0.00164566,0.20335439,-0.15570096,-0.00539145,-
 0.26666219,0.18633558,0.00043152,-0.00047997,0.00081380,-0.00000660,0.
 00000045,0.00001198,0.00263286,-0.00032606,0.01780902,0.00001030,-0.00
 000244,0.00001300,0.00021844,0.00045970,0.00418229,0.00000364,0.000000
 07,-0.00000548,-0.00001365,-0.00000383,-0.00001599,-0.00003195,-0.0000
 0450,-0.00056083,0.00000352,-0.00000007,-0.00000668,-0.00011302,-0.001
 15490,0.01028708,0.01737393,-0.00541873,-0.07058160,-0.02047504,0.0067
 9553,0.03588849,-0.00345475,-0.00435505,0.00010340,0.02012390,-0.00257
 086,0.00051212,0.00004672,0.00317029,-0.00001611,-0.13988715,0.0507953
 8,-0.00219763,0.00771150,0.00118609,-0.00019095,-0.00315249,-0.0038883
 1,-0.00050451,-0.00100390,-0.00299839,0.00027455,-0.00013601,0.0001701
 5,-0.00000089,-0.01074087,0.02426213,-0.00048928,0.00365606,-0.0003438
 0,-0.00010647,-0.00368666,0.00145415,0.00011474,0.00318685,-0.00085732
 ,-0.00009193,1.02565508,-0.00006251,-0.00140472,0.00000427,0.00462406,
 -0.03819287,0.00044238,0.00123072,-0.00073122,-0.00004775,0.07876249,-
 0.18522742,0.00314639,-0.00012726,0.00394719,0.00001878,-0.00196369,-0
 .00102753,0.00004960,0.00048050,-0.00070135,-0.00003800,0.00018603,0.0
 0002805,0.00000494,-0.00786783,0.00723288,-0.00032238,-0.00035232,0.00
 000556,0.00001162,-0.00134211,-0.00029965,0.00004257,0.00087950,-0.000
 28481,-0.00002462,-0.03975638,0.67226319,-0.00009207,-0.00009225,0.000
 03496,0.00047158,0.00019294,0.00412613,-0.00002195,0.00007953,-0.00010
 331,-0.00239920,0.00226629,-0.08202313,0.00018251,-0.00000057,0.000467
 36,-0.00051137,-0.00000852,0.01428427,0.00026873,-0.00012865,-0.009421
 01,-0.00000340,0.00000315,0.00007804,-0.00026884,0.00068290,0.00041177
 ,0.00009275,-0.00001000,-0.00008019,-0.00006509,0.00003779,0.00005637,
 0.00006067,-0.00001681,-0.00004572,0.02046285,-0.00507738,0.21839627,0
 .00360631,0.00817969,-0.00017185,-0.00655876,-0.00929180,-0.00013854,-
 0.00033521,-0.00726169,0.00003218,-0.04027698,0.02791794,-0.00168598,-
 0.02894493,0.00010600,-0.00008525,0.00126057,0.00063066,0.00006610,0.0
 0040410,0.00122339,0.00001964,0.00011843,0.00002482,-0.00000821,-0.001
 69067,0.00574818,-0.00015701,-0.00715089,0.00019694,0.00027164,0.00411
 547,-0.00230840,-0.00011266,-0.00452741,0.00110374,0.00013358,-0.70273
 813,0.06463357,-0.01607213,0.86476071,0.00027489,-0.00028943,0.0000179
 3,0.00316035,-0.00016552,0.00007455,-0.00108600,0.00090318,0.00002396,
 0.03760119,0.00106331,0.00109860,0.00253342,0.00059498,0.00001062,0.00
 082165,0.00035679,0.00001873,0.00090154,0.00056254,0.00003701,-0.00017
 525,0.00004142,-0.00000035,0.00311688,-0.00596299,0.00014738,0.0010707
 8,0.00002786,-0.00004060,0.00018987,0.00062273,-0.00001430,-0.00000949
 ,-0.00000731,0.00000227,0.06200347,-0.11741319,0.00189803,-0.04325492,
 0.10840668,0.00005794,0.00019107,0.00016769,-0.00019766,-0.00024412,-0
 .00000611,-0.00001639,-0.00016172,0.00040471,-0.00180482,0.00085157,0.
 01841202,-0.00048551,0.00002342,0.00331913,0.00007700,0.00000613,-0.00
 152525,-0.00001288,0.00006222,0.00039809,0.00000210,0.00000305,-0.0001
 3719,-0.00015277,0.00020539,0.00253516,-0.00016569,-0.00000582,-0.0001
 7609,0.00007135,-0.00004216,-0.00021799,-0.00009767,0.00002222,0.00006
 834,-0.01599689,0.00195827,-0.07874968,0.02056098,-0.00149086,0.036027
 61,0.00138138,0.00178026,-0.00004366,-0.00011831,0.00378802,-0.0000659
 8,-0.00026580,-0.00127222,0.00001050,0.01167581,0.00519423,-0.00005480
 ,-0.00332885,0.00013077,0.00002054,0.00057719,0.00061977,0.00005395,0.
 00007391,0.00092181,-0.00001886,0.00006752,-0.00004106,0.00000209,0.00
 162715,-0.00041163,0.00007963,-0.00139396,0.00012473,0.00004413,0.0015
 0355,-0.00048816,-0.00004828,-0.00132785,0.00034037,0.00003883,-0.1856
 4383,-0.07838683,-0.00191987,-0.09363144,-0.05879430,-0.00245595,0.388
 43912,0.00130614,0.00253899,-0.00004286,0.00928953,-0.00191265,0.00029
 552,-0.00106614,-0.00073886,0.00004181,-0.02769192,-0.06094692,-0.0000
 9735,-0.00271491,-0.00158098,0.00000735,-0.00100538,-0.00192883,-0.000
 04792,0.00004951,0.00131181,0.00000856,-0.00016418,-0.00006938,-0.0000
 0523,-0.00047857,-0.00032070,-0.00001549,-0.00087569,0.00014749,0.0000
 2656,0.00184654,-0.00016565,-0.00005721,-0.00153043,0.00044015,0.00004
 441,-0.10027731,-0.27299874,-0.00032238,-0.06245085,0.00399643,-0.0014
 4743,0.05853787,0.59561306,0.00003286,0.00003843,-0.00000968,-0.000117
 20,0.00013749,0.00102336,-0.00000012,-0.00002398,0.00004297,0.00027341
 ,0.00077258,0.01129799,-0.00006137,-0.00000669,-0.00011297,0.00005650,
 0.00002579,-0.00099819,-0.00001233,0.00001150,0.00055968,-0.00000173,0
 .,-0.00006569,0.00007769,-0.00003538,-0.00054258,-0.00002862,0.0000034
 5,0.00001995,0.00002312,-0.00001050,-0.00001780,-0.00002162,0.00000604
 ,0.00002253,-0.00173233,0.00002369,-0.06993573,-0.00258198,-0.00142071
 ,0.03000342,0.00635794,-0.00333498,0.08451009,0.00008129,0.00036275,-0
 .00000411,0.00119053,-0.00062054,0.00003304,-0.00017782,0.00001335,0.0
 0002107,-0.00241983,-0.00391053,-0.00020142,-0.00020210,-0.00028735,-0
 .00000547,-0.00013073,-0.00032258,-0.00000141,-0.00000264,0.00020350,0
 .00000658,-0.00006853,-0.00000654,-0.00001435,0.00019794,-0.00019134,0
 .00001712,0.00003356,0.00001148,-0.00000037,0.00004668,0.00007234,-0.0
 0000379,-0.00005880,0.00002552,0.00000419,0.02062957,-0.01497898,0.000
 46204,-0.00629560,-0.00522616,0.00003924,-0.12483925,0.07293736,-0.001
 81694,0.60467256,-0.00046421,-0.00111024,0.00001688,-0.00041401,-0.000
 94582,-0.00000535,0.00047901,0.00027685,-0.00001703,-0.00242624,0.0045
 9768,-0.00001341,0.00123033,0.00069844,0.00000174,-0.00009250,0.000141
 56,-0.00001343,-0.00004024,-0.00023356,0.00000628,0.00011436,0.0000123
 1,-0.00000075,0.00028284,0.00009289,0.00000594,0.00027508,-0.00006171,
 -0.00000805,-0.00061612,0.00000723,0.00001711,0.00054023,-0.00016095,-
 0.00001467,-0.01108015,-0.07041307,0.00016834,0.02183928,0.00424664,0.
 00025970,0.04724517,-0.18495846,0.00239808,0.07436001,0.51150881,0.000
 01113,0.00000650,0.00001323,0.00001783,-0.00000140,0.00017506,-0.00000
 594,-0.00001930,-0.00015134,-0.00020625,-0.00006779,0.00708548,-0.0000
 2516,0.00001331,0.00000044,0.00002320,-0.00001546,-0.00077697,-0.00000
 886,0.00001049,0.00023588,0.00001179,-0.00000182,0.00014618,0.00001909
 ,-0.00000022,-0.00022809,-0.00001715,-0.00000015,-0.00001376,0.0000243
 0,-0.00000839,0.00003832,-0.00001793,0.00000427,-0.00003395,-0.0003449
 5,-0.00021182,0.00162688,0.00016109,-0.00074430,-0.00610624,-0.0012603
 7,0.00299122,-0.07072629,-0.00030716,0.00270017,0.60518777,0.00005629,
 0.00004783,-0.00000202,-0.00013731,0.00012224,-0.00000469,0.00000311,-
 0.00005639,-0.00000064,0.00060075,0.00031126,-0.00005641,-0.00009225,0
 .00001787,0.00000234,0.00003228,0.00004601,0.00001119,0.00000867,0.000
 01017,-0.00000515,0.00003122,-0.00001674,0.00000042,0.00000638,-0.0000
 3389,0.00000089,-0.00008387,0.00000512,0.00000296,0.00012508,-0.000054
 88,-0.00000467,-0.00009075,0.00002819,0.00000305,-0.00353281,0.0034878
 5,-0.00007552,0.00140232,-0.00208162,0.00001554,0.01479277,0.02061012,
 0.00122867,-0.22259104,-0.15192012,-0.01348117,0.22702211,0.00004375,0
 .00008860,-0.00000129,0.00044591,-0.00028120,0.00001972,-0.00004357,-0
 .00001794,0.00000109,-0.00115679,-0.00090231,0.00004596,-0.00010047,-0
 .00006470,-0.00000040,-0.00006140,-0.00011084,-0.00001224,0.00001017,0
 .00004469,0.00000465,-0.00001279,0.00000323,0.00000062,0.00000728,0.00
 000211,-0.00000243,-0.00001827,0.00000452,0.00000054,0.00005128,0.0000
 0632,-0.00000151,-0.00004502,0.00001100,0.00000122,0.00645653,-0.00148
 456,-0.00010415,-0.00168536,0.00126340,-0.00006051,-0.02131468,-0.0359
 9258,-0.00142039,-0.13768955,-0.16369214,-0.01079428,0.14809074,0.1922
 6776,0.00000062,0.00000108,0.00000277,-0.00000500,0.00000565,0.0000049
 4,0.00000037,0.00000161,0.00002074,0.00001498,0.00001268,0.00017000,0.
 00000056,-0.00000327,0.00000358,0.00000196,0.00000265,-0.00004377,-0.0
 0000026,-0.00000006,0.00002565,-0.00000142,-0.00000013,-0.00002240,-0.
 00000371,-0.00000097,0.00000936,0.00000056,0.00000023,-0.00000200,0.00
 000117,0.00000039,-0.00000124,-0.00000080,0.00000011,0.00000079,0.0001
 5165,0.00036719,0.00032006,-0.00006447,0.00011719,0.00060806,0.0007094
 7,0.00085467,0.00023994,-0.01337958,-0.01184009,-0.05319598,0.01425926
 ,0.01176558,0.04666643,-0.00009430,-0.00007854,-0.00000064,-0.00010831
 ,-0.00005435,0.00006405,0.00001977,0.00008646,-0.00002501,-0.00000560,
 0.00060577,0.00004486,0.00018246,-0.00000595,-0.00001231,0.00000888,0.
 00003524,-0.00003183,0.00000923,-0.00004218,-0.00000617,-0.00003618,0.
 00001848,0.00002404,0.00003248,-0.00002632,-0.00002929,0.00012475,-0.0
 0000068,-0.00000109,-0.00017865,0.00006479,-0.00000043,0.00013358,-0.0
 0003611,-0.00000330,-0.00145016,-0.00421592,0.00034359,0.00141302,0.00
 093750,-0.00015454,-0.00861393,0.01248223,-0.01051997,-0.11795851,0.01
 210716,-0.11758310,-0.00788744,0.00357529,-0.01934628,0.12363655,0.000
 01507,0.00003502,-0.00000425,0.00019415,0.00004987,-0.00002328,-0.0000
 4240,0.00001856,-0.00000528,-0.00038170,-0.00082102,-0.00137548,-0.000
 06737,-0.00003217,-0.00003336,-0.00003198,-0.00004515,0.00014448,0.000
 01220,-0.00000487,-0.00002902,-0.00001662,0.00001709,0.00000468,-0.000
 06627,0.00012896,0.00006482,0.00001729,0.00000134,0.00000189,-0.000006
 45,0.00002408,-0.00000021,-0.00000235,-0.00000272,0.00000068,0.0081252
 6,0.00463443,0.00178081,-0.00349487,0.00057714,-0.00004802,0.02006182,
 -0.02075577,0.03020600,0.00847755,-0.05099268,0.01572790,-0.00825057,0
 .00469934,-0.01798664,-0.02244218,0.06103236,0.00004252,-0.00004519,-0
 .00000258,-0.00003878,-0.00006092,0.00000952,0.00003977,-0.00004202,0.
 00002487,0.00020144,0.00017586,-0.00047280,-0.00005215,0.00008828,0.00
 002040,0.00000447,0.00000880,0.00002077,-0.00000219,0.00001159,-0.0000
 0280,0.00006294,-0.00000467,-0.00003228,0.00004462,-0.00002636,-0.0000
 0487,-0.00009622,-0.00000859,0.00000352,0.00010288,-0.00006319,-0.0000
 0792,-0.00007020,0.00001547,0.00000744,-0.00301467,-0.00169650,0.00078
 413,0.00153541,-0.00117379,0.00016148,0.00196537,0.00455452,0.00711361
 ,-0.11953234,0.02338706,-0.25849848,0.00221489,0.00011534,0.00130105,0
 .12993785,-0.02706317,0.26633481,-0.00009141,-0.00007101,0.00000794,-0
 .00010360,-0.00005854,-0.00006954,0.00002348,0.00009013,0.00002103,-0.
 00000608,0.00061156,0.00005486,0.00018045,-0.00001019,0.00000984,0.000
 00817,0.00003685,0.00003043,0.00001180,-0.00004075,0.00000550,-0.00003
 193,0.00002402,-0.00002043,0.00004211,-0.00002645,0.00002869,0.0001236
 1,0.00000022,-0.00000869,-0.00018442,0.00006445,0.00001937,0.00013581,
 -0.00003656,-0.00000738,-0.00169164,-0.00449893,-0.00042429,0.00149471
 ,0.00033604,-0.00005797,-0.01000017,0.01266939,0.00870477,-0.15310218,
 0.01229714,0.13290403,-0.00988446,0.00316702,0.01766752,0.01118775,-0.
 00232333,-0.01342764,0.16227688,0.00000540,0.00000905,0.00000531,0.000
 14791,0.00005367,0.00002862,-0.00003911,0.00003532,0.00001020,-0.00043
 822,-0.00071517,0.00130214,-0.00004319,-0.00001593,0.00003752,-0.00002
 164,-0.00004029,-0.00012993,0.00001050,-0.00001574,0.00002194,-0.00001
 657,0.00002099,-0.00000619,-0.00007156,0.00015299,-0.00007256,0.000029
 78,0.00000064,-0.00000398,-0.00002565,0.00002731,0.00000252,0.00001274
 ,-0.00000727,-0.00000119,0.00827324,0.00468048,-0.00136123,-0.00359230
 ,0.00038299,-0.00001372,0.02385898,-0.01968266,-0.02736282,0.00730767,
 -0.05013530,-0.00961420,-0.01048299,0.00426597,0.01670532,-0.00292567,
 0.00162170,0.00158899,-0.02214209,0.05957190,-0.00005660,0.00003580,0.
 00000124,0.00002050,0.00004776,0.00000135,-0.00003889,0.00005782,0.000
 01484,-0.00020228,-0.00008771,-0.00043642,0.00007714,-0.00009159,0.000
 01664,-0.00000585,-0.00000450,0.00002093,0.00000332,-0.00001923,-0.000
 00053,-0.00007580,0.00000825,-0.00002231,-0.00004526,0.00002618,-0.000
 00704,0.00011898,0.00000955,-0.00000507,-0.00013392,0.00007488,0.00000
 625,0.00009247,-0.00002103,-0.00000102,0.00313815,0.00137694,0.0010413
 8,-0.00164504,0.00148164,0.00005846,-0.00354376,-0.00357482,0.00707197
 ,0.13468430,-0.01699118,-0.22496293,-0.00411646,0.00043622,0.00397915,
 0.01724440,-0.00149328,-0.01665774,-0.14536534,0.01901527,0.22997544,-
 0.12631201,0.09099691,0.00191524,-0.00012053,-0.00005315,-0.00000832,0
 .01127702,-0.00768874,-0.00007711,0.00003394,0.00011282,-0.00000256,0.
 01428525,0.00527708,-0.00070782,0.00004567,0.00000936,0.00000184,-0.00
 158618,0.00005976,0.00000471,0.00097122,-0.00002059,0.00004348,0.00003
 726,0.00003573,0.00000083,-0.03071134,0.05297075,0.00022512,-0.0142357
 7,-0.02064030,0.00046310,0.00371519,0.00407653,-0.00005044,-0.00091454
 ,-0.00052345,-0.00001720,0.00038644,0.00093394,0.00001161,0.00037117,0
 .00075566,0.00000760,0.00014280,-0.00036399,0.00000003,-0.00001306,0.0
 0003330,0.00000026,0.00000226,0.00003023,-0.00004193,0.00000274,0.0000
 2531,0.00004321,0.42858642,0.09877594,-0.27721797,-0.00054381,0.000436
 91,0.00028108,0.00003610,-0.03572645,0.01151259,0.00096790,-0.00022012
 ,-0.00055448,-0.00000129,0.02176449,-0.08178714,0.00001810,-0.00032091
 ,-0.00008744,-0.00001168,0.00111577,-0.00025233,-0.00000863,0.00080958
 ,-0.00145536,0.00001006,-0.00005323,-0.00018002,-0.00000318,0.03092841
 ,-0.02259441,-0.00082111,0.02298987,0.02371590,-0.00090116,-0.01292552
 ,-0.00004354,0.00041905,-0.00051524,0.00190419,-0.00002728,0.00176720,
 -0.00131782,0.00001336,0.00005015,-0.00106284,0.00000507,-0.00024126,0
 .00048024,0.00000975,0.00002907,-0.00004824,-0.00000133,-0.00003088,-0
 .00005178,0.00008149,-0.00003461,-0.00004925,-0.00009213,-0.61587215,1
 .33490032,0.00180433,-0.00032898,-0.03226302,0.00000384,0.00000118,-0.
 00003077,0.00013472,0.00016913,0.00631982,-0.00000306,-0.00000217,-0.0
 0005316,-0.00080144,0.00046912,-0.00516635,-0.00000140,0.00000020,0.00
 000450,-0.00000111,0.00000971,0.00020066,0.00003268,0.00002631,0.00255
 588,-0.00000116,-0.00000100,0.00001153,0.00041157,-0.00142983,-0.00729
 844,0.00013257,0.00036496,-0.00361853,0.00007495,-0.00008989,0.0031037
 3,-0.00001526,-0.00000413,0.00005376,-0.00000325,-0.00001153,-0.000326
 25,0.00000302,0.00000299,0.00002619,-0.00000412,-0.00000121,0.00003947
 ,0.00000010,0.00000016,-0.00000388,-0.00000359,0.00000197,-0.00000560,
 0.00000543,-0.00000119,-0.00000268,-0.00438062,0.00625329,0.07850532,0
 .01016696,0.02747204,-0.00018357,0.00017278,-0.00039508,0.00004376,-0.
 00733017,0.00379081,0.00014681,-0.00061888,-0.00047459,-0.00001612,-0.
 00080290,-0.00987418,0.00019993,-0.00024796,-0.00002081,-0.00000975,-0
 .00067330,0.00019615,-0.00002506,-0.00024651,-0.00017499,-0.00000946,-
 0.00005507,-0.00023068,-0.00000358,0.00572240,-0.00742014,-0.00002665,
 0.00734066,0.00628117,-0.00023016,-0.00384154,-0.00025269,0.00009446,-
 0.00021176,0.00163323,-0.00001722,0.00087686,-0.00094708,0.00001797,-0
 .00014525,-0.00099862,0.00000075,-0.00015085,0.00039443,0.00000044,0.0
 0000971,-0.00004564,-0.00000062,0.00000669,-0.00004744,0.00003413,0.00
 000587,-0.00004340,-0.00003514,-0.28782416,0.48899708,0.00269370,0.279
 94136,0.01797766,-0.03486833,-0.00011561,-0.00009714,-0.00024574,-0.00
 000305,0.01478634,-0.00615763,-0.00038024,-0.00003933,0.00024227,-0.00
 000623,-0.00286383,0.02343618,-0.00009047,0.00004571,0.00001216,0.0000
 0281,-0.00064312,0.00046747,-0.00000650,0.00008431,0.00048938,-0.00001
 126,0.00000845,0.00004098,0.00000107,-0.00795048,0.00597709,0.00021564
 ,-0.01255865,-0.00914996,0.00046104,0.00766837,-0.00057067,-0.00023442
 ,0.00030223,-0.00067711,0.00001089,-0.00122652,0.00060663,-0.00002193,
 -0.00010788,0.00037095,-0.00000027,0.00011781,-0.00020313,-0.00000592,
 -0.00002288,0.00001823,0.00000047,0.00002963,0.00002172,-0.00005143,0.
 00003083,0.00002070,0.00005822,0.49047797,-0.98651954,-0.00543363,-0.5
 0816511,1.00685099,-0.00009692,-0.00037049,0.01232079,-0.00001753,-0.0
 0000303,0.00037412,0.00004554,-0.00005437,-0.00105781,0.00000162,-0.00
 000194,0.00007408,0.00012352,0.00009635,0.00271495,0.00000715,0.000000
 95,-0.00006308,-0.00001306,-0.00001008,-0.00057421,-0.00001070,-0.0000
 0249,-0.00061773,0.00000268,-0.00000036,-0.00006640,-0.00000827,0.0001
 8973,0.00284703,-0.00005624,-0.00008904,0.00129140,0.00001491,0.000007
 95,-0.00080294,-0.00001314,0.00000573,-0.00009487,0.00000858,0.0000068
 1,0.00025198,0.00000360,0.00000175,0.00000707,0.00000289,-0.00000076,-
 0.00003851,0.00000049,-0.00000004,0.00000119,0.00000360,-0.00000295,0.
 00000578,-0.00000554,0.00000232,0.00000353,0.00267481,-0.00538663,-0.0
 3888570,-0.00269789,0.00561737,0.02192830,-0.00709672,-0.00844402,0.00
 022589,0.00138249,0.00014433,0.00004349,-0.00469438,0.00498779,0.00005
 488,0.00187297,-0.00233919,0.00004646,-0.38304719,-0.02539517,0.009480
 07,0.00004460,-0.00019000,0.00000600,0.00041501,0.00065160,-0.00000858
 ,0.00086456,-0.00059371,-0.00004415,0.00054959,-0.00089341,0.00001857,
 0.01291697,-0.00190918,-0.00022152,-0.00493047,0.00599505,0.00019772,0
 .00524108,-0.00164639,-0.00015501,-0.02276497,-0.00184173,-0.00045658,
 0.01231107,-0.00230671,0.00074502,0.00879906,0.00876968,0.00013092,0.0
 0100293,-0.00374745,0.00008513,0.00022230,0.00029228,-0.00000624,-0.00
 042433,0.00023995,0.00008982,-0.00039748,0.00017086,-0.00015814,0.0018
 6020,-0.00172408,-0.00008188,-0.00209493,0.00214565,0.00002990,0.37796
 763,-0.02924965,0.00782747,0.00066297,0.00024877,0.00017762,0.00000608
 ,0.02203149,0.01245919,-0.00066633,0.00074294,0.00001534,0.00000706,-0
 .02036060,-0.07787830,0.00079447,-0.00012657,-0.00003186,-0.00000226,0
 .00012616,-0.00021747,0.00000562,-0.00072764,0.00013083,-0.00000033,0.
 00003053,-0.00019163,0.00000179,-0.00423965,-0.00501291,0.00023812,0.0
 0331792,-0.00575721,-0.00002459,0.00154770,0.00098776,-0.00005799,0.00
 044391,-0.00383974,0.00002855,0.00119528,0.00150352,-0.00006010,-0.001
 83720,-0.00130386,-0.00001240,-0.00041452,0.00084440,0.00002142,0.0001
 1362,-0.00008065,-0.00000232,-0.00008376,-0.00015546,0.00020846,-0.000
 08518,-0.00018209,-0.00025307,-0.00063297,0.00042785,0.00000452,0.0003
 2556,-0.00016265,-0.00000675,0.02763387,0.07043987,0.00040816,-0.00013
 855,-0.00243505,0.00001733,0.00000096,-0.00012396,0.00004099,0.0000133
 1,-0.00095548,0.00002282,-0.00001080,0.00034678,0.00936706,0.00093191,
 -0.03347462,0.00000347,-0.00000263,-0.00003812,-0.00000289,0.00001076,
 0.00021652,-0.00006484,-0.00000710,-0.00189657,0.00000660,-0.00001300,
 0.00011104,0.00017247,0.00019218,0.00902605,0.00015668,-0.00005375,0.0
 0358123,-0.00003077,0.00001455,-0.00015427,-0.00004245,-0.00002980,-0.
 00122775,-0.00006282,-0.00003826,-0.00517136,0.00012246,0.00011630,0.0
 0047016,0.00000057,-0.00005536,0.00018383,0.00000693,0.00000614,-0.000
 08442,0.00005515,0.00013172,-0.00010229,-0.00007259,-0.00015315,-0.000
 09543,-0.00010584,-0.00001598,-0.00316648,0.00002329,-0.00000655,0.000
 38103,-0.01002178,-0.00089291,0.03460919\\0.00015226,0.00001794,-0.000
 02602,0.00015615,0.00008747,-0.00010662,-0.00004438,-0.00004754,0.0000
 5557,-0.00013557,-0.00003265,0.00003029,-0.00003313,-0.00037939,-0.000
 33299,-0.00000973,0.00002557,0.00000882,-0.00006760,-0.00011197,0.0000
 8069,0.00001128,0.00009318,-0.00005130,-0.00000519,0.00001590,-0.00000
 838,0.00000501,0.00028296,-0.00002095,-0.00006563,-0.00023443,0.000041
 16,0.00004298,0.00002151,-0.00002688,0.00006192,0.00034504,-0.00004597
 ,-0.00000874,-0.00071117,-0.00037296,-0.00016829,0.00005186,0.00021283
 ,0.00002152,-0.00013429,-0.00003137,-0.00001843,0.00000756,-0.00006788
 ,-0.00005562,-0.00002471,0.00005175,0.00010449,0.00001344,-0.00002094,
 0.00004088,0.00008527,-0.00000297,-0.00000040,0.00001945,0.00000479,0.
 00001623,0.00060902,0.00062934\\\@
 The archive entry for this job was punched.


 THE ATTENTION SPAN OF A COMPUTER IS AS LONG
 AS ITS EXTENSION CORD.
 Job cpu time:       0 days  0 hours 20 minutes 16.0 seconds.
 Elapsed time:       0 days  0 hours  1 minutes 42.9 seconds.
 File lengths (MBytes):  RWF=    232 Int=      0 D2E=      0 Chk=     11 Scr=      1
 Normal termination of Gaussian 16 at Sat Dec 30 20:52:57 2023.
