Unloading slurm/anatra/current
  ERROR: No such file or directory on
    '/cm/local/modulefiles/slurm/anatra/current'
environment: line 0: unalias: gv: not found
environment: line 0: unalias: sl: not found
 Entering Gaussian System, Link 0=g16
 Initial command:
 /apps/gaussian/g16/C.01/g16/l1.exe "/local/jobs/1153084/Gau-1191893.inp" -scrdir="/local/jobs/1153084/"
 Entering Link 1 = /apps/gaussian/g16/C.01/g16/l1.exe PID=   1191895.
  
 Copyright (c) 1988-2019, Gaussian, Inc.  All Rights Reserved.
  
 This is part of the Gaussian(R) 16 program.  It is based on
 the Gaussian(R) 09 system (copyright 2009, Gaussian, Inc.),
 the Gaussian(R) 03 system (copyright 2003, Gaussian, Inc.),
 the Gaussian(R) 98 system (copyright 1998, Gaussian, Inc.),
 the Gaussian(R) 94 system (copyright 1995, Gaussian, Inc.),
 the Gaussian 92(TM) system (copyright 1992, Gaussian, Inc.),
 the Gaussian 90(TM) system (copyright 1990, Gaussian, Inc.),
 the Gaussian 88(TM) system (copyright 1988, Gaussian, Inc.),
 the Gaussian 86(TM) system (copyright 1986, Carnegie Mellon
 University), and the Gaussian 82(TM) system (copyright 1983,
 Carnegie Mellon University). Gaussian is a federally registered
 trademark of Gaussian, Inc.
  
 This software contains proprietary and confidential information,
 including trade secrets, belonging to Gaussian, Inc.
  
 This software is provided under written license and may be
 used, copied, transmitted, or stored only in accord with that
 written license.
  
 The following legend is applicable only to US Government
 contracts under FAR:
  
                    RESTRICTED RIGHTS LEGEND
  
 Use, reproduction and disclosure by the US Government is
 subject to restrictions as set forth in subparagraphs (a)
 and (c) of the Commercial Computer Software - Restricted
 Rights clause in FAR 52.227-19.
  
 Gaussian, Inc.
 340 Quinnipiac St., Bldg. 40, Wallingford CT 06492
  
  
 ---------------------------------------------------------------
 Warning -- This program may not be used in any manner that
 competes with the business of Gaussian, Inc. or will provide
 assistance to any competitor of Gaussian, Inc.  The licensee
 of this program is prohibited from giving any competitor of
 Gaussian, Inc. access to this program.  By using this program,
 the user acknowledges that Gaussian, Inc. is engaged in the
 business of creating and licensing software in the field of
 computational chemistry and represents and warrants to the
 licensee that it is not a competitor of Gaussian, Inc. and that
 it will not use this program in any manner prohibited above.
 ---------------------------------------------------------------
  

 Cite this work as:
 Gaussian 16, Revision C.01,
 M. J. Frisch, G. W. Trucks, H. B. Schlegel, G. E. Scuseria, 
 M. A. Robb, J. R. Cheeseman, G. Scalmani, V. Barone, 
 G. A. Petersson, H. Nakatsuji, X. Li, M. Caricato, A. V. Marenich, 
 J. Bloino, B. G. Janesko, R. Gomperts, B. Mennucci, H. P. Hratchian, 
 J. V. Ortiz, A. F. Izmaylov, J. L. Sonnenberg, D. Williams-Young, 
 F. Ding, F. Lipparini, F. Egidi, J. Goings, B. Peng, A. Petrone, 
 T. Henderson, D. Ranasinghe, V. G. Zakrzewski, J. Gao, N. Rega, 
 G. Zheng, W. Liang, M. Hada, M. Ehara, K. Toyota, R. Fukuda, 
 J. Hasegawa, M. Ishida, T. Nakajima, Y. Honda, O. Kitao, H. Nakai, 
 T. Vreven, K. Throssell, J. A. Montgomery, Jr., J. E. Peralta, 
 F. Ogliaro, M. J. Bearpark, J. J. Heyd, E. N. Brothers, K. N. Kudin, 
 V. N. Staroverov, T. A. Keith, R. Kobayashi, J. Normand, 
 K. Raghavachari, A. P. Rendell, J. C. Burant, S. S. Iyengar, 
 J. Tomasi, M. Cossi, J. M. Millam, M. Klene, C. Adamo, R. Cammi, 
 J. W. Ochterski, R. L. Martin, K. Morokuma, O. Farkas, 
 J. B. Foresman, and D. J. Fox, Gaussian, Inc., Wallingford CT, 2019.
 
 ******************************************
 Gaussian 16:  ES64L-G16RevC.01  3-Jul-2019
                27-Dec-2023 
 ******************************************
 %chk=cyclic-1_1_opt_sqm_re.chk
 %nprocshared=12
 Will use up to   12 processors via shared memory.
 %mem=48GB
 ----------------------------------------------------------------------
 # wb97xd def2svp geom=allchk scrf=(iefpcm,solvent=toluene) opt=(readfc
 ,ts,noeigen,maxcycles=50,maxstep=10)
 ----------------------------------------------------------------------
 1/5=1,6=50,8=10,10=3,11=1,18=20,26=3,29=7,38=1/1,3;
 2/9=110,12=2,40=1/2;
 3/5=43,7=101,11=2,14=-4,25=1,30=1,70=2201,71=1,72=13,74=-58/1,2,3;
 4//1;
 5/5=2,38=5,53=13/2;
 6/7=2,8=2,9=2,10=2,28=1/1;
 7//1,2,3,16;
 1/5=1,6=50,8=10,11=1,18=20,26=3/3(2);
 2/9=110/2;
 99//99;
 2/9=110/2;
 3/5=43,7=101,11=2,14=-2,25=1,30=1,70=2205,71=1,72=13,74=-58/1,2,3;
 4/5=5,16=3,69=1/1;
 5/5=2,38=5,53=13/2;
 7//1,2,3,16;
 1/5=1,6=50,8=10,11=1,18=20,26=3/3(-5);
 2/9=110/2;
 6/7=2,8=2,9=2,10=2,19=2,28=1/1;
 99/9=1/99;
 Structure from the checkpoint file:  "cyclic-1_1_opt_sqm_re.chk"
 -------------------------
 cyclic-1_1_opt_sqm_re.out
 -------------------------
 Charge =  0 Multiplicity = 1
 Redundant internal coordinates found in file.  (old form).
 C,0,1.42179,0.72248,0.11586
 C,0,-1.11405,-1.65911,1.7992
 C,0,2.30706,-1.01171,-0.88982
 C,0,-2.08774,-0.82717,1.42704
 N,0,1.15577,-0.36588,-0.5855
 H,0,-0.96103,-1.91461,2.84954
 H,0,-0.44876,-2.12405,1.06695
 H,0,2.33701,-1.92806,-1.46731
 H,0,-2.77722,-0.38129,2.14657
 O,0,2.72444,0.84682,0.29764
 C,0,3.38748,-0.26825,-0.34154
 O,0,4.58367,-0.36543,-0.30416
 C,0,-2.3055,-0.47745,0.00332
 O,0,-1.51024,-0.69559,-0.89716
 O,0,-3.47308,0.10302,-0.18266
 C,0,-3.84841,0.54575,-1.48582
 H,0,-4.7644,0.0137,-1.77123
 H,0,-3.05008,0.34516,-2.20909
 H,0,-4.04941,1.62237,-1.42481
 C,0,0.46165,1.63434,0.60866
 N,0,-0.3553,2.35958,0.99782
 H,0,0.17846,-0.65302,-0.80754
 Recover connectivity data from disk.

 GradGradGradGradGradGradGradGradGradGradGradGradGradGradGradGradGradGrad
 Berny optimization.
 Initialization pass.
 Force constant matrix read from checkpoint file:
 "cyclic-1_1_opt_sqm_re.chk"
                           ----------------------------
                           !    Initial Parameters    !
                           ! (Angstroms and Degrees)  !
 --------------------------                            --------------------------
 ! Name  Definition              Value          Derivative Info.                !
 --------------------------------------------------------------------------------
 ! R1    R(1,5)                  1.3218         D2E/DX2 =    0.6196             !
 ! R2    R(1,10)                 1.3211         D2E/DX2 =    0.464              !
 ! R3    R(1,20)                 1.4129         D2E/DX2 =    0.5226             !
 ! R4    R(2,4)                  1.3337         D2E/DX2 =    0.7575             !
 ! R5    R(2,6)                  1.0917         D2E/DX2 =    0.2632             !
 ! R6    R(2,7)                  1.0931         D2E/DX2 =    0.2624             !
 ! R7    R(3,5)                  1.3547         D2E/DX2 =    0.4959             !
 ! R8    R(3,8)                  1.0836         D2E/DX2 =    0.271              !
 ! R9    R(3,11)                 1.4215         D2E/DX2 =    0.3997             !
 ! R10   R(4,9)                  1.0917         D2E/DX2 =    0.2703             !
 ! R11   R(4,13)                 1.4821         D2E/DX2 =    0.3978             !
 ! R12   R(5,22)                 1.0425         D2E/DX2 =    0.251              !
 ! R13   R(10,11)                1.4462         D2E/DX2 =    0.2332             !
 ! R14   R(11,12)                1.2007         D2E/DX2 =    0.8811             !
 ! R15   R(13,14)                1.221          D2E/DX2 =    0.8342             !
 ! R16   R(13,15)                1.3171         D2E/DX2 =    0.5644             !
 ! R17   R(14,22)                1.6916         D2E/DX2 =    0.0349             !
 ! R18   R(15,16)                1.4266         D2E/DX2 =    0.409              !
 ! R19   R(16,17)                1.0971         D2E/DX2 =    0.2615             !
 ! R20   R(16,18)                1.0958         D2E/DX2 =    0.2599             !
 ! R21   R(16,19)                1.0969         D2E/DX2 =    0.2615             !
 ! R22   R(20,21)                1.1597         D2E/DX2 =    1.2659             !
 ! A1    A(5,1,10)             110.4224         D2E/DX2 =    0.1069             !
 ! A2    A(5,1,20)             125.4303         D2E/DX2 =    0.097              !
 ! A3    A(10,1,20)            124.1474         D2E/DX2 =    0.0931             !
 ! A4    A(4,2,6)              121.1164         D2E/DX2 =    0.0747             !
 ! A5    A(4,2,7)              121.5147         D2E/DX2 =    0.0764             !
 ! A6    A(6,2,7)              117.362          D2E/DX2 =    0.0586             !
 ! A7    A(5,3,8)              123.1195         D2E/DX2 =    0.0769             !
 ! A8    A(5,3,11)             108.0565         D2E/DX2 =    0.0927             !
 ! A9    A(8,3,11)             128.8191         D2E/DX2 =    0.0681             !
 ! A10   A(2,4,9)              122.1356         D2E/DX2 =    0.0824             !
 ! A11   A(2,4,13)             121.5005         D2E/DX2 =    0.1035             !
 ! A12   A(9,4,13)             116.3552         D2E/DX2 =    0.0834             !
 ! A13   A(1,5,3)              109.9193         D2E/DX2 =    0.094              !
 ! A14   A(1,5,22)             121.9007         D2E/DX2 =    0.0911             !
 ! A15   A(3,5,22)             128.1363         D2E/DX2 =    0.0818             !
 ! A16   A(1,10,11)            108.5826         D2E/DX2 =    0.1227             !
 ! A17   A(3,11,10)            103.0184         D2E/DX2 =    0.1014             !
 ! A18   A(3,11,12)            136.6249         D2E/DX2 =    0.0899             !
 ! A19   A(10,11,12)           120.3566         D2E/DX2 =    0.1066             !
 ! A20   A(4,13,14)            124.7901         D2E/DX2 =    0.1337             !
 ! A21   A(4,13,15)            111.7078         D2E/DX2 =    0.1263             !
 ! A22   A(14,13,15)           123.5021         D2E/DX2 =    0.1568             !
 ! A23   A(13,14,22)           127.3455         D2E/DX2 =    0.0386             !
 ! A24   A(13,15,16)           119.9333         D2E/DX2 =    0.2907             !
 ! A25   A(15,16,17)           107.8672         D2E/DX2 =    0.114              !
 ! A26   A(15,16,18)           110.7607         D2E/DX2 =    0.1357             !
 ! A27   A(15,16,19)           107.578          D2E/DX2 =    0.1139             !
 ! A28   A(17,16,18)           110.3533         D2E/DX2 =    0.0522             !
 ! A29   A(17,16,19)           109.7229         D2E/DX2 =    0.052              !
 ! A30   A(18,16,19)           110.4804         D2E/DX2 =    0.0521             !
 ! A31   A(5,22,14)            162.5605         D2E/DX2 =    0.0199             !
 ! A32   L(1,20,21,2,-1)       178.6498         D2E/DX2 =    0.1116             !
 ! A33   L(1,20,21,2,-2)       181.4671         D2E/DX2 =    0.1092             !
 ! D1    D(10,1,5,3)             0.2765         D2E/DX2 =    0.0106             !
 ! D2    D(10,1,5,22)          178.0564         D2E/DX2 =    0.0083             !
 ! D3    D(20,1,5,3)          -179.736          D2E/DX2 =    0.0092             !
 ! D4    D(20,1,5,22)           -1.9561         D2E/DX2 =    0.0064             !
 ! D5    D(5,1,10,11)           -0.1641         D2E/DX2 =    0.0105             !
 ! D6    D(20,1,10,11)         179.8483         D2E/DX2 =    0.0074             !
 ! D7    D(6,2,4,9)             -0.9399         D2E/DX2 =    0.0191             !
 ! D8    D(6,2,4,13)          -179.8262         D2E/DX2 =    0.0247             !
 ! D9    D(7,2,4,9)            178.0792         D2E/DX2 =    0.0236             !
 ! D10   D(7,2,4,13)            -0.8071         D2E/DX2 =    0.0196             !
 ! D11   D(8,3,5,1)           -179.5365         D2E/DX2 =    0.0067             !
 ! D12   D(8,3,5,22)             2.8599         D2E/DX2 =    0.0054             !
 ! D13   D(11,3,5,1)            -0.2732         D2E/DX2 =    0.0109             !
 ! D14   D(11,3,5,22)         -177.8768         D2E/DX2 =    0.0068             !
 ! D15   D(5,3,11,10)            0.1637         D2E/DX2 =    0.0103             !
 ! D16   D(5,3,11,12)         -179.941          D2E/DX2 =    0.0124             !
 ! D17   D(8,3,11,10)          179.3718         D2E/DX2 =    0.0087             !
 ! D18   D(8,3,11,12)           -0.7329         D2E/DX2 =    0.0107             !
 ! D19   D(2,4,13,14)          -14.0477         D2E/DX2 =    0.0085             !
 ! D20   D(2,4,13,15)          165.8846         D2E/DX2 =    0.0088             !
 ! D21   D(9,4,13,14)          167.0047         D2E/DX2 =    0.0075             !
 ! D22   D(9,4,13,15)          -13.0629         D2E/DX2 =    0.009              !
 ! D23   D(1,5,22,14)           -0.598          D2E/DX2 =    0.0038             !
 ! D24   D(3,5,22,14)          176.748          D2E/DX2 =    0.0033             !
 ! D25   D(1,10,11,3)           -0.0037         D2E/DX2 =    0.0102             !
 ! D26   D(1,10,11,12)        -179.9203         D2E/DX2 =    0.0076             !
 ! D27   D(4,13,14,22)         -34.5488         D2E/DX2 =    0.01               !
 ! D28   D(15,13,14,22)        145.5266         D2E/DX2 =    0.0086             !
 ! D29   D(4,13,15,16)         178.3424         D2E/DX2 =    0.0147             !
 ! D30   D(14,13,15,16)         -1.7243         D2E/DX2 =    0.0116             !
 ! D31   D(13,14,22,5)         -42.9286         D2E/DX2 =    0.0066             !
 ! D32   D(13,15,16,17)        119.8115         D2E/DX2 =    0.0196             !
 ! D33   D(13,15,16,18)         -1.0529         D2E/DX2 =    0.0165             !
 ! D34   D(13,15,16,19)       -121.8902         D2E/DX2 =    0.0197             !
 --------------------------------------------------------------------------------
 Trust Radius=1.00D-01 FncErr=1.00D-07 GrdErr=1.00D-06 EigMax=2.50D+02 EigMin=1.00D-04
 Number of steps in this run=     50 maximum allowed number of steps=    132.
 Search for a saddle point of order  1.
 GradGradGradGradGradGradGradGradGradGradGradGradGradGradGradGradGradGrad

                          Input orientation:                          
 ---------------------------------------------------------------------
 Center     Atomic      Atomic             Coordinates (Angstroms)
 Number     Number       Type             X           Y           Z
 ---------------------------------------------------------------------
      1          6           0        1.421790    0.722480    0.115860
      2          6           0       -1.114050   -1.659110    1.799200
      3          6           0        2.307060   -1.011710   -0.889820
      4          6           0       -2.087740   -0.827170    1.427040
      5          7           0        1.155770   -0.365880   -0.585500
      6          1           0       -0.961030   -1.914610    2.849540
      7          1           0       -0.448760   -2.124050    1.066950
      8          1           0        2.337010   -1.928060   -1.467310
      9          1           0       -2.777220   -0.381290    2.146570
     10          8           0        2.724440    0.846820    0.297640
     11          6           0        3.387480   -0.268250   -0.341540
     12          8           0        4.583670   -0.365430   -0.304160
     13          6           0       -2.305500   -0.477450    0.003320
     14          8           0       -1.510240   -0.695590   -0.897160
     15          8           0       -3.473080    0.103020   -0.182660
     16          6           0       -3.848410    0.545750   -1.485820
     17          1           0       -4.764400    0.013700   -1.771230
     18          1           0       -3.050080    0.345160   -2.209090
     19          1           0       -4.049410    1.622370   -1.424810
     20          6           0        0.461650    1.634340    0.608660
     21          7           0       -0.355300    2.359580    0.997820
     22          1           0        0.178460   -0.653020   -0.807540
 ---------------------------------------------------------------------
                    Distance matrix (angstroms):
                    1          2          3          4          5
     1  C    0.000000
     2  C    3.864724   0.000000
     3  C    2.191463   4.399312   0.000000
     4  C    4.054307   1.333679   4.971535   0.000000
     5  N    1.321817   3.537135   1.354687   3.844927   0.000000
     6  H    4.483869   1.091746   5.047619   2.115540   4.321910
     7  H    3.536419   1.093147   3.558201   2.120806   2.897632
     8  H    3.220158   4.759437   1.083554   5.400707   2.147865
     9  H    4.793097   2.125941   5.955417   1.091749   4.788826
    10  O    1.321136   4.823730   2.244638   5.218703   2.170554
    11  C    2.248266   5.175039   1.421496   5.780856   2.247127
    12  O    3.370082   6.209810   2.437956   6.907819   3.439426
    13  C    3.917293   2.457856   4.728514   1.482128   3.512769
    14  O    3.410855   2.890622   3.830374   2.398484   2.704339
    15  O    4.942934   3.549351   5.928973   2.318524   4.669946
    16  C    5.511045   4.809313   6.377359   3.670098   5.165604
    17  H    6.506337   5.373204   7.199576   4.254468   6.049665
    18  H    5.054244   4.881772   5.681595   3.939784   4.564077
    19  H    5.754780   5.456985   6.901399   4.240453   5.634845
    20  C    1.412873   3.840186   3.557044   3.637055   2.430782
    21  N    2.572158   4.167467   4.692221   3.652527   3.495478
    22  H    2.071361   3.078619   2.160177   3.187372   1.042538
                    6          7          8          9         10
     6  H    0.000000
     7  H    1.866524   0.000000
     8  H    5.432536   3.771127   0.000000
     9  H    2.478666   3.102341   6.450424   0.000000
    10  O    5.265015   4.414420   3.311361   5.932542   0.000000
    11  C    5.639418   4.488271   2.264026   6.648834   1.446221
    12  O    6.564258   5.504365   2.973586   7.758159   2.299663
    13  C    3.460346   2.700016   5.081331   2.196654   5.209665
    14  O    3.978115   2.650465   4.079876   3.311845   4.662520
    15  O    4.424417   3.958267   6.287508   2.478727   6.260446
    16  C    5.760701   5.020168   6.661794   3.898860   6.817164
    17  H    6.287728   5.590169   7.368366   4.410675   7.813900
    18  H    5.921185   4.857602   5.893938   4.424246   6.315096
    19  H    6.349676   5.762743   7.307101   4.288109   7.032308
    20  C    4.431773   3.894146   4.529605   4.113175   2.416017
    21  N    4.697284   4.485137   5.631097   3.833757   3.501927
    22  H    4.032900   2.463949   2.592366   4.187678   3.154831
                   11         12         13         14         15
    11  C    0.000000
    12  O    1.200713   0.000000
    13  C    5.707251   6.896938   0.000000
    14  O    4.947625   6.131590   1.221019   0.000000
    15  O    6.872435   8.071272   1.317109   2.236298   0.000000
    16  C    7.370894   8.563092   2.375931   2.711915   1.426572
    17  H    8.281102   9.470082   3.071880   3.443348   2.049156
    18  H    6.730988   7.899863   2.475044   2.274957   2.084222
    19  H    7.749532   8.929573   3.080588   3.478324   2.045365
    20  C    3.617072   4.671549   3.533159   3.403589   4.295722
    21  N    4.765268   5.789150   3.583441   3.776096   4.025686
    22  H    3.265427   4.443194   2.618850   1.691612   3.780981
                   16         17         18         19         20
    16  C    0.000000
    17  H    1.097075   0.000000
    18  H    1.095758   1.800133   0.000000
    19  H    1.096920   1.794167   1.801394   0.000000
    20  C    4.914112   5.966737   4.683369   4.948212   0.000000
    21  N    4.654059   5.710600   4.648010   4.478735   1.159666
    22  H    4.255913   5.079870   3.658439   4.840796   2.705150
                   21         22
    21  N    0.000000
    22  H    3.552462   0.000000
 Stoichiometry    C8H8N2O4
 Framework group  C1[X(C8H8N2O4)]
 Deg. of freedom    60
 Full point group                 C1      NOp   1
 Largest Abelian subgroup         C1      NOp   1
 Largest concise Abelian subgroup C1      NOp   1
                         Standard orientation:                         
 ---------------------------------------------------------------------
 Center     Atomic      Atomic             Coordinates (Angstroms)
 Number     Number       Type             X           Y           Z
 ---------------------------------------------------------------------
      1          6           0        1.421791    0.722481    0.115860
      2          6           0       -1.114048   -1.659110    1.799200
      3          6           0        2.307061   -1.011709   -0.889820
      4          6           0       -2.087739   -0.827170    1.427040
      5          7           0        1.155771   -0.365879   -0.585500
      6          1           0       -0.961028   -1.914610    2.849540
      7          1           0       -0.448758   -2.124049    1.066950
      8          1           0        2.337012   -1.928059   -1.467310
      9          1           0       -2.777219   -0.381290    2.146570
     10          8           0        2.724441    0.846821    0.297640
     11          6           0        3.387481   -0.268249   -0.341540
     12          8           0        4.583671   -0.365429   -0.304160
     13          6           0       -2.305499   -0.477450    0.003320
     14          8           0       -1.510239   -0.695590   -0.897160
     15          8           0       -3.473079    0.103020   -0.182660
     16          6           0       -3.848409    0.545750   -1.485820
     17          1           0       -4.764399    0.013700   -1.771230
     18          1           0       -3.050079    0.345160   -2.209090
     19          1           0       -4.049409    1.622370   -1.424810
     20          6           0        0.461651    1.634341    0.608660
     21          7           0       -0.355299    2.359581    0.997820
     22          1           0        0.178461   -0.653019   -0.807540
 ---------------------------------------------------------------------
 Rotational constants (GHZ):           1.3205491           0.3437956           0.3322536
 Standard basis: def2SVP (5D, 7F)
 There are   250 symmetry adapted cartesian basis functions of A   symmetry.
 There are   236 symmetry adapted basis functions of A   symmetry.
   236 basis functions,   406 primitive gaussians,   250 cartesian basis functions
    51 alpha electrons       51 beta electrons
       nuclear repulsion energy       845.6912285455 Hartrees.
 NAtoms=   22 NActive=   22 NUniq=   22 SFac= 1.00D+00 NAtFMM=   60 NAOKFM=F Big=F
 Integral buffers will be    131072 words long.
 Raffenetti 2 integral format.
 Two-electron integral symmetry is turned on.
 Nuclear repulsion after empirical dispersion term =      845.6794750170 Hartrees.
 ------------------------------------------------------------------------------
 Polarizable Continuum Model (PCM)
 =================================
 Model                : PCM.
 Atomic radii         : UFF (Universal Force Field).
 Polarization charges : Total charges.
 Charge compensation  : None.
 Solution method      : On-the-fly selection.
 Cavity type          : Scaled VdW (van der Waals Surface) (Alpha=1.100).
 Cavity algorithm     : GePol (No added spheres)
                        Default sphere list used, NSphG=   22.
                        Lebedev-Laikov grids with approx.  5.0 points / Ang**2.
                        Smoothing algorithm: York/Karplus (Gamma=1.0000).
                        Polarization charges: spherical gaussians, with
                                              point-specific exponents (IZeta= 3).
                        Self-potential: point-specific (ISelfS= 7).
                        Self-field    : sphere-specific E.n sum rule (ISelfD= 2).
 1st derivatives      : Analytical E(r).r(x)/FMM algorithm (CHGder, D1EAlg=3).
                        Cavity 1st derivative terms included.
 Solvent              : Toluene, Eps=   2.374100 Eps(inf)=   2.238315
 ------------------------------------------------------------------------------
 One-electron integrals computed using PRISM.
   1 Symmetry operations used in ECPInt.
 ECPInt:  NShTT=    5886 NPrTT=   21942 LenC2=    5515 LenP2D=   14794.
 LDataN:  DoStor=T MaxTD1= 4 Len=   56
 NBasis=   236 RedAO= T EigKep=  3.31D-04  NBF=   236
 NBsUse=   236 1.00D-06 EigRej= -1.00D+00 NBFU=   236
 ExpMin= 1.22D-01 ExpMax= 2.27D+03 ExpMxC= 3.41D+02 IAcc=3 IRadAn=         5 AccDes= 0.00D+00
 Harris functional with IExCor= 4639 and IRadAn=       5 diagonalized for initial guess.
 HarFok:  IExCor= 4639 AccDes= 0.00D+00 IRadAn=         5 IDoV= 1 UseB2=F ITyADJ=14
 ICtDFT=  3500011 ScaDFX=  1.000000  1.000000  1.000000  1.000000
 FoFCou: FMM=F IPFlag=           0 FMFlag=      100000 FMFlg1=           0
         NFxFlg=           0 DoJE=T BraDBF=F KetDBF=T FulRan=T
         wScrn=  0.000000 ICntrl=       500 IOpCl=  0 I1Cent=   200000004 NGrid=           0
         NMat0=    1 NMatS0=      1 NMatT0=    0 NMatD0=    1 NMtDS0=    0 NMtDT0=    0
 Petite list used in FoFCou.
 Requested convergence on RMS density matrix=1.00D-08 within 128 cycles.
 Requested convergence on MAX density matrix=1.00D-06.
 Requested convergence on             energy=1.00D-06.
 No special actions if energy rises.
 Inv3:  Mode=1 IEnd=    12277587.
 Iteration    1 A*A^-1 deviation from unit magnitude is 3.33D-15 for    229.
 Iteration    1 A*A^-1 deviation from orthogonality  is 1.89D-15 for    603    448.
 Iteration    1 A^-1*A deviation from unit magnitude is 3.55D-15 for    229.
 Iteration    1 A^-1*A deviation from orthogonality  is 1.67D-15 for   1470    731.
 Error on total polarization charges =  0.00710
 SCF Done:  E(RwB97XD) =  -719.240520387     A.U. after   15 cycles
            NFock= 15  Conv=0.64D-08     -V/T= 2.0089

 **********************************************************************

            Population analysis using the SCF Density.

 **********************************************************************

 Orbital symmetries:
       Occupied  (A) (A) (A) (A) (A) (A) (A) (A) (A) (A) (A) (A)
                 (A) (A) (A) (A) (A) (A) (A) (A) (A) (A) (A) (A)
                 (A) (A) (A) (A) (A) (A) (A) (A) (A) (A) (A) (A)
                 (A) (A) (A) (A) (A) (A) (A) (A) (A) (A) (A) (A)
                 (A) (A) (A)
       Virtual   (A) (A) (A) (A) (A) (A) (A) (A) (A) (A) (A) (A)
                 (A) (A) (A) (A) (A) (A) (A) (A) (A) (A) (A) (A)
                 (A) (A) (A) (A) (A) (A) (A) (A) (A) (A) (A) (A)
                 (A) (A) (A) (A) (A) (A) (A) (A) (A) (A) (A) (A)
                 (A) (A) (A) (A) (A) (A) (A) (A) (A) (A) (A) (A)
                 (A) (A) (A) (A) (A) (A) (A) (A) (A) (A) (A) (A)
                 (A) (A) (A) (A) (A) (A) (A) (A) (A) (A) (A) (A)
                 (A) (A) (A) (A) (A) (A) (A) (A) (A) (A) (A) (A)
                 (A) (A) (A) (A) (A) (A) (A) (A) (A) (A) (A) (A)
                 (A) (A) (A) (A) (A) (A) (A) (A) (A) (A) (A) (A)
                 (A) (A) (A) (A) (A) (A) (A) (A) (A) (A) (A) (A)
                 (A) (A) (A) (A) (A) (A) (A) (A) (A) (A) (A) (A)
                 (A) (A) (A) (A) (A) (A) (A) (A) (A) (A) (A) (A)
                 (A) (A) (A) (A) (A) (A) (A) (A) (A) (A) (A) (A)
                 (A) (A) (A) (A) (A) (A) (A) (A) (A) (A) (A) (A)
                 (A) (A) (A) (A) (A)
 The electronic state is 1-A.
 Alpha  occ. eigenvalues --  -19.34370 -19.33295 -19.28142 -19.22773 -14.55619
 Alpha  occ. eigenvalues --  -14.47846 -10.46536 -10.44135 -10.42488 -10.37485
 Alpha  occ. eigenvalues --  -10.36806 -10.34466 -10.34188 -10.33616  -1.25485
 Alpha  occ. eigenvalues --   -1.23648  -1.14270  -1.12546  -1.08764  -1.02666
 Alpha  occ. eigenvalues --   -0.91445  -0.89538  -0.85052  -0.78482  -0.74533
 Alpha  occ. eigenvalues --   -0.73362  -0.72226  -0.66976  -0.63739  -0.63054
 Alpha  occ. eigenvalues --   -0.61205  -0.60275  -0.59839  -0.56959  -0.55637
 Alpha  occ. eigenvalues --   -0.52902  -0.52321  -0.51683  -0.50534  -0.49442
 Alpha  occ. eigenvalues --   -0.48816  -0.48117  -0.46730  -0.46068  -0.45839
 Alpha  occ. eigenvalues --   -0.44166  -0.41616  -0.40757  -0.39037  -0.36756
 Alpha  occ. eigenvalues --   -0.28367
 Alpha virt. eigenvalues --   -0.01027  -0.00222   0.05948   0.12813   0.13932
 Alpha virt. eigenvalues --    0.14331   0.15697   0.16204   0.17978   0.18640
 Alpha virt. eigenvalues --    0.19003   0.19901   0.20699   0.21428   0.21782
 Alpha virt. eigenvalues --    0.23448   0.25332   0.26836   0.30554   0.33862
 Alpha virt. eigenvalues --    0.34230   0.35384   0.36836   0.37584   0.38647
 Alpha virt. eigenvalues --    0.43431   0.45764   0.47491   0.48175   0.49980
 Alpha virt. eigenvalues --    0.50778   0.51968   0.53035   0.53837   0.54780
 Alpha virt. eigenvalues --    0.56196   0.57482   0.58577   0.60333   0.60685
 Alpha virt. eigenvalues --    0.62477   0.64461   0.65886   0.66805   0.67694
 Alpha virt. eigenvalues --    0.68450   0.70111   0.70316   0.71479   0.72236
 Alpha virt. eigenvalues --    0.72999   0.73381   0.73822   0.74554   0.75085
 Alpha virt. eigenvalues --    0.75751   0.77153   0.78454   0.80084   0.81429
 Alpha virt. eigenvalues --    0.82220   0.83077   0.88034   0.89868   0.91965
 Alpha virt. eigenvalues --    0.93366   0.96088   0.96889   1.01525   1.03074
 Alpha virt. eigenvalues --    1.05993   1.09551   1.10223   1.10631   1.13084
 Alpha virt. eigenvalues --    1.15418   1.16488   1.16981   1.18523   1.21704
 Alpha virt. eigenvalues --    1.22411   1.27110   1.28008   1.29446   1.30589
 Alpha virt. eigenvalues --    1.32121   1.34427   1.36916   1.37471   1.39460
 Alpha virt. eigenvalues --    1.43191   1.44793   1.50496   1.51762   1.52099
 Alpha virt. eigenvalues --    1.58093   1.58912   1.60439   1.62845   1.64066
 Alpha virt. eigenvalues --    1.66043   1.66764   1.68116   1.71032   1.71673
 Alpha virt. eigenvalues --    1.71923   1.74983   1.76648   1.76917   1.78467
 Alpha virt. eigenvalues --    1.79495   1.80330   1.81562   1.83699   1.85471
 Alpha virt. eigenvalues --    1.88304   1.89161   1.91337   1.92191   1.93789
 Alpha virt. eigenvalues --    1.95372   1.97626   2.02614   2.03335   2.04619
 Alpha virt. eigenvalues --    2.06376   2.07528   2.12779   2.12994   2.14933
 Alpha virt. eigenvalues --    2.19768   2.19994   2.22839   2.28452   2.29125
 Alpha virt. eigenvalues --    2.29859   2.31791   2.32461   2.33970   2.38997
 Alpha virt. eigenvalues --    2.39675   2.40631   2.41459   2.47401   2.50205
 Alpha virt. eigenvalues --    2.52721   2.55893   2.63025   2.64454   2.69728
 Alpha virt. eigenvalues --    2.70740   2.73208   2.73592   2.76223   2.79951
 Alpha virt. eigenvalues --    2.80301   2.83509   2.85056   2.86734   2.87944
 Alpha virt. eigenvalues --    2.93883   2.94233   2.95944   2.98746   3.01569
 Alpha virt. eigenvalues --    3.01854   3.03846   3.07415   3.12064   3.12274
 Alpha virt. eigenvalues --    3.14576   3.18112   3.27377   3.29272   3.30088
 Alpha virt. eigenvalues --    3.36708   3.38212   3.46000   3.49179   3.51748
 Alpha virt. eigenvalues --    3.70294   3.74280   3.75882   3.75954   3.83212
          Condensed to atoms (all electrons):
               1          2          3          4          5          6
     1  C    5.201908   0.003729  -0.109956   0.000897   0.562898  -0.000031
     2  C    0.003729   4.686769  -0.000799   0.600003  -0.000524   0.390894
     3  C   -0.109956  -0.000799   5.295174   0.000268   0.365563  -0.000005
     4  C    0.000897   0.600003   0.000268   5.043444  -0.000669  -0.012412
     5  N    0.562898  -0.000524   0.365563  -0.000669   6.057953   0.000029
     6  H   -0.000031   0.390894  -0.000005  -0.012412   0.000029   0.567153
     7  H   -0.000487   0.398177   0.001507  -0.026469   0.001668  -0.033830
     8  H    0.005342   0.000004   0.415259  -0.000002  -0.027768  -0.000000
     9  H   -0.000016  -0.023599   0.000001   0.391341   0.000002  -0.010210
    10  O    0.453374  -0.000033  -0.125022   0.000011  -0.082262  -0.000001
    11  C   -0.082890  -0.000092   0.360216  -0.000005  -0.030255   0.000001
    12  O    0.002331   0.000000  -0.076921  -0.000000   0.001501   0.000000
    13  C   -0.000273  -0.035053  -0.000014   0.304989   0.000566   0.007660
    14  O   -0.005128   0.009971  -0.000357  -0.101475  -0.030681   0.000233
    15  O   -0.000005   0.004616  -0.000001  -0.099707  -0.000023  -0.000077
    16  C   -0.000004  -0.000211  -0.000000   0.006651   0.000001   0.000004
    17  H   -0.000000   0.000041  -0.000000  -0.000291   0.000000  -0.000000
    18  H    0.000029  -0.000040  -0.000001   0.002353   0.000014  -0.000000
    19  H    0.000001  -0.000014   0.000000  -0.000044  -0.000001  -0.000000
    20  C    0.033393  -0.002171   0.015335  -0.000014  -0.133541   0.000052
    21  N   -0.095341  -0.000789   0.000199   0.000412  -0.004585   0.000001
    22  H   -0.000087   0.001177  -0.016864  -0.001528   0.342299  -0.000010
               7          8          9         10         11         12
     1  C   -0.000487   0.005342  -0.000016   0.453374  -0.082890   0.002331
     2  C    0.398177   0.000004  -0.023599  -0.000033  -0.000092   0.000000
     3  C    0.001507   0.415259   0.000001  -0.125022   0.360216  -0.076921
     4  C   -0.026469  -0.000002   0.391341   0.000011  -0.000005  -0.000000
     5  N    0.001668  -0.027768   0.000002  -0.082262  -0.030255   0.001501
     6  H   -0.033830  -0.000000  -0.010210  -0.000001   0.000001   0.000000
     7  H    0.589990   0.000053   0.006448  -0.000006   0.000036  -0.000001
     8  H    0.000053   0.560021   0.000000   0.003682  -0.024972   0.001308
     9  H    0.006448   0.000000   0.579561   0.000000   0.000000  -0.000000
    10  O   -0.000006   0.003682   0.000000   7.899841   0.261416  -0.064723
    11  C    0.000036  -0.024972   0.000000   0.261416   4.494686   0.764306
    12  O   -0.000001   0.001308  -0.000000  -0.064723   0.764306   7.631405
    13  C   -0.016034   0.000007  -0.028992  -0.000002  -0.000002   0.000000
    14  O    0.006260   0.000079   0.002850  -0.000004  -0.000025   0.000000
    15  O    0.000287   0.000000   0.006945  -0.000000   0.000000   0.000000
    16  C    0.000012   0.000000  -0.000227  -0.000000   0.000000  -0.000000
    17  H    0.000001   0.000000  -0.000039   0.000000   0.000000  -0.000000
    18  H   -0.000038  -0.000000  -0.000004   0.000000  -0.000000  -0.000000
    19  H   -0.000001  -0.000000  -0.000057   0.000000  -0.000000  -0.000000
    20  C   -0.000581  -0.000388   0.000035  -0.088566  -0.006089  -0.000283
    21  N    0.000033  -0.000001   0.000273  -0.002242  -0.000108  -0.000000
    22  H    0.001604  -0.004267  -0.000038   0.001518   0.006377  -0.000027
              13         14         15         16         17         18
     1  C   -0.000273  -0.005128  -0.000005  -0.000004  -0.000000   0.000029
     2  C   -0.035053   0.009971   0.004616  -0.000211   0.000041  -0.000040
     3  C   -0.000014  -0.000357  -0.000001  -0.000000  -0.000000  -0.000001
     4  C    0.304989  -0.101475  -0.099707   0.006651  -0.000291   0.002353
     5  N    0.000566  -0.030681  -0.000023   0.000001   0.000000   0.000014
     6  H    0.007660   0.000233  -0.000077   0.000004  -0.000000  -0.000000
     7  H   -0.016034   0.006260   0.000287   0.000012   0.000001  -0.000038
     8  H    0.000007   0.000079   0.000000   0.000000   0.000000  -0.000000
     9  H   -0.028992   0.002850   0.006945  -0.000227  -0.000039  -0.000004
    10  O   -0.000002  -0.000004  -0.000000  -0.000000   0.000000   0.000000
    11  C   -0.000002  -0.000025   0.000000   0.000000   0.000000  -0.000000
    12  O    0.000000   0.000000   0.000000  -0.000000  -0.000000  -0.000000
    13  C    4.509298   0.601533   0.397330  -0.032171   0.001672  -0.010244
    14  O    0.601533   7.835124  -0.075577  -0.015513   0.000122   0.026892
    15  O    0.397330  -0.075577   7.890154   0.254118  -0.023167  -0.025697
    16  C   -0.032171  -0.015513   0.254118   4.471730   0.405905   0.398799
    17  H    0.001672   0.000122  -0.023167   0.405905   0.583008  -0.020642
    18  H   -0.010244   0.026892  -0.025697   0.398799  -0.020642   0.575147
    19  H    0.001853   0.000294  -0.023519   0.406491  -0.020611  -0.019616
    20  C    0.003251   0.006001  -0.000498   0.000035  -0.000003   0.000005
    21  N    0.000969  -0.000614   0.000068  -0.000075   0.000002  -0.000005
    22  H   -0.006774   0.072071   0.000556  -0.000014  -0.000008   0.000081
              19         20         21         22
     1  C    0.000001   0.033393  -0.095341  -0.000087
     2  C   -0.000014  -0.002171  -0.000789   0.001177
     3  C    0.000000   0.015335   0.000199  -0.016864
     4  C   -0.000044  -0.000014   0.000412  -0.001528
     5  N   -0.000001  -0.133541  -0.004585   0.342299
     6  H   -0.000000   0.000052   0.000001  -0.000010
     7  H   -0.000001  -0.000581   0.000033   0.001604
     8  H   -0.000000  -0.000388  -0.000001  -0.004267
     9  H   -0.000057   0.000035   0.000273  -0.000038
    10  O    0.000000  -0.088566  -0.002242   0.001518
    11  C   -0.000000  -0.006089  -0.000108   0.006377
    12  O   -0.000000  -0.000283  -0.000000  -0.000027
    13  C    0.001853   0.003251   0.000969  -0.006774
    14  O    0.000294   0.006001  -0.000614   0.072071
    15  O   -0.023519  -0.000498   0.000068   0.000556
    16  C    0.406491   0.000035  -0.000075  -0.000014
    17  H   -0.020611  -0.000003   0.000002  -0.000008
    18  H   -0.019616   0.000005  -0.000005   0.000081
    19  H    0.576380   0.000063   0.000039   0.000017
    20  C    0.000063   5.400570   0.856676  -0.023797
    21  N    0.000039   0.856676   6.170043  -0.000383
    22  H    0.000017  -0.023797  -0.000383   0.432336
 Mulliken charges:
               1
     1  C    0.030316
     2  C   -0.032053
     3  C   -0.123582
     4  C   -0.107752
     5  N   -0.022184
     6  H    0.090547
     7  H    0.071370
     8  H    0.071643
     9  H    0.075727
    10  O   -0.256981
    11  C    0.257401
    12  O   -0.258897
    13  C    0.300431
    14  O   -0.332054
    15  O   -0.305805
    16  C    0.104468
    17  H    0.074010
    18  H    0.072967
    19  H    0.078724
    20  C   -0.059486
    21  N    0.075429
    22  H    0.195760
 Sum of Mulliken charges =  -0.00000
 Mulliken charges with hydrogens summed into heavy atoms:
               1
     1  C    0.030316
     2  C    0.129864
     3  C   -0.051939
     4  C   -0.032025
     5  N    0.173575
    10  O   -0.256981
    11  C    0.257401
    12  O   -0.258897
    13  C    0.300431
    14  O   -0.332054
    15  O   -0.305805
    16  C    0.330170
    20  C   -0.059486
    21  N    0.075429
 Electronic spatial extent (au):  <R**2>=           3389.9421
 Charge=              0.0000 electrons
 Dipole moment (field-independent basis, Debye):
    X=             -8.0033    Y=             -3.0059    Z=             -1.1155  Tot=              8.6216
 Quadrupole moment (field-independent basis, Debye-Ang):
   XX=           -100.9077   YY=            -81.8914   ZZ=            -73.1317
   XY=             -0.3042   XZ=              4.2153   YZ=             -6.1001
 Traceless Quadrupole moment (field-independent basis, Debye-Ang):
   XX=            -15.5975   YY=              3.4188   ZZ=             12.1786
   XY=             -0.3042   XZ=              4.2153   YZ=             -6.1001
 Octapole moment (field-independent basis, Debye-Ang**2):
  XXX=           -223.4858  YYY=            -24.5547  ZZZ=              0.5134  XYY=              4.5028
  XXY=             14.0053  XXZ=            -22.5219  XZZ=            -15.0811  YZZ=            -10.6244
  YYZ=            -12.0695  XYZ=             10.7726
 Hexadecapole moment (field-independent basis, Debye-Ang**3):
 XXXX=          -3760.9050 YYYY=           -663.5083 ZZZZ=           -482.0779 XXXY=              9.9175
 XXXZ=            165.3070 YYYX=             -4.1085 YYYZ=            -19.3277 ZZZX=             12.3422
 ZZZY=            -23.2840 XXYY=           -619.1593 XXZZ=           -546.9836 YYZZ=           -183.8078
 XXYZ=            -17.0735 YYXZ=              6.3531 ZZXY=             -5.3208
 N-N= 8.456794750170D+02 E-N=-3.370078729396D+03  KE= 7.129049182372D+02
   1 Symmetry operations used in ECPInt.
 ECPInt:  NShTT=    5886 NPrTT=   21942 LenC2=    5515 LenP2D=   14794.
 LDataN:  DoStor=T MaxTD1= 5 Len=  102
 D1PCM: PCM CHGder 1st derivatives, ID1Alg=3 FixD1E=F DoIter=F DoCFld=F I1PDM=0.
 Calling FoFJK, ICntrl=      2127 FMM=F ISym2X=0 I1Cent= 0 IOpClX= 0 NMat=1 NMatS=1 NMatT=0.
 ***** Axes restored to original set *****
 -------------------------------------------------------------------
 Center     Atomic                   Forces (Hartrees/Bohr)
 Number     Number              X              Y              Z
 -------------------------------------------------------------------
      1        6          -0.000066218    0.000021191   -0.000210750
      2        6          -0.000001204    0.000006795    0.000111785
      3        6           0.000113143    0.000146861   -0.000078244
      4        6           0.000044721   -0.000000697   -0.000065420
      5        7           0.000081005   -0.000446804    0.000763292
      6        1          -0.000035499   -0.000006742   -0.000031763
      7        1           0.000216048    0.000022804   -0.000078963
      8        1          -0.000033072   -0.000021695    0.000128294
      9        1          -0.000005291    0.000003051   -0.000008226
     10        8           0.000110367   -0.000058221   -0.000025831
     11        6          -0.000083384   -0.000102338   -0.000078018
     12        8           0.000031062    0.000077725    0.000051762
     13        6           0.000148376   -0.000114070    0.000110006
     14        8          -0.000293083   -0.000105384    0.000089397
     15        8          -0.000014464    0.000149392   -0.000019011
     16        6           0.000075060    0.000000430   -0.000038654
     17        1          -0.000011534    0.000001832   -0.000055569
     18        1           0.000022064    0.000005730    0.000053452
     19        1          -0.000054837   -0.000026573   -0.000008366
     20        6          -0.000100302   -0.000045536    0.000027651
     21        7           0.000025837   -0.000082134    0.000015098
     22        1          -0.000168796    0.000574382   -0.000651922
 -------------------------------------------------------------------
 Cartesian Forces:  Max     0.000763292 RMS     0.000174823

 GradGradGradGradGradGradGradGradGradGradGradGradGradGradGradGradGradGrad
 Berny optimization.
 FormGI is forming the generalized inverse of G from B-inverse, IUseBI=4.
 Internal  Forces:  Max     0.000558416 RMS     0.000123936
 Search for a saddle point.
 Step number   1 out of a maximum of   50
 All quantities printed in internal units (Hartrees-Bohrs-Radians)
 Swapping is turned off.
 Second derivative matrix not updated -- first step.
 ITU=  0
     Eigenvalues ---   -0.00107  -0.00095   0.00006   0.00085   0.00450
     Eigenvalues ---    0.00883   0.01149   0.01524   0.01705   0.01934
     Eigenvalues ---    0.02022   0.02452   0.02580   0.02850   0.03792
     Eigenvalues ---    0.03794   0.04311   0.04810   0.05453   0.05948
     Eigenvalues ---    0.06043   0.08296   0.08468   0.09520   0.10366
     Eigenvalues ---    0.10513   0.11023   0.11047   0.11113   0.12533
     Eigenvalues ---    0.13854   0.14072   0.14193   0.15513   0.16935
     Eigenvalues ---    0.19377   0.19716   0.22473   0.23857   0.25333
     Eigenvalues ---    0.25825   0.26147   0.26199   0.27052   0.27078
     Eigenvalues ---    0.27576   0.28081   0.29336   0.40807   0.41337
     Eigenvalues ---    0.43707   0.44078   0.52500   0.59847   0.60848
     Eigenvalues ---    0.77845   0.78842   0.90791   0.91541   1.27315
 Eigenvectors required to have negative eigenvalues:
                          D33       D32       D34       D31       A31
   1                   -0.50677  -0.48648  -0.48498   0.28029   0.24550
                          D19       D20       D21       D22       D24
   1                   -0.15416  -0.15094  -0.14833  -0.14511   0.11431
 RFO step:  Lambda0=7.921264212D-06 Lambda=-9.52038186D-04.
 Linear search not attempted -- option 19 set.
 Maximum step size (   0.100) exceeded in Quadratic search.
    -- Step size scaled by   0.927
 Iteration  1 RMS(Cart)=  0.17266430 RMS(Int)=  0.00526162
 Iteration  2 RMS(Cart)=  0.01133176 RMS(Int)=  0.00001288
 Iteration  3 RMS(Cart)=  0.00003308 RMS(Int)=  0.00000443
 Iteration  4 RMS(Cart)=  0.00000000 RMS(Int)=  0.00000443
 Variable       Old X    -DE/DX   Delta X   Delta X   Delta X     New X
                                 (Linear)    (Quad)   (Total)
    R1        2.49787  -0.00024   0.00000  -0.00022  -0.00022   2.49765
    R2        2.49659   0.00006   0.00000  -0.00068  -0.00068   2.49591
    R3        2.66994  -0.00002   0.00000   0.00031   0.00031   2.67026
    R4        2.52029   0.00011   0.00000   0.00014   0.00014   2.52043
    R5        2.06310  -0.00003   0.00000  -0.00004  -0.00004   2.06307
    R6        2.06575   0.00017   0.00000  -0.00013  -0.00013   2.06561
    R7        2.55999   0.00002   0.00000   0.00032   0.00032   2.56031
    R8        2.04762  -0.00005   0.00000  -0.00041  -0.00041   2.04721
    R9        2.68624  -0.00005   0.00000  -0.00047  -0.00047   2.68577
   R10        2.06311   0.00000   0.00000   0.00028   0.00028   2.06339
   R11        2.80082  -0.00003   0.00000  -0.00103  -0.00103   2.79978
   R12        1.97011   0.00005   0.00000  -0.00057  -0.00057   1.96954
   R13        2.73296  -0.00004   0.00000   0.00107   0.00107   2.73403
   R14        2.26902   0.00003   0.00000   0.00003   0.00003   2.26905
   R15        2.30739  -0.00024   0.00000   0.00008   0.00008   2.30747
   R16        2.48898   0.00005   0.00000   0.00058   0.00058   2.48955
   R17        3.19668  -0.00009   0.00000   0.00867   0.00867   3.20536
   R18        2.69583   0.00003   0.00000   0.00013   0.00013   2.69596
   R19        2.07317   0.00002   0.00000  -0.00029  -0.00029   2.07288
   R20        2.07068  -0.00002   0.00000  -0.00022  -0.00022   2.07046
   R21        2.07288  -0.00002   0.00000   0.00038   0.00038   2.07326
   R22        2.19145  -0.00007   0.00000  -0.00004  -0.00004   2.19141
    A1        1.92723   0.00002   0.00000   0.00013   0.00013   1.92736
    A2        2.18917  -0.00018   0.00000  -0.00359  -0.00359   2.18558
    A3        2.16678   0.00016   0.00000   0.00346   0.00346   2.17024
    A4        2.11388  -0.00005   0.00000  -0.00076  -0.00076   2.11312
    A5        2.12083   0.00007   0.00000   0.00159   0.00159   2.12242
    A6        2.04835  -0.00001   0.00000  -0.00079  -0.00079   2.04756
    A7        2.14884  -0.00003   0.00000  -0.00004  -0.00004   2.14880
    A8        1.88594   0.00000   0.00000  -0.00029  -0.00029   1.88565
    A9        2.24832   0.00002   0.00000   0.00035   0.00035   2.24867
   A10        2.13167  -0.00000   0.00000  -0.00193  -0.00193   2.12974
   A11        2.12058   0.00003   0.00000   0.00358   0.00358   2.12417
   A12        2.03078  -0.00003   0.00000  -0.00161  -0.00161   2.02917
   A13        1.91845   0.00002   0.00000   0.00028   0.00028   1.91874
   A14        2.12757  -0.00023   0.00000  -0.00488  -0.00489   2.12268
   A15        2.23640   0.00021   0.00000   0.00481   0.00480   2.24121
   A16        1.89512  -0.00001   0.00000  -0.00021  -0.00021   1.89491
   A17        1.79801  -0.00003   0.00000   0.00009   0.00009   1.79810
   A18        2.38455   0.00012   0.00000   0.00131   0.00131   2.38587
   A19        2.10062  -0.00009   0.00000  -0.00141  -0.00141   2.09921
   A20        2.17800  -0.00017   0.00000   0.00328   0.00328   2.18128
   A21        1.94967   0.00032   0.00000  -0.00108  -0.00108   1.94859
   A22        2.15552  -0.00015   0.00000  -0.00221  -0.00221   2.15331
   A23        2.22260  -0.00056   0.00000   0.01701   0.01701   2.23961
   A24        2.09323  -0.00029   0.00000  -0.00077  -0.00077   2.09246
   A25        1.88264   0.00008   0.00000   0.00349   0.00349   1.88613
   A26        1.93314  -0.00009   0.00000  -0.00035  -0.00035   1.93278
   A27        1.87759   0.00004   0.00000  -0.00310  -0.00310   1.87449
   A28        1.92603   0.00000   0.00000   0.00018   0.00017   1.92620
   A29        1.91503  -0.00004   0.00000  -0.00014  -0.00014   1.91488
   A30        1.92825   0.00002   0.00000  -0.00006  -0.00007   1.92818
   A31        2.83722  -0.00011   0.00000  -0.09351  -0.09351   2.74371
   A32        3.11803  -0.00011   0.00000  -0.00123  -0.00123   3.11680
   A33        3.16720  -0.00003   0.00000   0.00181   0.00181   3.16901
    D1        0.00483  -0.00000   0.00000  -0.00067  -0.00067   0.00416
    D2        3.10767   0.00005   0.00000   0.00496   0.00494   3.11261
    D3       -3.13698   0.00008   0.00000   0.00223   0.00223  -3.13475
    D4       -0.03414   0.00014   0.00000   0.00786   0.00784  -0.02630
    D5       -0.00286   0.00001   0.00000   0.00101   0.00100  -0.00186
    D6        3.13894  -0.00008   0.00000  -0.00185  -0.00186   3.13708
    D7       -0.01640   0.00005   0.00000   0.00489   0.00489  -0.01152
    D8       -3.13856  -0.00001   0.00000   0.00192   0.00192  -3.13664
    D9        3.10807   0.00017   0.00000   0.00767   0.00767   3.11574
   D10       -0.01409   0.00010   0.00000   0.00470   0.00470  -0.00938
   D11       -3.13350  -0.00005   0.00000  -0.00136  -0.00136  -3.13486
   D12        0.04991  -0.00009   0.00000  -0.00715  -0.00716   0.04275
   D13       -0.00477  -0.00001   0.00000   0.00004   0.00004  -0.00472
   D14       -3.10454  -0.00005   0.00000  -0.00574  -0.00576  -3.11030
   D15        0.00286   0.00001   0.00000   0.00052   0.00052   0.00338
   D16       -3.14056  -0.00002   0.00000   0.00108   0.00109  -3.13948
   D17        3.13063   0.00005   0.00000   0.00203   0.00202   3.13265
   D18       -0.01279   0.00002   0.00000   0.00259   0.00259  -0.01020
   D19       -0.24518   0.00015   0.00000   0.09808   0.09808  -0.14710
   D20        2.89523   0.00020   0.00000   0.09791   0.09791   2.99315
   D21        2.91478   0.00009   0.00000   0.09528   0.09528   3.01007
   D22       -0.22799   0.00014   0.00000   0.09512   0.09512  -0.13287
   D23       -0.01044  -0.00006   0.00000  -0.12931  -0.12931  -0.13974
   D24        3.08483  -0.00001   0.00000  -0.12275  -0.12275   2.96208
   D25       -0.00006  -0.00001   0.00000  -0.00092  -0.00092  -0.00098
   D26       -3.14020   0.00001   0.00000  -0.00137  -0.00137  -3.14157
   D27       -0.60299   0.00029   0.00000  -0.01583  -0.01583  -0.61882
   D28        2.53992   0.00023   0.00000  -0.01565  -0.01565   2.52427
   D29        3.11266  -0.00006   0.00000  -0.00978  -0.00978   3.10288
   D30       -0.03009  -0.00001   0.00000  -0.00994  -0.00994  -0.04004
   D31       -0.74925   0.00025   0.00000  -0.04004  -0.04004  -0.78928
   D32        2.09110  -0.00006   0.00000  -0.02955  -0.02954   2.06156
   D33       -0.01838  -0.00006   0.00000  -0.03176  -0.03176  -0.05014
   D34       -2.12739  -0.00005   0.00000  -0.02952  -0.02952  -2.15691
         Item               Value     Threshold  Converged?
 Maximum Force            0.000558     0.000450     NO 
 RMS     Force            0.000124     0.000300     YES
 Maximum Displacement     0.834375     0.001800     NO 
 RMS     Displacement     0.177781     0.001200     NO 
 Predicted change in Energy=-7.579931D-05
 GradGradGradGradGradGradGradGradGradGradGradGradGradGradGradGradGradGrad

                          Input orientation:                          
 ---------------------------------------------------------------------
 Center     Atomic      Atomic             Coordinates (Angstroms)
 Number     Number       Type             X           Y           Z
 ---------------------------------------------------------------------
      1          6           0        1.350257    0.756565   -0.026919
      2          6           0       -1.072594   -1.754205    1.769990
      3          6           0        2.318042   -1.063791   -0.770792
      4          6           0       -2.078410   -0.946663    1.430712
      5          7           0        1.141539   -0.411725   -0.608660
      6          1           0       -0.929166   -2.071478    2.804705
      7          1           0       -0.368159   -2.135440    1.026185
      8          1           0        2.394519   -2.040809   -1.232538
      9          1           0       -2.799952   -0.580921    2.164097
     10          8           0        2.637799    0.929432    0.211414
     11          6           0        3.353572   -0.238129   -0.255129
     12          8           0        4.547097   -0.302351   -0.140587
     13          6           0       -2.289809   -0.512377    0.030072
     14          8           0       -1.513832   -0.715699   -0.890533
     15          8           0       -3.431864    0.128611   -0.112852
     16          6           0       -3.790633    0.667051   -1.384336
     17          1           0       -4.713162    0.173959   -1.714542
     18          1           0       -2.989634    0.505334   -2.114184
     19          1           0       -3.973406    1.740026   -1.246516
     20          6           0        0.345736    1.694499    0.301557
     21          7           0       -0.507610    2.437256    0.556288
     22          1           0        0.181779   -0.737546   -0.851473
 ---------------------------------------------------------------------
                    Distance matrix (angstroms):
                    1          2          3          4          5
     1  C    0.000000
     2  C    3.924673   0.000000
     3  C    2.191723   4.292861   0.000000
     4  C    4.096515   1.333754   4.918245   0.000000
     5  N    1.321699   3.516050   1.354857   3.848801   0.000000
     6  H    4.605615   1.091728   4.933960   2.115142   4.323616
     7  H    3.525007   1.093076   3.404884   2.121743   2.814800
     8  H    3.220140   4.595453   1.083338   5.319507   2.147813
     9  H    4.879924   2.125013   5.919510   1.091899   4.822049
    10  O    1.320776   4.837157   2.244975   5.220063   2.170258
    11  C    2.248281   5.098092   1.421249   5.731537   2.246823
    12  O    3.369571   6.110574   2.438368   6.839698   3.439315
    13  C    3.855327   2.459890   4.709324   1.481582   3.491741
    14  O    3.334126   2.889908   3.849515   2.400057   2.687535
    15  O    4.823940   3.557561   5.908987   2.317464   4.631825
    16  C    5.317833   4.816636   6.378727   3.668824   5.108008
    17  H    6.320803   5.395693   7.201424   4.253273   5.986945
    18  H    4.822287   4.885423   5.695461   3.937628   4.491568
    19  H    5.549415   5.451941   6.904348   4.239912   5.585656
    20  C    1.413039   4.007681   3.556415   3.758618   2.428574
    21  N    2.572260   4.400071   4.690712   3.831833   3.491917
    22  H    2.068236   3.078818   2.162536   3.218782   1.042236
                    6          7          8          9         10
     6  H    0.000000
     7  H    1.865999   0.000000
     8  H    5.229450   3.569758   0.000000
     9  H    2.476284   3.102417   6.375809   0.000000
    10  O    5.334216   4.369563   3.311573   5.971874   0.000000
    11  C    5.573652   4.369535   2.263794   6.620878   1.446787
    12  O    6.464829   5.374134   2.974590   7.705083   2.299264
    13  C    3.461319   2.705423   5.086572   2.195223   5.137414
    14  O    3.979291   2.646137   4.141026   3.317082   4.599650
    15  O    4.428998   3.976131   6.317185   2.467234   6.130846
    16  C    5.765032   5.037647   6.753640   3.889763   6.628725
    17  H    6.307472   5.632402   7.460339   4.390222   7.636535
    18  H    5.922917   4.869058   6.020735   4.418101   6.103791
    19  H    6.340927   5.760400   7.405767   4.289064   6.818406
    20  C    4.698266   3.962722   4.528077   4.306036   2.418058
    21  N    5.055865   4.598891   5.628083   4.116950   3.505149
    22  H    4.047371   2.404608   2.596136   4.243692   3.152868
                   11         12         13         14         15
    11  C    0.000000
    12  O    1.200728   0.000000
    13  C    5.657235   6.842260   0.000000
    14  O    4.931879   6.121122   1.221063   0.000000
    15  O    6.796829   7.990640   1.317415   2.235284   0.000000
    16  C    7.289316   8.485540   2.375726   2.709181   1.426640
    17  H    8.208038   9.405137   3.063882   3.421431   2.051631
    18  H    6.651698   7.832609   2.474535   2.272935   2.083943
    19  H    7.653794   8.831385   3.088284   3.493825   2.043311
    20  C    3.618291   4.672723   3.448203   3.269269   4.110231
    21  N    4.767055   5.791472   3.486184   3.612049   3.785347
    22  H    3.265779   4.444182   2.633737   1.696202   3.788695
                   16         17         18         19         20
    16  C    0.000000
    17  H    1.096921   0.000000
    18  H    1.095642   1.800020   0.000000
    19  H    1.097122   1.794116   1.801422   0.000000
    20  C    4.583386   5.654126   4.286562   4.588419   0.000000
    21  N    4.204508   5.288275   4.126038   3.968372   1.159645
    22  H    4.246986   5.053333   3.632774   4.853863   2.696516
                   21         22
    21  N    0.000000
    22  H    3.540680   0.000000
 Stoichiometry    C8H8N2O4
 Framework group  C1[X(C8H8N2O4)]
 Deg. of freedom    60
 Full point group                 C1      NOp   1
 Largest Abelian subgroup         C1      NOp   1
 Largest concise Abelian subgroup C1      NOp   1
                         Standard orientation:                         
 ---------------------------------------------------------------------
 Center     Atomic      Atomic             Coordinates (Angstroms)
 Number     Number       Type             X           Y           Z
 ---------------------------------------------------------------------
      1          6           0        1.365858    0.720257    0.226020
      2          6           0       -1.042512   -2.230664    1.172001
      3          6           0        2.343994   -0.783123   -1.033642
      4          6           0       -2.052944   -1.363746    1.092138
      5          7           0        1.163791   -0.217467   -0.683228
      6          1           0       -0.897219   -2.846243    2.061845
      7          1           0       -0.335946   -2.364298    0.348762
      8          1           0        2.426032   -1.573465   -1.770020
      9          1           0       -2.776528   -1.241806    1.900717
     10          8           0        2.652403    0.819658    0.507749
     11          6           0        3.374814   -0.147287   -0.289955
     12          8           0        4.568693   -0.236726   -0.198296
     13          6           0       -2.266893   -0.525981   -0.110967
     14          8           0       -1.489813   -0.436043   -1.048545
     15          8           0       -3.412600    0.121901   -0.054522
     16          6           0       -3.774505    1.018898   -1.103199
     17          1           0       -4.694217    0.644263   -1.569047
     18          1           0       -2.972632    1.090714   -1.846349
     19          1           0       -3.963402    1.998407   -0.646520
     20          6           0        0.356008    1.508740    0.821987
     21          7           0       -0.501556    2.134467    1.288703
     22          1           0        0.205898   -0.459453   -1.015099
 ---------------------------------------------------------------------
 Rotational constants (GHZ):           1.3277235           0.3578786           0.3331239
 Standard basis: def2SVP (5D, 7F)
 There are   250 symmetry adapted cartesian basis functions of A   symmetry.
 There are   236 symmetry adapted basis functions of A   symmetry.
   236 basis functions,   406 primitive gaussians,   250 cartesian basis functions
    51 alpha electrons       51 beta electrons
       nuclear repulsion energy       849.2383172486 Hartrees.
 NAtoms=   22 NActive=   22 NUniq=   22 SFac= 1.00D+00 NAtFMM=   60 NAOKFM=F Big=F
 Integral buffers will be    131072 words long.
 Raffenetti 2 integral format.
 Two-electron integral symmetry is turned on.
 Nuclear repulsion after empirical dispersion term =      849.2264054756 Hartrees.
 ------------------------------------------------------------------------------
 Polarizable Continuum Model (PCM)
 =================================
 Model                : PCM.
 Atomic radii         : UFF (Universal Force Field).
 Polarization charges : Total charges.
 Charge compensation  : None.
 Solution method      : On-the-fly selection.
 Cavity type          : Scaled VdW (van der Waals Surface) (Alpha=1.100).
 Cavity algorithm     : GePol (No added spheres)
                        Default sphere list used, NSphG=   22.
                        Lebedev-Laikov grids with approx.  5.0 points / Ang**2.
                        Smoothing algorithm: York/Karplus (Gamma=1.0000).
                        Polarization charges: spherical gaussians, with
                                              point-specific exponents (IZeta= 3).
                        Self-potential: point-specific (ISelfS= 7).
                        Self-field    : sphere-specific E.n sum rule (ISelfD= 2).
 1st derivatives      : Analytical E(r).r(x)/FMM algorithm (CHGder, D1EAlg=3).
                        Cavity 1st derivative terms included.
 Solvent              : Toluene, Eps=   2.374100 Eps(inf)=   2.238315
 ------------------------------------------------------------------------------
 One-electron integrals computed using PRISM.
   1 Symmetry operations used in ECPInt.
 ECPInt:  NShTT=    5886 NPrTT=   21942 LenC2=    5529 LenP2D=   14859.
 LDataN:  DoStor=T MaxTD1= 4 Len=   56
 NBasis=   236 RedAO= T EigKep=  3.32D-04  NBF=   236
 NBsUse=   236 1.00D-06 EigRej= -1.00D+00 NBFU=   236
 Initial guess from the checkpoint file:  "cyclic-1_1_opt_sqm_re.chk"
 B after Tr=     0.000000   -0.000000    0.000000
         Rot=    0.991142   -0.132596    0.003045   -0.006777 Ang= -15.26 deg.
 ExpMin= 1.22D-01 ExpMax= 2.27D+03 ExpMxC= 3.41D+02 IAcc=3 IRadAn=         5 AccDes= 0.00D+00
 Harris functional with IExCor= 4639 and IRadAn=       5 diagonalized for initial guess.
 HarFok:  IExCor= 4639 AccDes= 0.00D+00 IRadAn=         5 IDoV= 1 UseB2=F ITyADJ=14
 ICtDFT=  3500011 ScaDFX=  1.000000  1.000000  1.000000  1.000000
 FoFCou: FMM=F IPFlag=           0 FMFlag=      100000 FMFlg1=           0
         NFxFlg=           0 DoJE=T BraDBF=F KetDBF=T FulRan=T
         wScrn=  0.000000 ICntrl=       500 IOpCl=  0 I1Cent=   200000004 NGrid=           0
         NMat0=    1 NMatS0=      1 NMatT0=    0 NMatD0=    1 NMtDS0=    0 NMtDT0=    0
 Petite list used in FoFCou.
 Requested convergence on RMS density matrix=1.00D-08 within 128 cycles.
 Requested convergence on MAX density matrix=1.00D-06.
 Requested convergence on             energy=1.00D-06.
 No special actions if energy rises.
 Inv3:  Mode=1 IEnd=    12241200.
 Iteration    1 A*A^-1 deviation from unit magnitude is 2.89D-15 for    915.
 Iteration    1 A*A^-1 deviation from orthogonality  is 1.45D-15 for   1715    162.
 Iteration    1 A^-1*A deviation from unit magnitude is 2.89D-15 for   1642.
 Iteration    1 A^-1*A deviation from orthogonality  is 1.85D-15 for    938    736.
 Error on total polarization charges =  0.00740
 SCF Done:  E(RwB97XD) =  -719.240350922     A.U. after   15 cycles
            NFock= 15  Conv=0.65D-08     -V/T= 2.0089
   1 Symmetry operations used in ECPInt.
 ECPInt:  NShTT=    5886 NPrTT=   21942 LenC2=    5529 LenP2D=   14859.
 LDataN:  DoStor=T MaxTD1= 5 Len=  102
 D1PCM: PCM CHGder 1st derivatives, ID1Alg=3 FixD1E=F DoIter=F DoCFld=F I1PDM=0.
 Calling FoFJK, ICntrl=      2127 FMM=F ISym2X=0 I1Cent= 0 IOpClX= 0 NMat=1 NMatS=1 NMatT=0.
 ***** Axes restored to original set *****
 -------------------------------------------------------------------
 Center     Atomic                   Forces (Hartrees/Bohr)
 Number     Number              X              Y              Z
 -------------------------------------------------------------------
      1        6          -0.000460395   -0.000252965   -0.000349348
      2        6          -0.000144373   -0.000085950    0.000064589
      3        6           0.000055666    0.000228146    0.000023158
      4        6          -0.000035483   -0.000050815    0.000201465
      5        7           0.000529517   -0.000674039   -0.000599916
      6        1           0.000138698    0.000129485    0.000003092
      7        1          -0.000086412   -0.000180211    0.000110703
      8        1           0.000054247   -0.000100320   -0.000035450
      9        1           0.000170273    0.000185582   -0.000086215
     10        8          -0.000139847   -0.000005888    0.000027797
     11        6           0.000311109    0.000104873    0.000143822
     12        8          -0.000142252   -0.000124820   -0.000040516
     13        6          -0.000467219    0.000088604   -0.001022806
     14        8          -0.000353039   -0.000705590    0.000300842
     15        8           0.000025580   -0.000091304    0.000131831
     16        6           0.000278181    0.000608370    0.000263763
     17        1          -0.000119561   -0.000274901   -0.000030942
     18        1          -0.000026378    0.000026006    0.000008056
     19        1           0.000071599   -0.000248923   -0.000058803
     20        6           0.000045161    0.000242557    0.000194389
     21        7           0.000024715   -0.000092440    0.000162514
     22        1           0.000270214    0.001274542    0.000587975
 -------------------------------------------------------------------
 Cartesian Forces:  Max     0.001274542 RMS     0.000322248

 GradGradGradGradGradGradGradGradGradGradGradGradGradGradGradGradGradGrad
 Berny optimization.
 FormGI is forming the generalized inverse of G from B-inverse, IUseBI=4.
 Internal  Forces:  Max     0.001101504 RMS     0.000276936
 Search for a saddle point.
 Step number   2 out of a maximum of   50
 All quantities printed in internal units (Hartrees-Bohrs-Radians)
 Swapping is turned off.
 Update second derivatives using D2CorX and points    1    2
 ITU=  0  0
     Eigenvalues ---   -0.00152  -0.00076   0.00030   0.00428   0.00630
     Eigenvalues ---    0.00884   0.01149   0.01532   0.01717   0.01935
     Eigenvalues ---    0.02097   0.02456   0.02586   0.02868   0.03792
     Eigenvalues ---    0.03843   0.04321   0.04831   0.05455   0.05948
     Eigenvalues ---    0.06045   0.08309   0.08469   0.09530   0.10371
     Eigenvalues ---    0.10515   0.11025   0.11051   0.11114   0.12548
     Eigenvalues ---    0.13859   0.14094   0.14200   0.15515   0.16981
     Eigenvalues ---    0.19382   0.19719   0.22473   0.23858   0.25336
     Eigenvalues ---    0.25830   0.26148   0.26199   0.27052   0.27079
     Eigenvalues ---    0.27582   0.28081   0.29337   0.40807   0.41343
     Eigenvalues ---    0.43709   0.44080   0.52501   0.59849   0.60856
     Eigenvalues ---    0.77846   0.78843   0.90793   0.91541   1.27315
 Eigenvectors required to have negative eigenvalues:
                          D31       D33       D32       D34       D24
   1                   -0.45734   0.43173   0.41570   0.41308   0.20715
                          D23       D20       D19       D22       D21
   1                    0.20290  -0.17706  -0.17249  -0.16892  -0.16435
 RFO step:  Lambda0=9.631228960D-05 Lambda=-7.84673781D-04.
 Linear search not attempted -- option 19 set.
 Maximum step size (   0.100) exceeded in Quadratic search.
    -- Step size scaled by   0.848
 Iteration  1 RMS(Cart)=  0.17325061 RMS(Int)=  0.00747056
 Iteration  2 RMS(Cart)=  0.01481067 RMS(Int)=  0.00007435
 Iteration  3 RMS(Cart)=  0.00011971 RMS(Int)=  0.00001113
 Iteration  4 RMS(Cart)=  0.00000002 RMS(Int)=  0.00001113
 Variable       Old X    -DE/DX   Delta X   Delta X   Delta X     New X
                                 (Linear)    (Quad)   (Total)
    R1        2.49765  -0.00009   0.00000   0.00014   0.00014   2.49779
    R2        2.49591   0.00003   0.00000   0.00058   0.00058   2.49648
    R3        2.67026   0.00013   0.00000  -0.00022  -0.00022   2.67003
    R4        2.52043   0.00006   0.00000  -0.00014  -0.00014   2.52028
    R5        2.06307  -0.00002   0.00000   0.00013   0.00013   2.06320
    R6        2.06561  -0.00007   0.00000   0.00015   0.00015   2.06577
    R7        2.56031   0.00008   0.00000  -0.00028  -0.00028   2.56003
    R8        2.04721   0.00011   0.00000   0.00037   0.00037   2.04758
    R9        2.68577  -0.00001   0.00000   0.00025   0.00025   2.68602
   R10        2.06339  -0.00011   0.00000   0.00019   0.00019   2.06358
   R11        2.79978   0.00029   0.00000   0.00062   0.00062   2.80041
   R12        1.96954  -0.00007   0.00000   0.00071   0.00071   1.97025
   R13        2.73403   0.00002   0.00000  -0.00076  -0.00077   2.73327
   R14        2.26905  -0.00014   0.00000  -0.00009  -0.00009   2.26896
   R15        2.30747  -0.00016   0.00000  -0.00043  -0.00043   2.30705
   R16        2.48955  -0.00022   0.00000   0.00032   0.00032   2.48988
   R17        3.20536   0.00054   0.00000  -0.00667  -0.00667   3.19868
   R18        2.69596  -0.00017   0.00000  -0.00005  -0.00005   2.69591
   R19        2.07288   0.00023   0.00000   0.00103   0.00103   2.07391
   R20        2.07046  -0.00003   0.00000   0.00025   0.00025   2.07071
   R21        2.07326  -0.00026   0.00000  -0.00114  -0.00114   2.07212
   R22        2.19141  -0.00004   0.00000  -0.00004  -0.00004   2.19137
    A1        1.92736  -0.00008   0.00000  -0.00020  -0.00020   1.92716
    A2        2.18558   0.00043   0.00000   0.00295   0.00295   2.18852
    A3        2.17024  -0.00035   0.00000  -0.00276  -0.00276   2.16748
    A4        2.11312  -0.00003   0.00000  -0.00014  -0.00014   2.11297
    A5        2.12242   0.00015   0.00000   0.00041   0.00041   2.12283
    A6        2.04756  -0.00011   0.00000  -0.00028  -0.00028   2.04728
    A7        2.14880   0.00002   0.00000  -0.00025  -0.00025   2.14855
    A8        1.88565   0.00004   0.00000   0.00038   0.00038   1.88603
    A9        2.24867  -0.00007   0.00000  -0.00010  -0.00010   2.24856
   A10        2.12974  -0.00018   0.00000  -0.00005  -0.00005   2.12968
   A11        2.12417   0.00051   0.00000   0.00038   0.00038   2.12455
   A12        2.02917  -0.00033   0.00000  -0.00034  -0.00034   2.02884
   A13        1.91874   0.00003   0.00000  -0.00023  -0.00023   1.91850
   A14        2.12268  -0.00036   0.00000   0.00296   0.00296   2.12564
   A15        2.24121   0.00033   0.00000  -0.00271  -0.00271   2.23850
   A16        1.89491   0.00012   0.00000   0.00028   0.00028   1.89519
   A17        1.79810  -0.00011   0.00000  -0.00023  -0.00023   1.79788
   A18        2.38587  -0.00010   0.00000  -0.00053  -0.00053   2.38533
   A19        2.09921   0.00021   0.00000   0.00076   0.00076   2.09997
   A20        2.18128   0.00041   0.00000  -0.00008  -0.00008   2.18120
   A21        1.94859  -0.00046   0.00000  -0.00023  -0.00023   1.94837
   A22        2.15331   0.00005   0.00000   0.00030   0.00030   2.15361
   A23        2.23961   0.00043   0.00000  -0.00827  -0.00827   2.23134
   A24        2.09246  -0.00013   0.00000  -0.00003  -0.00003   2.09244
   A25        1.88613  -0.00021   0.00000  -0.01493  -0.01493   1.87119
   A26        1.93278   0.00002   0.00000   0.00051   0.00048   1.93326
   A27        1.87449   0.00009   0.00000   0.01463   0.01462   1.88911
   A28        1.92620  -0.00002   0.00000   0.00001  -0.00002   1.92618
   A29        1.91488   0.00013   0.00000  -0.00035  -0.00032   1.91457
   A30        1.92818  -0.00002   0.00000   0.00016   0.00012   1.92830
   A31        2.74371   0.00105   0.00000   0.09086   0.09086   2.83457
   A32        3.11680  -0.00027   0.00000  -0.00001  -0.00001   3.11679
   A33        3.16901  -0.00029   0.00000  -0.00242  -0.00242   3.16659
    D1        0.00416  -0.00000   0.00000   0.00039   0.00039   0.00455
    D2        3.11261  -0.00011   0.00000   0.00082   0.00082   3.11343
    D3       -3.13475   0.00033   0.00000   0.00481   0.00481  -3.12994
    D4       -0.02630   0.00022   0.00000   0.00523   0.00523  -0.02107
    D5       -0.00186   0.00002   0.00000  -0.00058  -0.00058  -0.00244
    D6        3.13708  -0.00030   0.00000  -0.00493  -0.00492   3.13216
    D7       -0.01152  -0.00010   0.00000  -0.00160  -0.00160  -0.01312
    D8       -3.13664  -0.00023   0.00000  -0.00122  -0.00122  -3.13786
    D9        3.11574  -0.00009   0.00000  -0.00296  -0.00296   3.11278
   D10       -0.00938  -0.00022   0.00000  -0.00258  -0.00258  -0.01196
   D11       -3.13486  -0.00005   0.00000  -0.00224  -0.00224  -3.13710
   D12        0.04275   0.00009   0.00000  -0.00284  -0.00284   0.03991
   D13       -0.00472  -0.00002   0.00000  -0.00004  -0.00004  -0.00477
   D14       -3.11030   0.00012   0.00000  -0.00064  -0.00064  -3.11094
   D15        0.00338   0.00003   0.00000  -0.00028  -0.00029   0.00309
   D16       -3.13948  -0.00003   0.00000  -0.00055  -0.00055  -3.14003
   D17        3.13265   0.00006   0.00000   0.00208   0.00208   3.13473
   D18       -0.01020  -0.00000   0.00000   0.00181   0.00182  -0.00839
   D19       -0.14710  -0.00038   0.00000  -0.03714  -0.03714  -0.18424
   D20        2.99315  -0.00002   0.00000  -0.03888  -0.03888   2.95427
   D21        3.01007  -0.00050   0.00000  -0.03679  -0.03679   2.97328
   D22       -0.13287  -0.00014   0.00000  -0.03852  -0.03852  -0.17140
   D23       -0.13974   0.00068   0.00000   0.04152   0.04152  -0.09822
   D24        2.96208   0.00053   0.00000   0.04211   0.04211   3.00419
   D25       -0.00098  -0.00003   0.00000   0.00052   0.00052  -0.00046
   D26       -3.14157   0.00002   0.00000   0.00073   0.00073  -3.14084
   D27       -0.61882  -0.00001   0.00000   0.00996   0.00996  -0.60886
   D28        2.52427  -0.00040   0.00000   0.01190   0.01190   2.53616
   D29        3.10288  -0.00039   0.00000   0.00545   0.00545   3.10832
   D30       -0.04004  -0.00003   0.00000   0.00374   0.00374  -0.03629
   D31       -0.78928   0.00110   0.00000   0.11601   0.11601  -0.67327
   D32        2.06156  -0.00016   0.00000   0.17202   0.17207   2.23364
   D33       -0.05014  -0.00002   0.00000   0.18122   0.18122   0.13109
   D34       -2.15691  -0.00006   0.00000   0.17156   0.17150  -1.98540
         Item               Value     Threshold  Converged?
 Maximum Force            0.001102     0.000450     NO 
 RMS     Force            0.000277     0.000300     YES
 Maximum Displacement     0.830517     0.001800     NO 
 RMS     Displacement     0.180174     0.001200     NO 
 Predicted change in Energy=-1.931081D-04
 GradGradGradGradGradGradGradGradGradGradGradGradGradGradGradGradGradGrad

                          Input orientation:                          
 ---------------------------------------------------------------------
 Center     Atomic      Atomic             Coordinates (Angstroms)
 Number     Number       Type             X           Y           Z
 ---------------------------------------------------------------------
      1          6           0        1.415464    0.721565    0.114144
      2          6           0       -1.081891   -1.631358    1.797247
      3          6           0        2.305260   -1.012730   -0.887398
      4          6           0       -2.096274   -0.853013    1.417905
      5          7           0        1.153084   -0.363756   -0.593186
      6          1           0       -0.936687   -1.896086    2.846464
      7          1           0       -0.372338   -2.041490    1.073838
      8          1           0        2.337463   -1.929192   -1.464551
      9          1           0       -2.824077   -0.461504    2.131689
     10          8           0        2.716491    0.840587    0.310154
     11          6           0        3.382458   -0.274832   -0.325729
     12          8           0        4.577893   -0.375379   -0.276077
     13          6           0       -2.309909   -0.488340   -0.002460
     14          8           0       -1.513581   -0.693049   -0.904900
     15          8           0       -3.479985    0.089286   -0.184961
     16          6           0       -3.850527    0.550048   -1.483279
     17          1           0       -4.836943    0.125388   -1.709292
     18          1           0       -3.117360    0.231185   -2.232622
     19          1           0       -3.917284    1.644113   -1.453039
     20          6           0        0.452043    1.630506    0.606065
     21          7           0       -0.367855    2.352047    0.995778
     22          1           0        0.176665   -0.642395   -0.829832
 ---------------------------------------------------------------------
                    Distance matrix (angstroms):
                    1          2          3          4          5
     1  C    0.000000
     2  C    3.821761   0.000000
     3  C    2.191483   4.366098   0.000000
     4  C    4.063422   1.333677   4.971261   0.000000
     5  N    1.321771   3.509429   1.354710   3.852556   0.000000
     6  H    4.455366   1.091797   5.023173   2.115047   4.306550
     7  H    3.428079   1.093157   3.474814   2.121984   2.814369
     8  H    3.220072   4.734977   1.083534   5.396734   2.147701
     9  H    4.841885   2.124999   5.977361   1.092000   4.822065
    10  O    1.321082   4.769660   2.244555   5.220929   2.170416
    11  C    2.248413   5.126168   1.421379   5.778500   2.247121
    12  O    3.369942   6.157053   2.438193   6.902334   3.439478
    13  C    3.918657   2.460379   4.728413   1.481912   3.515224
    14  O    3.408649   2.892815   3.832238   2.400113   2.704940
    15  O    4.945166   3.555365   5.931013   2.317706   4.673031
    16  C    5.505619   4.815156   6.378955   3.669176   5.163664
    17  H    6.540103   5.429769   7.278866   4.271756   6.112722
    18  H    5.127795   4.883855   5.723789   3.942645   4.612851
    19  H    5.634302   5.415950   6.789611   4.218297   5.520825
    20  C    1.412920   3.796264   3.556901   3.649778   2.430379
    21  N    2.572155   4.125495   4.691868   3.665793   3.494803
    22  H    2.070289   3.076289   2.161337   3.203582   1.042609
                    6          7          8          9         10
     6  H    0.000000
     7  H    1.865967   0.000000
     8  H    5.413501   3.714707   0.000000
     9  H    2.476120   3.102648   6.459763   0.000000
    10  O    5.221873   4.293070   3.311332   5.975895   0.000000
    11  C    5.598775   4.379311   2.264031   6.677936   1.446382
    12  O    6.517162   5.394718   2.974278   7.784209   2.299360
    13  C    3.461771   2.706450   5.080534   2.195377   5.208500
    14  O    3.981562   2.652571   4.083111   3.315401   4.660676
    15  O    4.427144   3.972688   6.289221   2.469909   6.261462
    16  C    5.763741   5.035148   6.666198   3.891636   6.813702
    17  H    6.328765   5.689804   7.466812   4.375981   7.851372
    18  H    5.922646   4.861365   5.917115   4.428661   6.393035
    19  H    6.316858   5.703982   7.203505   4.298720   6.910967
    20  C    4.402819   3.792357   4.529206   4.175764   2.416456
    21  N    4.668538   4.394233   5.630361   3.903766   3.502539
    22  H    4.040600   2.425455   2.593793   4.219927   3.154286
                   11         12         13         14         15
    11  C    0.000000
    12  O    1.200682   0.000000
    13  C    5.705536   6.894160   0.000000
    14  O    4.947883   6.132078   1.220837   0.000000
    15  O    6.873538   8.071778   1.317587   2.235421   0.000000
    16  C    7.371324   8.564578   2.375832   2.709452   1.426616
    17  H    8.344638   9.536456   3.110600   3.515910   2.041133
    18  H    6.792638   7.963222   2.478571   2.277973   2.084358
    19  H    7.631475   8.810880   3.038945   3.397141   2.053470
    20  C    3.617442   4.671657   3.533864   3.397882   4.296735
    21  N    4.765682   5.789377   3.582716   3.768007   4.024871
    22  H    3.265935   4.443956   2.625134   1.692670   3.784482
[...]
    13  C    5.704118   6.891979   0.000000
    14  O    4.947595   6.130674   1.220868   0.000000
    15  O    6.882248   8.080184   1.317418   2.235970   0.000000
    16  C    7.396474   8.590021   2.376113   2.711125   1.426597
    17  H    8.317440   9.507210   3.083596   3.464679   2.047790
    18  H    6.774604   7.945305   2.475386   2.273828   2.084407
    19  H    7.757972   8.941219   3.069655   3.456314   2.047035
    20  C    3.617036   4.671194   3.553658   3.420162   4.334317
    21  N    4.765005   5.788362   3.612884   3.797548   4.077771
    22  H    3.265757   4.443635   2.621890   1.691247   3.784284
                   16         17         18         19         20
    16  C    0.000000
    17  H    1.096962   0.000000
    18  H    1.095685   1.800519   0.000000
    19  H    1.097081   1.793838   1.800903   0.000000
    20  C    4.966695   6.019866   4.760456   4.982242   0.000000
    21  N    4.719791   5.771326   4.737429   4.529850   1.159615
    22  H    4.257292   5.101120   3.665960   4.815970   2.705873
                   21         22
    21  N    0.000000
    22  H    3.553875   0.000000
 Stoichiometry    C8H8N2O4
 Framework group  C1[X(C8H8N2O4)]
 Deg. of freedom    60
 Full point group                 C1      NOp   1
 Largest Abelian subgroup         C1      NOp   1
 Largest concise Abelian subgroup C1      NOp   1
                         Standard orientation:                         
 ---------------------------------------------------------------------
 Center     Atomic      Atomic             Coordinates (Angstroms)
 Number     Number       Type             X           Y           Z
 ---------------------------------------------------------------------
      1          6           0        1.426792    0.737197    0.032408
      2          6           0       -1.070498   -1.421748    1.959753
      3          6           0        2.294077   -1.095067   -0.800051
      4          6           0       -2.069207   -0.661191    1.509192
      5          7           0        1.149738   -0.409200   -0.564176
      6          1           0       -0.903942   -1.557368    3.030106
      7          1           0       -0.396367   -1.944842    1.276324
      8          1           0        2.314202   -2.063603   -1.285268
      9          1           0       -2.764974   -0.157924    2.183417
     10          8           0        2.730043    0.861283    0.210053
     11          6           0        3.381488   -0.317211   -0.317528
     12          8           0        4.576182   -0.424867   -0.263988
     13          6           0       -2.308071   -0.473398    0.058622
     14          8           0       -1.518941   -0.774421   -0.822955
     15          8           0       -3.488832    0.062023   -0.175302
     16          6           0       -3.886904    0.350112   -1.514601
     17          1           0       -4.817312   -0.196378   -1.712121
     18          1           0       -3.108804    0.048776   -2.224730
     19          1           0       -4.070586    1.429538   -1.583071
     20          6           0        0.476505    1.702148    0.434943
     21          7           0       -0.331849    2.470237    0.753236
     22          1           0        0.169855   -0.702653   -0.766989
 ---------------------------------------------------------------------
 Rotational constants (GHZ):           1.3236812           0.3433112           0.3317507

 **********************************************************************

            Population analysis using the SCF Density.

 **********************************************************************

 Orbital symmetries:
       Occupied  (A) (A) (A) (A) (A) (A) (A) (A) (A) (A) (A) (A)
                 (A) (A) (A) (A) (A) (A) (A) (A) (A) (A) (A) (A)
                 (A) (A) (A) (A) (A) (A) (A) (A) (A) (A) (A) (A)
                 (A) (A) (A) (A) (A) (A) (A) (A) (A) (A) (A) (A)
                 (A) (A) (A)
       Virtual   (A) (A) (A) (A) (A) (A) (A) (A) (A) (A) (A) (A)
                 (A) (A) (A) (A) (A) (A) (A) (A) (A) (A) (A) (A)
                 (A) (A) (A) (A) (A) (A) (A) (A) (A) (A) (A) (A)
                 (A) (A) (A) (A) (A) (A) (A) (A) (A) (A) (A) (A)
                 (A) (A) (A) (A) (A) (A) (A) (A) (A) (A) (A) (A)
                 (A) (A) (A) (A) (A) (A) (A) (A) (A) (A) (A) (A)
                 (A) (A) (A) (A) (A) (A) (A) (A) (A) (A) (A) (A)
                 (A) (A) (A) (A) (A) (A) (A) (A) (A) (A) (A) (A)
                 (A) (A) (A) (A) (A) (A) (A) (A) (A) (A) (A) (A)
                 (A) (A) (A) (A) (A) (A) (A) (A) (A) (A) (A) (A)
                 (A) (A) (A) (A) (A) (A) (A) (A) (A) (A) (A) (A)
                 (A) (A) (A) (A) (A) (A) (A) (A) (A) (A) (A) (A)
                 (A) (A) (A) (A) (A) (A) (A) (A) (A) (A) (A) (A)
                 (A) (A) (A) (A) (A) (A) (A) (A) (A) (A) (A) (A)
                 (A) (A) (A) (A) (A) (A) (A) (A) (A) (A) (A) (A)
                 (A) (A) (A) (A) (A)
 The electronic state is 1-A.
 Alpha  occ. eigenvalues --  -19.34376 -19.33290 -19.28142 -19.22779 -14.55629
 Alpha  occ. eigenvalues --  -14.47840 -10.46540 -10.44145 -10.42495 -10.37474
 Alpha  occ. eigenvalues --  -10.36809 -10.34474 -10.34191 -10.33617  -1.25495
 Alpha  occ. eigenvalues --   -1.23642  -1.14267  -1.12552  -1.08772  -1.02659
 Alpha  occ. eigenvalues --   -0.91444  -0.89546  -0.85050  -0.78489  -0.74545
 Alpha  occ. eigenvalues --   -0.73370  -0.72230  -0.66978  -0.63743  -0.63062
 Alpha  occ. eigenvalues --   -0.61213  -0.60271  -0.59843  -0.56965  -0.55639
 Alpha  occ. eigenvalues --   -0.52886  -0.52328  -0.51706  -0.50540  -0.49456
 Alpha  occ. eigenvalues --   -0.48817  -0.48109  -0.46729  -0.46067  -0.45846
 Alpha  occ. eigenvalues --   -0.44169  -0.41615  -0.40745  -0.39034  -0.36762
 Alpha  occ. eigenvalues --   -0.28376
 Alpha virt. eigenvalues --   -0.01047  -0.00226   0.05958   0.12846   0.13921
 Alpha virt. eigenvalues --    0.14356   0.15706   0.16201   0.17953   0.18626
 Alpha virt. eigenvalues --    0.19004   0.19889   0.20691   0.21401   0.21811
 Alpha virt. eigenvalues --    0.23476   0.25318   0.26783   0.30553   0.33887
 Alpha virt. eigenvalues --    0.34206   0.35377   0.36856   0.37586   0.38633
 Alpha virt. eigenvalues --    0.43440   0.45744   0.47487   0.48095   0.50003
 Alpha virt. eigenvalues --    0.50762   0.51988   0.53007   0.53825   0.54769
 Alpha virt. eigenvalues --    0.56195   0.57503   0.58538   0.60313   0.60669
 Alpha virt. eigenvalues --    0.62586   0.64529   0.65948   0.66761   0.67769
 Alpha virt. eigenvalues --    0.68655   0.70173   0.70335   0.71405   0.72232
 Alpha virt. eigenvalues --    0.72948   0.73466   0.73781   0.74613   0.75022
 Alpha virt. eigenvalues --    0.75633   0.77550   0.78412   0.80066   0.81546
 Alpha virt. eigenvalues --    0.82210   0.83101   0.88000   0.89831   0.92050
 Alpha virt. eigenvalues --    0.93452   0.96186   0.97038   1.01452   1.03006
 Alpha virt. eigenvalues --    1.05990   1.09580   1.10231   1.10607   1.13071
 Alpha virt. eigenvalues --    1.15305   1.16507   1.17199   1.18629   1.21590
 Alpha virt. eigenvalues --    1.22419   1.27109   1.28009   1.29554   1.30528
 Alpha virt. eigenvalues --    1.32061   1.34454   1.36749   1.37310   1.39682
 Alpha virt. eigenvalues --    1.43430   1.44632   1.50549   1.51693   1.52112
 Alpha virt. eigenvalues --    1.58030   1.58880   1.60453   1.62848   1.64098
 Alpha virt. eigenvalues --    1.66061   1.66711   1.68077   1.70954   1.71660
 Alpha virt. eigenvalues --    1.71943   1.74995   1.76685   1.76911   1.78536
 Alpha virt. eigenvalues --    1.79489   1.80313   1.81565   1.83761   1.85409
 Alpha virt. eigenvalues --    1.88317   1.89100   1.91294   1.92246   1.93786
 Alpha virt. eigenvalues --    1.95434   1.97605   2.02592   2.03369   2.04720
 Alpha virt. eigenvalues --    2.06397   2.07548   2.12806   2.12937   2.14895
 Alpha virt. eigenvalues --    2.19724   2.19893   2.22866   2.28540   2.29152
 Alpha virt. eigenvalues --    2.29857   2.31756   2.32482   2.33966   2.38984
 Alpha virt. eigenvalues --    2.39763   2.40568   2.41523   2.47434   2.50223
 Alpha virt. eigenvalues --    2.52744   2.55890   2.63007   2.64417   2.69557
 Alpha virt. eigenvalues --    2.70776   2.73200   2.73622   2.76313   2.79788
 Alpha virt. eigenvalues --    2.80278   2.83689   2.85076   2.86749   2.87890
 Alpha virt. eigenvalues --    2.93781   2.94423   2.95957   2.98753   3.01586
 Alpha virt. eigenvalues --    3.01790   3.03792   3.07341   3.12083   3.12307
 Alpha virt. eigenvalues --    3.14584   3.18134   3.27339   3.29160   3.30081
 Alpha virt. eigenvalues --    3.36669   3.38205   3.45964   3.49158   3.51814
 Alpha virt. eigenvalues --    3.70276   3.74270   3.75886   3.75992   3.83238
          Condensed to atoms (all electrons):
               1          2          3          4          5          6
     1  C    5.205230   0.004045  -0.109757   0.000916   0.562688  -0.000035
     2  C    0.004045   4.687600  -0.000889   0.599251  -0.000620   0.390826
     3  C   -0.109757  -0.000889   5.296195   0.000291   0.364844  -0.000006
     4  C    0.000916   0.599251   0.000291   5.044210  -0.000767  -0.012248
     5  N    0.562688  -0.000620   0.364844  -0.000767   6.058827   0.000034
     6  H   -0.000035   0.390826  -0.000006  -0.012248   0.000034   0.566967
     7  H   -0.000577   0.398121   0.001735  -0.026556   0.001912  -0.033871
     8  H    0.005355   0.000007   0.415406  -0.000002  -0.027833  -0.000000
     9  H   -0.000014  -0.023530   0.000001   0.391324   0.000003  -0.010234
    10  O    0.453362  -0.000040  -0.125129   0.000012  -0.082214  -0.000001
    11  C   -0.083006  -0.000110   0.359443  -0.000004  -0.030058   0.000001
    12  O    0.002331   0.000000  -0.076904  -0.000000   0.001502   0.000000
    13  C   -0.000324  -0.035091  -0.000018   0.304940   0.000646   0.007665
    14  O   -0.005119   0.010148  -0.000352  -0.101468  -0.030503   0.000232
    15  O   -0.000009   0.004662  -0.000001  -0.099885  -0.000022  -0.000076
    16  C   -0.000003  -0.000215  -0.000000   0.006678   0.000002   0.000004
    17  H   -0.000000   0.000037  -0.000000  -0.000263   0.000000  -0.000000
    18  H    0.000027  -0.000034  -0.000001   0.002325   0.000010  -0.000000
    19  H    0.000001  -0.000014   0.000000  -0.000060  -0.000001  -0.000000
    20  C    0.031861  -0.002201   0.015293  -0.000049  -0.133588   0.000062
    21  N   -0.095818  -0.000859   0.000197   0.000527  -0.004574   0.000001
    22  H   -0.000229   0.000879  -0.016892  -0.001306   0.342688  -0.000005
               7          8          9         10         11         12
     1  C   -0.000577   0.005355  -0.000014   0.453362  -0.083006   0.002331
     2  C    0.398121   0.000007  -0.023530  -0.000040  -0.000110   0.000000
     3  C    0.001735   0.415406   0.000001  -0.125129   0.359443  -0.076904
     4  C   -0.026556  -0.000002   0.391324   0.000012  -0.000004  -0.000000
     5  N    0.001912  -0.027833   0.000003  -0.082214  -0.030058   0.001502
     6  H   -0.033871  -0.000000  -0.010234  -0.000001   0.000001   0.000000
     7  H    0.590480   0.000052   0.006457  -0.000007   0.000047  -0.000001
     8  H    0.000052   0.560025   0.000000   0.003682  -0.025087   0.001303
     9  H    0.006457   0.000000   0.579819   0.000000   0.000000  -0.000000
    10  O   -0.000007   0.003682   0.000000   7.900011   0.261461  -0.064791
    11  C    0.000047  -0.025087   0.000000   0.261461   4.495201   0.764441
    12  O   -0.000001   0.001303  -0.000000  -0.064791   0.764441   7.631220
    13  C   -0.016054   0.000008  -0.029117  -0.000002  -0.000002   0.000000
    14  O    0.006283   0.000084   0.002849  -0.000004  -0.000024   0.000000
    15  O    0.000287   0.000000   0.007004  -0.000000   0.000000   0.000000
    16  C    0.000011   0.000000  -0.000228  -0.000000   0.000000  -0.000000
    17  H    0.000001   0.000000  -0.000044   0.000000   0.000000  -0.000000
    18  H   -0.000037  -0.000000  -0.000002   0.000000  -0.000000  -0.000000
    19  H   -0.000001  -0.000000  -0.000053   0.000000  -0.000000   0.000000
    20  C   -0.000686  -0.000388   0.000038  -0.088702  -0.006075  -0.000284
    21  N    0.000035  -0.000001   0.000239  -0.002255  -0.000108  -0.000000
    22  H    0.001384  -0.004254  -0.000047   0.001517   0.006392  -0.000027
              13         14         15         16         17         18
     1  C   -0.000324  -0.005119  -0.000009  -0.000003  -0.000000   0.000027
     2  C   -0.035091   0.010148   0.004662  -0.000215   0.000037  -0.000034
     3  C   -0.000018  -0.000352  -0.000001  -0.000000  -0.000000  -0.000001
     4  C    0.304940  -0.101468  -0.099885   0.006678  -0.000263   0.002325
     5  N    0.000646  -0.030503  -0.000022   0.000002   0.000000   0.000010
     6  H    0.007665   0.000232  -0.000076   0.000004  -0.000000  -0.000000
     7  H   -0.016054   0.006283   0.000287   0.000011   0.000001  -0.000037
     8  H    0.000008   0.000084   0.000000   0.000000   0.000000  -0.000000
     9  H   -0.029117   0.002849   0.007004  -0.000228  -0.000044  -0.000002
    10  O   -0.000002  -0.000004  -0.000000  -0.000000   0.000000   0.000000
    11  C   -0.000002  -0.000024   0.000000   0.000000   0.000000  -0.000000
    12  O    0.000000   0.000000   0.000000  -0.000000  -0.000000  -0.000000
    13  C    4.508892   0.601868   0.397418  -0.032142   0.001857  -0.010316
    14  O    0.601868   7.834744  -0.075860  -0.015505   0.000144   0.026906
    15  O    0.397418  -0.075860   7.890899   0.254072  -0.023109  -0.025640
    16  C   -0.032142  -0.015505   0.254072   4.471807   0.405623   0.398867
    17  H    0.001857   0.000144  -0.023109   0.405623   0.582779  -0.020404
    18  H   -0.010316   0.026906  -0.025640   0.398867  -0.020404   0.575007
    19  H    0.001663   0.000283  -0.023593   0.406774  -0.020628  -0.019854
    20  C    0.003134   0.005874  -0.000439   0.000030  -0.000002  -0.000007
    21  N    0.000804  -0.000566   0.000062  -0.000071   0.000002  -0.000004
    22  H   -0.006836   0.071861   0.000520  -0.000021  -0.000007   0.000100
              19         20         21         22
     1  C    0.000001   0.031861  -0.095818  -0.000229
     2  C   -0.000014  -0.002201  -0.000859   0.000879
     3  C    0.000000   0.015293   0.000197  -0.016892
     4  C   -0.000060  -0.000049   0.000527  -0.001306
     5  N   -0.000001  -0.133588  -0.004574   0.342688
     6  H   -0.000000   0.000062   0.000001  -0.000005
     7  H   -0.000001  -0.000686   0.000035   0.001384
     8  H   -0.000000  -0.000388  -0.000001  -0.004254
     9  H   -0.000053   0.000038   0.000239  -0.000047
    10  O    0.000000  -0.088702  -0.002255   0.001517
    11  C   -0.000000  -0.006075  -0.000108   0.006392
    12  O    0.000000  -0.000284  -0.000000  -0.000027
    13  C    0.001663   0.003134   0.000804  -0.006836
    14  O    0.000283   0.005874  -0.000566   0.071861
    15  O   -0.023593  -0.000439   0.000062   0.000520
    16  C    0.406774   0.000030  -0.000071  -0.000021
    17  H   -0.020628  -0.000002   0.000002  -0.000007
    18  H   -0.019854  -0.000007  -0.000004   0.000100
    19  H    0.576789   0.000060   0.000032   0.000018
    20  C    0.000060   5.401212   0.857796  -0.023812
    21  N    0.000032   0.857796   6.168599  -0.000391
    22  H    0.000018  -0.023812  -0.000391   0.431959
 Mulliken charges:
               1
     1  C    0.029075
     2  C   -0.031973
     3  C   -0.123455
     4  C   -0.107866
     5  N   -0.022975
     6  H    0.090684
     7  H    0.070987
     8  H    0.071643
     9  H    0.075534
    10  O   -0.256900
    11  C    0.257489
    12  O   -0.258791
    13  C    0.301008
    14  O   -0.331876
    15  O   -0.306292
    16  C    0.104319
    17  H    0.074013
    18  H    0.073057
    19  H    0.078582
    20  C   -0.059126
    21  N    0.076354
    22  H    0.196510
 Sum of Mulliken charges =  -0.00000
 Mulliken charges with hydrogens summed into heavy atoms:
               1
     1  C    0.029075
     2  C    0.129697
     3  C   -0.051812
     4  C   -0.032331
     5  N    0.173534
    10  O   -0.256900
    11  C    0.257489
    12  O   -0.258791
    13  C    0.301008
    14  O   -0.331876
    15  O   -0.306292
    16  C    0.329971
    20  C   -0.059126
    21  N    0.076354
 Electronic spatial extent (au):  <R**2>=           3393.1662
 Charge=              0.0000 electrons
 Dipole moment (field-independent basis, Debye):
    X=             -8.0289    Y=             -3.0550    Z=             -0.8377  Tot=              8.6313
 Quadrupole moment (field-independent basis, Debye-Ang):
   XX=           -100.5683   YY=            -83.4024   ZZ=            -71.9912
   XY=              0.4274   XZ=              4.2445   YZ=             -4.9396
 Traceless Quadrupole moment (field-independent basis, Debye-Ang):
   XX=            -15.2477   YY=              1.9182   ZZ=             13.3294
   XY=              0.4274   XZ=              4.2445   YZ=             -4.9396
 Octapole moment (field-independent basis, Debye-Ang**2):
  XXX=           -224.9981  YYY=            -28.4843  ZZZ=              3.6100  XYY=              6.3901
  XXY=             12.4721  XXZ=            -24.3291  XZZ=            -16.6512  YZZ=             -8.1683
  YYZ=            -11.7087  XYZ=              7.9608
 Hexadecapole moment (field-independent basis, Debye-Ang**3):
 XXXX=          -3751.5028 YYYY=           -669.1985 ZZZZ=           -474.2057 XXXY=             34.7797
 XXXZ=            164.8559 YYYX=             -1.7600 YYYZ=            -11.8415 ZZZX=             13.9245
 ZZZY=            -18.7879 XXYY=           -623.5978 XXZZ=           -546.3017 YYZZ=           -185.4545
 XXYZ=            -10.1939 YYXZ=              5.7491 ZZXY=             -5.4502
 N-N= 8.455671728455D+02 E-N=-3.369846273682D+03  KE= 7.129047487141D+02
 Unable to Open any file for archive entry.
 1\1\GINC-NODE-007\FTS\RwB97XD\def2SVP\C8H8N2O4\JP2658\27-Dec-2023\0\\#
  wb97xd def2svp geom=allchk scrf=(iefpcm,solvent=toluene) opt=(readfc,
 ts,noeigen,maxcycles=50,maxstep=10)\\cyclic-1_1_opt_sqm_re.out\\0,1\C,
 1.4303654193,0.7197722252,0.1316741597\C,-1.0897806538,-1.6301102817,1
 .7866898435\C,2.2992746732,-1.0120600468,-0.8921015567\C,-2.0823179067
 ,-0.8202996625,1.4152734065\N,1.1550094349,-0.3521611762,-0.5908461747
 \H,-0.9328062666,-1.8844457962,2.836671319\H,-0.4113848644,-2.07668381
 48,1.0549071886\H,2.320662558,-1.9207708649,-1.4817536472\H,-2.7823290
 609,-0.3923226113,2.1355291151\O,2.7324113032,0.8182464698,0.332665011
 7\C,3.3848293116,-0.2968893337,-0.3172526017\O,4.5786944992,-0.4145088
 283,-0.2662329025\C,-2.3081841677,-0.4715926851,-0.0073513487\O,-1.512
 4334561,-0.6759106857,-0.9104316323\O,-3.4852929205,0.091124347,-0.189
 9855608\C,-3.871015151,0.5277695711,-1.4921906752\H,-4.8013248849,0.01
 0255349,-1.7568181544\H,-3.0877638199,0.3041381185,-2.2250156904\H,-4.
 0508795112,1.6088320945,-1.4417948031\C,0.4795502616,1.6377516763,0.63
 11508276\N,-0.3292028978,2.3688903859,1.0261956712\H,0.1760281004,-0.6
 174244501,-0.8330217953\\Version=ES64L-G16RevC.01\State=1-A\HF=-719.24
 05345\RMSD=5.217e-09\RMSF=3.107e-06\Dipole=-3.1594648,-1.1454996,-0.48
 6931\Quadrupole=-11.3865755,2.3418184,9.0447572,0.0559178,2.9869236,-4
 .5305504\PG=C01 [X(C8H8N2O4)]\\@
 The archive entry for this job was punched.


 WE MIGHT AS WELL ATTEMPT TO INTRODUCE A NEW PLANET 
 INTO THE SOLAR SYSTEM, OR TO ANNIHILATE ONE ALREADYIN EXISTENCE, 
 AS TO CREATE OR DESTROY A PARTICLE OF HYDROGEN.
 ALL THE CHANGES WE CAN PRODUCE CONSIST IN SEPARATING PARTICLES
 THAT ARE IN A STATE OF ... COMBINATION, AND JOINING 
 THOSE THAT WERE PREVIOUSLY AT A DISTANCE.

                                    -- JOHN DALTON, 1810
 Job cpu time:       0 days  3 hours 16 minutes 24.3 seconds.
 Elapsed time:       0 days  0 hours 16 minutes 44.5 seconds.
 File lengths (MBytes):  RWF=    175 Int=      0 D2E=      0 Chk=     10 Scr=      1
 Normal termination of Gaussian 16 at Wed Dec 27 18:51:30 2023.
