Unloading slurm/anatra/current
  ERROR: No such file or directory on
    '/cm/local/modulefiles/slurm/anatra/current'
environment: line 0: unalias: gv: not found
environment: line 0: unalias: sl: not found
 Entering Gaussian System, Link 0=g16
 Initial command:
 /apps/gaussian/g16/C.01/g16/l1.exe "/local/jobs/1153158/Gau-1514333.inp" -scrdir="/local/jobs/1153158/"
 Entering Link 1 = /apps/gaussian/g16/C.01/g16/l1.exe PID=   1514335.
  
 Copyright (c) 1988-2019, Gaussian, Inc.  All Rights Reserved.
  
 This is part of the Gaussian(R) 16 program.  It is based on
 the Gaussian(R) 09 system (copyright 2009, Gaussian, Inc.),
 the Gaussian(R) 03 system (copyright 2003, Gaussian, Inc.),
 the Gaussian(R) 98 system (copyright 1998, Gaussian, Inc.),
 the Gaussian(R) 94 system (copyright 1995, Gaussian, Inc.),
 the Gaussian 92(TM) system (copyright 1992, Gaussian, Inc.),
 the Gaussian 90(TM) system (copyright 1990, Gaussian, Inc.),
 the Gaussian 88(TM) system (copyright 1988, Gaussian, Inc.),
 the Gaussian 86(TM) system (copyright 1986, Carnegie Mellon
 University), and the Gaussian 82(TM) system (copyright 1983,
 Carnegie Mellon University). Gaussian is a federally registered
 trademark of Gaussian, Inc.
  
 This software contains proprietary and confidential information,
 including trade secrets, belonging to Gaussian, Inc.
  
 This software is provided under written license and may be
 used, copied, transmitted, or stored only in accord with that
 written license.
  
 The following legend is applicable only to US Government
 contracts under FAR:
  
                    RESTRICTED RIGHTS LEGEND
  
 Use, reproduction and disclosure by the US Government is
 subject to restrictions as set forth in subparagraphs (a)
 and (c) of the Commercial Computer Software - Restricted
 Rights clause in FAR 52.227-19.
  
 Gaussian, Inc.
 340 Quinnipiac St., Bldg. 40, Wallingford CT 06492
  
  
 ---------------------------------------------------------------
 Warning -- This program may not be used in any manner that
 competes with the business of Gaussian, Inc. or will provide
 assistance to any competitor of Gaussian, Inc.  The licensee
 of this program is prohibited from giving any competitor of
 Gaussian, Inc. access to this program.  By using this program,
 the user acknowledges that Gaussian, Inc. is engaged in the
 business of creating and licensing software in the field of
 computational chemistry and represents and warrants to the
 licensee that it is not a competitor of Gaussian, Inc. and that
 it will not use this program in any manner prohibited above.
 ---------------------------------------------------------------
  

 Cite this work as:
 Gaussian 16, Revision C.01,
 M. J. Frisch, G. W. Trucks, H. B. Schlegel, G. E. Scuseria, 
 M. A. Robb, J. R. Cheeseman, G. Scalmani, V. Barone, 
 G. A. Petersson, H. Nakatsuji, X. Li, M. Caricato, A. V. Marenich, 
 J. Bloino, B. G. Janesko, R. Gomperts, B. Mennucci, H. P. Hratchian, 
 J. V. Ortiz, A. F. Izmaylov, J. L. Sonnenberg, D. Williams-Young, 
 F. Ding, F. Lipparini, F. Egidi, J. Goings, B. Peng, A. Petrone, 
 T. Henderson, D. Ranasinghe, V. G. Zakrzewski, J. Gao, N. Rega, 
 G. Zheng, W. Liang, M. Hada, M. Ehara, K. Toyota, R. Fukuda, 
 J. Hasegawa, M. Ishida, T. Nakajima, Y. Honda, O. Kitao, H. Nakai, 
 T. Vreven, K. Throssell, J. A. Montgomery, Jr., J. E. Peralta, 
 F. Ogliaro, M. J. Bearpark, J. J. Heyd, E. N. Brothers, K. N. Kudin, 
 V. N. Staroverov, T. A. Keith, R. Kobayashi, J. Normand, 
 K. Raghavachari, A. P. Rendell, J. C. Burant, S. S. Iyengar, 
 J. Tomasi, M. Cossi, J. M. Millam, M. Klene, C. Adamo, R. Cammi, 
 J. W. Ochterski, R. L. Martin, K. Morokuma, O. Farkas, 
 J. B. Foresman, and D. J. Fox, Gaussian, Inc., Wallingford CT, 2019.
 
 ******************************************
 Gaussian 16:  ES64L-G16RevC.01  3-Jul-2019
                30-Dec-2023 
 ******************************************
 %chk=cyclic-1_1_opt_hf_re5_freq.chk
 %nprocshared=12
 Will use up to   12 processors via shared memory.
 %mem=48GB
 -----------------------------------------------------------
 # wb97xd def2svp scrf=(iefpcm,solvent=toluene) freq=noraman
 -----------------------------------------------------------
 1/10=4,30=1,38=1/1,3;
 2/12=2,17=6,18=5,40=1/2;
 3/5=43,7=101,11=2,25=1,30=1,70=2201,71=2,72=13,74=-58,140=1/1,2,3;
 4//1;
 5/5=2,38=5,53=13,98=1/2;
 8/6=4,10=90,11=11/1;
 11/6=1,8=1,9=11,15=111,16=1/1,2,10;
 10/6=1/2;
 6/7=2,8=2,9=2,10=2,28=1/1;
 7/8=1,10=1,25=1/1,2,3,16;
 1/10=4,30=1/3;
 99//99;
 -------------------------
 cyclic-1_1_opt_hf_re5.out
 -------------------------
 Symbolic Z-matrix:
 Charge =  0 Multiplicity = 1
 C                    -1.70512  -0.15704   0.14517 
 C                     0.28776   2.97266  -0.30923 
 C                    -0.48099  -1.74661   1.0471 
 C                     1.06085   2.01212  -0.81713 
 N                    -1.08306  -0.548     1.24532 
 H                    -0.15701   3.74359  -0.94109 
 H                     0.07813   3.00544   0.7635 
 H                     0.10157  -2.24444   1.81224 
 H                     1.29459   1.95278  -1.88225 
 O                    -1.54868  -1.06069  -0.80241 
 C                    -0.73499  -2.14498  -0.29022 
 O                    -0.4427   -3.07104  -0.99502 
 C                     1.64742   0.96386   0.0573 
 O                     1.43849   0.84848   1.24463 
 O                     2.43317   0.14445  -0.63553 
 C                     3.03761  -0.93276   0.06731 
 H                     3.75921  -1.38154  -0.62305 
 H                     2.27854  -1.67737   0.34626 
 H                     3.54446  -0.57376   0.97337 
 C                    -2.44672   1.03328  -0.02362 
 N                    -3.0515    2.01473  -0.14371 
 H                    -0.99469   0.01546   2.0864 
 

 GradGradGradGradGradGradGradGradGradGradGradGradGradGradGradGradGradGrad
 Berny optimization.
 Initialization pass.
 Trust Radius=3.00D-01 FncErr=1.00D-07 GrdErr=1.00D-07 EigMax=2.50D+02 EigMin=1.00D-04
 Number of steps in this run=      2 maximum allowed number of steps=      2.
 GradGradGradGradGradGradGradGradGradGradGradGradGradGradGradGradGradGrad

                          Input orientation:                          
 ---------------------------------------------------------------------
 Center     Atomic      Atomic             Coordinates (Angstroms)
 Number     Number       Type             X           Y           Z
 ---------------------------------------------------------------------
      1          6           0       -1.705120   -0.157040    0.145170
      2          6           0        0.287760    2.972660   -0.309230
      3          6           0       -0.480990   -1.746610    1.047100
      4          6           0        1.060850    2.012120   -0.817130
      5          7           0       -1.083060   -0.548000    1.245320
      6          1           0       -0.157010    3.743590   -0.941090
      7          1           0        0.078130    3.005440    0.763500
      8          1           0        0.101570   -2.244440    1.812240
      9          1           0        1.294590    1.952780   -1.882250
     10          8           0       -1.548680   -1.060690   -0.802410
     11          6           0       -0.734990   -2.144980   -0.290220
     12          8           0       -0.442700   -3.071040   -0.995020
     13          6           0        1.647420    0.963860    0.057300
     14          8           0        1.438490    0.848480    1.244630
     15          8           0        2.433170    0.144450   -0.635530
     16          6           0        3.037610   -0.932760    0.067310
     17          1           0        3.759210   -1.381540   -0.623050
     18          1           0        2.278540   -1.677370    0.346260
     19          1           0        3.544460   -0.573760    0.973370
     20          6           0       -2.446720    1.033280   -0.023620
     21          7           0       -3.051500    2.014730   -0.143710
     22          1           0       -0.994690    0.015460    2.086400
 ---------------------------------------------------------------------
                    Distance matrix (angstroms):
                    1          2          3          4          5
     1  C    0.000000
     2  C    3.738057   0.000000
     3  C    2.199706   4.970122   0.000000
     4  C    3.644430   1.333517   4.469975   0.000000
     5  N    1.322928   4.085440   1.355893   3.924827   0.000000
     6  H    4.334919   1.091513   5.848090   2.120504   4.904661
     7  H    3.682878   1.093512   4.793227   2.109695   3.769277
     8  H    3.224979   5.635019   1.082890   5.094321   2.145380
     9  H    4.190469   2.127969   5.041752   1.092079   4.657125
    10  O    1.318698   4.459109   2.243019   4.031380   2.161678
    11  C    2.254467   5.218871   1.418323   4.558964   2.242628
    12  O    3.374186   6.126189   2.434304   5.303850   3.434373
    13  C    3.536052   2.453222   3.585594   1.485780   3.339556
    14  O    3.478817   2.872421   3.233870   2.397399   2.882425
    15  O    4.222065   3.564832   3.860010   2.324743   4.047340
    16  C    4.806380   4.791217   3.742043   3.655425   4.302984
    17  H    5.652297   5.577500   4.571868   4.340016   5.256727
    18  H    4.268652   5.100554   2.847978   4.055685   3.658434
    19  H    5.330822   4.982796   4.193478   4.007616   4.635576
    20  C    1.412559   3.364543   3.569079   3.727041   2.443404
    21  N    2.571532   3.477885   4.708846   4.167124   3.517349
    22  H    2.074329   4.016062   2.109247   4.079508   1.016224
                    6          7          8          9         10
     6  H    0.000000
     7  H    1.872374   0.000000
     8  H    6.595771   5.353657   0.000000
     9  H    2.489965   3.096427   5.717448   0.000000
    10  O    5.003707   4.651021   3.310738   4.281500   0.000000
    11  C    5.952558   5.319616   2.264964   4.842044   1.449177
    12  O    6.820829   6.347225   2.976610   5.389260   2.302563
    13  C    3.461163   2.670101   3.970221   2.205517   3.879814
    14  O    3.962910   2.595100   3.416971   3.319272   4.093713
    15  O    4.444796   3.960904   4.139412   2.474011   4.163573
    16  C    5.752453   4.975201   3.658636   3.894258   4.669779
    17  H    6.457932   5.892238   4.478121   4.333316   5.320603
    18  H    6.080788   5.190819   2.685119   4.371773   4.043186
    19  H    6.000462   4.986999   3.917699   4.427176   5.415771
    20  C    3.664738   3.299067   4.539561   4.277544   2.407841
    21  N    3.464512   3.405748   5.648727   4.681331   3.485766
    22  H    4.875075   3.441074   2.526677   4.974354   3.132128
                   11         12         13         14         15
    11  C    0.000000
    12  O    1.199901   0.000000
    13  C    3.932116   4.664375   0.000000
    14  O    4.005070   4.890557   1.211081   0.000000
    15  O    3.924024   4.328884   1.329981   2.240546   0.000000
    16  C    3.978670   4.220586   2.351573   2.667599   1.421166
    17  H    4.570717   4.544097   3.228534   3.721150   2.021678
    18  H    3.115306   3.338637   2.730917   2.809390   2.075295
    19  H    4.730654   5.099844   2.608107   2.555672   2.083111
    20  C    3.619728   4.669599   4.095528   4.091145   4.997777
    21  N    4.763494   5.778895   4.819189   4.842276   5.815620
    22  H    3.222308   4.396172   3.463734   2.706079   4.379014
                   16         17         18         19         20
    16  C    0.000000
    17  H    1.094855   0.000000
    18  H    1.099293   1.794286   0.000000
    19  H    1.098509   1.801994   1.792701   0.000000
    20  C    5.826788   6.686123   5.460084   6.282579   0.000000
    21  N    6.768271   7.625627   6.502384   7.173203   1.159062
    22  H    4.608176   5.647326   4.075266   4.710616   2.756181
                   21         22
    21  N    0.000000
    22  H    3.633310   0.000000
 Stoichiometry    C8H8N2O4
 Framework group  C1[X(C8H8N2O4)]
 Deg. of freedom    60
 Full point group                 C1      NOp   1
 Largest Abelian subgroup         C1      NOp   1
 Largest concise Abelian subgroup C1      NOp   1
                         Standard orientation:                         
 ---------------------------------------------------------------------
 Center     Atomic      Atomic             Coordinates (Angstroms)
 Number     Number       Type             X           Y           Z
 ---------------------------------------------------------------------
      1          6           0       -1.705120   -0.157046    0.145169
      2          6           0        0.287750    2.972660   -0.309231
      3          6           0       -0.480985   -1.746612    1.047099
      4          6           0        1.060843    2.012123   -0.817131
      5          7           0       -1.083059   -0.548004    1.245319
      6          1           0       -0.157023    3.743589   -0.941091
      7          1           0        0.078120    3.005440    0.763499
      8          1           0        0.101577   -2.244440    1.812239
      9          1           0        1.294583    1.952784   -1.882251
     10          8           0       -1.548677   -1.060696   -0.802411
     11          6           0       -0.734983   -2.144983   -0.290221
     12          8           0       -0.442690   -3.071042   -0.995021
     13          6           0        1.647416    0.963865    0.057299
     14          8           0        1.438487    0.848484    1.244629
     15          8           0        2.433169    0.144457   -0.635531
     16          6           0        3.037613   -0.932751    0.067309
     17          1           0        3.759214   -1.381528   -0.623051
     18          1           0        2.278545   -1.677363    0.346259
     19          1           0        3.544461   -0.573749    0.973369
     20          6           0       -2.446724    1.033271   -0.023621
     21          7           0       -3.051507    2.014720   -0.143711
     22          1           0       -0.994690    0.015456    2.086399
 ---------------------------------------------------------------------
 Rotational constants (GHZ):           0.7474921           0.6806228           0.4266506
 Standard basis: def2SVP (5D, 7F)
 There are   250 symmetry adapted cartesian basis functions of A   symmetry.
 There are   236 symmetry adapted basis functions of A   symmetry.
   236 basis functions,   406 primitive gaussians,   250 cartesian basis functions
    51 alpha electrons       51 beta electrons
       nuclear repulsion energy       878.9307486256 Hartrees.
 NAtoms=   22 NActive=   22 NUniq=   22 SFac= 1.00D+00 NAtFMM=   60 NAOKFM=F Big=F
 Integral buffers will be    131072 words long.
 Raffenetti 2 integral format.
 Two-electron integral symmetry is turned on.
 Nuclear repulsion after empirical dispersion term =      878.9171177007 Hartrees.
 Force inversion solution in PCM.
 ------------------------------------------------------------------------------
 Polarizable Continuum Model (PCM)
 =================================
 Model                : PCM.
 Atomic radii         : UFF (Universal Force Field).
 Polarization charges : Total charges.
 Charge compensation  : None.
 Solution method      : Matrix inversion.
 Cavity type          : Scaled VdW (van der Waals Surface) (Alpha=1.100).
 Cavity algorithm     : GePol (No added spheres)
                        Default sphere list used, NSphG=   22.
                        Lebedev-Laikov grids with approx.  5.0 points / Ang**2.
                        Smoothing algorithm: York/Karplus (Gamma=1.0000).
                        Polarization charges: spherical gaussians, with
                                              point-specific exponents (IZeta= 3).
                        Self-potential: point-specific (ISelfS= 7).
                        Self-field    : sphere-specific E.n sum rule (ISelfD= 2).
 1st derivatives      : Analytical E(r).r(x)/FMM algorithm (CHGder, D1EAlg=3).
                        Cavity 1st derivative terms included.
 2nd derivatives      : Analytical E(r).r(xy)/FMM algorithm (CHGder, D2EAlg=3).
                        Cavity 2nd derivative terms included.
 Solvent              : Toluene, Eps=   2.374100 Eps(inf)=   2.238315
 ------------------------------------------------------------------------------
 One-electron integrals computed using PRISM.
   1 Symmetry operations used in ECPInt.
 ECPInt:  NShTT=    5886 NPrTT=   21942 LenC2=    5688 LenP2D=   15485.
 LDataN:  DoStor=T MaxTD1= 4 Len=   56
 NBasis=   236 RedAO= T EigKep=  3.26D-04  NBF=   236
 NBsUse=   236 1.00D-06 EigRej= -1.00D+00 NBFU=   236
 ExpMin= 1.22D-01 ExpMax= 2.27D+03 ExpMxC= 3.41D+02 IAcc=3 IRadAn=         5 AccDes= 0.00D+00
 Harris functional with IExCor= 4639 and IRadAn=       5 diagonalized for initial guess.
 HarFok:  IExCor= 4639 AccDes= 0.00D+00 IRadAn=         5 IDoV= 1 UseB2=F ITyADJ=14
 ICtDFT=  3500011 ScaDFX=  1.000000  1.000000  1.000000  1.000000
 FoFCou: FMM=F IPFlag=           0 FMFlag=      100000 FMFlg1=           0
         NFxFlg=           0 DoJE=T BraDBF=F KetDBF=T FulRan=T
         wScrn=  0.000000 ICntrl=       500 IOpCl=  0 I1Cent=   200000004 NGrid=           0
         NMat0=    1 NMatS0=      1 NMatT0=    0 NMatD0=    1 NMtDS0=    0 NMtDT0=    0
 Petite list used in FoFCou.
 Requested convergence on RMS density matrix=1.00D-08 within 128 cycles.
 Requested convergence on MAX density matrix=1.00D-06.
 Requested convergence on             energy=1.00D-06.
 No special actions if energy rises.
 Inv3:  Mode=1 IEnd=    11773083.
 Iteration    1 A*A^-1 deviation from unit magnitude is 2.89D-15 for   1088.
 Iteration    1 A*A^-1 deviation from orthogonality  is 1.78D-15 for   1699    201.
 Iteration    1 A^-1*A deviation from unit magnitude is 2.89D-15 for    768.
 Iteration    1 A^-1*A deviation from orthogonality  is 1.82D-15 for   1352   1080.
 Error on total polarization charges =  0.00671
 SCF Done:  E(RwB97XD) =  -719.231875707     A.U. after   15 cycles
            NFock= 15  Conv=0.49D-08     -V/T= 2.0089
 DoSCS=F DFT=T ScalE2(SS,OS)=  1.000000  1.000000
 Range of M.O.s used for correlation:     1   236
 NBasis=   236 NAE=    51 NBE=    51 NFC=     0 NFV=     0
 NROrb=    236 NOA=    51 NOB=    51 NVA=   185 NVB=   185

 **** Warning!!: The largest alpha MO coefficient is  0.10216366D+02

   1 Symmetry operations used in ECPInt.
 ECPInt:  NShTT=    5886 NPrTT=   21942 LenC2=    5688 LenP2D=   15485.
 LDataN:  DoStor=T MaxTD1= 5 Len=  102
 Symmetrizing basis deriv contribution to polar:
 IMax=3 JMax=2 DiffMx= 0.00D+00
 G2DrvN: will do    23 centers at a time, making    1 passes.
 Calling FoFCou, ICntrl=  3107 FMM=F I1Cent=   0 AccDes= 0.00D+00.
 NEqPCM:  Using equilibrium solvation (IEInf=0, Eps=   2.3741, EpsInf=   2.2383)
 G2PCM: DoFxE=T DoFxN=T DoGrad=T DoDP/DQ/DG/TGxP=FFFF NFrqRd=   0 IEInf=0 SqF1=F DoCFld=F IF1Alg=4.
 End of G2Drv F.D. properties file   721 does not exist.
 End of G2Drv F.D. properties file   722 does not exist.
 End of G2Drv F.D. properties file   788 does not exist.
          IDoAtm=1111111111111111111111
 NEqPCM:  Using equilibrium solvation (IEInf=0, Eps=   2.3741, EpsInf=   2.2383)
          Differentiating once with respect to electric field.
                with respect to dipole field.
          Differentiating once with respect to nuclear coordinates.
 Keep R1 ints in memory in canonical form, NReq=801733515.
          There are    69 degrees of freedom in the 1st order CPHF.  IDoFFX=6 NUNeed=     3.
     66 vectors produced by pass  0 Test12= 1.37D-14 1.45D-09 XBig12= 5.13D+01 4.29D+00.
 AX will form    66 AO Fock derivatives at one time.
     66 vectors produced by pass  1 Test12= 1.37D-14 1.45D-09 XBig12= 7.60D+00 4.72D-01.
     66 vectors produced by pass  2 Test12= 1.37D-14 1.45D-09 XBig12= 1.91D-01 5.78D-02.
     66 vectors produced by pass  3 Test12= 1.37D-14 1.45D-09 XBig12= 3.38D-03 8.49D-03.
     66 vectors produced by pass  4 Test12= 1.37D-14 1.45D-09 XBig12= 4.03D-05 6.94D-04.
     66 vectors produced by pass  5 Test12= 1.37D-14 1.45D-09 XBig12= 2.75D-07 6.06D-05.
     58 vectors produced by pass  6 Test12= 1.37D-14 1.45D-09 XBig12= 1.34D-09 4.62D-06.
     28 vectors produced by pass  7 Test12= 1.37D-14 1.45D-09 XBig12= 6.73D-12 2.28D-07.
      3 vectors produced by pass  8 Test12= 1.37D-14 1.45D-09 XBig12= 3.06D-14 1.83D-08.
      2 vectors produced by pass  9 Test12= 1.37D-14 1.45D-09 XBig12= 1.50D-16 1.85D-09.
 InvSVY:  IOpt=1 It=  1 EMax= 6.22D-15
 Solved reduced A of dimension   487 with    69 vectors.
 Isotropic polarizability for W=    0.000000      121.98 Bohr**3.
 End of Minotr F.D. properties file   721 does not exist.
 End of Minotr F.D. properties file   722 does not exist.
 End of Minotr F.D. properties file   788 does not exist.

 **********************************************************************

            Population analysis using the SCF Density.

 **********************************************************************

 Orbital symmetries:
       Occupied  (A) (A) (A) (A) (A) (A) (A) (A) (A) (A) (A) (A)
                 (A) (A) (A) (A) (A) (A) (A) (A) (A) (A) (A) (A)
                 (A) (A) (A) (A) (A) (A) (A) (A) (A) (A) (A) (A)
                 (A) (A) (A) (A) (A) (A) (A) (A) (A) (A) (A) (A)
                 (A) (A) (A)
       Virtual   (A) (A) (A) (A) (A) (A) (A) (A) (A) (A) (A) (A)
                 (A) (A) (A) (A) (A) (A) (A) (A) (A) (A) (A) (A)
                 (A) (A) (A) (A) (A) (A) (A) (A) (A) (A) (A) (A)
                 (A) (A) (A) (A) (A) (A) (A) (A) (A) (A) (A) (A)
                 (A) (A) (A) (A) (A) (A) (A) (A) (A) (A) (A) (A)
                 (A) (A) (A) (A) (A) (A) (A) (A) (A) (A) (A) (A)
                 (A) (A) (A) (A) (A) (A) (A) (A) (A) (A) (A) (A)
                 (A) (A) (A) (A) (A) (A) (A) (A) (A) (A) (A) (A)
                 (A) (A) (A) (A) (A) (A) (A) (A) (A) (A) (A) (A)
                 (A) (A) (A) (A) (A) (A) (A) (A) (A) (A) (A) (A)
                 (A) (A) (A) (A) (A) (A) (A) (A) (A) (A) (A) (A)
                 (A) (A) (A) (A) (A) (A) (A) (A) (A) (A) (A) (A)
                 (A) (A) (A) (A) (A) (A) (A) (A) (A) (A) (A) (A)
                 (A) (A) (A) (A) (A) (A) (A) (A) (A) (A) (A) (A)
                 (A) (A) (A) (A) (A) (A) (A) (A) (A) (A) (A) (A)
                 (A) (A) (A) (A) (A)
 The electronic state is 1-A.
 Alpha  occ. eigenvalues --  -19.35281 -19.31461 -19.25651 -19.23518 -14.57722
 Alpha  occ. eigenvalues --  -14.48507 -10.45390 -10.44041 -10.43279 -10.38067
 Alpha  occ. eigenvalues --  -10.35797 -10.35381 -10.32909 -10.32321  -1.26532
 Alpha  occ. eigenvalues --   -1.21603  -1.13450  -1.12024  -1.10132  -1.03295
 Alpha  occ. eigenvalues --   -0.90570  -0.89958  -0.83384  -0.79916  -0.76015
 Alpha  occ. eigenvalues --   -0.73101  -0.71938  -0.65253  -0.63859  -0.62485
 Alpha  occ. eigenvalues --   -0.61523  -0.58675  -0.58127  -0.57957  -0.54422
 Alpha  occ. eigenvalues --   -0.53051  -0.51354  -0.51277  -0.50777  -0.49333
 Alpha  occ. eigenvalues --   -0.48642  -0.47901  -0.47425  -0.46655  -0.44948
 Alpha  occ. eigenvalues --   -0.44758  -0.39935  -0.38004  -0.37651  -0.37541
 Alpha  occ. eigenvalues --   -0.29167
 Alpha virt. eigenvalues --   -0.02089   0.01249   0.05251   0.11607   0.13039
 Alpha virt. eigenvalues --    0.14746   0.15685   0.16561   0.17543   0.17789
 Alpha virt. eigenvalues --    0.18983   0.19802   0.21092   0.21200   0.22329
 Alpha virt. eigenvalues --    0.22781   0.24190   0.26825   0.30464   0.33126
 Alpha virt. eigenvalues --    0.34231   0.36599   0.37229   0.38499   0.40006
 Alpha virt. eigenvalues --    0.41221   0.45371   0.46999   0.48888   0.50709
 Alpha virt. eigenvalues --    0.51561   0.52111   0.52578   0.54263   0.55361
 Alpha virt. eigenvalues --    0.56181   0.57115   0.59833   0.61146   0.62733
 Alpha virt. eigenvalues --    0.64570   0.65354   0.67407   0.68867   0.69841
 Alpha virt. eigenvalues --    0.70408   0.71045   0.72416   0.72894   0.73307
 Alpha virt. eigenvalues --    0.73720   0.74704   0.74908   0.75913   0.77610
 Alpha virt. eigenvalues --    0.78087   0.79385   0.80698   0.82865   0.83450
 Alpha virt. eigenvalues --    0.84523   0.85957   0.88594   0.89986   0.91752
 Alpha virt. eigenvalues --    0.94104   0.95465   0.96971   1.01476   1.05011
 Alpha virt. eigenvalues --    1.05904   1.08036   1.10102   1.11238   1.12064
 Alpha virt. eigenvalues --    1.14146   1.15404   1.16576   1.18316   1.23308
 Alpha virt. eigenvalues --    1.23758   1.26849   1.27465   1.28887   1.30134
 Alpha virt. eigenvalues --    1.31594   1.33937   1.34668   1.35910   1.37070
 Alpha virt. eigenvalues --    1.42137   1.43149   1.50027   1.51592   1.52760
 Alpha virt. eigenvalues --    1.56864   1.60585   1.61731   1.65186   1.65508
 Alpha virt. eigenvalues --    1.66136   1.66957   1.69183   1.70960   1.72154
 Alpha virt. eigenvalues --    1.72867   1.74506   1.76592   1.78726   1.80202
 Alpha virt. eigenvalues --    1.80825   1.83207   1.83805   1.86371   1.87277
 Alpha virt. eigenvalues --    1.88420   1.89823   1.91941   1.94931   1.96910
 Alpha virt. eigenvalues --    1.97910   2.00290   2.02019   2.03284   2.04351
 Alpha virt. eigenvalues --    2.06864   2.08601   2.10204   2.13723   2.13896
 Alpha virt. eigenvalues --    2.14428   2.22216   2.25043   2.26722   2.28570
 Alpha virt. eigenvalues --    2.31309   2.31589   2.32101   2.33220   2.39220
 Alpha virt. eigenvalues --    2.40348   2.42543   2.45118   2.46254   2.52280
 Alpha virt. eigenvalues --    2.53034   2.56795   2.62028   2.64097   2.69697
 Alpha virt. eigenvalues --    2.71700   2.72946   2.75018   2.76915   2.78883
 Alpha virt. eigenvalues --    2.79323   2.83903   2.85636   2.86480   2.89520
 Alpha virt. eigenvalues --    2.93508   2.95881   2.97518   2.98670   3.01108
 Alpha virt. eigenvalues --    3.03057   3.04696   3.06006   3.11379   3.14228
 Alpha virt. eigenvalues --    3.14472   3.19907   3.27348   3.29580   3.30599
 Alpha virt. eigenvalues --    3.37272   3.37867   3.44826   3.48435   3.52504
 Alpha virt. eigenvalues --    3.71574   3.74741   3.74898   3.76626   3.82006
          Condensed to atoms (all electrons):
               1          2          3          4          5          6
     1  C    5.226919   0.001140  -0.103556   0.002159   0.546189   0.000258
     2  C    0.001140   4.676069  -0.000333   0.597961   0.000012   0.390328
     3  C   -0.103556  -0.000333   5.363813   0.000114   0.343093   0.000003
     4  C    0.002159   0.597961   0.000114   5.099819  -0.001102  -0.014945
     5  N    0.546189   0.000012   0.343093  -0.001102   5.990328  -0.000001
     6  H    0.000258   0.390328   0.000003  -0.014945  -0.000001   0.577822
     7  H    0.000265   0.394368  -0.000095  -0.025891   0.000176  -0.034860
     8  H    0.005154  -0.000001   0.417971   0.000014  -0.026406   0.000000
     9  H    0.000093  -0.029261  -0.000014   0.392142   0.000013  -0.010189
    10  O    0.452252  -0.000217  -0.131699   0.000014  -0.078828   0.000001
    11  C   -0.084504   0.000115   0.321890  -0.000169  -0.019982  -0.000001
    12  O    0.002432   0.000000  -0.081616   0.000007   0.001644  -0.000000
    13  C    0.000162  -0.034653   0.002422   0.282298  -0.000737   0.008146
    14  O    0.002965   0.010581   0.006996  -0.109046  -0.005843   0.000252
    15  O   -0.000274   0.006030  -0.001800  -0.105998   0.000098  -0.000079
    16  C   -0.000054  -0.000422   0.002964   0.010135  -0.000256   0.000004
    17  H   -0.000005  -0.000005   0.000130   0.000023  -0.000002  -0.000000
    18  H    0.000489   0.000045  -0.004006  -0.000124  -0.000040  -0.000000
    19  H   -0.000023   0.000047  -0.000258   0.000903   0.000031  -0.000000
    20  C    0.019506   0.002399   0.011639   0.000418  -0.122989   0.000046
    21  N   -0.103148  -0.002168   0.000152  -0.000580  -0.004132   0.000539
    22  H   -0.001449   0.000132  -0.016618  -0.000444   0.370507  -0.000000
               7          8          9         10         11         12
     1  C    0.000265   0.005154   0.000093   0.452252  -0.084504   0.002432
     2  C    0.394368  -0.000001  -0.029261  -0.000217   0.000115   0.000000
     3  C   -0.000095   0.417971  -0.000014  -0.131699   0.321890  -0.081616
     4  C   -0.025891   0.000014   0.392142   0.000014  -0.000169   0.000007
     5  N    0.000176  -0.026406   0.000013  -0.078828  -0.019982   0.001644
     6  H   -0.034860   0.000000  -0.010189   0.000001  -0.000001  -0.000000
     7  H    0.592267  -0.000003   0.006607  -0.000002   0.000020   0.000000
     8  H   -0.000003   0.549157  -0.000000   0.003336  -0.027211   0.000746
     9  H    0.006607  -0.000000   0.594959   0.000034   0.000030  -0.000001
    10  O   -0.000002   0.003336   0.000034   7.895927   0.264131  -0.062822
    11  C    0.000020  -0.027211   0.000030   0.264131   4.521340   0.765847
    12  O    0.000000   0.000746  -0.000001  -0.062822   0.765847   7.624753
    13  C   -0.016423  -0.000098  -0.029648   0.000518  -0.000646  -0.000070
    14  O    0.012759   0.000636   0.003007   0.000028  -0.002301   0.000000
    15  O    0.000601  -0.000092   0.007178  -0.000057   0.002182  -0.000010
    16  C   -0.000040  -0.000314  -0.000296  -0.000018  -0.002160  -0.000469
    17  H   -0.000001   0.000002  -0.000138   0.000001   0.000015  -0.000014
    18  H    0.000001   0.001763   0.000057   0.000068  -0.000874   0.002854
    19  H   -0.000014  -0.000004   0.000018  -0.000001   0.000213   0.000003
    20  C    0.000981  -0.000428  -0.000069  -0.089353  -0.003434  -0.000284
    21  N   -0.000066  -0.000001  -0.000010  -0.002567  -0.000094  -0.000000
    22  H    0.000411  -0.004430  -0.000004   0.002345   0.007314  -0.000042
              13         14         15         16         17         18
     1  C    0.000162   0.002965  -0.000274  -0.000054  -0.000005   0.000489
     2  C   -0.034653   0.010581   0.006030  -0.000422  -0.000005   0.000045
     3  C    0.002422   0.006996  -0.001800   0.002964   0.000130  -0.004006
     4  C    0.282298  -0.109046  -0.105998   0.010135   0.000023  -0.000124
     5  N   -0.000737  -0.005843   0.000098  -0.000256  -0.000002  -0.000040
     6  H    0.008146   0.000252  -0.000079   0.000004  -0.000000  -0.000000
     7  H   -0.016423   0.012759   0.000601  -0.000040  -0.000001   0.000001
     8  H   -0.000098   0.000636  -0.000092  -0.000314   0.000002   0.001763
     9  H   -0.029648   0.003007   0.007178  -0.000296  -0.000138   0.000057
    10  O    0.000518   0.000028  -0.000057  -0.000018   0.000001   0.000068
    11  C   -0.000646  -0.002301   0.002182  -0.002160   0.000015  -0.000874
    12  O   -0.000070   0.000000  -0.000010  -0.000469  -0.000014   0.002854
    13  C    4.519113   0.678412   0.379177  -0.030320   0.004581  -0.006258
    14  O    0.678412   7.760371  -0.084286   0.004914   0.000664   0.000858
    15  O    0.379177  -0.084286   7.933958   0.256056  -0.021427  -0.024837
    16  C   -0.030320   0.004914   0.256056   4.427874   0.402138   0.406582
    17  H    0.004581   0.000664  -0.021427   0.402138   0.590160  -0.021873
    18  H   -0.006258   0.000858  -0.024837   0.406582  -0.021873   0.611423
    19  H   -0.005020   0.009751  -0.025897   0.400916  -0.021441  -0.027500
    20  C   -0.001615  -0.001227   0.000034  -0.000004   0.000000  -0.000011
    21  N   -0.000015  -0.000003   0.000000  -0.000000   0.000000  -0.000000
    22  H    0.000353   0.006487   0.000053  -0.000002  -0.000000  -0.000008
              19         20         21         22
     1  C   -0.000023   0.019506  -0.103148  -0.001449
     2  C    0.000047   0.002399  -0.002168   0.000132
     3  C   -0.000258   0.011639   0.000152  -0.016618
     4  C    0.000903   0.000418  -0.000580  -0.000444
     5  N    0.000031  -0.122989  -0.004132   0.370507
     6  H   -0.000000   0.000046   0.000539  -0.000000
     7  H   -0.000014   0.000981  -0.000066   0.000411
     8  H   -0.000004  -0.000428  -0.000001  -0.004430
     9  H    0.000018  -0.000069  -0.000010  -0.000004
    10  O   -0.000001  -0.089353  -0.002567   0.002345
    11  C    0.000213  -0.003434  -0.000094   0.007314
    12  O    0.000003  -0.000284  -0.000000  -0.000042
    13  C   -0.005020  -0.001615  -0.000015   0.000353
    14  O    0.009751  -0.001227  -0.000003   0.006487
    15  O   -0.025897   0.000034   0.000000   0.000053
    16  C    0.400916  -0.000004  -0.000000  -0.000002
    17  H   -0.021441   0.000000   0.000000  -0.000000
    18  H   -0.027500  -0.000011  -0.000000  -0.000008
    19  H    0.611672   0.000002   0.000000  -0.000018
    20  C    0.000002   5.406003   0.859749  -0.025588
    21  N    0.000000   0.859749   6.158662  -0.000413
    22  H   -0.000018  -0.025588  -0.000413   0.461170
 Mulliken charges:
               1
     1  C    0.033030
     2  C   -0.012170
     3  C   -0.131194
     4  C   -0.127708
     5  N    0.008223
     6  H    0.082674
     7  H    0.068940
     8  H    0.080210
     9  H    0.065492
    10  O   -0.253091
    11  C    0.258281
    12  O   -0.252958
    13  C    0.250319
    14  O   -0.295974
    15  O   -0.320609
    16  C    0.122774
    17  H    0.067191
    18  H    0.061389
    19  H    0.056619
    20  C   -0.055776
    21  N    0.094097
    22  H    0.200242
 Sum of Mulliken charges =  -0.00000
 Mulliken charges with hydrogens summed into heavy atoms:
               1
     1  C    0.033030
     2  C    0.139444
     3  C   -0.050984
     4  C   -0.062216
     5  N    0.208465
    10  O   -0.253091
    11  C    0.258281
    12  O   -0.252958
    13  C    0.250319
    14  O   -0.295974
    15  O   -0.320609
    16  C    0.307973
    20  C   -0.055776
    21  N    0.094097
 APT charges:
               1
     1  C   -0.054991
     2  C   -0.004798
     3  C   -0.595173
     4  C   -0.262388
     5  N    0.327987
     6  H    0.072664
     7  H    0.077503
     8  H    0.161097
     9  H    0.070256
    10  O   -0.302813
    11  C    1.099471
    12  O   -0.986526
    13  C    1.300136
    14  O   -0.820577
    15  O   -0.929079
    16  C    0.482265
    17  H    0.012916
    18  H   -0.001725
    19  H   -0.001919
    20  C    0.510687
    21  N   -0.512032
    22  H    0.357038
 Sum of APT charges =  -0.00000
 APT charges with hydrogens summed into heavy atoms:
               1
     1  C   -0.054991
     2  C    0.145369
     3  C   -0.434076
     4  C   -0.192132
     5  N    0.685025
    10  O   -0.302813
    11  C    1.099471
    12  O   -0.986526
    13  C    1.300136
    14  O   -0.820577
    15  O   -0.929079
    16  C    0.491538
    20  C    0.510687
    21  N   -0.512032
 Electronic spatial extent (au):  <R**2>=           2661.8921
 Charge=             -0.0000 electrons
 Dipole moment (field-independent basis, Debye):
    X=              2.1152    Y=              1.7746    Z=              4.0374  Tot=              4.8912
 Quadrupole moment (field-independent basis, Debye-Ang):
   XX=            -81.4602   YY=            -91.0477   ZZ=            -76.3305
   XY=              0.3486   XZ=             -6.0901   YZ=            -10.1450
 Traceless Quadrupole moment (field-independent basis, Debye-Ang):
   XX=              1.4859   YY=             -8.1016   ZZ=              6.6156
   XY=              0.3486   XZ=             -6.0901   YZ=            -10.1450
 Octapole moment (field-independent basis, Debye-Ang**2):
  XXX=             63.4116  YYY=             40.0350  ZZZ=             13.5170  XYY=             30.7213
  XXY=            -42.3136  XXZ=              6.5964  XZZ=             -4.0141  YZZ=              2.7327
  YYZ=             18.3067  XYZ=             -2.6093
 Hexadecapole moment (field-independent basis, Debye-Ang**3):
 XXXX=          -1614.8275 YYYY=          -1592.5659 ZZZZ=           -312.6782 XXXY=             55.3021
 XXXZ=              1.2302 YYYX=             13.8301 YYYZ=            -68.6298 ZZZX=            -20.4375
 ZZZY=             -9.2701 XXYY=           -573.1746 XXZZ=           -327.5889 YYZZ=           -306.5199
 XXYZ=             10.3225 YYXZ=             -9.2919 ZZXY=             -9.8087
 N-N= 8.789171177007D+02 E-N=-3.436786347384D+03  KE= 7.128901547880D+02
  Exact polarizability:     109.753     -56.782     160.570       4.293      -2.739      95.625
 Approx polarizability:     109.242     -58.850     163.947       4.108      -0.153     112.019
   1 Symmetry operations used in ECPInt.
 ECPInt:  NShTT=    5886 NPrTT=   21942 LenC2=    5688 LenP2D=   15485.
 LDataN:  DoStor=T MaxTD1= 6 Len=  172
 D2PCM: PCM CHGder 2nd derivatives, FixD1E=F FixD2E=F DoIter=F DoCFld=F I1PDM=0
 Calling FoFJK, ICntrl=    100127 FMM=F ISym2X=0 I1Cent= 0 IOpClX= 0 NMat=1 NMatS=1 NMatT=0.
 Full mass-weighted force constant matrix:
 Low frequencies ---  -42.7954   -7.1241   -0.0007   -0.0005    0.0000    4.0200
 Low frequencies ---    8.3743   14.6846   30.1207
 ******    1 imaginary frequencies (negative Signs) ****** 
 Diagonal vibrational polarizability:
      278.9534104     151.6952535     120.1015236
 Harmonic frequencies (cm**-1), IR intensities (KM/Mole), Raman scattering
 activities (A**4/AMU), depolarization ratios for plane and unpolarized
 incident light, reduced masses (AMU), force constants (mDyne/A),
 and normal coordinates:
                      1                      2                      3
                      A                      A                      A
 Frequencies --    -42.7878                14.1941                29.0217
 Red. masses --      7.8720                 4.7432                 5.6486
 Frc consts  --      0.0085                 0.0006                 0.0028
 IR Inten    --     14.7193                 0.8040                 2.4080
  Atom  AN      X      Y      Z        X      Y      Z        X      Y      Z
     1   6     0.01   0.05   0.05     0.01  -0.05   0.01    -0.00   0.03  -0.07
     2   6    -0.00  -0.05  -0.04     0.08   0.15   0.07    -0.03  -0.01   0.28
     3   6    -0.10   0.01   0.12    -0.10  -0.09   0.09     0.06   0.13   0.02
     4   6    -0.06  -0.09  -0.05     0.14   0.22   0.04    -0.10  -0.00   0.16
     5   7    -0.20  -0.04   0.13    -0.07  -0.07   0.05     0.04   0.13  -0.06
     6   1     0.01  -0.04  -0.03     0.18   0.26   0.13    -0.11   0.01   0.35
     7   1     0.04  -0.02  -0.03    -0.07  -0.01   0.05     0.11  -0.03   0.30
     8   1    -0.22  -0.05   0.18    -0.15  -0.10   0.12     0.10   0.21   0.04
     9   1    -0.10  -0.11  -0.06     0.29   0.38   0.06    -0.24   0.02   0.13
    10   8     0.24   0.16  -0.02     0.05  -0.06   0.02    -0.01  -0.05  -0.00
    11   6     0.17   0.14   0.03    -0.02  -0.08   0.07     0.03   0.01   0.06
    12   8     0.35   0.22  -0.01     0.01  -0.08   0.09     0.04  -0.03   0.13
    13   6    -0.07  -0.10  -0.05    -0.01   0.07  -0.04     0.01  -0.03   0.06
    14   8    -0.03  -0.07  -0.05    -0.14  -0.08  -0.08     0.18  -0.04   0.09
    15   8    -0.11  -0.13  -0.07     0.03   0.13  -0.06    -0.12  -0.04  -0.08
    16   6    -0.12  -0.13  -0.07    -0.13  -0.01  -0.14    -0.03  -0.07  -0.20
    17   1    -0.11  -0.12  -0.07    -0.06   0.05  -0.12    -0.09  -0.01  -0.29
    18   1    -0.12  -0.14  -0.09    -0.20  -0.02  -0.36     0.01  -0.10  -0.18
    19   1    -0.13  -0.14  -0.06    -0.23  -0.18  -0.02     0.04  -0.11  -0.23
    20   6    -0.03   0.03   0.03     0.07  -0.02  -0.04    -0.03  -0.00  -0.15
    21   7    -0.05   0.01   0.02     0.12  -0.00  -0.08    -0.05  -0.02  -0.22
    22   1    -0.44  -0.15   0.22    -0.11  -0.07   0.06     0.06   0.20  -0.10
                      4                      5                      6
                      A                      A                      A
 Frequencies --     44.6836                67.7360                89.5669
 Red. masses --      5.6440                 3.7177                 1.7838
 Frc consts  --      0.0066                 0.0100                 0.0084
 IR Inten    --      0.6101                 1.8337                 1.2768
  Atom  AN      X      Y      Z        X      Y      Z        X      Y      Z
     1   6    -0.13   0.02   0.02     0.03   0.02   0.00    -0.03  -0.02  -0.00
     2   6    -0.03  -0.15   0.01    -0.15  -0.11   0.06     0.12   0.08   0.02
     3   6    -0.04   0.09   0.03    -0.12  -0.06   0.05    -0.06  -0.03   0.01
     4   6     0.17   0.01   0.02    -0.13  -0.07   0.01     0.05   0.03  -0.00
     5   7    -0.09   0.07   0.01    -0.08  -0.04   0.04    -0.07  -0.03   0.01
     6   1    -0.02  -0.12   0.04    -0.23  -0.13   0.09     0.14   0.09   0.02
     7   1    -0.21  -0.31  -0.02    -0.09  -0.12   0.07     0.17   0.11   0.02
     8   1     0.02   0.15   0.02    -0.20  -0.11   0.08    -0.10  -0.05   0.03
     9   1     0.34   0.17   0.05    -0.19  -0.05  -0.00     0.00   0.00  -0.01
    10   8    -0.09   0.02   0.03     0.06   0.04  -0.01     0.01   0.00  -0.01
    11   6    -0.03   0.07   0.03    -0.04  -0.02   0.02    -0.02  -0.01  -0.00
    12   8     0.02   0.08   0.04    -0.05  -0.02   0.03    -0.01  -0.01  -0.00
    13   6     0.13  -0.04  -0.02    -0.02  -0.03  -0.02     0.04   0.02  -0.01
    14   8    -0.00  -0.17  -0.06    -0.01  -0.09  -0.02     0.08   0.03  -0.00
    15   8     0.26   0.08  -0.01     0.07   0.07  -0.04     0.00  -0.01  -0.02
    16   6     0.17  -0.01  -0.07     0.18   0.14  -0.03     0.03   0.03   0.01
    17   1     0.33   0.13   0.00    -0.05  -0.03  -0.15    -0.33  -0.29  -0.15
    18   1     0.15  -0.08  -0.34     0.20   0.24   0.32    -0.02   0.26   0.50
    19   1    -0.02  -0.13   0.09     0.46   0.25  -0.23     0.46   0.14  -0.27
    20   6    -0.18  -0.01   0.00     0.10   0.06  -0.03    -0.06  -0.03  -0.00
    21   7    -0.22  -0.04  -0.01     0.16   0.10  -0.06    -0.10  -0.06  -0.00
    22   1    -0.12   0.08   0.01    -0.13  -0.06   0.06    -0.12  -0.06   0.03
                      7                      8                      9
                      A                      A                      A
 Frequencies --    114.7012               130.5131               136.1607
 Red. masses --      2.1698                 3.5205                 8.6987
 Frc consts  --      0.0168                 0.0353                 0.0950
 IR Inten    --      1.6550                20.3395                 7.2570
  Atom  AN      X      Y      Z        X      Y      Z        X      Y      Z
     1   6    -0.05  -0.03   0.02    -0.03  -0.02   0.00     0.32   0.18  -0.12
     2   6     0.18   0.12   0.03    -0.05  -0.03  -0.03     0.05   0.03   0.03
     3   6    -0.01  -0.00   0.00    -0.13  -0.10   0.03    -0.08  -0.03   0.03
     4   6    -0.09  -0.07  -0.02     0.00  -0.00  -0.01    -0.05  -0.03  -0.00
     5   7    -0.04  -0.02   0.01    -0.12  -0.09   0.04     0.09   0.06  -0.04
     6   1     0.19   0.13   0.03    -0.15  -0.11  -0.06     0.06   0.05   0.04
     7   1     0.40   0.28   0.07     0.01   0.03  -0.02     0.12   0.07   0.04
     8   1     0.02   0.02  -0.01    -0.21  -0.15   0.05    -0.26  -0.14   0.10
     9   1    -0.30  -0.22  -0.06    -0.06  -0.06  -0.02    -0.12  -0.07  -0.02
    10   8    -0.04  -0.02   0.01     0.03   0.02  -0.02     0.32   0.18  -0.12
    11   6    -0.01  -0.00   0.00    -0.05  -0.04  -0.01    -0.04  -0.02   0.02
    12   8     0.02   0.01  -0.00    -0.04  -0.02  -0.02    -0.24  -0.15   0.10
    13   6    -0.05  -0.05  -0.01     0.11   0.08   0.03    -0.04  -0.03  -0.01
    14   8    -0.03  -0.04  -0.01     0.25   0.19   0.06    -0.07  -0.05  -0.02
    15   8    -0.00  -0.00  -0.01     0.02   0.02  -0.01     0.02   0.01   0.00
    16   6     0.12   0.08   0.00     0.00  -0.01  -0.04     0.03   0.02   0.00
    17   1     0.38   0.32   0.10     0.31   0.27   0.10     0.24   0.21   0.10
    18   1     0.25  -0.14  -0.24     0.05  -0.21  -0.46     0.07  -0.13  -0.26
    19   1    -0.16   0.11   0.14    -0.36  -0.11   0.20    -0.22  -0.02   0.15
    20   6    -0.02  -0.01  -0.00    -0.00  -0.01  -0.00     0.04   0.02  -0.01
    21   7     0.01   0.01  -0.02     0.01  -0.00  -0.02    -0.32  -0.18   0.12
    22   1    -0.04  -0.01   0.01    -0.23  -0.15   0.09     0.01   0.01   0.00
                     10                     11                     12
                      A                      A                      A
 Frequencies --    160.3612               199.5047               229.6893
 Red. masses --     10.4532                 2.6352                 2.9115
 Frc consts  --      0.1584                 0.0618                 0.0905
 IR Inten    --     15.6020                 4.8205                 5.4614
  Atom  AN      X      Y      Z        X      Y      Z        X      Y      Z
     1   6    -0.10  -0.05  -0.30     0.01   0.00  -0.00    -0.00  -0.00  -0.00
     2   6     0.00   0.00   0.00     0.02   0.03  -0.03     0.02  -0.07   0.21
     3   6    -0.09   0.12  -0.00     0.00   0.00  -0.00     0.00   0.00  -0.00
     4   6     0.00  -0.00   0.00    -0.14  -0.10  -0.02    -0.05   0.02  -0.07
     5   7    -0.16   0.10  -0.21     0.01   0.01  -0.01     0.01   0.00  -0.00
     6   1     0.00   0.00   0.00    -0.10  -0.09  -0.09    -0.14   0.02   0.43
     7   1     0.00   0.01   0.00     0.28   0.27   0.01     0.24  -0.26   0.26
     8   1    -0.12   0.24   0.10     0.00   0.00   0.00    -0.01  -0.00   0.00
     9   1     0.00  -0.00   0.00    -0.38  -0.32  -0.06    -0.21   0.13  -0.11
    10   8     0.00  -0.14  -0.19    -0.01  -0.01   0.00    -0.01  -0.01   0.00
    11   6     0.04  -0.07   0.03     0.00  -0.00   0.00    -0.00  -0.00   0.00
    12   8     0.17  -0.15   0.21     0.02   0.01  -0.00     0.01   0.00  -0.00
    13   6     0.01   0.00   0.00     0.03   0.03   0.03     0.04   0.01  -0.15
    14   8     0.03   0.01   0.01    -0.01  -0.01   0.02     0.03   0.05  -0.15
    15   8    -0.00  -0.00  -0.01     0.19   0.15   0.06     0.07  -0.03  -0.06
    16   6     0.02   0.01  -0.01    -0.13  -0.09  -0.05    -0.10   0.02   0.19
    17   1     0.01   0.01  -0.01    -0.29  -0.26  -0.12     0.01  -0.10   0.39
    18   1     0.03   0.00   0.01    -0.36   0.13  -0.10    -0.20   0.10   0.13
    19   1     0.03   0.02  -0.02     0.02  -0.35  -0.03    -0.27   0.11   0.25
    20   6    -0.06   0.00  -0.13     0.00   0.00  -0.00     0.00  -0.00  -0.00
    21   7     0.10   0.18   0.55    -0.00  -0.00   0.01    -0.00  -0.00  -0.00
    22   1    -0.27   0.21  -0.27     0.03   0.02  -0.02     0.00   0.01  -0.01
                     13                     14                     15
                      A                      A                      A
 Frequencies --    291.3748               346.4894               455.8905
 Red. masses --      7.3753                 4.0552                10.8277
 Frc consts  --      0.3689                 0.2868                 1.3259
 IR Inten    --      9.5645                19.7775                 3.1786
  Atom  AN      X      Y      Z        X      Y      Z        X      Y      Z
     1   6    -0.23  -0.13   0.08     0.00   0.00  -0.00    -0.04   0.09   0.04
     2   6     0.01  -0.00   0.01     0.07  -0.12   0.12     0.00  -0.01  -0.00
     3   6     0.33   0.19  -0.12    -0.01  -0.01   0.00    -0.03  -0.10  -0.21
     4   6    -0.00  -0.00  -0.00     0.03  -0.03  -0.10     0.01  -0.00  -0.00
     5   7    -0.16  -0.09   0.06    -0.00  -0.00   0.00     0.05  -0.12  -0.08
     6   1    -0.00   0.00   0.02    -0.05  -0.01   0.34    -0.02  -0.02  -0.00
     7   1     0.03  -0.01   0.01     0.23  -0.36   0.16     0.02  -0.01  -0.00
     8   1     0.32   0.19  -0.11    -0.01  -0.01   0.00    -0.02  -0.23  -0.30
     9   1    -0.02  -0.00  -0.01    -0.01   0.03  -0.11     0.00  -0.01  -0.00
    10   8     0.22   0.13  -0.08    -0.00  -0.00   0.00    -0.15   0.16  -0.15
    11   6     0.15   0.08  -0.06    -0.00  -0.00   0.00    -0.00  -0.09  -0.12
    12   8    -0.23  -0.14   0.08     0.00   0.00  -0.00     0.27  -0.29   0.27
    13   6    -0.00   0.00  -0.00    -0.02   0.02  -0.00     0.00   0.00   0.00
    14   8    -0.01   0.01  -0.01    -0.20   0.28  -0.01     0.00  -0.00   0.00
    15   8     0.02   0.01   0.01     0.01  -0.03   0.12    -0.01   0.00  -0.00
    16   6    -0.02  -0.02  -0.00     0.13  -0.12  -0.14    -0.00   0.01  -0.00
    17   1    -0.04  -0.04  -0.00    -0.00  -0.01  -0.35    -0.00   0.01  -0.00
    18   1    -0.05   0.01  -0.01     0.20  -0.18  -0.11    -0.00   0.01   0.00
    19   1    -0.01  -0.05   0.01     0.34  -0.26  -0.19    -0.00   0.01  -0.00
    20   6    -0.15  -0.08   0.05     0.01   0.01  -0.00    -0.02   0.27   0.46
    21   7     0.11   0.07  -0.04    -0.01  -0.00   0.00    -0.13   0.14  -0.19
    22   1    -0.49  -0.24   0.19     0.01   0.01  -0.01     0.17  -0.24  -0.01
                     16                     17                     18
                      A                      A                      A
 Frequencies --    481.8575               482.5831               535.3332
 Red. masses --      4.1961                 9.9232                 1.6180
 Frc consts  --      0.5740                 1.3616                 0.2732
 IR Inten    --      2.6782                 4.4164                 1.1740
  Atom  AN      X      Y      Z        X      Y      Z        X      Y      Z
     1   6     0.03   0.02  -0.01    -0.14  -0.07   0.05     0.00   0.00   0.00
     2   6    -0.17   0.22   0.01    -0.08   0.10  -0.00     0.00   0.04   0.00
     3   6    -0.03  -0.02   0.01     0.15   0.07  -0.06     0.01  -0.00  -0.00
     4   6    -0.11   0.17   0.08    -0.05   0.08   0.04    -0.11  -0.05  -0.02
     5   7     0.03   0.02  -0.01    -0.19  -0.11   0.07     0.00  -0.00   0.00
     6   1    -0.20   0.06  -0.18    -0.13  -0.00  -0.10     0.56   0.43   0.09
     7   1    -0.21   0.49  -0.01    -0.09   0.24  -0.01    -0.42  -0.25  -0.07
     8   1    -0.01  -0.01   0.00     0.08   0.04  -0.04    -0.02  -0.01   0.01
     9   1    -0.30   0.22   0.03    -0.15   0.09   0.02     0.32   0.28   0.06
    10   8     0.02   0.01  -0.01    -0.11  -0.04   0.04    -0.00  -0.00   0.00
    11   6    -0.02  -0.01   0.00     0.10   0.03  -0.03     0.00  -0.01   0.00
    12   8     0.01   0.00  -0.00    -0.02  -0.04   0.02     0.00  -0.00  -0.00
    13   6     0.06  -0.00  -0.07     0.03  -0.00  -0.03    -0.11  -0.09  -0.03
    14   8    -0.01   0.01  -0.09    -0.00   0.00  -0.04     0.07   0.05   0.01
    15   8     0.09  -0.15   0.04     0.04  -0.07   0.02     0.06   0.03   0.02
    16   6     0.15  -0.21   0.06     0.06  -0.09   0.03     0.01  -0.02   0.01
    17   1     0.12  -0.17  -0.00     0.05  -0.08   0.01    -0.02  -0.05  -0.00
    18   1     0.18  -0.24   0.06     0.07  -0.10   0.03    -0.05   0.02  -0.03
    19   1     0.20  -0.23   0.03     0.08  -0.10   0.02     0.02  -0.09   0.02
    20   6    -0.11  -0.07   0.05     0.58   0.35  -0.21     0.00   0.01  -0.01
    21   7     0.05   0.03  -0.02    -0.25  -0.12   0.08    -0.00   0.01  -0.00
    22   1     0.04   0.02  -0.01    -0.19  -0.11   0.06    -0.01  -0.01   0.01
                     19                     20                     21
                      A                      A                      A
 Frequencies --    559.5829               611.0195               637.5511
 Red. masses --     11.5376                 6.1433                 1.2086
 Frc consts  --      2.1286                 1.3513                 0.2894
 IR Inten    --      3.7962                 2.0463               105.8342
  Atom  AN      X      Y      Z        X      Y      Z        X      Y      Z
     1   6    -0.04   0.10   0.03     0.01  -0.05  -0.17    -0.02  -0.01   0.01
     2   6    -0.00  -0.00  -0.00    -0.00   0.00  -0.00    -0.00   0.00  -0.00
     3   6     0.09  -0.14   0.09    -0.01   0.10   0.15    -0.08  -0.05   0.03
     4   6     0.01   0.01   0.00    -0.00  -0.00   0.00    -0.00   0.00  -0.01
     5   7     0.02  -0.01   0.01    -0.13   0.10  -0.12    -0.02  -0.02   0.01
     6   1    -0.06  -0.05  -0.01     0.01   0.01  -0.00     0.00   0.01   0.01
     7   1     0.04   0.04   0.01    -0.01  -0.00  -0.00     0.00  -0.02  -0.00
     8   1     0.04   0.09   0.29     0.08   0.47   0.33     0.78   0.45  -0.30
     9   1    -0.04  -0.03  -0.00     0.01   0.01   0.00     0.00   0.01  -0.01
    10   8     0.12  -0.05   0.23     0.02  -0.09  -0.07     0.04   0.03  -0.02
    11   6     0.27  -0.38   0.12     0.13  -0.14   0.15    -0.04  -0.02   0.01
    12   8     0.00  -0.18  -0.29    -0.09   0.05  -0.17     0.01   0.00   0.00
    13   6     0.01   0.01   0.00    -0.00  -0.00   0.00    -0.00   0.00  -0.00
    14   8    -0.01  -0.00  -0.00     0.00   0.00   0.00     0.01  -0.00   0.00
    15   8    -0.00  -0.00  -0.00     0.00   0.00  -0.00    -0.00   0.00   0.01
    16   6    -0.00   0.00  -0.00    -0.00  -0.00  -0.00    -0.00  -0.00   0.00
    17   1     0.01   0.01   0.00     0.00  -0.00   0.00    -0.02  -0.01  -0.01
    18   1     0.00  -0.00  -0.00    -0.00   0.00  -0.00     0.00  -0.00   0.00
    19   1    -0.01   0.01   0.00    -0.01  -0.00   0.00     0.01  -0.01  -0.00
    20   6    -0.26   0.28  -0.19     0.12   0.06   0.43     0.01   0.01  -0.02
    21   7    -0.21   0.39  -0.01     0.01  -0.08  -0.10    -0.01  -0.00   0.00
    22   1     0.17  -0.09   0.05    -0.32   0.28  -0.22     0.24   0.11  -0.10
                     22                     23                     24
                      A                      A                      A
 Frequencies --    642.6638               682.2997               723.4917
 Red. masses --      3.8772                 3.3215                 5.7410
 Frc consts  --      0.9435                 0.9110                 1.7705
 IR Inten    --      0.6167                 3.5652                46.7745
  Atom  AN      X      Y      Z        X      Y      Z        X      Y      Z
     1   6     0.32   0.19  -0.11     0.00  -0.00   0.00     0.06   0.03   0.05
     2   6     0.00  -0.00  -0.00     0.02  -0.04   0.05    -0.00   0.00  -0.00
     3   6     0.09   0.05  -0.05    -0.00  -0.00  -0.00    -0.13   0.03  -0.03
     4   6    -0.00   0.00  -0.00     0.03  -0.13   0.26    -0.00   0.00  -0.01
     5   7    -0.17  -0.11   0.07    -0.00   0.00   0.00    -0.13   0.12   0.11
     6   1    -0.01  -0.00   0.01     0.30  -0.26  -0.41    -0.00   0.01   0.01
     7   1     0.01  -0.01   0.00    -0.31   0.42  -0.04     0.01  -0.01   0.00
     8   1     0.47   0.25  -0.20     0.07   0.04  -0.03    -0.21   0.05   0.04
     9   1    -0.01  -0.01  -0.00     0.01  -0.05   0.25     0.00   0.01  -0.01
    10   8    -0.13  -0.07   0.06    -0.00   0.01  -0.00    -0.20   0.24   0.01
    11   6    -0.00   0.01  -0.02    -0.01  -0.01   0.00     0.34  -0.05  -0.05
    12   8     0.00  -0.01   0.01     0.00  -0.00  -0.00    -0.01  -0.17  -0.06
    13   6     0.00   0.00   0.00     0.06  -0.08  -0.01     0.00   0.00  -0.00
    14   8    -0.00  -0.00  -0.00    -0.12   0.17  -0.03     0.01  -0.00   0.00
    15   8     0.00  -0.00   0.00     0.06  -0.03  -0.18    -0.00   0.00   0.00
    16   6    -0.00   0.00   0.00    -0.03   0.04  -0.03    -0.00  -0.00  -0.00
    17   1    -0.01  -0.01  -0.00     0.05  -0.13   0.17     0.01   0.01  -0.00
    18   1    -0.00   0.00   0.00    -0.10   0.14   0.03    -0.00  -0.00  -0.00
    19   1     0.01  -0.00  -0.00    -0.14   0.19  -0.02    -0.01  -0.01   0.00
    20   6    -0.06  -0.03  -0.01     0.00  -0.00  -0.00     0.01  -0.14  -0.06
    21   7     0.02   0.02  -0.00     0.00  -0.00   0.00     0.10  -0.12   0.03
    22   1    -0.52  -0.32   0.25     0.01   0.01  -0.01     0.57   0.47  -0.20
                     25                     26                     27
                      A                      A                      A
 Frequencies --    733.5644               753.7179               789.4291
 Red. masses --     11.2827                 1.5777                10.1405
 Frc consts  --      3.5772                 0.5281                 3.7234
 IR Inten    --     37.2940                49.2704                 8.3323
  Atom  AN      X      Y      Z        X      Y      Z        X      Y      Z
     1   6     0.01   0.01  -0.06     0.04   0.02  -0.04     0.01  -0.08  -0.11
     2   6     0.00  -0.00   0.00     0.00  -0.00   0.00    -0.00   0.00  -0.00
     3   6    -0.23  -0.21   0.14     0.08   0.02  -0.02     0.24  -0.29   0.23
     4   6    -0.01  -0.02   0.01     0.00  -0.00   0.00     0.00   0.01  -0.00
     5   7     0.08  -0.11  -0.08    -0.12  -0.10   0.04     0.08  -0.22  -0.16
     6   1     0.05   0.00  -0.02     0.01  -0.00  -0.00    -0.02  -0.00   0.00
     7   1    -0.04   0.01  -0.00    -0.01   0.01  -0.00     0.01  -0.00   0.00
     8   1     0.13  -0.05  -0.04    -0.18  -0.15   0.07     0.27  -0.27   0.23
     9   1     0.02   0.00   0.02     0.00   0.00   0.00    -0.01  -0.00  -0.01
    10   8    -0.00  -0.30   0.05     0.04  -0.04  -0.01    -0.24   0.27  -0.24
    11   6     0.49   0.50  -0.25    -0.05   0.01   0.02     0.16  -0.03   0.34
    12   8    -0.20   0.01   0.13    -0.00   0.04   0.02    -0.09   0.23   0.12
    13   6     0.01   0.01  -0.00     0.00  -0.00  -0.01    -0.01  -0.01   0.00
    14   8    -0.01   0.01  -0.00     0.01   0.00   0.00     0.00  -0.00   0.00
    15   8     0.00   0.00  -0.01    -0.00   0.00  -0.00     0.00  -0.00   0.00
    16   6    -0.01   0.00  -0.00     0.00  -0.00   0.00    -0.00  -0.00  -0.00
    17   1    -0.01  -0.01   0.01     0.00   0.00  -0.00     0.00  -0.00   0.00
    18   1     0.00  -0.01   0.00    -0.00   0.00  -0.00    -0.01   0.01  -0.00
    19   1    -0.01   0.00   0.00    -0.00   0.00   0.00    -0.00  -0.00   0.00
    20   6    -0.06   0.08   0.07    -0.03   0.01   0.02    -0.05  -0.00  -0.13
    21   7    -0.06   0.10  -0.03    -0.01   0.03  -0.01    -0.02   0.04   0.01
    22   1     0.27  -0.02  -0.15     0.79   0.37  -0.36    -0.12  -0.17  -0.19
                     28                     29                     30
                      A                      A                      A
 Frequencies --    843.9218               896.4569              1007.4628
 Red. masses --      4.4926                 2.8270                 9.8684
 Frc consts  --      1.8852                 1.3385                 5.9014
 IR Inten    --     45.0116                 9.6314                36.8382
  Atom  AN      X      Y      Z        X      Y      Z        X      Y      Z
     1   6    -0.00  -0.00   0.00     0.00   0.00   0.00    -0.09   0.10  -0.08
     2   6    -0.00  -0.00  -0.00     0.04  -0.08   0.07    -0.02  -0.01  -0.00
     3   6     0.01   0.00  -0.00     0.00   0.00   0.00    -0.08  -0.06  -0.31
     4   6    -0.19  -0.14  -0.04     0.02  -0.06   0.07     0.00   0.00  -0.00
     5   7    -0.00  -0.00  -0.00     0.00  -0.00  -0.00    -0.11  -0.10  -0.44
     6   1     0.56   0.43   0.13     0.31  -0.30  -0.39     0.04   0.03   0.00
     7   1    -0.21  -0.20  -0.04    -0.25   0.36  -0.01     0.11   0.08   0.02
     8   1    -0.01  -0.01   0.01    -0.01  -0.00   0.01    -0.13   0.14  -0.17
     9   1     0.22   0.12   0.04    -0.09   0.13   0.04     0.05   0.05   0.01
    10   8    -0.00   0.01  -0.00    -0.00   0.00  -0.00     0.10   0.14   0.46
    11   6    -0.01  -0.01   0.01     0.00  -0.00   0.00     0.07  -0.02   0.16
    12   8     0.00   0.00  -0.00    -0.00  -0.00  -0.00    -0.02   0.09   0.10
    13   6     0.37   0.28   0.09     0.00   0.05  -0.12     0.00  -0.01  -0.00
    14   8    -0.09  -0.07  -0.02     0.07  -0.03  -0.18     0.00   0.00   0.00
    15   8    -0.07  -0.06  -0.02    -0.08   0.03   0.21    -0.00   0.00   0.00
    16   6    -0.00  -0.01  -0.00    -0.05   0.07   0.00    -0.00   0.00   0.00
    17   1     0.04   0.02   0.02    -0.17   0.33  -0.30    -0.00   0.00  -0.01
    18   1     0.06  -0.06   0.05     0.08  -0.10  -0.10    -0.00   0.00  -0.01
    19   1    -0.02   0.07  -0.03     0.15  -0.17  -0.01     0.00   0.00  -0.00
    20   6     0.00   0.00  -0.00     0.00   0.00  -0.00     0.04  -0.06   0.02
    21   7     0.00  -0.00  -0.00    -0.00  -0.00   0.00     0.07  -0.12   0.01
    22   1    -0.01  -0.00  -0.00    -0.02  -0.01   0.01     0.06  -0.33  -0.35
                     31                     32                     33
                      A                      A                      A
 Frequencies --   1020.4216              1026.2601              1071.1044
 Red. masses --      1.3067                 1.1329                 2.8163
 Frc consts  --      0.8016                 0.7030                 1.9037
 IR Inten    --     41.1246                12.4440                 6.9801
  Atom  AN      X      Y      Z        X      Y      Z        X      Y      Z
     1   6     0.00  -0.00   0.00     0.00  -0.00   0.00     0.00  -0.01  -0.00
     2   6    -0.13  -0.09  -0.02     0.04   0.03   0.01    -0.06   0.10  -0.09
     3   6     0.00  -0.00   0.00     0.00  -0.00   0.00    -0.00  -0.00  -0.01
     4   6     0.03   0.02   0.00    -0.08  -0.06  -0.01    -0.00  -0.03   0.11
     5   7     0.00   0.00   0.01     0.00   0.00   0.00    -0.00   0.01   0.01
     6   1     0.44   0.32   0.08    -0.40  -0.28  -0.07    -0.31   0.36   0.39
     7   1     0.65   0.46   0.11     0.25   0.18   0.04     0.25  -0.33  -0.00
     8   1     0.01  -0.01  -0.01     0.00  -0.01  -0.00     0.01  -0.06  -0.06
     9   1     0.14   0.11   0.02     0.65   0.47   0.12     0.22  -0.34   0.18
    10   8    -0.00  -0.00  -0.01    -0.00  -0.00  -0.00     0.00  -0.00   0.00
    11   6    -0.00   0.00  -0.00    -0.00   0.00  -0.00     0.00  -0.00   0.01
    12   8     0.00  -0.00  -0.00     0.00  -0.00  -0.00    -0.00   0.00   0.00
    13   6    -0.01  -0.01  -0.00    -0.00  -0.00  -0.00     0.09  -0.11  -0.02
    14   8     0.00   0.00   0.00     0.00   0.00   0.00    -0.01   0.03  -0.07
    15   8     0.00   0.00  -0.00    -0.00  -0.00  -0.00     0.07  -0.13   0.12
    16   6     0.00  -0.00   0.00     0.00  -0.00   0.00    -0.10   0.17  -0.10
    17   1     0.00  -0.01   0.00    -0.00  -0.00  -0.00    -0.11   0.18  -0.11
    18   1    -0.00   0.00  -0.00    -0.00   0.00  -0.00    -0.04   0.10  -0.09
    19   1    -0.00  -0.00   0.00     0.00  -0.01   0.00    -0.05   0.10  -0.09
    20   6    -0.00   0.00  -0.00    -0.00   0.00  -0.00    -0.00   0.00   0.00
    21   7    -0.00   0.00  -0.00    -0.00   0.00  -0.00    -0.00   0.00  -0.00
    22   1    -0.01   0.01   0.01    -0.00   0.01   0.00    -0.01   0.03  -0.01
                     34                     35                     36
                      A                      A                      A
 Frequencies --   1079.5920              1082.6060              1172.1893
 Red. masses --      2.1843                 1.5759                 1.8614
 Frc consts  --      1.5000                 1.0882                 1.5069
 IR Inten    --     30.2877                46.2749               101.7134
  Atom  AN      X      Y      Z        X      Y      Z        X      Y      Z
     1   6     0.01  -0.02  -0.01    -0.02   0.06   0.05    -0.00   0.01   0.00
     2   6     0.01  -0.02   0.06    -0.00  -0.00   0.01     0.00   0.00  -0.00
     3   6    -0.01  -0.01  -0.03     0.02   0.03   0.09     0.10  -0.11   0.11
     4   6    -0.01   0.05  -0.15    -0.00   0.01  -0.03     0.00   0.00   0.00
     5   7    -0.01   0.03   0.02     0.02  -0.08  -0.06    -0.04   0.03  -0.04
     6   1     0.14  -0.15  -0.20     0.02  -0.01  -0.02    -0.00  -0.00   0.00
     7   1    -0.22   0.28  -0.00    -0.02   0.05   0.00    -0.00  -0.01  -0.00
     8   1     0.05  -0.19  -0.19    -0.16   0.65   0.64     0.14  -0.21   0.04
     9   1    -0.36   0.56  -0.27    -0.05   0.11  -0.04    -0.01   0.01  -0.00
    10   8     0.01  -0.01   0.00    -0.02   0.03  -0.00     0.00   0.05   0.08
    11   6     0.01  -0.01   0.02    -0.05   0.03  -0.09    -0.07   0.06  -0.11
    12   8    -0.01   0.01   0.00     0.02  -0.04  -0.01     0.03  -0.06  -0.01
    13   6     0.06  -0.09   0.04     0.02  -0.02   0.01     0.00  -0.00   0.00
    14   8    -0.02  -0.01   0.09    -0.00   0.00   0.02    -0.00  -0.00  -0.00
    15   8     0.06  -0.10   0.06     0.02  -0.03   0.02    -0.01   0.00  -0.00
    16   6    -0.06   0.11  -0.10    -0.02   0.03  -0.03     0.01   0.00   0.01
    17   1     0.01  -0.03   0.06    -0.00   0.00   0.01    -0.01  -0.01  -0.01
    18   1    -0.08   0.16  -0.01    -0.01   0.03  -0.00    -0.03   0.03  -0.03
    19   1    -0.15   0.18  -0.07    -0.03   0.05  -0.02     0.01  -0.03   0.02
    20   6    -0.00   0.01   0.00     0.00  -0.02  -0.01     0.00  -0.00   0.00
    21   7    -0.00   0.01  -0.00     0.01  -0.02   0.01     0.00  -0.01   0.00
    22   1    -0.04   0.07  -0.00     0.15  -0.21   0.00    -0.50   0.66  -0.41
                     37                     38                     39
                      A                      A                      A
 Frequencies --   1182.0253              1210.6014              1270.2844
 Red. masses --      1.3000                 1.5265                 1.7405
 Frc consts  --      1.0701                 1.3181                 1.6547
 IR Inten    --      5.6615                 7.6354               142.8281
  Atom  AN      X      Y      Z        X      Y      Z        X      Y      Z
     1   6    -0.00   0.00  -0.00     0.00  -0.00   0.00     0.00  -0.01   0.00
     2   6     0.00  -0.00   0.00    -0.00   0.01  -0.02     0.02  -0.01  -0.11
     3   6     0.00  -0.00   0.00    -0.00   0.00  -0.00    -0.00  -0.00  -0.01
     4   6    -0.00  -0.00  -0.00     0.00  -0.00  -0.01     0.00  -0.03   0.10
     5   7    -0.00   0.00  -0.00     0.00  -0.00   0.00     0.00   0.00   0.00
     6   1     0.01  -0.01  -0.01    -0.03   0.04   0.04    -0.06   0.07   0.05
     7   1    -0.00   0.01   0.00     0.02  -0.03  -0.01     0.25  -0.33  -0.06
     8   1     0.01  -0.01  -0.00    -0.01   0.00   0.00    -0.00   0.03   0.01
     9   1     0.02  -0.02   0.01    -0.15   0.22  -0.05    -0.47   0.67  -0.03
    10   8     0.00   0.00   0.00    -0.00  -0.00  -0.00     0.00  -0.00  -0.00
    11   6    -0.00   0.00  -0.00     0.00   0.00   0.00     0.00   0.00   0.00
    12   8     0.00  -0.00  -0.00    -0.00   0.00  -0.00    -0.00   0.00   0.00
    13   6    -0.02   0.01  -0.00     0.05  -0.07   0.01     0.08  -0.10  -0.01
    14   8     0.01   0.00  -0.00    -0.02   0.01   0.04    -0.00   0.01  -0.02
    15   8     0.05   0.03   0.01     0.02   0.00  -0.09    -0.07   0.10   0.03
    16   6    -0.11  -0.08  -0.03    -0.07   0.04   0.13     0.04  -0.06  -0.00
    17   1     0.20   0.27   0.06    -0.28   0.49  -0.37     0.07  -0.05   0.03
    18   1     0.38  -0.42   0.42     0.17  -0.33  -0.20    -0.08   0.11   0.09
    19   1    -0.04   0.52  -0.31     0.41  -0.27  -0.02    -0.15   0.16   0.01
    20   6     0.00  -0.00   0.00    -0.00   0.00  -0.00    -0.00   0.00  -0.00
    21   7     0.00  -0.00  -0.00    -0.00   0.00   0.00    -0.00   0.00  -0.00
    22   1    -0.02   0.03  -0.02     0.01  -0.01   0.00    -0.00  -0.01   0.01
                     40                     41                     42
                      A                      A                      A
 Frequencies --   1342.6288              1351.7216              1421.4469
 Red. masses --      2.2743                 2.1749                 1.2891
 Frc consts  --      2.4156                 2.3413                 1.5346
 IR Inten    --     31.9815               325.1509               122.6870
  Atom  AN      X      Y      Z        X      Y      Z        X      Y      Z
     1   6    -0.12   0.17  -0.07     0.05  -0.07   0.02     0.00  -0.00   0.00
     2   6     0.02  -0.01  -0.03     0.03  -0.03  -0.05     0.03  -0.03  -0.04
     3   6     0.03   0.06   0.18    -0.02  -0.02  -0.07    -0.00   0.01  -0.00
     4   6    -0.01   0.01   0.05    -0.04   0.03   0.09     0.06  -0.09   0.02
     5   7    -0.02   0.00  -0.04     0.01  -0.01   0.02     0.00  -0.01   0.00
     6   1     0.07  -0.07  -0.12     0.18  -0.18  -0.31    -0.29   0.28   0.54
     7   1     0.16  -0.21  -0.00     0.34  -0.48   0.01    -0.28   0.42  -0.11
     8   1     0.20  -0.55  -0.31    -0.09   0.22   0.13    -0.01   0.00  -0.01
     9   1    -0.12   0.16   0.03    -0.21   0.28   0.06    -0.18   0.25  -0.04
    10   8     0.00   0.00   0.01    -0.00   0.00   0.00    -0.00   0.00   0.00
    11   6    -0.01   0.01  -0.02     0.01  -0.01   0.01     0.00  -0.00   0.00
    12   8     0.02  -0.05  -0.04    -0.01   0.02   0.02    -0.00   0.00  -0.00
    13   6    -0.05   0.07   0.00    -0.13   0.16   0.01    -0.05   0.07   0.01
    14   8     0.00  -0.01   0.00     0.01  -0.02   0.01     0.01  -0.01  -0.01
    15   8     0.03  -0.04  -0.01     0.08  -0.10  -0.02     0.01  -0.01  -0.01
    16   6    -0.01   0.03  -0.01    -0.04   0.07  -0.03    -0.02   0.03  -0.02
    17   1     0.00  -0.07   0.07     0.03  -0.13   0.15     0.07  -0.16   0.19
    18   1     0.07  -0.06  -0.01     0.14  -0.12  -0.02     0.14  -0.12   0.04
    19   1     0.04  -0.08   0.00     0.12  -0.20  -0.00     0.10  -0.20   0.01
    20   6     0.02  -0.02   0.01    -0.01   0.01  -0.00     0.00  -0.00  -0.00
    21   7     0.04  -0.06   0.01    -0.02   0.03  -0.00    -0.00   0.00  -0.00
    22   1     0.30  -0.39   0.19    -0.13   0.19  -0.10    -0.02   0.02  -0.02
                     43                     44                     45
                      A                      A                      A
 Frequencies --   1455.2717              1464.0553              1475.3610
 Red. masses --      3.8237                 1.0971                 1.0846
 Frc consts  --      4.7711                 1.3856                 1.3910
 IR Inten    --     92.3390                37.7960                37.8721
  Atom  AN      X      Y      Z        X      Y      Z        X      Y      Z
     1   6     0.08  -0.07   0.09     0.01  -0.01   0.01     0.00  -0.00  -0.00
     2   6    -0.00   0.00   0.00    -0.01   0.01   0.01     0.01  -0.01  -0.01
     3   6    -0.14   0.32   0.10    -0.02   0.03   0.01    -0.00   0.01   0.00
     4   6    -0.00   0.00  -0.00    -0.00   0.01  -0.01     0.00  -0.01   0.01
     5   7     0.11  -0.24  -0.08     0.01  -0.02  -0.01     0.00  -0.00  -0.00
     6   1     0.01  -0.01  -0.02     0.02  -0.02  -0.05    -0.02   0.02   0.05
     7   1     0.01  -0.02   0.00     0.02  -0.03   0.01    -0.02   0.03  -0.01
     8   1    -0.01  -0.25  -0.42     0.01  -0.03  -0.05     0.01  -0.00  -0.01
     9   1     0.01  -0.01   0.00     0.02  -0.03  -0.00    -0.02   0.03   0.00
    10   8    -0.01   0.03   0.01    -0.00   0.00   0.00    -0.00   0.00   0.00
    11   6     0.02  -0.02   0.03     0.00  -0.00   0.00    -0.00  -0.00  -0.00
    12   8     0.00  -0.03  -0.04     0.00  -0.00  -0.00     0.00   0.00   0.00
    13   6     0.01  -0.01  -0.01     0.02  -0.03   0.00    -0.02   0.03  -0.01
    14   8    -0.00   0.00   0.01     0.00   0.00  -0.01    -0.00  -0.00   0.01
    15   8     0.00   0.00   0.00    -0.03   0.01   0.01     0.02  -0.03  -0.02
    16   6     0.02   0.00   0.01    -0.05  -0.01  -0.01     0.01  -0.03  -0.03
    17   1    -0.20  -0.10  -0.15     0.52   0.22   0.42     0.11   0.53  -0.27
    18   1     0.10  -0.09  -0.01    -0.24   0.21  -0.02    -0.15   0.34   0.55
    19   1    -0.19   0.10   0.08     0.53  -0.22  -0.24    -0.24  -0.28   0.23
    20   6    -0.01  -0.00  -0.02    -0.00  -0.00  -0.00    -0.00   0.00  -0.00
    21   7    -0.03   0.04  -0.00    -0.00   0.00  -0.00    -0.00   0.00  -0.00
    22   1    -0.32   0.30  -0.43    -0.02   0.02  -0.04     0.00  -0.00  -0.00
                     46                     47                     48
                      A                      A                      A
 Frequencies --   1483.5761              1494.9629              1634.3437
 Red. masses --      1.2880                 6.3592                 5.5541
 Frc consts  --      1.6702                 8.3736                 8.7408
 IR Inten    --     49.6024                43.9808               125.5527
  Atom  AN      X      Y      Z        X      Y      Z        X      Y      Z
     1   6     0.00  -0.02  -0.01    -0.08   0.40   0.39     0.24  -0.21   0.33
     2   6     0.02  -0.02  -0.02     0.00  -0.00  -0.00     0.00  -0.00  -0.00
     3   6    -0.00   0.01   0.01    -0.00  -0.07  -0.11     0.04  -0.00   0.10
     4   6     0.01  -0.02   0.02     0.00  -0.00   0.01     0.00  -0.00   0.00
     5   7     0.00  -0.00   0.00    -0.03  -0.01  -0.08    -0.21   0.18  -0.27
     6   1    -0.06   0.05   0.12    -0.01   0.01   0.02    -0.00   0.00   0.01
     7   1    -0.05   0.08  -0.04    -0.01   0.01  -0.01    -0.00   0.00  -0.00
     8   1     0.00  -0.01  -0.00    -0.03   0.00  -0.07     0.11  -0.29  -0.13
     9   1    -0.06   0.08   0.01    -0.01   0.01   0.00    -0.00   0.00   0.00
    10   8    -0.00   0.01   0.01     0.03  -0.18  -0.20    -0.01  -0.02  -0.04
    11   6    -0.00   0.00  -0.00     0.09  -0.08   0.11    -0.04   0.05  -0.02
    12   8     0.00  -0.00  -0.00    -0.03   0.05   0.01     0.01  -0.02  -0.01
    13   6    -0.06   0.08  -0.01    -0.01   0.02  -0.01    -0.00   0.01  -0.01
    14   8     0.00  -0.01   0.01     0.00  -0.00   0.01     0.00  -0.00   0.00
    15   8     0.03  -0.05   0.00     0.01  -0.01  -0.00     0.00  -0.00  -0.00
    16   6     0.03  -0.07   0.05     0.00  -0.01   0.01    -0.00   0.00  -0.00
    17   1    -0.02   0.26  -0.22     0.02   0.08  -0.04    -0.01  -0.02   0.00
    18   1    -0.44   0.24  -0.43    -0.10   0.07  -0.05     0.03  -0.02   0.01
    19   1     0.08   0.57  -0.24     0.02   0.08  -0.04    -0.01  -0.01   0.01
    20   6    -0.00   0.00   0.00    -0.00  -0.02  -0.03    -0.01   0.01  -0.02
    21   7    -0.00   0.00  -0.00     0.05  -0.08   0.02    -0.04   0.07  -0.00
    22   1     0.01  -0.02   0.01    -0.38   0.47  -0.37     0.38  -0.58   0.14
                     49                     50                     51
                      A                      A                      A
 Frequencies --   1736.8726              1837.8345              1917.3311
 Red. masses --      5.3509                11.1452                12.3753
 Frc consts  --      9.5107                22.1794                26.8041
 IR Inten    --     45.4614               215.7133              1222.5798
  Atom  AN      X      Y      Z        X      Y      Z        X      Y      Z
     1   6     0.00  -0.00  -0.00     0.01  -0.00   0.01    -0.00  -0.00  -0.01
     2   6     0.24  -0.30  -0.14    -0.03   0.03   0.03    -0.00   0.00   0.00
     3   6    -0.00   0.00   0.00    -0.00   0.01   0.01    -0.01  -0.08  -0.13
     4   6    -0.28   0.36   0.09     0.02  -0.01  -0.09     0.00  -0.00  -0.00
     5   7     0.00  -0.00  -0.00    -0.00  -0.00  -0.01     0.02  -0.03   0.01
     6   1    -0.02  -0.08   0.43     0.04  -0.04  -0.13    -0.00  -0.00  -0.01
     7   1    -0.18   0.33  -0.31     0.04  -0.07   0.07    -0.00  -0.01   0.00
     8   1     0.00   0.00  -0.00     0.01  -0.01  -0.01    -0.09   0.19   0.04
     9   1     0.15  -0.27   0.28    -0.09   0.16  -0.14    -0.01   0.01  -0.01
    10   8    -0.00  -0.00   0.00     0.00  -0.00  -0.00    -0.02  -0.01  -0.05
    11   6     0.00  -0.00  -0.00     0.01  -0.03  -0.03    -0.13   0.58   0.58
    12   8    -0.00   0.00   0.00    -0.01   0.02   0.02     0.11  -0.36  -0.29
    13   6     0.05  -0.08   0.05    -0.13  -0.08   0.76    -0.01  -0.00   0.05
    14   8    -0.00   0.01  -0.03     0.08   0.05  -0.47     0.01   0.00  -0.03
    15   8     0.00  -0.01   0.00     0.03  -0.02  -0.06     0.00  -0.01  -0.01
    16   6    -0.00   0.01  -0.00     0.01  -0.02   0.02     0.00  -0.00  -0.00
    17   1    -0.01   0.00   0.00    -0.06   0.12  -0.15     0.01   0.02  -0.01
    18   1     0.01  -0.00   0.01    -0.11   0.07  -0.01    -0.01   0.02   0.03
    19   1    -0.00  -0.02   0.01    -0.06   0.11   0.04    -0.01  -0.01   0.01
    20   6    -0.00   0.00   0.00    -0.00   0.00  -0.00    -0.01   0.02  -0.00
    21   7     0.00  -0.00   0.00     0.00   0.00  -0.00     0.01  -0.02   0.00
    22   1     0.00  -0.00   0.00     0.05   0.01  -0.02    -0.01   0.02  -0.01
                     52                     53                     54
                      A                      A                      A
 Frequencies --   2390.8338              3071.0344              3174.8227
 Red. masses --     12.6475                 1.0318                 1.0617
 Frc consts  --     42.5945                 5.7334                 6.3048
 IR Inten    --    184.0498                30.6868                 1.0350
  Atom  AN      X      Y      Z        X      Y      Z        X      Y      Z
     1   6     0.07  -0.12   0.01     0.00   0.00   0.00    -0.00   0.00  -0.00
     2   6     0.00  -0.00   0.00    -0.00   0.00  -0.00     0.04  -0.05  -0.03
     3   6    -0.01   0.03   0.02     0.00   0.00  -0.00    -0.00   0.00   0.00
     4   6     0.00  -0.00   0.00    -0.00   0.00   0.00    -0.00   0.01  -0.01
     5   7     0.01  -0.02   0.00    -0.00   0.00  -0.00     0.00  -0.00   0.00
     6   1    -0.00   0.00  -0.00     0.00  -0.00   0.00    -0.26   0.45  -0.38
     7   1    -0.00   0.00   0.00     0.00  -0.00  -0.00    -0.14   0.02   0.74
     8   1    -0.01   0.00  -0.02     0.00  -0.00  -0.00    -0.00   0.00  -0.00
     9   1    -0.00  -0.00  -0.00     0.00  -0.00  -0.00    -0.02   0.01   0.11
    10   8     0.01  -0.01   0.00    -0.00  -0.00  -0.00    -0.00  -0.00   0.00
    11   6    -0.01  -0.01  -0.03     0.00   0.00   0.00    -0.00  -0.00  -0.00
    12   8    -0.00   0.01   0.01     0.00  -0.00  -0.00    -0.00   0.00   0.00
    13   6    -0.00   0.00  -0.00     0.00  -0.00  -0.00     0.00   0.00  -0.00
    14   8    -0.00  -0.00   0.00    -0.00  -0.00   0.00    -0.00   0.00   0.00
    15   8     0.00  -0.00   0.00    -0.00   0.00  -0.00     0.00  -0.00   0.00
    16   6    -0.00   0.00  -0.00    -0.01   0.03  -0.03     0.00   0.00   0.00
    17   1    -0.00  -0.00   0.00     0.30  -0.18  -0.29     0.00  -0.00   0.00
    18   1     0.00  -0.00  -0.00    -0.45  -0.43   0.16    -0.02  -0.02   0.01
    19   1    -0.00  -0.00   0.00     0.28   0.21   0.50    -0.01  -0.01  -0.02
    20   6    -0.42   0.68  -0.09     0.00  -0.00  -0.00     0.00  -0.00  -0.00
    21   7     0.30  -0.48   0.06    -0.00   0.00   0.00    -0.00   0.00  -0.00
    22   1     0.00  -0.01  -0.01     0.00   0.00  -0.00    -0.00  -0.00  -0.00
                     55                     56                     57
                      A                      A                      A
 Frequencies --   3175.5657              3212.4006              3226.8184
 Red. masses --      1.1081                 1.1083                 1.0974
 Frc consts  --      6.5837                 6.7387                 6.7325
 IR Inten    --     12.2779                 7.6207                 0.3963
  Atom  AN      X      Y      Z        X      Y      Z        X      Y      Z
     1   6     0.00   0.00  -0.00     0.00   0.00   0.00    -0.00  -0.00  -0.00
     2   6     0.00  -0.00  -0.00    -0.00   0.00   0.00    -0.01   0.01   0.02
     3   6    -0.00   0.00   0.00    -0.00  -0.00   0.00     0.00  -0.00  -0.00
     4   6    -0.00   0.00  -0.00    -0.00   0.00   0.00     0.02  -0.01  -0.09
     5   7     0.00  -0.00   0.00     0.00  -0.00  -0.00    -0.00   0.00   0.00
     6   1    -0.01   0.01  -0.01     0.00  -0.00   0.00    -0.01   0.01  -0.01
     7   1    -0.00   0.00   0.02     0.00  -0.00  -0.00     0.03  -0.00  -0.15
     8   1    -0.00  -0.00   0.00    -0.00   0.00   0.00     0.00  -0.00   0.00
     9   1    -0.00   0.00   0.00     0.00   0.00  -0.00    -0.21   0.05   0.96
    10   8     0.00   0.00   0.00     0.00  -0.00  -0.00    -0.00   0.00   0.00
    11   6    -0.00  -0.00  -0.00    -0.00   0.00   0.00    -0.00  -0.00  -0.00
    12   8    -0.00   0.00   0.00     0.00  -0.00  -0.00    -0.00   0.00   0.00
    13   6     0.00   0.00  -0.00     0.00  -0.00   0.00     0.00  -0.00   0.00
    14   8     0.00  -0.00   0.00    -0.00   0.00  -0.00    -0.00  -0.00   0.00
    15   8     0.00   0.00   0.00     0.00  -0.00  -0.00    -0.00   0.00   0.00
    16   6    -0.07  -0.06  -0.03    -0.05   0.03   0.08    -0.00   0.00   0.00
    17   1     0.05  -0.04  -0.06     0.58  -0.36  -0.57     0.00  -0.00  -0.00
[...]
 00006338,-0.00027564,-0.00909396,0.00820569,-0.00723086,0.00005183,0.0
 0007671,-0.00003746,0.00010539,0.00011843,0.00015261,-0.00012363,0.000
 64794,0.00087107,0.00005229,-0.00006232,0.00005516,0.00772857,0.004036
 18,0.03676513,0.09005420,-0.32374222,-0.34729225,-0.10355850,0.3737338
 3,0.35750405,-0.00271462,0.00182276,-0.00190973,-0.00783058,0.01934141
 ,-0.00703716,-0.00025679,0.00121618,0.00203949,-0.10379251,0.03947105,
 -0.03751132,0.00055440,-0.00284965,0.00165184,0.00824072,0.00744274,0.
 00300342,-0.00662086,-0.00348596,-0.00157502,0.00018982,-0.00003734,-0
 .00008306,0.00443632,-0.00675704,0.00746563,0.00032855,0.00012885,-0.0
 0026043,0.00081466,-0.00368154,-0.00402804,-0.00111319,0.00250353,0.00
 238607,0.39396709,0.00122047,-0.00257265,0.00209808,0.01909072,-0.0228
 3417,0.00721676,0.00238794,-0.00249066,-0.00229177,0.03603182,-0.15012
 659,0.06664670,-0.00426733,0.00311012,-0.00128144,0.00683647,0.0041475
 3,-0.00017257,-0.00435722,-0.00353104,0.00063024,-0.00054429,-0.000358
 91,0.00032905,-0.00246906,0.00545184,-0.00695217,-0.00007276,0.0019080
 5,0.00049520,-0.00063121,-0.00016646,0.00292900,0.00077467,-0.00097794
 ,-0.00133701,-0.19096278,0.50509838,0.00113632,0.00064265,0.00510849,-
 0.00309505,0.00030489,0.01899210,-0.00374180,0.00307401,0.00000404,-0.
 02209482,0.04693706,-0.14592530,-0.00056607,-0.00419027,-0.00148301,0.
 00439435,-0.00195754,-0.00252669,0.00135553,-0.00326938,-0.00210551,0.
 00036043,0.00069272,-0.00025563,-0.01089797,0.01868775,-0.01140626,0.0
 0131187,-0.00239111,-0.00303775,-0.00168456,0.00435117,0.00375371,0.00
 126674,-0.00273856,-0.00267653,-0.12214185,-0.09471323,1.00499926,0.00
 145233,-0.00076341,0.00358096,-0.00105243,0.00172239,-0.00090596,-0.00
 225509,0.00067681,-0.00059956,0.01831476,0.00464531,-0.00998453,-0.005
 07059,-0.00343558,-0.00123568,-0.00078853,-0.00104236,-0.00089528,0.00
 075286,-0.00025686,-0.00083244,0.00004751,0.00020380,-0.00013907,0.000
 53573,0.00309486,-0.00150274,0.00056737,-0.00100277,-0.00128766,-0.000
 77065,0.00267247,0.00251185,0.00067788,-0.00178282,-0.00164866,-0.1090
 1291,0.00570602,0.09742062,0.09495052,-0.00012560,0.00150597,0.0007347
 8,-0.00049870,-0.00032277,0.00268264,-0.00393020,0.00114682,0.00082796
 ,0.00221844,0.00562087,0.03470942,-0.00077907,-0.00482146,0.00018396,-
 0.00093636,-0.00025391,0.00055822,-0.00034952,0.00057507,0.00086159,0.
 00047242,0.00053248,-0.00045396,0.00359252,-0.00363195,0.00334622,0.00
 058038,-0.00153990,-0.00125525,-0.00062564,0.00189880,0.00091262,0.000
 26422,-0.00094854,-0.00073003,0.00633112,-0.11330180,0.07448812,-0.024
 01318,0.09439232,-0.00043031,-0.00009343,-0.00272088,0.00596964,-0.006
 84378,-0.00506939,0.00198454,-0.00175830,0.00005272,-0.00286735,0.0248
 5548,-0.04335318,0.00106926,0.00271073,0.00107488,-0.00089121,0.000136
 77,0.00110557,-0.00113629,0.00145396,0.00123779,-0.00022345,-0.0004714
 9,0.00008668,-0.00273001,0.00498438,-0.00220076,-0.00060938,0.00136415
 ,0.00190392,0.00096816,-0.00249706,-0.00198108,-0.00070388,0.00141182,
 0.00148292,0.09877800,0.07736668,-0.71281034,-0.14355071,-0.07085945,0
 .83343883,0.00125580,-0.00111433,0.00129635,0.00102664,0.00126218,-0.0
 0522303,0.00032015,-0.00048524,-0.00104158,-0.01558916,0.03196728,0.01
 160549,-0.00085681,0.00111316,-0.00087337,-0.00112478,0.00049602,0.000
 31987,0.00080901,-0.00072153,0.00031021,-0.00012149,0.00007506,0.00008
 978,-0.00062212,0.00004344,-0.00021042,-0.00004134,-0.00034746,-0.0000
 6856,-0.00012938,0.00225356,0.00162097,0.00054456,-0.00129653,-0.00106
 016,-0.15749348,0.09833449,0.06472851,0.00042903,0.02028362,0.05441097
 ,0.27387043,-0.00164496,0.00167764,-0.00238038,0.00044256,-0.00189103,
 0.00742530,-0.00020743,0.00076987,0.00171004,0.03806292,-0.03455659,-0
 .01590678,0.00206517,-0.00134108,0.00122705,0.00054350,-0.00173692,-0.
 00082364,-0.00018354,0.00109436,-0.00032936,0.00037982,0.00004756,-0.0
 0024479,0.00017028,-0.00057489,-0.00038465,-0.00017414,0.00005191,0.00
 020798,0.00142758,-0.00206848,-0.00317720,-0.00109096,0.00184191,0.001
 75794,0.10265060,-0.18713137,-0.05547472,0.02079522,0.01704026,-0.0385
 4945,-0.24077199,0.41341447,-0.00032680,-0.00006321,-0.00167899,-0.001
 68275,0.00296348,-0.00135761,0.00058425,-0.00046066,0.00033330,-0.0082
 8596,0.00987105,0.01220028,0.00060441,0.00069188,0.00063757,-0.0005812
 7,0.00060527,0.00060979,-0.00058499,0.00085126,0.00015944,-0.00010438,
 -0.00014955,0.00005690,-0.00000523,-0.00050698,0.00170501,-0.00031021,
 0.00049860,0.00089761,0.00073685,-0.00128062,-0.00176134,-0.00053758,0
 .00095003,0.00117255,0.05219764,-0.03892163,-0.16317142,0.05706924,-0.
 04082754,-0.07079286,-0.06529762,-0.00833486,0.36301031,-0.00048891,0.
 00024164,-0.00019615,-0.00034702,0.00058018,-0.00016584,-0.00065062,-0
 .00008020,0.00005418,0.00452623,0.00230627,0.00313642,0.00011929,-0.00
 006472,0.00010903,-0.00048325,-0.00032550,0.00001487,0.00011374,0.0001
 9005,-0.00000261,-0.00000751,0.00002551,0.00002843,-0.00004869,-0.0001
 2393,-0.00017312,0.00011105,0.00012608,0.00001297,-0.00070796,-0.00052
 424,0.00014799,0.00035184,0.00031845,0.00016053,-0.02566477,0.03660283
 ,-0.00056322,-0.00106450,-0.00326444,-0.01126984,-0.09477887,0.0425331
 4,-0.01989546,0.59303878,0.00150949,-0.00192511,0.00111407,0.00048158,
 -0.00024100,-0.00028976,0.00120079,-0.00059335,-0.00130329,0.00131149,
 0.00523625,-0.00162540,-0.00132280,0.00189649,-0.00076281,-0.00040920,
 -0.00010216,-0.00013638,0.00022241,-0.00010734,0.00012305,-0.00039591,
 -0.00022443,0.00043786,-0.00019769,-0.00002680,0.00019983,-0.00014884,
 0.00018786,0.00027553,-0.00054347,0.00095486,0.00092801,0.00062299,-0.
 00061319,-0.00043615,0.03398157,-0.04337098,-0.00195216,-0.00913810,0.
 00200852,0.01354038,0.04855650,-0.15587803,0.04842043,0.03216571,0.535
 76115,-0.00054580,0.00057685,-0.00032826,0.00007993,-0.00050286,0.0012
 4834,0.00006383,0.00029709,0.00044238,0.00404105,-0.00242218,-0.001267
 61,0.00033441,-0.00050525,0.00028501,0.00008353,-0.00036026,-0.0001150
 9,-0.00005939,0.00019610,-0.00007090,0.00009985,-0.00005735,-0.0000389
 5,0.00006787,-0.00022568,0.00020114,-0.00001711,0.00014398,-0.00016118
 ,0.00046228,-0.00114960,-0.00073809,-0.00063344,0.00060611,0.00032405,
 0.00023507,-0.00698116,0.02277791,0.00340223,-0.00391683,-0.00719313,-
 0.03381982,0.06887984,-0.13392856,-0.04268594,0.06317912,0.59194571,-0
 .00009711,0.00027277,-0.00002819,-0.00003735,0.00013339,-0.00025126,-0
 .00041275,0.00002298,0.00002134,-0.00021869,0.00048593,0.00052680,0.00
 016189,-0.00033455,0.00001285,-0.00006641,0.00002334,0.00002412,0.0000
 2928,-0.00001202,0.00000675,0.00008664,0.00009898,-0.00010817,-0.00000
 095,0.00000926,0.00000132,0.00012279,-0.00026209,-0.00003766,-0.000151
 55,0.00066785,0.00046730,0.00022929,-0.00033988,-0.00031642,0.00099946
 ,-0.00058523,-0.00367737,0.00047541,-0.00037165,0.00095487,-0.01209176
 ,0.01219277,0.00658612,-0.17231417,0.07170138,0.12029589,0.18163485,-0
 .00024652,0.00038084,-0.00016759,0.00007099,-0.00022705,0.00039310,-0.
 00037940,0.00010150,0.00017050,0.00058572,-0.00065582,-0.00087302,0.00
 027205,-0.00040423,0.00011220,0.00006112,-0.00008578,-0.00004482,-0.00
 001332,0.00003425,-0.00001627,0.00008875,0.00008990,-0.00010092,0.0000
 0347,0.00000661,0.00001486,0.00010094,-0.00020702,-0.00004175,-0.00008
 900,0.00026889,0.00011541,0.00008001,-0.00012931,-0.00008910,0.0005061
 7,-0.00095586,0.00525336,0.00015934,0.00082430,-0.00119385,0.02475845,
 -0.02197486,-0.01463657,0.06673252,-0.08953051,-0.07025616,-0.08633366
 ,0.10435910,0.00005459,-0.00013143,0.00002693,-0.00005218,0.00011069,-
 0.00018327,0.00019861,-0.00003338,-0.00004311,-0.00018069,0.00045687,0
 .00064226,-0.00009834,0.00017935,-0.00002747,-0.00006079,0.00002540,0.
 00002939,0.00000540,0.00001695,0.00001868,-0.00006570,-0.00006622,0.00
 004439,0.00001793,-0.00002563,0.00001391,-0.00003344,0.00009409,0.0000
 3348,0.00003421,-0.00016543,-0.00009268,-0.00002975,0.00009340,0.00005
 092,-0.00097286,0.00250842,-0.00437833,0.00104355,-0.00175052,0.001806
 45,-0.01924141,0.01557709,0.01295500,0.12857777,-0.08010883,-0.1752908
 3,-0.12792940,0.07356363,0.17792612,0.00051360,-0.00069528,0.00015848,
 -0.00003112,0.00000056,-0.00002907,0.00002506,-0.00028537,-0.00029543,
 -0.00096414,-0.00068790,-0.00012915,-0.00039129,0.00047761,-0.00007597
 ,0.00005854,0.00006320,0.00001748,-0.00001406,-0.00001644,0.00000421,-
 0.00061109,-0.00025029,0.00041520,0.00004698,-0.00000305,-0.00000299,-
 0.00010841,0.00053023,0.00014083,-0.00093441,-0.00069698,-0.00007660,0
 .00016602,0.00036693,0.00014444,0.00222966,0.00039713,-0.00211293,0.00
 005810,0.00025468,0.00071245,0.01500637,0.01923914,-0.00595842,-0.1954
 9625,-0.13506532,0.04874056,-0.01078063,-0.01314030,0.00158391,0.19892
 020,-0.00035324,0.00068489,-0.00036338,-0.00005849,0.00005655,0.000211
 89,-0.00125201,0.00003581,0.00035899,0.00119723,-0.00013654,-0.0001783
 7,0.00071899,-0.00086357,0.00023139,-0.00006383,-0.00010958,-0.0000344
 6,0.00002354,0.00002419,-0.00001134,-0.00001876,0.00021940,0.00000865,
 -0.00008352,0.00004762,-0.00006770,0.00021682,-0.00046207,-0.00006110,
 -0.00037305,0.00084600,0.00024998,0.00029069,-0.00040147,-0.00011024,-
 0.00528327,0.00333555,0.00700237,0.00033584,0.00080590,-0.00321510,-0.
 00688684,-0.03074032,0.01124050,-0.12691861,-0.16535181,0.04034218,0.0
 0945758,0.01096587,-0.00342758,0.13612143,0.18576098,0.00001639,0.0000
 6102,0.00011017,0.00001085,-0.00003441,-0.00012123,0.00021514,-0.00013
 147,-0.00036777,-0.00064170,0.00023307,-0.00010290,-0.00002261,-0.0001
 6839,-0.00023999,0.00001795,0.00005621,0.00001284,0.00001584,-0.000034
 11,0.00001327,0.00050082,0.00027436,-0.00032375,0.00004655,-0.00000666
 ,0.00001679,0.00012361,-0.00024297,-0.00006526,-0.00119633,0.00156592,
 0.00151234,0.00108591,-0.00079424,-0.00080460,0.00253022,-0.00310764,-
 0.00145461,-0.00072361,0.00125292,0.00125628,0.00591746,0.02062195,-0.
 00673133,0.04532661,0.03935373,-0.06454014,0.01323736,0.01353305,-0.00
 262320,-0.04863456,-0.05506446,0.06619992,-0.00002953,0.00009700,-0.00
 008558,0.00001150,-0.00003046,-0.00003105,-0.00007877,0.00004541,0.000
 09126,0.00016224,0.00043739,0.00050781,0.00002039,-0.00008303,0.000078
 98,-0.00004701,-0.00000957,0.00001179,-0.00002016,0.00003928,-0.000000
 95,-0.00003208,-0.00001685,-0.00004910,0.00003884,-0.00014031,0.000093
 90,0.00000452,-0.00003180,0.00004139,0.00017870,-0.00010216,-0.0001534
 2,-0.00009843,0.00008772,0.00009396,0.00314176,-0.00218111,-0.00658186
 ,-0.00011304,-0.00086417,0.00322833,-0.01106306,0.00433039,-0.01280006
 ,-0.10595721,-0.04478740,-0.09998106,0.01236349,0.00675927,0.01720692,
 -0.00752443,-0.00712961,-0.01793070,0.10909050,-0.00014886,0.00027463,
 -0.00011753,-0.00001279,-0.00002375,0.00006969,-0.00017519,0.00016154,
 0.00020589,-0.00056649,-0.00109734,-0.00033379,0.00013132,-0.00027781,
 0.00014178,0.00009442,0.00002865,-0.00000388,-0.00000397,-0.00001239,-
 0.00001169,0.00001317,0.00002318,-0.00007062,-0.00003985,0.00015238,-0
 .00006510,0.00001320,-0.00005949,-0.00003818,0.00018298,-0.00032729,-0
 .00031686,-0.00020244,0.00019078,0.00019857,-0.00147577,0.00331612,0.0
 0445060,0.00080294,-0.00073526,-0.00180175,0.02180368,0.00312625,0.029
 57336,-0.05041519,-0.08878958,-0.08762023,-0.00676483,-0.00272570,-0.0
 0695715,-0.00683764,-0.00445795,-0.01735810,0.04359150,0.09130923,0.00
 012531,-0.00010081,0.00007142,0.00010367,0.00000423,-0.00008694,-0.000
 04420,-0.00004340,-0.00006377,-0.00045376,0.00040392,-0.00007415,-0.00
 007409,0.00004965,-0.00005365,-0.00004922,0.00001920,0.00000627,0.0000
 0852,-0.00002378,0.00002856,-0.00000742,0.00001606,0.00000458,-0.00000
 765,-0.00004221,0.00007226,-0.00001108,-0.00001433,0.00000787,-0.00003
 141,0.00019453,0.00011053,0.00005892,-0.00010750,-0.00006168,0.0040163
 0,-0.00376421,-0.00254756,0.00005059,-0.00035044,0.00194099,-0.0128202
 8,0.00720760,-0.01484305,-0.10290329,-0.08058785,-0.23376309,-0.009745
 19,-0.00577470,-0.01090952,0.00543103,0.00283145,0.00830303,0.11628717
 ,0.08004292,0.25190287,-0.11563904,0.12761902,-0.02692018,-0.00091098,
 -0.00071100,-0.00013673,0.00837925,-0.01305399,-0.01425556,-0.00100055
 ,0.00025777,0.00005997,-0.02833499,0.03324581,-0.01146930,0.00016469,0
 .00028066,-0.00019363,-0.00009937,-0.00005616,-0.00017993,0.00135804,0
 .00174190,-0.00074119,0.00005852,0.00005736,-0.00003746,-0.01327276,0.
 01835298,0.00960631,0.00492692,-0.00289363,0.01793784,0.00216039,-0.00
 271534,-0.00643422,0.00009605,-0.00139798,0.00136316,0.00051384,0.0008
 9330,-0.00063274,-0.00018188,0.00045385,-0.00016714,-0.00010277,-0.000
 47062,0.00009740,0.00008766,0.00010442,-0.00005152,-0.00026228,0.00019
 199,-0.00001138,0.00002910,0.00009090,-0.00000879,0.51046936,0.1261339
 2,-0.24334708,0.01464424,-0.00066422,-0.00035248,0.00033717,-0.0045785
 9,0.02617972,0.01678868,0.00061496,-0.00047412,0.00041669,0.02818837,-
 0.03946484,0.02367459,0.00000050,-0.00019998,0.00005147,-0.00038061,0.
 00000909,-0.00041177,0.00144343,-0.00008277,0.00023820,-0.00004160,-0.
 00010820,0.00006347,0.02544181,-0.05553495,-0.00756836,-0.01651953,0.0
 0421931,-0.03148606,0.00235148,0.00474528,0.00889431,-0.00160722,0.003
 57623,-0.00205157,0.00002925,-0.00202376,0.00130454,0.00086950,-0.0016
 4362,0.00010416,-0.00004372,0.00110368,-0.00033134,-0.00011706,-0.0002
 2948,0.00008716,0.00045842,-0.00044373,0.00002277,-0.00002705,-0.00018
 080,0.00004809,-0.69442761,1.20797680,-0.02894807,0.01873464,-0.078037
 78,0.00004396,0.00003006,0.00015189,-0.00138543,-0.00661745,-0.0071391
 6,0.00001130,0.00014230,-0.00012205,-0.02045942,0.03919972,-0.00074384
 ,0.00002478,0.00003020,-0.00002831,-0.00025785,0.00000074,-0.00046309,
 -0.00108248,0.00085294,0.00078693,0.00002022,0.00002438,-0.00002361,0.
 01923826,-0.02424127,0.00775715,-0.00100760,0.00348215,-0.00172431,0.0
 0105426,-0.00460034,-0.00114351,0.00043998,-0.00091533,0.00039097,-0.0
 0008857,0.00042705,-0.00033566,-0.00020968,0.00041836,-0.00000344,0.00
 001615,-0.00022557,0.00007983,0.00000645,0.00003878,-0.00001322,-0.000
 07308,0.00008601,-0.00005024,0.00001166,0.00004780,-0.00001089,0.09578
 857,-0.13243670,0.12924377,-0.00311668,0.02304485,-0.00545443,-0.00092
 385,-0.00012853,0.00020598,-0.00268309,0.00603181,0.00478190,0.0001664
 7,-0.00010739,-0.00020147,0.00890049,-0.00757977,0.00467638,0.00002378
 ,-0.00000462,-0.00007280,-0.00000496,0.00002081,0.00014075,-0.00030825
 ,-0.00039942,0.00036021,-0.00000169,-0.00000118,0.00001141,0.00391951,
 -0.00400713,-0.00255409,-0.00168274,-0.00009099,-0.00799440,-0.0008192
 1,0.00210612,0.00321089,0.00027403,0.00019647,-0.00026185,-0.00034455,
 -0.00026654,0.00006399,-0.00005887,-0.00004082,0.00007642,0.00012006,0
 .00025627,-0.00006857,-0.00006178,-0.00004627,0.00002630,0.00004514,-0
 .00011146,0.00001533,-0.00003374,-0.00004273,0.00000197,-0.36656575,0.
 53472802,-0.06407766,0.36297028,0.02631686,-0.02561036,0.01315578,-0.0
 0033844,-0.00008548,-0.00023231,0.00310564,-0.01190246,-0.00758262,-0.
 00090356,0.00036301,-0.00028981,-0.01001517,0.01408330,-0.00985470,0.0
 0010000,0.00018253,-0.00015267,0.00018066,-0.00006165,0.00030751,-0.00
 044565,0.00005658,-0.00032746,0.00004582,0.00008500,-0.00003776,-0.004
 27266,0.01139057,0.00253883,0.00558133,0.00088264,0.01412222,0.0000060
 1,-0.00410903,-0.00526308,0.00117077,-0.00256474,0.00157147,0.00007292
 ,0.00134402,-0.00099310,-0.00064393,0.00117661,-0.00005069,0.00003927,
 -0.00072821,0.00023311,0.00005647,0.00013977,-0.00005389,-0.00026879,0
 .00026582,-0.00003975,0.00001398,0.00011953,-0.00003509,0.53382149,-0.
 90338846,0.10488502,-0.55389420,0.91890605,-0.00163524,0.00634771,0.01
 635180,0.00011159,0.00001803,-0.00020355,0.00007058,0.00164643,0.00141
 952,0.00017867,-0.00001030,0.00017281,0.00182046,-0.00473166,0.0007514
 5,-0.00005085,-0.00011457,0.00000718,0.00007048,-0.00002563,0.00005001
 ,0.00022515,-0.00007714,-0.00010543,-0.00004614,0.00002033,0.00003415,
 -0.00211423,0.00141160,-0.00077998,-0.00037657,-0.00077547,-0.00067275
 ,-0.00009298,0.00104418,0.00055231,-0.00019871,0.00039089,-0.00045865,
 -0.00003047,-0.00020359,0.00032762,0.00008144,-0.00014755,0.00008624,-
 0.00001261,0.00009662,-0.00004194,-0.00000690,-0.00001760,0.00000703,0
 .00003437,-0.00003647,0.00000538,0.00000270,-0.00001583,0.00000559,-0.
 06511137,0.10678026,-0.04839806,0.06707244,-0.11129181,0.03093142,0.00
 005318,-0.01354561,-0.00829119,-0.00003998,0.00000730,-0.00012667,0.00
 388155,0.00346568,0.01530387,-0.00018974,0.00022825,-0.00015088,-0.041
 37776,-0.00078066,-0.04339180,0.00000944,0.00003819,-0.00004454,0.0001
 0733,-0.00013858,0.00001359,-0.00119640,-0.00088949,0.00026897,-0.0000
 3089,0.00008869,-0.00008721,0.00529264,0.00377494,-0.00536749,-0.00012
 611,0.00519356,-0.00104062,0.00021180,0.00014683,0.00131513,-0.0007728
 2,-0.00011010,0.00408184,0.00169695,0.00113439,-0.00309501,0.00089098,
 -0.00117311,-0.00131707,-0.00026851,0.00046915,-0.00019279,0.00004238,
 -0.00003475,-0.00003311,0.00004842,-0.00002143,0.00010088,-0.00004360,
 -0.00003835,0.00007290,-0.00187345,-0.00185247,0.00093426,0.00018537,0
 .00027119,0.00000819,0.03349921,-0.00371573,0.01281879,0.01140373,-0.0
 0007644,0.00005973,0.00024899,-0.00720632,-0.00458838,-0.02068314,0.00
 006231,-0.00006128,-0.00008692,0.00016577,-0.18319448,-0.18987992,0.00
 002970,0.00000193,-0.00007869,0.00002219,-0.00011423,0.00004659,-0.000
 69231,0.00046689,0.00085299,0.00001453,0.00000231,-0.00004384,0.004300
 70,0.00365389,0.00499146,0.00447033,-0.00600646,-0.00080482,-0.0005720
 5,0.00077706,-0.00060377,-0.00042618,0.00043934,0.00128236,0.00051790,
 -0.00011597,-0.00085216,0.00045090,-0.00070363,-0.00053770,-0.00010111
 ,0.00033370,-0.00012548,-0.00000175,-0.00004540,0.00000702,0.00003803,
 -0.00008155,0.00000721,0.00000157,-0.00001492,0.00002669,-0.00138513,-
 0.00033583,0.00063651,0.00033669,-0.00054504,-0.00030843,0.00376636,0.
 17725354,0.00286259,-0.01522323,-0.01460382,-0.00009297,0.00001784,0.0
 0002853,0.00221077,0.00061458,0.00535584,-0.00006753,-0.00015697,-0.00
 014044,-0.04070525,-0.18349320,-0.33134564,0.00002417,0.00001715,0.000
 00995,0.00002746,0.00014049,0.00010462,0.00052535,0.00070398,0.0000172
 4,0.00004246,-0.00000415,0.00002993,-0.00570684,0.00345125,0.00112578,
 -0.00045252,-0.00191130,0.00023246,-0.00025656,0.00144805,0.00154890,0
 .00097452,-0.00017286,-0.00178892,-0.00165411,-0.00063790,0.00074262,-
 0.00051514,0.00072024,0.00044459,0.00028314,-0.00024042,0.00017341,-0.
 00004060,0.00001744,0.00000707,0.00000523,0.00000678,-0.00000504,-0.00
 004210,-0.00001988,-0.00003968,0.00149790,0.00083000,-0.00017337,0.000
 04128,-0.00060921,-0.00004215,0.04103874,0.19450132,0.33831813\\0.0000
 0659,-0.00000911,0.00000153,-0.00001136,0.00000727,0.00000931,-0.00000
 004,-0.00000214,-0.00000260,0.00000482,-0.00000798,-0.00000576,-0.0000
 0741,0.00000563,-0.00000936,-0.00000324,-0.00000167,-0.00000550,-0.000
 00323,-0.00000044,-0.00001088,0.00000097,-0.00000078,0.00000336,0.0000
 0117,-0.00000095,-0.00000090,0.00000397,-0.00000569,-0.00000045,0.0000
 0640,-0.00000360,-0.00000492,0.00000492,0.00000180,0.00000539,-0.00000
 189,0.00000434,0.00000818,0.00000056,-0.00000199,-0.00000225,-0.000000
 19,0.00000087,0.00000627,-0.00000422,0.00000328,0.00000452,0.00000643,
 0.00000197,0.00000689,0.00000502,0.00000736,0.00000406,0.00000053,0.00
 000805,0.00001136,0.00000101,-0.00000935,-0.00000610,-0.00000639,0.000
 00135,-0.00000992,-0.00000441,0.00000176,-0.00000223\\\@
 The archive entry for this job was punched.


 YE HAVE SOWN MUCH, AND BRING IN LITTLE.
 YE EAT, BUT YE HAVE NOT ENOUGH.
 YE DRINK, BUT YE ARE NOT FILLED WITH DRINK.
 YE CLOTHE YOU, BUT THERE IS NONE WARM.
 AND HE THAT EARNETH WAGES EARNETH WAGES TO PUT
 IT INTO A BAG WITH HOLES.
                                     HAGGAI I,6
 Job cpu time:       0 days  0 hours 24 minutes 33.3 seconds.
 Elapsed time:       0 days  0 hours  2 minutes  4.1 seconds.
 File lengths (MBytes):  RWF=    224 Int=      0 D2E=      0 Chk=     11 Scr=      1
 Normal termination of Gaussian 16 at Sat Dec 30 20:53:18 2023.
