Unloading slurm/anatra/current
  ERROR: No such file or directory on
    '/cm/local/modulefiles/slurm/anatra/current'
environment: line 0: unalias: gv: not found
environment: line 0: unalias: sl: not found
 Entering Gaussian System, Link 0=g16
 Initial command:
 /apps/gaussian/g16/C.01/g16/l1.exe "/local/jobs/1153159/Gau-1731917.inp" -scrdir="/local/jobs/1153159/"
 Entering Link 1 = /apps/gaussian/g16/C.01/g16/l1.exe PID=   1731942.
  
 Copyright (c) 1988-2019, Gaussian, Inc.  All Rights Reserved.
  
 This is part of the Gaussian(R) 16 program.  It is based on
 the Gaussian(R) 09 system (copyright 2009, Gaussian, Inc.),
 the Gaussian(R) 03 system (copyright 2003, Gaussian, Inc.),
 the Gaussian(R) 98 system (copyright 1998, Gaussian, Inc.),
 the Gaussian(R) 94 system (copyright 1995, Gaussian, Inc.),
 the Gaussian 92(TM) system (copyright 1992, Gaussian, Inc.),
 the Gaussian 90(TM) system (copyright 1990, Gaussian, Inc.),
 the Gaussian 88(TM) system (copyright 1988, Gaussian, Inc.),
 the Gaussian 86(TM) system (copyright 1986, Carnegie Mellon
 University), and the Gaussian 82(TM) system (copyright 1983,
 Carnegie Mellon University). Gaussian is a federally registered
 trademark of Gaussian, Inc.
  
 This software contains proprietary and confidential information,
 including trade secrets, belonging to Gaussian, Inc.
  
 This software is provided under written license and may be
 used, copied, transmitted, or stored only in accord with that
 written license.
  
 The following legend is applicable only to US Government
 contracts under FAR:
  
                    RESTRICTED RIGHTS LEGEND
  
 Use, reproduction and disclosure by the US Government is
 subject to restrictions as set forth in subparagraphs (a)
 and (c) of the Commercial Computer Software - Restricted
 Rights clause in FAR 52.227-19.
  
 Gaussian, Inc.
 340 Quinnipiac St., Bldg. 40, Wallingford CT 06492
  
  
 ---------------------------------------------------------------
 Warning -- This program may not be used in any manner that
 competes with the business of Gaussian, Inc. or will provide
 assistance to any competitor of Gaussian, Inc.  The licensee
 of this program is prohibited from giving any competitor of
 Gaussian, Inc. access to this program.  By using this program,
 the user acknowledges that Gaussian, Inc. is engaged in the
 business of creating and licensing software in the field of
 computational chemistry and represents and warrants to the
 licensee that it is not a competitor of Gaussian, Inc. and that
 it will not use this program in any manner prohibited above.
 ---------------------------------------------------------------
  

 Cite this work as:
 Gaussian 16, Revision C.01,
 M. J. Frisch, G. W. Trucks, H. B. Schlegel, G. E. Scuseria, 
 M. A. Robb, J. R. Cheeseman, G. Scalmani, V. Barone, 
 G. A. Petersson, H. Nakatsuji, X. Li, M. Caricato, A. V. Marenich, 
 J. Bloino, B. G. Janesko, R. Gomperts, B. Mennucci, H. P. Hratchian, 
 J. V. Ortiz, A. F. Izmaylov, J. L. Sonnenberg, D. Williams-Young, 
 F. Ding, F. Lipparini, F. Egidi, J. Goings, B. Peng, A. Petrone, 
 T. Henderson, D. Ranasinghe, V. G. Zakrzewski, J. Gao, N. Rega, 
 G. Zheng, W. Liang, M. Hada, M. Ehara, K. Toyota, R. Fukuda, 
 J. Hasegawa, M. Ishida, T. Nakajima, Y. Honda, O. Kitao, H. Nakai, 
 T. Vreven, K. Throssell, J. A. Montgomery, Jr., J. E. Peralta, 
 F. Ogliaro, M. J. Bearpark, J. J. Heyd, E. N. Brothers, K. N. Kudin, 
 V. N. Staroverov, T. A. Keith, R. Kobayashi, J. Normand, 
 K. Raghavachari, A. P. Rendell, J. C. Burant, S. S. Iyengar, 
 J. Tomasi, M. Cossi, J. M. Millam, M. Klene, C. Adamo, R. Cammi, 
 J. W. Ochterski, R. L. Martin, K. Morokuma, O. Farkas, 
 J. B. Foresman, and D. J. Fox, Gaussian, Inc., Wallingford CT, 2019.
 
 ******************************************
 Gaussian 16:  ES64L-G16RevC.01  3-Jul-2019
                30-Dec-2023 
 ******************************************
 %chk=cyclic-1_1_opt_hf_reopt9_freq.chk
 %nprocshared=12
 Will use up to   12 processors via shared memory.
 %mem=48GB
 -----------------------------------------------------------
 # wb97xd def2svp scrf=(iefpcm,solvent=toluene) freq=noraman
 -----------------------------------------------------------
 1/10=4,30=1,38=1/1,3;
 2/12=2,17=6,18=5,40=1/2;
 3/5=43,7=101,11=2,25=1,30=1,70=2201,71=2,72=13,74=-58,140=1/1,2,3;
 4//1;
 5/5=2,38=5,53=13,98=1/2;
 8/6=4,10=90,11=11/1;
 11/6=1,8=1,9=11,15=111,16=1/1,2,10;
 10/6=1/2;
 6/7=2,8=2,9=2,10=2,28=1/1;
 7/8=1,10=1,25=1/1,2,3,16;
 1/10=4,30=1/3;
 99//99;
 ----------------------------
 cyclic-1_1_opt_hf_reopt9.out
 ----------------------------
 Symbolic Z-matrix:
 Charge =  0 Multiplicity = 1
 C                     3.53943   0.12779  -0.00381 
 C                    -1.45376   1.55506   0.02234 
 C                     2.86207  -1.96874   0.00798 
 C                    -2.17831   0.43574   0.00562 
 N                     3.93547  -1.13577   0.00083 
 H                    -0.36246   1.50853   0.02581 
 H                    -1.93915   2.53523   0.03294 
 H                     2.95123  -3.04833   0.0128 
 H                    -1.69723  -0.54431  -0.00425 
 O                     2.22211   0.18054  -0.00001 
 C                     1.69295  -1.1679    0.00771 
 O                     0.50759  -1.35431   0.01207 
 C                    -3.66203   0.48833   0.00121 
 O                    -4.33431   1.49166   0.01093 
 O                    -4.18948  -0.74172  -0.01459 
 C                    -5.6048   -0.82218  -0.01929 
 H                    -5.85302  -1.88918  -0.02196 
 H                    -6.02235  -0.33523  -0.91256 
 H                    -6.02848  -0.3378    0.87242 
 C                     4.36936   1.27121  -0.0123 
 N                     5.06607   2.1971   -0.01922 
 H                     4.90396  -1.44347  -0.00046 
 

 GradGradGradGradGradGradGradGradGradGradGradGradGradGradGradGradGradGrad
 Berny optimization.
 Initialization pass.
 Trust Radius=3.00D-01 FncErr=1.00D-07 GrdErr=1.00D-07 EigMax=2.50D+02 EigMin=1.00D-04
 Number of steps in this run=      2 maximum allowed number of steps=      2.
 GradGradGradGradGradGradGradGradGradGradGradGradGradGradGradGradGradGrad

                          Input orientation:                          
 ---------------------------------------------------------------------
 Center     Atomic      Atomic             Coordinates (Angstroms)
 Number     Number       Type             X           Y           Z
 ---------------------------------------------------------------------
      1          6           0        3.539430    0.127790   -0.003810
      2          6           0       -1.453760    1.555060    0.022340
      3          6           0        2.862070   -1.968740    0.007980
      4          6           0       -2.178310    0.435740    0.005620
      5          7           0        3.935470   -1.135770    0.000830
      6          1           0       -0.362460    1.508530    0.025810
      7          1           0       -1.939150    2.535230    0.032940
      8          1           0        2.951230   -3.048330    0.012800
      9          1           0       -1.697230   -0.544310   -0.004250
     10          8           0        2.222110    0.180540   -0.000010
     11          6           0        1.692950   -1.167900    0.007710
     12          8           0        0.507590   -1.354310    0.012070
     13          6           0       -3.662030    0.488330    0.001210
     14          8           0       -4.334310    1.491660    0.010930
     15          8           0       -4.189480   -0.741720   -0.014590
     16          6           0       -5.604800   -0.822180   -0.019290
     17          1           0       -5.853020   -1.889180   -0.021960
     18          1           0       -6.022350   -0.335230   -0.912560
     19          1           0       -6.028480   -0.337800    0.872420
     20          6           0        4.369360    1.271210   -0.012300
     21          7           0        5.066070    2.197100   -0.019220
     22          1           0        4.903960   -1.443470   -0.000460
 ---------------------------------------------------------------------
                    Distance matrix (angstroms):
                    1          2          3          4          5
     1  C    0.000000
     2  C    5.193239   0.000000
     3  C    2.203269   5.571693   0.000000
     4  C    5.726035   1.333465   5.584529   0.000000
     5  N    1.324180   6.023689   1.358704   6.312525   0.000000
     6  H    4.139090   1.092297   4.742290   2.109170   5.046301
     7  H    5.984309   1.093823   6.583167   2.113244   6.927368
     8  H    3.230169   6.371438   1.083276   6.200885   2.150990
     9  H    5.279614   2.113608   4.776648   1.091803   5.663670
    10  O    1.318381   3.924516   2.242547   4.407817   2.160619
    11  C    2.255756   4.161311   1.417105   4.190265   2.242761
    12  O    3.374748   3.508765   2.433335   3.227751   3.434858
    13  C    7.210481   2.452512   6.971450   1.484658   7.769151
    14  O    7.991004   2.881270   7.985128   2.400694   8.677140
    15  O    7.777674   3.572216   7.157545   2.330585   8.134514
    16  C    9.193456   4.783737   8.544193   3.650180   9.545444
    17  H    9.606592   5.587329   8.715505   4.348506   9.817468
    18  H    9.616021   5.031824   9.080125   4.026673  10.031616
    19  H    9.619223   5.023307   9.080149   4.021631  10.033779
    20  C    1.412892   5.830137   3.573459   6.600781   2.445810
    21  N    2.571558   6.551498   4.713022   7.455471   3.519472
    22  H    2.081060   7.029389   2.108387   7.327347   1.016196
                    6          7          8          9         10
     6  H    0.000000
     7  H    1.881519   0.000000
     8  H    5.634331   7.422423   0.000000
     9  H    2.448809   3.089252   5.280018   0.000000
    10  O    2.905895   4.781395   3.310194   3.985806   0.000000
    11  C    3.374658   5.187095   2.262590   3.447075   1.448572
    12  O    2.992161   4.595160   2.973395   2.348957   2.301193
    13  C    3.453777   2.675654   7.499554   2.219643   5.892185
    14  O    3.971914   2.612722   8.584323   3.331605   6.686239
    15  O    4.439745   3.975506   7.504062   2.500078   6.477597
    16  C    5.737279   4.971109   8.840951   3.917466   7.890902
    17  H    6.457009   5.907351   8.880296   4.368018   8.336183
    18  H    6.026138   5.079964   9.420315   4.424410   8.310829
    19  H    6.019092   5.067706   9.419188   4.423904   8.312764
    20  C    4.737921   6.434057   4.546444   6.332432   2.408401
    21  N    5.472211   7.013570   5.655803   7.297793   3.486401
    22  H    6.037398   7.915764   2.527629   6.662148   3.135240
                   11         12         13         14         15
    11  C    0.000000
    12  O    1.199936   0.000000
    13  C    5.605261   4.558637   0.000000
    14  O    6.587954   5.616364   1.207777   0.000000
    15  O    5.897890   4.736923   1.338460   2.238217   0.000000
    16  C    7.305984   6.135589   2.343547   2.639870   1.417613
    17  H    7.580421   6.383150   3.233192   3.706432   2.020912
    18  H    7.814480   6.673349   2.661642   2.653270   2.081105
    19  H    7.813915   6.670360   2.653598   2.638049   2.081312
    20  C    3.621164   4.669820   8.069468   8.706492   8.792362
    21  N    4.764650   5.778688   8.893820   9.426860   9.710916
    22  H    3.222823   4.397292   8.781118   9.693335   9.120488
                   16         17         18         19         20
    16  C    0.000000
    17  H    1.095495   0.000000
    18  H    1.099727   1.799056   0.000000
    19  H    1.099671   1.799300   1.784992   0.000000
    20  C   10.191477  10.699776  10.553613  10.558727   0.000000
    21  N   11.089793  11.658654  11.408936  11.415331   1.158760
    22  H   10.527127  10.766231  11.020180  11.022825   2.766844
                   21         22
    21  N    0.000000
    22  H    3.644226   0.000000
 Stoichiometry    C8H8N2O4
 Framework group  C1[X(C8H8N2O4)]
 Deg. of freedom    60
 Full point group                 C1      NOp   1
 Largest Abelian subgroup         C1      NOp   1
 Largest concise Abelian subgroup C1      NOp   1
                         Standard orientation:                         
 ---------------------------------------------------------------------
 Center     Atomic      Atomic             Coordinates (Angstroms)
 Number     Number       Type             X           Y           Z
 ---------------------------------------------------------------------
      1          6           0       -3.539430    0.127789    0.003810
      2          6           0        1.453760    1.555061   -0.022340
      3          6           0       -2.862069   -1.968741   -0.007980
      4          6           0        2.178310    0.435741   -0.005620
      5          7           0       -3.935469   -1.135771   -0.000830
      6          1           0        0.362460    1.508530   -0.025810
      7          1           0        1.939149    2.535231   -0.032940
      8          1           0       -2.951229   -3.048331   -0.012800
      9          1           0        1.697230   -0.544309    0.004250
     10          8           0       -2.222110    0.180540    0.000010
     11          6           0       -1.692949   -1.167900   -0.007710
     12          8           0       -0.507589   -1.354310   -0.012070
     13          6           0        3.662030    0.488331   -0.001210
     14          8           0        4.334310    1.491662   -0.010930
     15          8           0        4.189480   -0.741718    0.014590
     16          6           0        5.604800   -0.822178    0.019290
     17          1           0        5.853021   -1.889178    0.021960
     18          1           0        6.022350   -0.335228    0.912560
     19          1           0        6.028480   -0.337798   -0.872420
     20          6           0       -4.369360    1.271209    0.012300
     21          7           0       -5.066070    2.197099    0.019220
     22          1           0       -4.903959   -1.443471    0.000460
 ---------------------------------------------------------------------
 Rotational constants (GHZ):           1.6272928           0.2004601           0.1786809
 Standard basis: def2SVP (5D, 7F)
 There are   250 symmetry adapted cartesian basis functions of A   symmetry.
 There are   236 symmetry adapted basis functions of A   symmetry.
   236 basis functions,   406 primitive gaussians,   250 cartesian basis functions
    51 alpha electrons       51 beta electrons
       nuclear repulsion energy       772.2151761664 Hartrees.
 NAtoms=   22 NActive=   22 NUniq=   22 SFac= 1.00D+00 NAtFMM=   60 NAOKFM=F Big=F
 Integral buffers will be    131072 words long.
 Raffenetti 2 integral format.
 Two-electron integral symmetry is turned on.
 Nuclear repulsion after empirical dispersion term =      772.2066725844 Hartrees.
 Force inversion solution in PCM.
 ------------------------------------------------------------------------------
 Polarizable Continuum Model (PCM)
 =================================
 Model                : PCM.
 Atomic radii         : UFF (Universal Force Field).
 Polarization charges : Total charges.
 Charge compensation  : None.
 Solution method      : Matrix inversion.
 Cavity type          : Scaled VdW (van der Waals Surface) (Alpha=1.100).
 Cavity algorithm     : GePol (No added spheres)
                        Default sphere list used, NSphG=   22.
                        Lebedev-Laikov grids with approx.  5.0 points / Ang**2.
                        Smoothing algorithm: York/Karplus (Gamma=1.0000).
                        Polarization charges: spherical gaussians, with
                                              point-specific exponents (IZeta= 3).
                        Self-potential: point-specific (ISelfS= 7).
                        Self-field    : sphere-specific E.n sum rule (ISelfD= 2).
 1st derivatives      : Analytical E(r).r(x)/FMM algorithm (CHGder, D1EAlg=3).
                        Cavity 1st derivative terms included.
 2nd derivatives      : Analytical E(r).r(xy)/FMM algorithm (CHGder, D2EAlg=3).
                        Cavity 2nd derivative terms included.
 Solvent              : Toluene, Eps=   2.374100 Eps(inf)=   2.238315
 ------------------------------------------------------------------------------
 One-electron integrals computed using PRISM.
   1 Symmetry operations used in ECPInt.
 ECPInt:  NShTT=    5886 NPrTT=   21942 LenC2=    4992 LenP2D=   13074.
 LDataN:  DoStor=T MaxTD1= 4 Len=   56
 NBasis=   236 RedAO= T EigKep=  3.36D-04  NBF=   236
 NBsUse=   236 1.00D-06 EigRej= -1.00D+00 NBFU=   236
 ExpMin= 1.22D-01 ExpMax= 2.27D+03 ExpMxC= 3.41D+02 IAcc=3 IRadAn=         5 AccDes= 0.00D+00
 Harris functional with IExCor= 4639 and IRadAn=       5 diagonalized for initial guess.
 HarFok:  IExCor= 4639 AccDes= 0.00D+00 IRadAn=         5 IDoV= 1 UseB2=F ITyADJ=14
 ICtDFT=  3500011 ScaDFX=  1.000000  1.000000  1.000000  1.000000
 FoFCou: FMM=F IPFlag=           0 FMFlag=      100000 FMFlg1=           0
         NFxFlg=           0 DoJE=T BraDBF=F KetDBF=T FulRan=T
         wScrn=  0.000000 ICntrl=       500 IOpCl=  0 I1Cent=   200000004 NGrid=           0
         NMat0=    1 NMatS0=      1 NMatT0=    0 NMatD0=    1 NMtDS0=    0 NMtDT0=    0
 Petite list used in FoFCou.
 Requested convergence on RMS density matrix=1.00D-08 within 128 cycles.
 Requested convergence on MAX density matrix=1.00D-06.
 Requested convergence on             energy=1.00D-06.
 No special actions if energy rises.
 Inv3:  Mode=1 IEnd=    13777347.
 Iteration    1 A*A^-1 deviation from unit magnitude is 3.11D-15 for    173.
 Iteration    1 A*A^-1 deviation from orthogonality  is 2.22D-15 for   2029    364.
 Iteration    1 A^-1*A deviation from unit magnitude is 3.11D-15 for    173.
 Iteration    1 A^-1*A deviation from orthogonality  is 2.22D-15 for   1969    430.
 Error on total polarization charges =  0.00530
 SCF Done:  E(RwB97XD) =  -719.225608556     A.U. after   15 cycles
            NFock= 15  Conv=0.95D-08     -V/T= 2.0089
 DoSCS=F DFT=T ScalE2(SS,OS)=  1.000000  1.000000
 Range of M.O.s used for correlation:     1   236
 NBasis=   236 NAE=    51 NBE=    51 NFC=     0 NFV=     0
 NROrb=    236 NOA=    51 NOB=    51 NVA=   185 NVB=   185

 **** Warning!!: The largest alpha MO coefficient is  0.10790403D+02

   1 Symmetry operations used in ECPInt.
 ECPInt:  NShTT=    5886 NPrTT=   21942 LenC2=    4992 LenP2D=   13074.
 LDataN:  DoStor=T MaxTD1= 5 Len=  102
 Symmetrizing basis deriv contribution to polar:
 IMax=3 JMax=2 DiffMx= 0.00D+00
 G2DrvN: will do    23 centers at a time, making    1 passes.
 Calling FoFCou, ICntrl=  3107 FMM=F I1Cent=   0 AccDes= 0.00D+00.
 NEqPCM:  Using equilibrium solvation (IEInf=0, Eps=   2.3741, EpsInf=   2.2383)
 G2PCM: DoFxE=T DoFxN=T DoGrad=T DoDP/DQ/DG/TGxP=FFFF NFrqRd=   0 IEInf=0 SqF1=F DoCFld=F IF1Alg=4.
 End of G2Drv F.D. properties file   721 does not exist.
 End of G2Drv F.D. properties file   722 does not exist.
 End of G2Drv F.D. properties file   788 does not exist.
          IDoAtm=1111111111111111111111
 NEqPCM:  Using equilibrium solvation (IEInf=0, Eps=   2.3741, EpsInf=   2.2383)
          Differentiating once with respect to electric field.
                with respect to dipole field.
          Differentiating once with respect to nuclear coordinates.
 Keep R1 ints in memory in canonical form, NReq=801733585.
          There are    69 degrees of freedom in the 1st order CPHF.  IDoFFX=6 NUNeed=     3.
     66 vectors produced by pass  0 Test12= 1.37D-14 1.45D-09 XBig12= 7.44D+01 4.75D+00.
 AX will form    66 AO Fock derivatives at one time.
     66 vectors produced by pass  1 Test12= 1.37D-14 1.45D-09 XBig12= 1.28D+01 7.23D-01.
     66 vectors produced by pass  2 Test12= 1.37D-14 1.45D-09 XBig12= 2.90D-01 7.92D-02.
     66 vectors produced by pass  3 Test12= 1.37D-14 1.45D-09 XBig12= 4.26D-03 1.12D-02.
     66 vectors produced by pass  4 Test12= 1.37D-14 1.45D-09 XBig12= 4.31D-05 8.43D-04.
     66 vectors produced by pass  5 Test12= 1.37D-14 1.45D-09 XBig12= 2.56D-07 6.15D-05.
     58 vectors produced by pass  6 Test12= 1.37D-14 1.45D-09 XBig12= 1.07D-09 3.22D-06.
     26 vectors produced by pass  7 Test12= 1.37D-14 1.45D-09 XBig12= 4.09D-12 2.65D-07.
      3 vectors produced by pass  8 Test12= 1.37D-14 1.45D-09 XBig12= 1.52D-14 1.72D-08.
 InvSVY:  IOpt=1 It=  1 EMax= 5.33D-15
 Solved reduced A of dimension   483 with    69 vectors.
 Isotropic polarizability for W=    0.000000      125.99 Bohr**3.
 End of Minotr F.D. properties file   721 does not exist.
 End of Minotr F.D. properties file   722 does not exist.
 End of Minotr F.D. properties file   788 does not exist.

 **********************************************************************

            Population analysis using the SCF Density.

 **********************************************************************

 Orbital symmetries:
       Occupied  (A) (A) (A) (A) (A) (A) (A) (A) (A) (A) (A) (A)
                 (A) (A) (A) (A) (A) (A) (A) (A) (A) (A) (A) (A)
                 (A) (A) (A) (A) (A) (A) (A) (A) (A) (A) (A) (A)
                 (A) (A) (A) (A) (A) (A) (A) (A) (A) (A) (A) (A)
                 (A) (A) (A)
       Virtual   (A) (A) (A) (A) (A) (A) (A) (A) (A) (A) (A) (A)
                 (A) (A) (A) (A) (A) (A) (A) (A) (A) (A) (A) (A)
                 (A) (A) (A) (A) (A) (A) (A) (A) (A) (A) (A) (A)
                 (A) (A) (A) (A) (A) (A) (A) (A) (A) (A) (A) (A)
                 (A) (A) (A) (A) (A) (A) (A) (A) (A) (A) (A) (A)
                 (A) (A) (A) (A) (A) (A) (A) (A) (A) (A) (A) (A)
                 (A) (A) (A) (A) (A) (A) (A) (A) (A) (A) (A) (A)
                 (A) (A) (A) (A) (A) (A) (A) (A) (A) (A) (A) (A)
                 (A) (A) (A) (A) (A) (A) (A) (A) (A) (A) (A) (A)
                 (A) (A) (A) (A) (A) (A) (A) (A) (A) (A) (A) (A)
                 (A) (A) (A) (A) (A) (A) (A) (A) (A) (A) (A) (A)
                 (A) (A) (A) (A) (A) (A) (A) (A) (A) (A) (A) (A)
                 (A) (A) (A) (A) (A) (A) (A) (A) (A) (A) (A) (A)
                 (A) (A) (A) (A) (A) (A) (A) (A) (A) (A) (A) (A)
                 (A) (A) (A) (A) (A) (A) (A) (A) (A) (A) (A) (A)
                 (A) (A) (A) (A) (A)
 The electronic state is 1-A.
 Alpha  occ. eigenvalues --  -19.36219 -19.29649 -19.24419 -19.23531 -14.58765
 Alpha  occ. eigenvalues --  -14.49140 -10.46336 -10.44093 -10.41875 -10.38602
 Alpha  occ. eigenvalues --  -10.36175 -10.34713 -10.30639 -10.29870  -1.27431
 Alpha  occ. eigenvalues --   -1.19700  -1.14321  -1.11053  -1.10034  -1.03894
 Alpha  occ. eigenvalues --   -0.91358  -0.87786  -0.81644  -0.80867  -0.76920
 Alpha  occ. eigenvalues --   -0.73977  -0.70070  -0.64652  -0.63588  -0.63097
 Alpha  occ. eigenvalues --   -0.59499  -0.58810  -0.57135  -0.56157  -0.54065
 Alpha  occ. eigenvalues --   -0.52614  -0.51957  -0.50923  -0.49175  -0.49126
 Alpha  occ. eigenvalues --   -0.48595  -0.48209  -0.47278  -0.45609  -0.45395
 Alpha  occ. eigenvalues --   -0.43296  -0.38441  -0.38319  -0.35737  -0.35614
 Alpha  occ. eigenvalues --   -0.29976
 Alpha virt. eigenvalues --   -0.02734   0.03377   0.04612   0.10715   0.12592
 Alpha virt. eigenvalues --    0.16712   0.16788   0.17151   0.18052   0.18837
 Alpha virt. eigenvalues --    0.19888   0.20493   0.21710   0.21957   0.22204
 Alpha virt. eigenvalues --    0.23079   0.25110   0.26658   0.31104   0.33706
 Alpha virt. eigenvalues --    0.34010   0.35496   0.38520   0.39892   0.40434
 Alpha virt. eigenvalues --    0.41191   0.47197   0.49222   0.50453   0.51244
 Alpha virt. eigenvalues --    0.52226   0.53107   0.53280   0.54774   0.55276
 Alpha virt. eigenvalues --    0.56302   0.56684   0.58346   0.59877   0.61539
 Alpha virt. eigenvalues --    0.61814   0.63712   0.64827   0.65765   0.67475
 Alpha virt. eigenvalues --    0.69093   0.69162   0.71845   0.72395   0.73070
 Alpha virt. eigenvalues --    0.73418   0.73900   0.74397   0.74694   0.75567
 Alpha virt. eigenvalues --    0.75965   0.78582   0.78963   0.81929   0.82843
 Alpha virt. eigenvalues --    0.84190   0.84495   0.85084   0.90765   0.92682
 Alpha virt. eigenvalues --    0.92923   0.94349   0.97077   1.01293   1.05138
 Alpha virt. eigenvalues --    1.07243   1.07653   1.08485   1.09671   1.12078
 Alpha virt. eigenvalues --    1.14535   1.15668   1.16628   1.17557   1.19948
 Alpha virt. eigenvalues --    1.23892   1.27591   1.28359   1.28583   1.28814
 Alpha virt. eigenvalues --    1.32767   1.33511   1.35654   1.36890   1.39814
 Alpha virt. eigenvalues --    1.41006   1.43356   1.48364   1.50470   1.51902
 Alpha virt. eigenvalues --    1.55902   1.60228   1.61795   1.63520   1.65590
 Alpha virt. eigenvalues --    1.65764   1.67151   1.68231   1.68637   1.69428
 Alpha virt. eigenvalues --    1.73405   1.74596   1.75738   1.78711   1.80115
 Alpha virt. eigenvalues --    1.81392   1.81479   1.81860   1.85669   1.86406
 Alpha virt. eigenvalues --    1.88114   1.88232   1.91668   1.92501   1.97732
 Alpha virt. eigenvalues --    1.97873   2.00829   2.01261   2.02282   2.03403
 Alpha virt. eigenvalues --    2.03554   2.08749   2.09639   2.11818   2.14584
 Alpha virt. eigenvalues --    2.15763   2.23306   2.23701   2.27096   2.27796
 Alpha virt. eigenvalues --    2.29819   2.31213   2.32502   2.33815   2.38409
 Alpha virt. eigenvalues --    2.39979   2.44757   2.45124   2.46080   2.53866
 Alpha virt. eigenvalues --    2.54204   2.60662   2.60948   2.62173   2.68445
 Alpha virt. eigenvalues --    2.71960   2.73052   2.74908   2.78314   2.79119
 Alpha virt. eigenvalues --    2.81730   2.82213   2.84907   2.88515   2.89217
 Alpha virt. eigenvalues --    2.92094   2.95953   2.97318   2.99092   2.99912
 Alpha virt. eigenvalues --    3.01837   3.06952   3.07636   3.10567   3.13246
 Alpha virt. eigenvalues --    3.16476   3.21063   3.26014   3.28637   3.31831
 Alpha virt. eigenvalues --    3.37106   3.38451   3.44259   3.47621   3.53846
 Alpha virt. eigenvalues --    3.70574   3.75129   3.75826   3.77853   3.82720
          Condensed to atoms (all electrons):
               1          2          3          4          5          6
     1  C    5.147587  -0.000039  -0.108270   0.000001   0.548050   0.000258
     2  C   -0.000039   4.693111  -0.000073   0.622937  -0.000003   0.375617
     3  C   -0.108270  -0.000073   5.221183   0.000004   0.368120   0.000507
     4  C    0.000001   0.622937   0.000004   5.137322   0.000000  -0.014559
     5  N    0.548050  -0.000003   0.368120   0.000000   5.998804   0.000037
     6  H    0.000258   0.375617   0.000507  -0.014559   0.000037   0.598613
     7  H    0.000000   0.394166  -0.000000  -0.024461   0.000000  -0.037266
     8  H    0.005044   0.000001   0.414972  -0.000001  -0.026040  -0.000006
     9  H   -0.000002  -0.026479   0.000088   0.376793  -0.000003  -0.011351
    10  O    0.458928  -0.001550  -0.116228  -0.000074  -0.082056   0.007067
    11  C   -0.081915  -0.000410   0.400285   0.000251  -0.031204   0.002013
    12  O    0.002772  -0.002550  -0.066713  -0.006709   0.001175   0.004570
    13  C   -0.000000  -0.038578   0.000002   0.249350  -0.000000   0.009719
    14  O    0.000000   0.009570  -0.000000  -0.105742   0.000000   0.000205
    15  O   -0.000000   0.005684  -0.000000  -0.110383   0.000000  -0.000082
    16  C   -0.000000  -0.000400   0.000000   0.010188  -0.000000   0.000005
    17  H    0.000000  -0.000003   0.000000   0.000086  -0.000000  -0.000000
    18  H   -0.000000   0.000025  -0.000000   0.000419   0.000000  -0.000000
    19  H   -0.000000   0.000025  -0.000000   0.000457   0.000000  -0.000000
    20  C    0.056887   0.000040   0.010684  -0.000001  -0.130538  -0.000238
    21  N   -0.092384   0.000000   0.000141  -0.000000  -0.004340  -0.000007
    22  H   -0.003288   0.000000  -0.016318  -0.000000   0.372595  -0.000000
               7          8          9         10         11         12
     1  C    0.000000   0.005044  -0.000002   0.458928  -0.081915   0.002772
     2  C    0.394166   0.000001  -0.026479  -0.001550  -0.000410  -0.002550
     3  C   -0.000000   0.414972   0.000088  -0.116228   0.400285  -0.066713
     4  C   -0.024461  -0.000001   0.376793  -0.000074   0.000251  -0.006709
     5  N    0.000000  -0.026040  -0.000003  -0.082056  -0.031204   0.001175
     6  H   -0.037266  -0.000006  -0.011351   0.007067   0.002013   0.004570
     7  H    0.599371  -0.000000   0.006555   0.000002  -0.000003   0.000025
     8  H   -0.000000   0.544897   0.000003   0.003455  -0.022662   0.001055
     9  H    0.006555   0.000003   0.582013   0.000126  -0.001424   0.025680
    10  O    0.000002   0.003455   0.000126   7.887470   0.253051  -0.064015
    11  C   -0.000003  -0.022662  -0.001424   0.253051   4.486807   0.723177
    12  O    0.000025   0.001055   0.025680  -0.064015   0.723177   7.624469
    13  C   -0.017602  -0.000000  -0.028980  -0.000001   0.000022   0.000510
    14  O    0.012579  -0.000000   0.002940   0.000000  -0.000000  -0.000000
    15  O    0.000594  -0.000000   0.009102  -0.000000  -0.000001  -0.000003
    16  C   -0.000041  -0.000000  -0.000313  -0.000000   0.000000   0.000000
    17  H   -0.000001  -0.000000  -0.000157  -0.000000   0.000000   0.000000
    18  H   -0.000008   0.000000   0.000047   0.000000  -0.000000  -0.000000
    19  H   -0.000008   0.000000   0.000047   0.000000  -0.000000  -0.000000
    20  C   -0.000001  -0.000319   0.000005  -0.092573  -0.004654  -0.000240
    21  N   -0.000000  -0.000000   0.000000  -0.002597  -0.000107  -0.000000
    22  H   -0.000000  -0.004503   0.000000   0.002342   0.007413  -0.000040
              13         14         15         16         17         18
     1  C   -0.000000   0.000000  -0.000000  -0.000000   0.000000  -0.000000
     2  C   -0.038578   0.009570   0.005684  -0.000400  -0.000003   0.000025
     3  C    0.000002  -0.000000  -0.000000   0.000000   0.000000  -0.000000
     4  C    0.249350  -0.105742  -0.110383   0.010188   0.000086   0.000419
     5  N   -0.000000   0.000000   0.000000  -0.000000  -0.000000   0.000000
     6  H    0.009719   0.000205  -0.000082   0.000005  -0.000000  -0.000000
     7  H   -0.017602   0.012579   0.000594  -0.000041  -0.000001  -0.000008
     8  H   -0.000000  -0.000000  -0.000000  -0.000000  -0.000000   0.000000
     9  H   -0.028980   0.002940   0.009102  -0.000313  -0.000157   0.000047
    10  O   -0.000001   0.000000  -0.000000  -0.000000  -0.000000   0.000000
    11  C    0.000022  -0.000000  -0.000001   0.000000   0.000000  -0.000000
    12  O    0.000510  -0.000000  -0.000003   0.000000   0.000000  -0.000000
    13  C    4.538703   0.703985   0.370415  -0.032551   0.004804  -0.004545
    14  O    0.703985   7.721352  -0.087289   0.003457   0.000815   0.006686
    15  O    0.370415  -0.087289   7.957596   0.263228  -0.022561  -0.026843
    16  C   -0.032551   0.003457   0.263228   4.419118   0.399659   0.405465
    17  H    0.004804   0.000815  -0.022561   0.399659   0.606154  -0.023189
    18  H   -0.004545   0.006686  -0.026843   0.405465  -0.023189   0.620007
    19  H   -0.004705   0.007153  -0.026857   0.405182  -0.023072  -0.030376
    20  C    0.000000  -0.000000  -0.000000   0.000000   0.000000  -0.000000
    21  N   -0.000000  -0.000000  -0.000000   0.000000   0.000000  -0.000000
    22  H    0.000000  -0.000000  -0.000000   0.000000   0.000000  -0.000000
              19         20         21         22
     1  C   -0.000000   0.056887  -0.092384  -0.003288
     2  C    0.000025   0.000040   0.000000   0.000000
     3  C   -0.000000   0.010684   0.000141  -0.016318
     4  C    0.000457  -0.000001  -0.000000  -0.000000
     5  N    0.000000  -0.130538  -0.004340   0.372595
     6  H   -0.000000  -0.000238  -0.000007  -0.000000
     7  H   -0.000008  -0.000001  -0.000000  -0.000000
     8  H    0.000000  -0.000319  -0.000000  -0.004503
     9  H    0.000047   0.000005   0.000000   0.000000
    10  O    0.000000  -0.092573  -0.002597   0.002342
    11  C   -0.000000  -0.004654  -0.000107   0.007413
    12  O   -0.000000  -0.000240  -0.000000  -0.000040
    13  C   -0.004705   0.000000  -0.000000   0.000000
    14  O    0.007153  -0.000000  -0.000000  -0.000000
    15  O   -0.026857  -0.000000  -0.000000  -0.000000
    16  C    0.405182   0.000000   0.000000   0.000000
    17  H   -0.023072   0.000000   0.000000   0.000000
    18  H   -0.030376  -0.000000  -0.000000  -0.000000
    19  H    0.619771  -0.000000  -0.000000  -0.000000
    20  C   -0.000000   5.365113   0.876985  -0.024625
    21  N   -0.000000   0.876985   6.129010  -0.000391
    22  H   -0.000000  -0.024625  -0.000391   0.463978
 Mulliken charges:
               1
     1  C    0.066371
     2  C   -0.031092
     3  C   -0.108383
     4  C   -0.135878
     5  N   -0.014595
     6  H    0.064899
     7  H    0.066098
     8  H    0.084103
     9  H    0.065312
    10  O   -0.253348
    11  C    0.269361
    12  O   -0.243162
    13  C    0.249454
    14  O   -0.275710
    15  O   -0.332599
    16  C    0.127002
    17  H    0.057467
    18  H    0.052313
    19  H    0.052385
    20  C   -0.056525
    21  N    0.093692
    22  H    0.202837
 Sum of Mulliken charges =  -0.00000
 Mulliken charges with hydrogens summed into heavy atoms:
               1
     1  C    0.066371
     2  C    0.099905
     3  C   -0.024280
     4  C   -0.070566
     5  N    0.188242
    10  O   -0.253348
    11  C    0.269361
    12  O   -0.243162
    13  C    0.249454
    14  O   -0.275710
    15  O   -0.332599
    16  C    0.289167
    20  C   -0.056525
    21  N    0.093692
 APT charges:
               1
     1  C   -0.008792
     2  C   -0.021814
     3  C   -0.629217
     4  C   -0.299219
     5  N    0.321146
     6  H    0.064110
     7  H    0.072621
     8  H    0.160536
     9  H    0.132951
    10  O   -0.314953
    11  C    1.169408
    12  O   -1.068517
    13  C    1.431660
    14  O   -0.837477
    15  O   -1.008902
    16  C    0.529911
    17  H    0.001295
    18  H   -0.020245
    19  H   -0.019315
    20  C    0.484032
    21  N   -0.484549
    22  H    0.345330
 Sum of APT charges =   0.00000
 APT charges with hydrogens summed into heavy atoms:
               1
     1  C   -0.008792
     2  C    0.114917
     3  C   -0.468681
     4  C   -0.166268
     5  N    0.666476
    10  O   -0.314953
    11  C    1.169408
    12  O   -1.068517
    13  C    1.431660
    14  O   -0.837477
    15  O   -1.008902
    16  C    0.491645
    20  C    0.484032
    21  N   -0.484549
 Electronic spatial extent (au):  <R**2>=           5523.6197
 Charge=             -0.0000 electrons
 Dipole moment (field-independent basis, Debye):
    X=             -6.5664    Y=             -5.4985    Z=              0.0112  Tot=              8.5646
 Quadrupole moment (field-independent basis, Debye-Ang):
   XX=            -57.3459   YY=            -82.8994   ZZ=            -79.6119
   XY=             14.2806   XZ=              0.2397   YZ=             -0.0613
 Traceless Quadrupole moment (field-independent basis, Debye-Ang):
   XX=             15.9398   YY=             -9.6136   ZZ=             -6.3262
   XY=             14.2806   XZ=              0.2397   YZ=             -0.0613
 Octapole moment (field-independent basis, Debye-Ang**2):
  XXX=            -15.7489  YYY=            -42.0989  ZZZ=              0.0912  XYY=             -1.7471
  XXY=           -192.5853  XXZ=              0.2359  XZZ=              9.4602  YZZ=             -0.6789
  YYZ=             -0.2178  XYZ=              0.3295
 Hexadecapole moment (field-independent basis, Debye-Ang**3):
 XXXX=          -5540.4460 YYYY=           -824.4009 ZZZZ=            -79.8104 XXXY=            346.2176
 XXXZ=              7.7040 YYYX=            143.1090 YYYZ=             -0.4094 ZZZX=              0.3560
 ZZZY=             -0.0306 XXYY=          -1316.2781 XXZZ=          -1039.9245 YYZZ=           -161.3831
 XXYZ=             -1.1190 YYXZ=              1.2786 ZZXY=              1.2179
 N-N= 7.722066725844D+02 E-N=-3.224105524718D+03  KE= 7.128955554511D+02
  Exact polarizability:     158.723     -47.882     159.956      -0.059       0.061      59.294
 Approx polarizability:     145.916     -43.012     170.598      -0.169       0.078      63.671
   1 Symmetry operations used in ECPInt.
 ECPInt:  NShTT=    5886 NPrTT=   21942 LenC2=    4992 LenP2D=   13074.
 LDataN:  DoStor=T MaxTD1= 6 Len=  172
 D2PCM: PCM CHGder 2nd derivatives, FixD1E=F FixD2E=F DoIter=F DoCFld=F I1PDM=0
 Calling FoFJK, ICntrl=    100127 FMM=F ISym2X=0 I1Cent= 0 IOpClX= 0 NMat=1 NMatS=1 NMatT=0.
 Full mass-weighted force constant matrix:
 Low frequencies ---  -15.2394  -12.0175  -11.0402   -3.8600    0.0008    0.0011
 Low frequencies ---    0.0012    4.2116    9.5040
 ******    2 imaginary frequencies (negative Signs) ****** 
 Diagonal vibrational polarizability:
      173.1077943     261.6528772    2027.0088843
 Harmonic frequencies (cm**-1), IR intensities (KM/Mole), Raman scattering
 activities (A**4/AMU), depolarization ratios for plane and unpolarized
 incident light, reduced masses (AMU), force constants (mDyne/A),
 and normal coordinates:
                      1                      2                      3
                      A                      A                      A
 Frequencies --    -12.8577               -10.8017                 9.1049
 Red. masses --      6.3485                 9.7339                 4.3721
 Frc consts  --      0.0006                 0.0007                 0.0002
 IR Inten    --      8.2296                 2.2386                 0.4094
  Atom  AN      X      Y      Z        X      Y      Z        X      Y      Z
     1   6    -0.04  -0.00  -0.05     0.16   0.01  -0.02     0.02  -0.04   0.01
     2   6     0.04  -0.02   0.19    -0.17   0.05   0.09     0.11   0.29  -0.07
     3   6     0.01   0.02  -0.14    -0.04  -0.06  -0.05     0.06  -0.02  -0.05
     4   6     0.04  -0.02   0.13    -0.16   0.05   0.05    -0.03   0.20  -0.02
     5   7    -0.01  -0.01  -0.24     0.04   0.05  -0.09     0.04  -0.05  -0.05
     6   1     0.04  -0.03   0.31    -0.17   0.05   0.13     0.10   0.42  -0.08
     7   1     0.03  -0.02   0.13    -0.17   0.05   0.07     0.22   0.23  -0.11
     8   1     0.04   0.01  -0.27    -0.15  -0.05  -0.10     0.09  -0.02  -0.09
     9   1     0.05  -0.02   0.19    -0.16   0.05   0.07    -0.14   0.26   0.02
    10   8    -0.05   0.03   0.19     0.17  -0.12   0.07     0.02  -0.01   0.04
    11   6    -0.01   0.05   0.14     0.04  -0.17   0.06     0.05   0.00   0.00
    12   8    -0.01   0.07   0.33     0.02  -0.29   0.13     0.05   0.03   0.02
    13   6     0.04  -0.02  -0.03    -0.16   0.06  -0.01    -0.02   0.03  -0.01
    14   8     0.04  -0.02  -0.13    -0.17   0.06  -0.04     0.09  -0.05  -0.04
    15   8     0.05  -0.01  -0.04    -0.15   0.06  -0.02    -0.16  -0.03   0.04
    16   6     0.05  -0.01  -0.18    -0.15   0.07  -0.08    -0.17  -0.19   0.05
    17   1     0.05  -0.01  -0.15    -0.15   0.07  -0.08    -0.29  -0.22   0.08
    18   1     0.14   0.04  -0.24    -0.12   0.08  -0.10    -0.12  -0.21   0.04
    19   1    -0.04  -0.06  -0.25    -0.19   0.06  -0.10    -0.11  -0.27   0.04
    20   6    -0.07  -0.02  -0.07     0.28   0.09  -0.03    -0.01  -0.06   0.03
    21   7    -0.10  -0.04  -0.10     0.37   0.16  -0.05    -0.03  -0.07   0.05
    22   1    -0.01  -0.03  -0.44     0.01   0.14  -0.17     0.05  -0.07  -0.08
                      4                      5                      6
                      A                      A                      A
 Frequencies --     14.4210                47.6241                71.0374
 Red. masses --      5.0209                 5.7780                 7.8760
 Frc consts  --      0.0006                 0.0077                 0.0234
 IR Inten    --      2.2264                 6.9216                 1.1091
  Atom  AN      X      Y      Z        X      Y      Z        X      Y      Z
     1   6     0.00  -0.01  -0.02    -0.00   0.00   0.01     0.11   0.04   0.00
     2   6     0.03   0.09   0.26     0.00  -0.01  -0.28    -0.22  -0.18  -0.01
     3   6     0.02  -0.01   0.19    -0.01  -0.00  -0.01     0.25   0.08  -0.00
     4   6    -0.00   0.06   0.06     0.01  -0.01  -0.22    -0.15  -0.13  -0.00
     5   7     0.01  -0.02   0.15    -0.01   0.00  -0.07     0.19   0.01  -0.00
     6   1     0.03   0.13   0.27     0.00  -0.01  -0.42    -0.21  -0.25  -0.01
     7   1     0.07   0.07   0.41     0.00  -0.01  -0.16    -0.28  -0.15  -0.02
     8   1     0.03  -0.01   0.32    -0.01   0.00  -0.06     0.33   0.08  -0.00
     9   1    -0.04   0.07  -0.09     0.01  -0.01  -0.33    -0.10  -0.15   0.00
    10   8     0.00   0.00  -0.11    -0.00  -0.00   0.12     0.10   0.13   0.01
    11   6     0.01   0.00   0.02    -0.01  -0.00   0.11     0.19   0.16   0.00
    12   8     0.01   0.01  -0.03    -0.01  -0.01   0.19     0.20   0.23   0.00
    13   6    -0.00   0.01   0.03     0.00   0.00   0.01    -0.16  -0.08   0.00
    14   8     0.03  -0.01   0.18     0.00   0.01   0.35    -0.19  -0.06   0.01
    15   8    -0.04  -0.01  -0.17     0.01  -0.00  -0.21    -0.12  -0.07  -0.01
    16   6    -0.05  -0.06  -0.21     0.01   0.01  -0.00    -0.12  -0.03  -0.00
    17   1    -0.08  -0.07  -0.36     0.02   0.01  -0.25    -0.10  -0.02  -0.01
    18   1    -0.01  -0.19  -0.15    -0.14  -0.23   0.20    -0.14  -0.03   0.00
    19   1    -0.05   0.04  -0.15     0.15   0.25   0.20    -0.13  -0.01   0.00
    20   6    -0.01  -0.02  -0.12    -0.00   0.00  -0.01     0.01  -0.03  -0.00
    21   7    -0.02  -0.02  -0.20     0.00   0.00  -0.03    -0.08  -0.10  -0.00
    22   1     0.02  -0.02   0.24    -0.01   0.00  -0.16     0.21  -0.05  -0.01
                      7                      8                      9
                      A                      A                      A
 Frequencies --     96.4069               131.1029               146.5865
 Red. masses --      2.6625                10.7724                 1.1006
 Frc consts  --      0.0146                 0.1091                 0.0139
 IR Inten    --      2.4610                 2.1241                 0.5935
  Atom  AN      X      Y      Z        X      Y      Z        X      Y      Z
     1   6     0.00   0.00   0.01     0.00  -0.00   0.44     0.00   0.00  -0.01
     2   6    -0.00   0.00   0.19     0.00   0.00  -0.02     0.00   0.00   0.01
     3   6     0.00   0.00  -0.00    -0.00   0.00  -0.17     0.00   0.00   0.00
     4   6    -0.00  -0.00  -0.20     0.00   0.00   0.00    -0.00  -0.00  -0.06
     5   7     0.00   0.00  -0.00    -0.00  -0.00   0.10     0.00   0.00  -0.00
     6   1    -0.00   0.00   0.21     0.00   0.00  -0.03     0.00   0.00  -0.02
     7   1    -0.00   0.01   0.51     0.00   0.00  -0.03     0.00   0.00   0.12
     8   1     0.00   0.00  -0.02    -0.00   0.00  -0.48    -0.00   0.00   0.00
     9   1     0.00  -0.01  -0.46     0.00   0.00   0.01    -0.00  -0.00  -0.15
    10   8     0.00   0.00   0.03     0.00  -0.00   0.45     0.00   0.00  -0.00
    11   6     0.00   0.00   0.01    -0.00  -0.00  -0.06     0.00   0.00   0.00
    12   8     0.00   0.00   0.01    -0.00   0.00  -0.31     0.00  -0.00   0.01
    13   6    -0.00  -0.00  -0.13     0.00   0.00   0.01    -0.00  -0.00  -0.00
    14   8    -0.00  -0.00  -0.08     0.00   0.00   0.01     0.00  -0.00   0.05
    15   8    -0.00  -0.00  -0.08     0.00   0.00   0.02    -0.00  -0.00  -0.01
    16   6    -0.00  -0.00   0.20     0.00  -0.00  -0.02    -0.00   0.00  -0.01
    17   1    -0.00  -0.00   0.15    -0.00  -0.00   0.05     0.00   0.01   0.55
    18   1    -0.19  -0.09   0.34     0.03   0.07  -0.07     0.04   0.49  -0.30
    19   1     0.19   0.09   0.34    -0.03  -0.07  -0.07    -0.04  -0.48  -0.30
    20   6    -0.00  -0.00   0.00     0.00  -0.00   0.06     0.00   0.00   0.00
    21   7    -0.00  -0.00  -0.01    -0.00   0.00  -0.45    -0.00  -0.00   0.01
    22   1     0.00  -0.00  -0.02    -0.00   0.00  -0.05     0.00   0.00  -0.00
                     10                     11                     12
                      A                      A                      A
 Frequencies --    158.1684               210.9070               222.8282
 Red. masses --     10.2847                 2.6701                 3.0028
 Frc consts  --      0.1516                 0.0700                 0.0878
 IR Inten    --     17.8109                 4.8198                 3.2203
  Atom  AN      X      Y      Z        X      Y      Z        X      Y      Z
     1   6    -0.22  -0.21  -0.00    -0.00  -0.00  -0.01    -0.00  -0.00   0.00
     2   6    -0.03  -0.02  -0.00    -0.00  -0.00   0.02     0.18   0.13   0.00
     3   6     0.11  -0.10  -0.00     0.00  -0.00   0.00     0.01   0.00  -0.00
     4   6    -0.00  -0.00  -0.00     0.00  -0.00  -0.21    -0.08  -0.05  -0.00
     5   7    -0.04  -0.27  -0.00     0.00  -0.00  -0.01     0.01  -0.01  -0.00
     6   1    -0.02  -0.05   0.00    -0.00  -0.01  -0.16     0.17   0.44  -0.01
     7   1    -0.05  -0.01   0.00    -0.01   0.00   0.40     0.47  -0.01   0.01
     8   1     0.28  -0.12  -0.00     0.00  -0.00   0.00     0.02   0.00  -0.00
     9   1     0.01  -0.01  -0.00     0.01  -0.01  -0.53    -0.25   0.04  -0.02
    10   8    -0.23  -0.03   0.00    -0.00   0.00   0.01    -0.00   0.00   0.00
    11   6    -0.02   0.09   0.00     0.00   0.00   0.01     0.00   0.01   0.00
    12   8     0.02   0.32   0.00     0.00   0.00   0.01     0.00   0.01   0.00
    13   6    -0.01   0.00  -0.00     0.00   0.00   0.04    -0.08  -0.14   0.00
    14   8    -0.00  -0.00   0.00     0.00   0.00   0.01    -0.13  -0.11  -0.00
    15   8    -0.01  -0.00  -0.00    -0.00   0.01   0.25     0.02  -0.09   0.01
    16   6    -0.01  -0.01   0.00    -0.00  -0.01  -0.13     0.05   0.20  -0.00
    17   1    -0.02  -0.01   0.01    -0.01  -0.01  -0.41     0.28   0.25  -0.03
    18   1    -0.01  -0.00  -0.00     0.26  -0.19  -0.15    -0.05   0.28  -0.00
    19   1    -0.01  -0.03  -0.00    -0.25   0.17  -0.16    -0.07   0.32   0.01
    20   6    -0.08  -0.12  -0.00    -0.00  -0.00  -0.00    -0.00  -0.00   0.00
    21   7     0.49   0.31   0.00     0.00   0.00   0.00     0.01   0.00  -0.00
    22   1     0.01  -0.43  -0.00     0.00  -0.00  -0.01     0.01  -0.01  -0.00
                     13                     14                     15
                      A                      A                      A
 Frequencies --    286.5719               347.4276               454.1865
 Red. masses --      8.0241                 4.1363                10.9880
 Frc consts  --      0.3883                 0.2942                 1.3355
 IR Inten    --      5.0694                23.0023                 4.1232
  Atom  AN      X      Y      Z        X      Y      Z        X      Y      Z
     1   6    -0.00   0.00  -0.27     0.00   0.00   0.00     0.10  -0.05  -0.00
     2   6     0.00   0.00  -0.00    -0.17  -0.00  -0.00     0.01   0.00  -0.00
     3   6     0.00  -0.00   0.40    -0.00  -0.00  -0.00    -0.21  -0.10  -0.00
     4   6    -0.00   0.00   0.01     0.01   0.11  -0.00     0.00   0.00  -0.00
     5   7    -0.00   0.00  -0.23    -0.00   0.00   0.00    -0.15   0.03   0.00
     6   1     0.00   0.00  -0.00    -0.16  -0.26   0.00     0.01  -0.01   0.00
     7   1     0.00   0.00  -0.01    -0.42   0.13  -0.00     0.01   0.00  -0.00
     8   1     0.00  -0.00   0.34    -0.01  -0.00  -0.00    -0.36  -0.09  -0.00
     9   1    -0.00   0.00   0.01     0.06   0.09  -0.00    -0.01   0.01   0.00
    10   8     0.00  -0.00   0.30     0.00  -0.00  -0.00     0.03  -0.26  -0.00
    11   6     0.00  -0.00   0.19    -0.00  -0.00  -0.00    -0.14  -0.04   0.00
    12   8    -0.00   0.00  -0.31    -0.00  -0.00   0.00    -0.05   0.48   0.00
    13   6    -0.00  -0.00   0.00     0.02  -0.03   0.00    -0.00  -0.00  -0.00
    14   8     0.00  -0.00  -0.00     0.28  -0.20   0.00    -0.01   0.00   0.00
    15   8     0.00  -0.00  -0.01    -0.09  -0.09   0.00     0.00  -0.00   0.00
    16   6     0.00   0.00   0.00    -0.06   0.23  -0.00     0.00  -0.00   0.00
    17   1     0.00   0.00   0.01     0.21   0.30  -0.02     0.00  -0.00   0.00
    18   1    -0.01   0.00   0.00    -0.19   0.35  -0.01     0.00  -0.00  -0.00
    19   1     0.01  -0.00   0.00    -0.19   0.37   0.01     0.00  -0.00  -0.00
    20   6    -0.00   0.00  -0.17     0.00   0.00   0.00     0.52   0.16  -0.00
    21   7     0.00  -0.00   0.13    -0.00  -0.00   0.00    -0.01  -0.27  -0.00
    22   1    -0.00   0.00  -0.57    -0.00   0.00   0.00    -0.20   0.19   0.00
                     16                     17                     18
                      A                      A                      A
 Frequencies --    479.9078               482.3438               552.2086
 Red. masses --     11.8132                 4.1611                 1.5695
 Frc consts  --      1.6030                 0.5704                 0.2820
 IR Inten    --      4.3079                 0.5681                 0.6661
  Atom  AN      X      Y      Z        X      Y      Z        X      Y      Z
     1   6     0.00   0.00  -0.16     0.00  -0.00  -0.00    -0.00   0.00  -0.00
     2   6     0.00  -0.00   0.00    -0.23   0.17  -0.00     0.00   0.00   0.03
     3   6    -0.00  -0.00   0.21     0.00   0.00   0.00     0.00  -0.00   0.00
     4   6     0.00  -0.00   0.00    -0.13   0.19  -0.00     0.00  -0.00  -0.10
     5   7    -0.00   0.00  -0.27     0.00  -0.00  -0.00     0.00   0.00  -0.00
     6   1     0.00  -0.00  -0.02    -0.23  -0.03   0.00    -0.00   0.01   0.70
     7   1     0.00  -0.00   0.01    -0.45   0.29  -0.01     0.00  -0.01  -0.52
     8   1    -0.00  -0.00   0.09     0.01   0.00   0.00    -0.00  -0.00   0.01
     9   1     0.00  -0.00  -0.01    -0.28   0.25  -0.00    -0.00   0.00   0.42
    10   8    -0.00   0.00  -0.15     0.00   0.00  -0.00    -0.00  -0.00  -0.00
    11   6    -0.00  -0.00   0.12    -0.00   0.00   0.00     0.00  -0.00  -0.00
    12   8    -0.00   0.00  -0.04    -0.00  -0.00   0.00     0.00   0.00  -0.00
    13   6    -0.00   0.00   0.00    -0.02  -0.09   0.00     0.00  -0.00  -0.16
    14   8     0.00   0.00  -0.00    -0.08  -0.06   0.00    -0.00   0.00   0.08
    15   8    -0.00   0.00  -0.00     0.18  -0.07   0.00    -0.00   0.00   0.07
    16   6    -0.00   0.00  -0.00     0.25  -0.11   0.00    -0.00   0.00  -0.01
    17   1    -0.00   0.00   0.00     0.18  -0.13   0.00    -0.00  -0.00  -0.04
    18   1    -0.00   0.00   0.00     0.28  -0.14   0.01     0.06  -0.01  -0.03
    19   1     0.00   0.00   0.00     0.28  -0.15  -0.01    -0.06   0.01  -0.03
    20   6     0.00  -0.00   0.81     0.00  -0.00   0.00    -0.00   0.00   0.00
    21   7    -0.00   0.00  -0.33     0.00  -0.00  -0.00    -0.00   0.00  -0.00
    22   1    -0.00   0.00  -0.23     0.00  -0.00  -0.00     0.00  -0.00  -0.00
                     19                     20                     21
                      A                      A                      A
 Frequencies --    560.5333               606.7104               621.4133
 Red. masses --     11.7490                 6.2690                 1.1420
 Frc consts  --      2.1750                 1.3596                 0.2598
 IR Inten    --      4.9056                 2.7483                68.5829
  Atom  AN      X      Y      Z        X      Y      Z        X      Y      Z
     1   6     0.10  -0.06  -0.00    -0.16  -0.08  -0.00    -0.00  -0.00   0.04
     2   6    -0.00  -0.00   0.00    -0.00  -0.00   0.00    -0.00  -0.00  -0.00
     3   6    -0.06   0.18   0.00     0.18   0.05   0.00     0.00   0.00  -0.07
     4   6    -0.00  -0.01  -0.00    -0.01  -0.00  -0.00    -0.00  -0.00   0.00
     5   7    -0.01   0.03   0.00     0.01  -0.21  -0.00    -0.00  -0.00  -0.05
     6   1    -0.00   0.01   0.02    -0.00   0.01   0.00     0.00   0.00  -0.00
     7   1     0.00  -0.01  -0.01     0.00  -0.01  -0.00     0.00  -0.00   0.00
     8   1     0.25   0.17  -0.00     0.57   0.02  -0.01     0.00  -0.00   0.99
     9   1    -0.01  -0.01   0.01    -0.01  -0.00   0.00    -0.00  -0.00  -0.00
    10   8     0.11   0.23   0.00    -0.12   0.02   0.00    -0.00  -0.00   0.02
    11   6    -0.23   0.43   0.00    -0.01   0.25   0.00    -0.00   0.00  -0.03
    12   8    -0.34  -0.09   0.00    -0.07  -0.19  -0.00    -0.00  -0.00   0.00
    13   6     0.00   0.01  -0.00     0.00   0.00  -0.00     0.00   0.00   0.00
    14   8     0.01  -0.00   0.00     0.01  -0.00   0.00     0.00  -0.00  -0.00
    15   8    -0.00   0.01   0.00     0.00   0.01   0.00     0.00   0.00  -0.00
    16   6    -0.00   0.00  -0.00     0.00   0.00   0.00     0.00   0.00   0.00
    17   1    -0.01   0.00  -0.00    -0.01  -0.00  -0.00    -0.00  -0.00   0.00
    18   1     0.00  -0.00  -0.00     0.00  -0.00   0.00    -0.00   0.00   0.00
    19   1    -0.00  -0.00  -0.00     0.00  -0.00  -0.00     0.00  -0.00   0.00
    20   6     0.11  -0.42  -0.00     0.33   0.31   0.00     0.00   0.00   0.01
    21   7     0.31  -0.33  -0.00    -0.12  -0.01   0.00    -0.00  -0.00  -0.00
    22   1    -0.06   0.19   0.00     0.09  -0.47  -0.00     0.00  -0.00   0.10
                     22                     23                     24
                      A                      A                      A
 Frequencies --    651.7211               684.6378               728.4869
 Red. masses --      6.1854                 3.3877                12.0780
 Frc consts  --      1.5479                 0.9356                 3.7765
 IR Inten    --      5.0478                 9.4139                20.2601
  Atom  AN      X      Y      Z        X      Y      Z        X      Y      Z
     1   6     0.00  -0.00   0.51    -0.00  -0.00   0.00    -0.09  -0.08  -0.00
     2   6    -0.00  -0.00   0.00     0.07   0.02  -0.00    -0.01   0.00  -0.00
     3   6     0.00  -0.00   0.20     0.00   0.00   0.00    -0.03   0.17   0.01
     4   6    -0.00  -0.00  -0.00     0.26   0.15  -0.00    -0.01  -0.00  -0.00
     5   7    -0.00   0.00  -0.27    -0.00  -0.00  -0.00    -0.30   0.10   0.00
     6   1    -0.00   0.00   0.00     0.09  -0.56   0.01    -0.01   0.05  -0.00
     7   1     0.00  -0.00  -0.00    -0.45   0.27  -0.01     0.02  -0.01   0.00
     8   1     0.00   0.00  -0.04     0.01   0.00   0.00    -0.18   0.18  -0.00
     9   1    -0.00  -0.00   0.00     0.20   0.18  -0.00     0.03  -0.02  -0.00
    10   8    -0.00   0.00  -0.23    -0.00   0.01  -0.00    -0.37   0.41   0.01
    11   6    -0.00   0.00   0.04     0.00   0.00   0.00     0.22  -0.33  -0.03
    12   8    -0.00  -0.00  -0.01    -0.00  -0.01  -0.00     0.28  -0.07   0.01
    13   6    -0.00   0.00  -0.00     0.08  -0.07   0.00    -0.00   0.00   0.00
    14   8     0.00  -0.00   0.00    -0.18   0.10  -0.00     0.00  -0.00  -0.00
    15   8     0.00   0.00   0.00    -0.05  -0.19   0.00     0.00   0.00  -0.00
    16   6     0.00   0.00   0.00    -0.06   0.00  -0.00     0.00  -0.00   0.00
    17   1    -0.00  -0.00   0.00     0.22   0.07  -0.00    -0.00  -0.00   0.00
    18   1     0.00   0.00   0.00    -0.17   0.12  -0.01     0.01  -0.00   0.00
    19   1    -0.00  -0.00   0.00    -0.18   0.12   0.01     0.01  -0.00  -0.00
    20   6     0.00   0.00  -0.11     0.01  -0.00  -0.00     0.25  -0.07   0.00
    21   7     0.00  -0.00   0.04     0.00  -0.00  -0.00     0.14  -0.24  -0.00
    22   1    -0.00   0.00  -0.75    -0.00  -0.00  -0.00    -0.29   0.10  -0.01
                     25                     26                     27
                      A                      A                      A
 Frequencies --    729.0252               780.0076               788.4861
 Red. masses --     10.9900                 1.2447                10.1585
 Frc consts  --      3.4414                 0.4462                 3.7211
 IR Inten    --     38.7357                57.3736                11.2262
  Atom  AN      X      Y      Z        X      Y      Z        X      Y      Z
     1   6    -0.00  -0.00   0.03     0.00  -0.00   0.03     0.13   0.02  -0.00
     2   6    -0.00   0.00   0.00    -0.00   0.00   0.00    -0.00   0.00  -0.00
     3   6    -0.00   0.01  -0.37     0.00  -0.00   0.04     0.08  -0.44  -0.00
     4   6    -0.00  -0.00   0.00     0.00   0.00   0.00     0.00   0.00  -0.00
     5   7    -0.01   0.00   0.05     0.00   0.00  -0.12     0.29  -0.06   0.00
     6   1    -0.00   0.00  -0.00    -0.00   0.00  -0.00    -0.00   0.01   0.00
     7   1     0.00  -0.00  -0.02     0.00  -0.00   0.00     0.01  -0.00   0.00
     8   1    -0.01   0.01   0.08    -0.00  -0.00  -0.17     0.08  -0.45   0.00
     9   1     0.00  -0.00   0.01     0.00  -0.00  -0.00     0.02  -0.01   0.00
    10   8    -0.01   0.01  -0.17    -0.00   0.00   0.01    -0.05   0.43   0.00
    11   6     0.01  -0.01   0.81    -0.00  -0.00  -0.00    -0.19  -0.31  -0.00
    12   8     0.01  -0.00  -0.22    -0.00   0.00   0.00    -0.27   0.09   0.00
    13   6    -0.00  -0.00  -0.01     0.00  -0.00  -0.00     0.00   0.00   0.00
    14   8     0.00  -0.00   0.00    -0.00   0.00   0.00    -0.00   0.00  -0.00
    15   8     0.00   0.00   0.00    -0.00  -0.00  -0.00    -0.00  -0.00  -0.00
    16   6     0.00  -0.00   0.00    -0.00  -0.00  -0.00     0.00  -0.00   0.00
    17   1    -0.00  -0.00  -0.00     0.00   0.00  -0.00     0.01   0.00   0.00
    18   1     0.00  -0.00  -0.00     0.00  -0.00  -0.00    -0.00   0.00  -0.00
    19   1    -0.00   0.00  -0.00    -0.00   0.00  -0.00    -0.00   0.00   0.00
    20   6     0.01  -0.00  -0.04     0.00   0.00  -0.02     0.08   0.11   0.00
    21   7     0.00  -0.01   0.01     0.00  -0.00   0.00    -0.04   0.02   0.00
    22   1    -0.01   0.00   0.34     0.00  -0.00   0.98     0.25   0.10  -0.02
                     28                     29                     30
                      A                      A                      A
 Frequencies --    845.8776               894.5712              1007.4604
 Red. masses --      4.1156                 2.8372                10.0023
 Frc consts  --      1.7350                 1.3377                 5.9814
 IR Inten    --     35.7460                18.4573                38.3666
  Atom  AN      X      Y      Z        X      Y      Z        X      Y      Z
     1   6    -0.00   0.00   0.00     0.00   0.00   0.00     0.04  -0.15  -0.00
     2   6     0.00   0.00   0.00     0.11   0.01   0.00    -0.01  -0.00  -0.00
     3   6    -0.00   0.00  -0.00     0.00  -0.00  -0.00    -0.25  -0.20  -0.00
     4   6     0.00  -0.00  -0.23     0.10   0.03   0.00     0.01   0.01  -0.00
     5   7     0.00  -0.00  -0.00     0.00   0.00  -0.00    -0.38  -0.29  -0.00
     6   1    -0.00   0.01   0.73     0.14  -0.56   0.01    -0.01   0.03   0.00
     7   1     0.00  -0.00  -0.33    -0.37   0.24  -0.01     0.02  -0.01   0.00
     8   1     0.00   0.00   0.00     0.00  -0.00  -0.00     0.06  -0.25  -0.00
     9   1    -0.00   0.00   0.25    -0.10   0.13  -0.00     0.06  -0.01   0.00
    10   8     0.00  -0.00  -0.00    -0.00   0.00   0.00     0.41   0.28   0.00
    11   6     0.00   0.00   0.00    -0.00  -0.00  -0.00     0.09   0.14   0.00
    12   8    -0.00  -0.00  -0.00    -0.00  -0.00   0.00     0.14   0.01  -0.00
    13   6    -0.00   0.01   0.45    -0.10  -0.09   0.00    -0.00  -0.00  -0.00
    14   8     0.00  -0.00  -0.11    -0.06  -0.18   0.00    -0.00  -0.01   0.00
    15   8     0.00  -0.00  -0.09     0.06   0.22  -0.00     0.00   0.00  -0.00
    16   6    -0.00   0.00  -0.01    -0.06   0.05  -0.00     0.00   0.00   0.00
    17   1    -0.00   0.00   0.05    -0.48  -0.05   0.00    -0.01  -0.00   0.00
    18   1    -0.08   0.01   0.02     0.12  -0.15   0.02     0.01  -0.00   0.00
    19   1     0.08  -0.01   0.02     0.13  -0.15  -0.02     0.01  -0.00  -0.00
    20   6    -0.00  -0.00  -0.00     0.00  -0.00   0.00    -0.04   0.07   0.00
    21   7    -0.00   0.00  -0.00     0.00  -0.00  -0.00    -0.09   0.11   0.00
    22   1     0.00  -0.00   0.01     0.00   0.00   0.00    -0.50  -0.04   0.00
                     31                     32                     33
                      A                      A                      A
 Frequencies --   1017.4932              1051.2028              1073.0917
 Red. masses --      1.2834                 1.1422                 1.6853
 Frc consts  --      0.7828                 0.7436                 1.1434
 IR Inten    --     38.9656                 8.9158                38.2264
  Atom  AN      X      Y      Z        X      Y      Z        X      Y      Z
     1   6    -0.00   0.00   0.00    -0.00   0.00  -0.00    -0.04   0.01   0.00
     2   6     0.00  -0.00  -0.15    -0.00   0.00   0.05    -0.11  -0.02  -0.00
     3   6     0.00   0.00  -0.00     0.00   0.00   0.00    -0.04  -0.02   0.00
     4   6     0.00   0.00   0.03     0.00   0.00  -0.10     0.10   0.09   0.00
     5   7     0.00   0.00  -0.00     0.00   0.00   0.00     0.06  -0.01  -0.00
     6   1    -0.00   0.01   0.53     0.00  -0.00  -0.50    -0.12   0.45   0.00
     7   1    -0.00   0.01   0.80     0.00   0.00   0.26     0.32  -0.22  -0.00
     8   1    -0.00   0.00   0.00    -0.00   0.00   0.00    -0.49   0.01   0.00
     9   1     0.00   0.00   0.23     0.01   0.01   0.81     0.52  -0.11  -0.01
    10   8    -0.00  -0.00  -0.00    -0.00  -0.00   0.00    -0.01   0.01   0.00
    11   6    -0.00  -0.00   0.00    -0.00   0.00  -0.00     0.02   0.05   0.00
    12   8    -0.00  -0.00  -0.00    -0.00  -0.00  -0.00     0.02  -0.01  -0.00
    13   6    -0.00  -0.00  -0.01    -0.00  -0.00  -0.00     0.02  -0.05   0.00
    14   8    -0.00  -0.00   0.00    -0.00  -0.00   0.00    -0.05  -0.05   0.00
    15   8     0.00   0.00   0.00     0.00   0.00  -0.00     0.06   0.02  -0.00
    16   6    -0.00   0.00   0.00    -0.00   0.00   0.00    -0.07   0.02  -0.00
    17   1    -0.00  -0.00  -0.00    -0.00  -0.00  -0.00    -0.17  -0.00  -0.00
    18   1     0.01  -0.00  -0.00     0.01  -0.00  -0.00    -0.01  -0.04   0.01
    19   1    -0.00  -0.00  -0.00    -0.01  -0.00  -0.00    -0.01  -0.04  -0.01
    20   6     0.00  -0.00   0.00     0.00  -0.00   0.00     0.01  -0.00  -0.00
    21   7     0.00  -0.00   0.00     0.00  -0.00  -0.00     0.01  -0.01  -0.00
    22   1     0.00  -0.00   0.00     0.00  -0.00  -0.00     0.09  -0.11  -0.00
                     34                     35                     36
                      A                      A                      A
 Frequencies --   1076.1532              1084.3508              1170.1501
 Red. masses --      1.5838                 4.0691                 1.8895
 Frc consts  --      1.0807                 2.8190                 1.5243
 IR Inten    --     47.1066                35.7202               111.5987
  Atom  AN      X      Y      Z        X      Y      Z        X      Y      Z
     1   6     0.07  -0.00  -0.00     0.01   0.00  -0.00    -0.01   0.00   0.00
     2   6    -0.06  -0.01  -0.00     0.02  -0.04   0.00    -0.00  -0.00  -0.00
     3   6     0.07   0.05   0.00     0.01   0.01   0.00     0.02  -0.19  -0.00
     4   6     0.05   0.04   0.00     0.11   0.08   0.00     0.00   0.00  -0.00
     5   7    -0.09   0.02   0.00    -0.01   0.00   0.00     0.00   0.07   0.00
     6   1    -0.07   0.24   0.00     0.02   0.01   0.00    -0.00   0.01  -0.00
     7   1     0.17  -0.11  -0.00     0.19  -0.13  -0.00     0.01  -0.01   0.00
     8   1     0.85  -0.01  -0.00     0.12   0.00  -0.00     0.12  -0.22  -0.00
     9   1     0.25  -0.05  -0.01     0.64  -0.16  -0.01     0.00   0.00  -0.00
    10   8     0.01  -0.03  -0.00     0.00  -0.01  -0.00    -0.08  -0.03   0.00
    11   6    -0.03  -0.09  -0.00    -0.00  -0.01  -0.00     0.03   0.15   0.00
    12   8    -0.04   0.02   0.00    -0.01   0.00   0.00     0.06  -0.04  -0.00
    13   6     0.02  -0.03   0.00    -0.20   0.09  -0.00     0.00  -0.00   0.00
    14   8    -0.03  -0.02   0.00    -0.02  -0.07   0.00    -0.00  -0.00   0.00
    15   8     0.05   0.01   0.00    -0.27   0.01  -0.00    -0.00   0.00  -0.00
    16   6    -0.05   0.01  -0.00     0.32   0.00   0.00     0.00   0.00  -0.00
    17   1    -0.09   0.00  -0.00     0.08  -0.05   0.00    -0.01  -0.00   0.00
    18   1    -0.02  -0.02   0.00     0.33  -0.09   0.04     0.00  -0.00   0.00
    19   1    -0.02  -0.02  -0.00     0.33  -0.09  -0.04     0.00  -0.00  -0.00
    20   6    -0.02   0.00   0.00    -0.00  -0.00   0.00     0.00  -0.00  -0.00
    21   7    -0.01   0.02   0.00    -0.00   0.00   0.00     0.00  -0.01  -0.00
    22   1    -0.14   0.18   0.00    -0.01   0.01   0.00    -0.26   0.89   0.00
                     37                     38                     39
                      A                      A                      A
 Frequencies --   1183.9668              1213.5132              1267.7673
 Red. masses --      1.3018                 1.5386                 1.9735
 Frc consts  --      1.0752                 1.3349                 1.8688
 IR Inten    --      1.1137                 7.8901               245.9963
  Atom  AN      X      Y      Z        X      Y      Z        X      Y      Z
     1   6    -0.00   0.00  -0.00    -0.00   0.00   0.00    -0.00   0.00   0.00
     2   6     0.00   0.00   0.00     0.02   0.01  -0.00     0.05   0.09  -0.00
     3   6    -0.00  -0.00   0.00    -0.00  -0.00  -0.00    -0.00  -0.00   0.00
     4   6    -0.00  -0.00   0.00     0.00   0.01   0.00    -0.07  -0.06   0.00
     5   7     0.00   0.00   0.00     0.00   0.00  -0.00     0.00   0.00  -0.00
     6   1     0.00  -0.00   0.00     0.02  -0.06   0.00     0.06  -0.13   0.00
     7   1    -0.00   0.00  -0.01    -0.02   0.03  -0.00    -0.27   0.25  -0.00
     8   1    -0.00  -0.00   0.00     0.01  -0.00  -0.00     0.01  -0.00  -0.00
     9   1    -0.00  -0.00  -0.01     0.25  -0.11   0.00     0.68  -0.43   0.01
    10   8     0.00   0.00  -0.00    -0.00  -0.00   0.00    -0.00  -0.00  -0.00
    11   6    -0.00  -0.00   0.00     0.00   0.00  -0.00     0.00   0.00   0.00
    12   8     0.00  -0.00   0.00    -0.00  -0.00  -0.00    -0.00  -0.00   0.00
    13   6    -0.00   0.00   0.01    -0.08   0.04  -0.00    -0.12   0.11  -0.00
    14   8     0.00   0.00  -0.00    -0.01  -0.05   0.00     0.02   0.01   0.00
    15   8     0.00  -0.00  -0.07     0.04   0.08  -0.00     0.10  -0.11   0.00
    16   6    -0.00   0.00   0.14    -0.02  -0.15   0.00    -0.08   0.05  -0.00
    17   1    -0.01  -0.00  -0.34     0.69   0.01  -0.00    -0.11   0.03   0.00
    18   1     0.64   0.04  -0.17    -0.27   0.33  -0.14     0.13  -0.16   0.03
    19   1    -0.62  -0.05  -0.18    -0.29   0.32   0.13     0.14  -0.16  -0.02
    20   6     0.00  -0.00  -0.00     0.00  -0.00   0.00     0.00  -0.00  -0.00
    21   7     0.00  -0.00  -0.00     0.00  -0.00   0.00     0.00  -0.00  -0.00
    22   1     0.00  -0.00   0.00    -0.00   0.01   0.00    -0.00   0.01   0.00
                     40                     41                     42
                      A                      A                      A
 Frequencies --   1339.8553              1342.2216              1412.6106
 Red. masses --      1.9472                 2.3579                 1.3320
 Frc consts  --      2.0596                 2.5028                 1.5660
 IR Inten    --    224.7853               246.0826               187.0179
  Atom  AN      X      Y      Z        X      Y      Z        X      Y      Z
     1   6    -0.02   0.04   0.00    -0.10   0.21   0.00     0.00   0.00  -0.00
     2   6    -0.00  -0.08   0.00     0.00   0.02  -0.00     0.01  -0.07   0.00
     3   6    -0.03  -0.02  -0.00    -0.17  -0.11  -0.00    -0.00  -0.00   0.00
     4   6     0.03   0.11  -0.00    -0.01  -0.03   0.00     0.11  -0.03   0.00
     5   7     0.01   0.01   0.00     0.03   0.05   0.00    -0.00   0.00   0.00
     6   1     0.03  -0.39   0.00    -0.01   0.09  -0.00    -0.03   0.70  -0.01
     7   1     0.54  -0.36   0.01    -0.12   0.08  -0.00    -0.49   0.18  -0.00
     8   1     0.13  -0.04  -0.00     0.66  -0.21  -0.00    -0.00  -0.00  -0.00
     9   1    -0.37   0.33  -0.00     0.08  -0.07   0.00    -0.29   0.16  -0.00
    10   8     0.00   0.00  -0.00    -0.00  -0.00  -0.00    -0.00  -0.00   0.00
    11   6    -0.00   0.00   0.00     0.01   0.03   0.00    -0.00   0.00   0.00
    12   8     0.02  -0.00  -0.00     0.07  -0.01  -0.00     0.00   0.00  -0.00
    13   6    -0.15   0.12  -0.00     0.04  -0.03   0.00    -0.07   0.07  -0.00
    14   8     0.02  -0.01   0.00    -0.00   0.00  -0.00     0.00  -0.02   0.00
    15   8     0.09  -0.08   0.00    -0.02   0.02  -0.00     0.01  -0.02   0.00
    16   6    -0.07   0.01  -0.00     0.02  -0.00   0.00    -0.04   0.00  -0.00
    17   1     0.14   0.05   0.00    -0.03  -0.01  -0.00     0.20   0.05   0.00
    18   1     0.13  -0.10  -0.02    -0.03   0.03   0.00     0.14  -0.07  -0.04
    19   1     0.13  -0.10   0.02    -0.03   0.03  -0.00     0.14  -0.07   0.04
    20   6     0.00  -0.01  -0.00     0.01  -0.03  -0.00    -0.00  -0.00  -0.00
    21   7     0.01  -0.01  -0.00     0.05  -0.06  -0.00    -0.00   0.00  -0.00
    22   1     0.04  -0.11  -0.00     0.22  -0.55  -0.00     0.00  -0.01  -0.00
                     43                     44                     45
                      A                      A                      A
 Frequencies --   1447.0497              1469.2179              1473.1503
 Red. masses --      4.2171                 1.0384                 1.1164
 Frc consts  --      5.2027                 1.3206                 1.4275
 IR Inten    --     91.0507                11.2208                61.4860
  Atom  AN      X      Y      Z        X      Y      Z        X      Y      Z
     1   6     0.02   0.16   0.00    -0.00  -0.00  -0.00     0.00   0.00   0.00
     2   6    -0.00   0.00  -0.00     0.00  -0.00  -0.00    -0.01   0.02  -0.00
     3   6     0.34  -0.19  -0.00    -0.00   0.00   0.00    -0.00  -0.00   0.00
     4   6    -0.00   0.00   0.00     0.00   0.00   0.00    -0.01  -0.00   0.00
     5   7    -0.26   0.14   0.00     0.00   0.00   0.00     0.00  -0.00   0.00
     6   1    -0.00  -0.00   0.00     0.00   0.00  -0.00    -0.00  -0.07   0.00
     7   1     0.00  -0.00   0.00    -0.00   0.00   0.00     0.04  -0.01   0.00
     8   1    -0.49  -0.16   0.00     0.00   0.00   0.00     0.00  -0.00   0.00
     9   1     0.02  -0.01   0.00    -0.00   0.00  -0.00     0.04  -0.03   0.00
    10   8     0.03  -0.02  -0.00     0.00   0.00  -0.00    -0.00  -0.00  -0.00
    11   6     0.00   0.05   0.00    -0.00  -0.00   0.00     0.00   0.00   0.00
    12   8    -0.06  -0.01   0.00     0.00  -0.00   0.00    -0.00   0.00   0.00
    13   6     0.00  -0.00   0.00    -0.00   0.00  -0.00     0.05  -0.02   0.00
    14   8    -0.00  -0.00  -0.00     0.00   0.00   0.00    -0.01  -0.01   0.00
    15   8     0.00  -0.00   0.00     0.00  -0.00  -0.01    -0.03   0.04  -0.00
    16   6     0.00  -0.00   0.00     0.00  -0.00  -0.05    -0.03   0.04  -0.00
    17   1    -0.00  -0.00   0.00    -0.01   0.00   0.71     0.61   0.18   0.01
    18   1    -0.00   0.00   0.00     0.29  -0.40   0.05    -0.03  -0.47   0.26
    19   1    -0.00   0.00  -0.00    -0.29   0.40   0.05    -0.03  -0.46  -0.26
    20   6    -0.02  -0.02  -0.00     0.00   0.00  -0.00     0.00  -0.00  -0.00
    21   7     0.03  -0.04  -0.00    -0.00  -0.00  -0.00     0.00  -0.00  -0.00
    22   1    -0.03  -0.68  -0.00     0.00   0.00   0.00    -0.00   0.00   0.00
                     46                     47                     48
                      A                      A                      A
 Frequencies --   1484.8964              1492.3630              1631.2893
 Red. masses --      1.2034                 6.9105                 5.4374
 Frc consts  --      1.5633                 9.0679                 8.5252
 IR Inten    --     16.8174                63.3302               121.3819
  Atom  AN      X      Y      Z        X      Y      Z        X      Y      Z
     1   6    -0.01   0.00   0.00     0.59  -0.00  -0.00     0.04   0.45   0.00
     2   6    -0.01   0.02  -0.00    -0.00   0.00  -0.00     0.00  -0.00   0.00
     3   6     0.00   0.00  -0.00    -0.15  -0.03   0.00     0.06   0.09   0.00
     4   6    -0.02  -0.01   0.00    -0.01   0.01  -0.00    -0.00   0.00  -0.00
     5   7     0.00   0.00   0.00    -0.05  -0.07  -0.00    -0.03  -0.38  -0.00
     6   1    -0.01  -0.10   0.00     0.00  -0.04   0.00     0.00   0.00  -0.00
     7   1     0.07  -0.01   0.00     0.03  -0.02   0.00    -0.00  -0.00  -0.00
     8   1     0.00   0.00   0.00    -0.03  -0.06  -0.00    -0.31   0.13   0.00
     9   1     0.05  -0.05   0.00     0.02  -0.01  -0.00    -0.01   0.01  -0.00
    10   8     0.00   0.00  -0.00    -0.28  -0.02   0.00    -0.04  -0.02   0.00
    11   6     0.00  -0.00  -0.00    -0.00   0.17   0.00     0.02  -0.06  -0.00
    12   8    -0.00   0.00   0.00     0.06  -0.04  -0.00    -0.03   0.01   0.00
    13   6     0.07  -0.04   0.00     0.00  -0.00   0.00     0.00   0.00  -0.00
    14   8    -0.01  -0.00  -0.00    -0.00  -0.00  -0.00     0.00  -0.00   0.00
    15   8    -0.04   0.02  -0.00    -0.00  -0.00   0.00     0.00  -0.00   0.00
    16   6    -0.09  -0.01  -0.00    -0.00  -0.00  -0.00    -0.00   0.00  -0.00
    17   1     0.26   0.08   0.00     0.01   0.00   0.00    -0.00   0.00   0.00
    18   1     0.56   0.09  -0.35     0.03   0.01  -0.02     0.00   0.00  -0.00
    19   1     0.56   0.09   0.35     0.03   0.01   0.02     0.00   0.00   0.00
    20   6     0.00   0.00  -0.00    -0.04  -0.01   0.00    -0.01  -0.02  -0.00
    21   7     0.00  -0.00  -0.00    -0.05   0.08   0.00     0.05  -0.06  -0.00
    22   1    -0.00   0.01   0.00     0.14  -0.68  -0.00    -0.38   0.61   0.00
                     49                     50                     51
                      A                      A                      A
 Frequencies --   1737.7050              1853.4846              1916.6719
 Red. masses --      5.4575                11.4943                12.3345
 Frc consts  --      9.7095                23.2653                26.6974
 IR Inten    --     85.4809               267.5293              1341.9879
  Atom  AN      X      Y      Z        X      Y      Z        X      Y      Z
     1   6    -0.00  -0.00  -0.00    -0.00  -0.00  -0.00    -0.01  -0.01  -0.00
     2   6     0.24  -0.34   0.01    -0.01   0.04  -0.00    -0.01   0.01  -0.00
     3   6    -0.00  -0.00   0.00    -0.00  -0.00   0.00    -0.15  -0.05   0.00
     4   6    -0.33   0.34  -0.01    -0.05  -0.07   0.00     0.01  -0.01   0.00
     5   7     0.00   0.00   0.00    -0.00   0.00   0.00    -0.01   0.03   0.00
     6   1     0.28   0.33  -0.00    -0.01  -0.13   0.00    -0.01  -0.04   0.00
     7   1    -0.48  -0.06  -0.00     0.08   0.02  -0.00     0.02  -0.00   0.00
     8   1     0.01  -0.00  -0.00     0.00  -0.00  -0.00     0.18  -0.12  -0.00
     9   1     0.41   0.05   0.00    -0.20  -0.01  -0.00    -0.06   0.03  -0.00
    10   8     0.00  -0.00  -0.00    -0.00  -0.00  -0.00    -0.04  -0.04  -0.00
    11   6     0.01  -0.00  -0.00     0.02  -0.00  -0.00     0.83   0.01  -0.00
    12   8    -0.01   0.00   0.00    -0.01   0.00   0.00    -0.47   0.06   0.00
    13   6     0.10  -0.03   0.00     0.46   0.63  -0.01    -0.02  -0.01   0.00
    14   8    -0.02  -0.01   0.00    -0.28  -0.40   0.00     0.01   0.01  -0.00
    15   8     0.01   0.00   0.00    -0.02  -0.06   0.00     0.00  -0.00   0.00
    16   6    -0.01   0.00  -0.00     0.03   0.01  -0.00    -0.00  -0.00  -0.00
    17   1     0.01   0.01   0.00    -0.19  -0.04   0.00     0.00   0.00   0.00
    18   1     0.02  -0.00  -0.01    -0.08   0.09   0.03     0.00  -0.00  -0.00
    19   1     0.02  -0.00   0.01    -0.08   0.09  -0.03     0.00  -0.00   0.00
    20   6     0.00  -0.00  -0.00     0.00  -0.00  -0.00     0.01  -0.02  -0.00
    21   7    -0.00   0.00   0.00    -0.00   0.00   0.00    -0.01   0.02   0.00
    22   1     0.00  -0.00  -0.00     0.00  -0.00  -0.00     0.01  -0.03  -0.00
                     52                     53                     54
                      A                      A                      A
 Frequencies --   2394.2843              3062.4438              3160.6416
 Red. masses --     12.6482                 1.0322                 1.1077
 Frc consts  --     42.7198                 5.7039                 6.5199
 IR Inten    --    171.9475                36.6604                18.9462
  Atom  AN      X      Y      Z        X      Y      Z        X      Y      Z
     1   6     0.08  -0.11  -0.00     0.00   0.00   0.00    -0.00   0.00  -0.00
     2   6    -0.00  -0.00  -0.00    -0.00   0.00  -0.00     0.00  -0.00   0.00
     3   6    -0.03   0.01   0.00    -0.00   0.00  -0.00    -0.00  -0.00  -0.00
     4   6     0.00   0.00  -0.00    -0.00   0.00  -0.00    -0.00  -0.00  -0.00
     5   7     0.01  -0.02  -0.00     0.00  -0.00  -0.00    -0.00  -0.00  -0.00
     6   1     0.00   0.00   0.00     0.00   0.00   0.00    -0.00  -0.00   0.00
     7   1    -0.00   0.00   0.00    -0.00  -0.00   0.00     0.00   0.00  -0.00
     8   1     0.01   0.02   0.00    -0.00  -0.00  -0.00     0.00   0.00  -0.00
     9   1     0.00  -0.00   0.00    -0.00  -0.00   0.00     0.00   0.00  -0.00
    10   8     0.01  -0.01  -0.00    -0.00   0.00   0.00     0.00   0.00   0.00
    11   6     0.02   0.02   0.00     0.00  -0.00  -0.00    -0.00  -0.00  -0.00
    12   8    -0.01  -0.00   0.00    -0.00  -0.00  -0.00     0.00   0.00   0.00
    13   6     0.00   0.00  -0.00     0.00  -0.00   0.00    -0.00   0.00   0.00
    14   8    -0.00  -0.00  -0.00     0.00   0.00  -0.00    -0.00  -0.00   0.00
    15   8    -0.00  -0.00  -0.00    -0.00   0.00  -0.00    -0.00   0.00   0.00
    16   6     0.00  -0.00  -0.00    -0.05  -0.01  -0.00     0.00  -0.00  -0.10
    17   1     0.00  -0.00  -0.00     0.10  -0.44   0.00    -0.00   0.00  -0.01
    18   1     0.00   0.00   0.00     0.23   0.28   0.52     0.26   0.32   0.57
    19   1     0.00   0.00  -0.00     0.23   0.28  -0.52    -0.26  -0.32   0.57
    20   6    -0.48   0.65   0.00     0.00  -0.00   0.00     0.00  -0.00   0.00
    21   7     0.34  -0.46  -0.00    -0.00   0.00   0.00     0.00   0.00   0.00
    22   1     0.01  -0.01  -0.00    -0.00  -0.00  -0.00     0.00   0.00  -0.00
                     55                     56                     57
                      A                      A                      A
 Frequencies --   3163.8719              3202.7433              3240.9823
 Red. masses --      1.0619                 1.1079                 1.0961
 Frc consts  --      6.2629                 6.6956                 6.7834
 IR Inten    --      3.1769                12.5359                10.9978
  Atom  AN      X      Y      Z        X      Y      Z        X      Y      Z
     1   6     0.00  -0.00  -0.00    -0.00   0.00   0.00     0.00  -0.00  -0.00
     2   6     0.03  -0.06   0.00     0.00  -0.00   0.00     0.01   0.02  -0.00
     3   6     0.00  -0.00   0.00    -0.00  -0.00  -0.00     0.00  -0.00  -0.00
     4   6    -0.01   0.00  -0.00    -0.00  -0.00   0.00    -0.03  -0.08   0.00
     5   7    -0.00  -0.00   0.00     0.00  -0.00  -0.00    -0.00   0.00   0.00
     6   1    -0.65  -0.03  -0.00    -0.00  -0.00  -0.00    -0.07  -0.01  -0.00
     7   1     0.33   0.67  -0.01     0.00   0.00  -0.00    -0.06  -0.12   0.00
     8   1    -0.00   0.00   0.00     0.00   0.00  -0.00     0.00   0.00   0.00
     9   1     0.03   0.05  -0.00     0.00   0.00  -0.00     0.43   0.89  -0.01
    10   8    -0.00  -0.00  -0.00     0.00   0.00   0.00     0.00  -0.00  -0.00
    11   6    -0.00   0.00   0.00    -0.00  -0.00  -0.00    -0.00   0.00   0.00
    12   8     0.00  -0.00   0.00     0.00   0.00  -0.00    -0.00  -0.00  -0.00
    13   6    -0.00  -0.00   0.00    -0.00  -0.00  -0.00     0.00  -0.00   0.00
    14   8     0.00   0.00  -0.00     0.00   0.00  -0.00     0.00   0.00  -0.00
    15   8     0.00  -0.00   0.00    -0.00   0.00   0.00    -0.00   0.00  -0.00
    16   6    -0.00   0.00   0.00    -0.00  -0.10   0.00    -0.00   0.00  -0.00
    17   1     0.00  -0.00   0.00    -0.19   0.87  -0.00     0.00  -0.00   0.00
[...]
 84,-0.00170703,0.00001181,-0.07190480,-0.01917889,0.00034098,-0.080088
 83,-0.09563966,0.00035982,0.12476215,0.10550061,0.00001848,0.00004690,
 0.00082992,-0.00002392,-0.00001352,0.00028747,0.00013568,-0.00006397,0
 .01752628,-0.00000476,-0.00002759,0.00055483,0.00001787,0.00005485,0.0
 0419313,-0.00000289,0.00004462,-0.00047873,0.00000722,0.00000199,-0.00
 003332,0.00000323,-0.00000091,-0.00061944,-0.00002430,0.00004034,-0.00
 086764,0.00042684,0.00028521,0.01006419,0.00244076,0.00036747,-0.06854
 024,-0.00300495,-0.00074042,0.03486197,-0.00105477,0.00036811,-0.00000
 055,-0.02362509,-0.01831415,-0.00032407,0.00101580,-0.00031788,-0.0000
 0218,-0.22514191,0.02393782,-0.00020717,0.00076961,-0.00055919,-0.0000
 0032,0.00097736,0.00084485,-0.00002636,-0.00006723,0.00273115,0.000060
 87,0.00005664,0.00005049,-0.00000015,-0.00388783,-0.00309377,-0.000063
 10,0.00112538,0.00046358,-0.00000352,-0.00414059,0.00007175,0.00001542
 ,0.00405313,-0.00133935,-0.00002138,0.78924513,-0.00035422,-0.00008640
 ,0.00000169,-0.02732230,0.00684548,-0.00009101,0.00005068,-0.00006389,
 -0.00000233,-0.00000021,-0.09631942,-0.00015107,0.00034137,0.00009176,
 -0.00000224,-0.00165137,-0.00508410,-0.00024223,-0.00238916,-0.0024495
 9,0.00012686,0.00005260,0.00002400,0.00000110,0.02564944,0.00283399,0.
 00010550,0.00029880,0.00013317,-0.00000113,-0.00066374,-0.00025784,0.0
 0000693,0.00157366,-0.00073191,-0.00000062,-0.20025537,0.89358532,-0.0
 0000428,0.00000297,0.00003859,-0.00045023,-0.00004472,0.00520509,0.000
 00770,-0.00000244,-0.00003985,-0.00043449,-0.00009324,-0.08271185,0.00
 000425,-0.00000340,-0.00002190,-0.00007081,-0.00023852,0.01398876,0.00
 000856,0.00010174,-0.00932122,0.00000060,0.00000055,0.00002561,0.00029
 010,0.00001785,0.00051961,0.00000556,0.00000567,-0.00005923,-0.0000327
 9,-0.00000244,0.00007486,0.00003529,-0.00001155,0.00002257,-0.00065094
 ,0.00731005,0.21730706,0.00035355,-0.00035226,0.00000192,0.00057731,0.
 00668330,0.00007492,-0.00083870,0.00015507,0.00000188,-0.03680676,0.04
 127600,0.00030565,-0.00031289,0.00045786,-0.00000077,-0.00001170,-0.00
 002407,0.00000556,0.00034691,-0.00015648,0.00000057,-0.00001799,-0.000
 02546,0.00000047,-0.00755805,-0.00201464,-0.00005148,-0.00054666,-0.00
 044456,0.00000198,0.00291053,0.00025925,-0.00001133,-0.00300370,0.0006
 4805,0.00000841,-0.33339860,0.30028486,0.00277338,0.34390763,0.0000848
 7,0.00025012,-0.00000204,-0.00532175,-0.00635125,-0.00009750,0.0004871
 6,-0.00003222,-0.00000061,0.02758290,-0.00195115,-0.00015399,-0.000035
 32,-0.00030066,0.00000153,-0.00010481,0.00162454,0.00003955,0.00094988
 ,0.00272296,0.00004584,-0.00001390,0.00000176,-0.00000066,0.00100075,0
 .00129382,-0.00001275,0.00008645,0.00024767,-0.00000027,-0.00135217,-0
 .00017502,0.00000413,0.00118414,-0.00001001,-0.00000232,0.30320137,-0.
 54045071,-0.00446612,-0.34992855,0.65809193,0.00000216,-0.00000031,-0.
 00001719,-0.00004279,-0.00006835,-0.00003511,-0.00000051,0.00000089,0.
 00002094,0.00012845,-0.00011881,0.01978299,-0.00000143,0.00000026,0.00
 000603,0.00000338,0.00004679,-0.00164546,-0.00001911,0.00006860,0.0007
 3446,-0.00000015,-0.00000019,-0.00001270,-0.00002017,-0.00001848,0.002
 45287,-0.00000168,0.,0.00002945,0.00000442,-0.00000130,-0.00004572,-0.
 00000265,0.00000240,0.00001957,0.00284110,-0.00455865,-0.08108038,-0.0
 0326612,0.00609763,0.03482843,0.00054968,-0.00018319,0.00000048,-0.007
 50248,0.00475085,0.00002972,-0.00046903,0.00017173,0.00000091,-0.03274
 727,-0.05128255,-0.00072275,-0.00039180,0.00026434,0.00000013,-0.00120
 215,-0.00218388,-0.00003565,0.00071733,-0.00011938,-0.00001016,-0.0000
 2421,-0.00002783,0.00000011,0.00090266,-0.00133899,-0.00000776,-0.0005
 8013,-0.00019409,0.00000221,0.00202488,-0.00007697,-0.00000771,-0.0018
 2172,0.00055630,0.00001157,-0.16431736,-0.07833929,-0.00121720,0.03196
 792,0.00966772,0.00016156,0.49261273,0.00057267,0.00010477,-0.00000208
 ,-0.00080624,0.00434878,0.00004540,0.00005092,0.00010774,0.00000060,-0
 .01807418,-0.01390978,-0.00035136,-0.00039346,-0.00006499,0.00000182,-
 0.00036807,-0.00031231,0.00000120,0.00149118,0.00077223,-0.00001311,-0
 .00004292,-0.00002165,-0.00000071,-0.00109413,0.00012947,0.00000059,-0
 .00042802,0.00004849,0.00000160,0.00047150,-0.00020919,-0.00000351,-0.
 00064893,0.00063080,0.00000729,-0.05633628,-0.25273476,-0.00238534,0.0
 0664173,-0.11630808,-0.00164398,0.10078902,0.45975274,0.00000634,-0.00
 000144,-0.00001346,-0.00003240,0.00005424,0.00081933,-0.00000376,0.000
 00217,0.00002600,-0.00035072,-0.00045204,0.01101444,-0.00000460,0.0000
 0194,0.00000436,-0.00000470,0.00000073,-0.00087233,0.00001799,0.000002
 77,0.00050192,-0.00000034,-0.00000036,-0.00001882,-0.00000481,-0.00000
 223,-0.00055255,-0.00000643,-0.00000188,0.00002241,0.00001855,-0.00000
 133,-0.00005183,-0.00001715,0.00000724,0.00011372,-0.00092647,-0.00241
 405,-0.06812006,0.00009248,-0.00163876,0.03030136,0.00237776,0.0047951
 5,0.08296773,-0.00018972,0.00017056,-0.00000106,0.00016611,-0.00081692
 ,-0.00000882,0.00035011,-0.00008779,-0.00000055,0.00499616,0.00108160,
 0.00000533,0.00014831,-0.00020065,0.00000039,0.00025147,0.00017270,0.0
 0000545,-0.00032204,-0.00004333,0.00000612,0.00000330,0.00001500,-0.00
 000027,-0.00001573,0.00039854,0.00000498,0.00025981,0.00016152,-0.0000
 0089,-0.00129484,-0.00004023,0.00000435,0.00110382,-0.00017096,-0.0000
 0518,-0.03896320,-0.04289462,-0.00060282,-0.00332122,0.02013793,0.0002
 5415,-0.23044870,-0.00780455,-0.00059215,0.48110501,-0.00006374,0.0000
 0275,0.00000004,-0.00130660,0.00036041,-0.00000011,0.00002543,-0.00001
 833,-0.00000010,0.00004398,-0.00401007,-0.00012460,0.00005172,-0.00000
 476,-0.00000019,-0.00012984,-0.00026844,0.00000642,0.00004894,0.000017
 80,-0.00000217,0.00000626,0.00000564,0.00000004,-0.00028370,0.00024279
 ,0.00000298,0.00005838,0.00001646,-0.00000006,-0.00018663,0.00000069,0
 .00000057,0.00014743,-0.00005515,-0.00000088,-0.04831752,-0.00958364,-
 0.00023297,-0.00335542,0.00242799,0.00010093,0.01844597,-0.09085715,-0
 .00021670,0.00167982,0.64154307,0.00000004,0.00000165,0.00000719,-0.00
 001322,0.00000087,0.00005483,0.00000300,-0.00000051,-0.00001218,-0.000
 00246,-0.00012096,0.00670216,0.00000021,-0.00000177,-0.00000187,0.0000
 0261,0.00000642,-0.00068426,-0.00000180,-0.00000264,0.00021685,-0.0000
 0004,0.00000010,0.00000815,-0.00000358,0.00000469,-0.00020226,0.000000
 99,0.00000158,-0.00001141,-0.00000931,-0.00000108,0.00002430,0.0000072
 8,-0.00000017,-0.00004965,-0.00067162,-0.00006218,0.00211460,0.0000857
 1,0.00014623,-0.00619461,-0.00024741,-0.00033408,-0.07099425,-0.000281
 54,0.00039121,0.59845341,0.00003972,0.00000505,-0.00000015,-0.00053768
 ,0.00024347,0.00000075,-0.00000595,0.00000791,0.00000010,-0.00022555,-
 0.00165379,-0.00003792,-0.00002865,0.00000051,0.00000011,-0.00007785,-
 0.00013905,0.00000015,0.00003590,-0.00000438,-0.00000169,-0.00000365,-
 0.00000166,-0.00000007,0.00004604,-0.00001729,0.00000038,-0.00003353,-
 0.00000236,0.00000015,0.00006506,-0.00001031,-0.00000040,-0.00006818,0
 .00004497,0.00000073,-0.00591684,0.00572163,0.00010612,0.00292320,-0.0
 0080528,-0.00000198,-0.02402839,-0.04311255,-0.00025422,-0.05490466,-0
 .04536121,-0.00007420,0.07501016,0.00003167,0.00000083,-0.00000004,-0.
 00011943,0.00007443,-0.00000014,-0.00000677,0.00000784,0.00000004,-0.0
 0011611,-0.00014128,0.00000077,-0.00002325,0.00000116,0.00000008,-0.00
 001702,-0.00002057,-0.00000048,0.00002912,0.00002354,-0.00000040,-0.00
 000236,-0.00000172,-0.00000002,-0.00001746,-0.00002740,-0.00000023,-0.
 00002739,-0.00000274,0.00000006,0.00006007,-0.00000666,-0.00000027,-0.
 00006497,0.00003456,0.00000046,0.00201904,0.00122589,0.00003627,-0.001
 47098,-0.00014226,-0.00000677,-0.00145077,0.00237022,-0.00004870,-0.05
 840186,-0.32766622,-0.00066889,0.06429617,0.34172057,0.00000035,-0.000
 00010,0.00000227,-0.00000267,0.00000137,-0.00000030,-0.00000033,0.0000
 0004,-0.00000496,-0.00000278,-0.00000737,0.00017715,-0.00000023,0.0000
 0019,-0.00000105,-0.00000049,0.00000002,-0.00004402,0.00000046,0.,0.00
 002498,-0.00000001,0.,0.00000369,-0.00000030,0.00000023,0.00000767,-0.
 00000033,-0.00000010,-0.00000251,0.00000126,-0.00000002,0.00000719,-0.
 00000127,0.00000029,-0.00001476,-0.00000987,-0.00005440,0.00035469,-0.
 00005704,-0.00001364,0.00062492,-0.00006770,-0.00013888,0.00028003,-0.
 00008858,-0.00059536,-0.05235776,0.00024057,0.00072699,0.04551113,0.00
 003532,-0.00001571,-0.00000148,-0.00006843,0.00016264,0.00004044,-0.00
 004053,0.00001301,0.00000219,-0.00057195,-0.00068851,0.00107643,-0.000
 02797,0.00002112,0.00000044,-0.00003660,-0.00006101,-0.00012021,0.0000
 1863,-0.00001694,0.00001444,-0.00000190,-0.00000212,-0.00000152,0.0001
 9113,-0.00002538,-0.00006985,-0.00004253,-0.00002061,0.00000292,0.0001
 6945,0.00000253,-0.00000537,-0.00014784,0.00003456,0.00001135,0.001661
 94,0.00992515,-0.00087285,0.00141180,-0.00334608,-0.00005032,-0.032547
 27,0.00961166,-0.03030802,-0.07884993,0.03898595,-0.07164978,0.0038313
 5,-0.00235822,0.00627705,0.09905932,-0.00000444,0.00000677,0.00000196,
 -0.00000519,-0.00003505,-0.00005808,0.00001218,-0.00000350,-0.00000397
 ,0.00028674,-0.00010634,0.00065507,0.00000452,-0.00000628,-0.00000076,
 0.00001461,0.00000511,-0.00003440,-0.00004290,-0.00001088,0.00001810,-
 0.00000023,0.00000039,0.00000289,0.00004242,0.00003420,-0.00001426,0.0
 0000841,0.00000681,-0.00000262,-0.00004483,-0.00000510,0.00000667,0.00
 004337,-0.00000461,-0.00001392,-0.00252115,0.00146532,-0.00107982,0.00
 069730,-0.00035996,0.00009518,0.00026974,0.00317179,-0.00543383,0.0430
 4042,-0.10642280,0.10424842,0.01030820,-0.00877722,0.02455177,-0.04685
 522,0.10440371,-0.00000323,-0.00001219,-0.00000146,0.00002437,0.000057
 50,0.00001228,-0.00002002,0.00000152,0.00000260,-0.00001380,-0.0002717
 9,-0.00044379,0.00000259,0.00001353,0.00000043,-0.00000661,-0.00001287
 ,0.00001802,-0.00001187,-0.00001171,-0.00000678,0.00000104,-0.00000022
 ,-0.00000183,0.00005142,-0.00002393,-0.00000442,-0.00000255,-0.0000080
 0,0.00000243,0.00005299,0.00000396,-0.00000507,-0.00003928,-0.00000460
 ,0.00001038,0.00001518,0.00388246,0.00085801,0.00190517,-0.00084186,0.
 00013541,-0.00348847,-0.00452772,0.00717627,-0.07829912,0.10186937,-0.
 23873576,0.00172791,-0.00261130,0.00275982,0.08680194,-0.11024502,0.24
 591432,0.00003518,-0.00001564,0.00000155,-0.00006460,0.00015821,-0.000
 03621,-0.00004023,0.00001293,-0.00000197,-0.00055878,-0.00065517,-0.00
 107708,-0.00002781,0.00002096,-0.00000041,-0.00003692,-0.00006340,0.00
 011507,0.00001735,-0.00001744,-0.00001554,-0.00000186,-0.00000209,0.00
 000152,0.00019525,-0.00002668,0.00007064,-0.00004226,-0.00002037,-0.00
 000252,0.00016830,0.00000249,0.00000396,-0.00014657,0.00003391,-0.0000
 0966,0.00166329,0.00991395,0.00110509,0.00135451,-0.00341342,0.0000116
 1,-0.03272003,0.00952176,0.02999266,-0.08004489,0.03950808,0.07285543,
 0.00388152,-0.00235794,-0.00628812,0.00595414,-0.00525326,-0.00870070,
 0.10041252,-0.00000523,0.00000688,-0.00000204,-0.00000337,-0.00003894,
 0.00005740,0.00001256,-0.00000363,0.00000392,0.00029903,-0.00009578,-0
 .00065664,0.00000503,-0.00000648,0.00000078,0.00001479,0.00000479,0.00
 003287,-0.00004429,-0.00001051,-0.00001659,-0.00000020,0.00000040,-0.0
 0000291,0.00004566,0.00003592,0.00001650,0.00000906,0.00000687,0.00000
 252,-0.00004669,-0.00000490,-0.00000628,0.00004524,-0.00000516,0.00001
 363,-0.00257213,0.00148574,0.00108566,0.00058012,-0.00048997,0.0000043
 3,0.00025656,0.00304904,0.00534716,0.04363993,-0.10573683,-0.10360846,
 0.01048337,-0.00867021,-0.02447104,-0.00536933,0.00663884,0.01273883,-
 0.04734937,0.10383515,0.00000319,0.00001193,-0.00000167,-0.00002522,-0
 .00005454,0.00001032,0.00001944,-0.00000143,0.00000254,0.00000783,0.00
 027525,-0.00044376,-0.00000263,-0.00001318,0.00000057,0.00000615,0.000
 01194,0.00001949,0.00001199,0.00001186,-0.00000640,-0.00000105,0.00000
 020,-0.00000186,-0.00004998,0.00002451,-0.00000386,0.00000233,0.000007
 63,0.00000240,-0.00005118,-0.00000375,-0.00000476,0.00003780,0.0000048
 6,0.00000994,-0.00002914,-0.00385565,0.00082118,-0.00186912,0.00089496
 ,0.00010718,0.00322279,0.00454844,0.00741049,0.07959888,-0.10119862,-0
 .23834433,-0.00170625,0.00257267,0.00266932,0.00885367,-0.01269548,-0.
 01768933,-0.08802646,0.10946238,0.24544396,-0.16480237,-0.11525075,0.0
 0100944,0.00010054,-0.00004224,0.00000248,0.01667707,0.00509441,-0.000
 05772,-0.00000534,0.00010448,-0.00000006,0.00778024,-0.01874491,0.0000
 0115,0.00004972,0.00009036,-0.00000267,0.00002682,-0.00002051,-0.00000
 083,0.00070872,-0.00042786,0.00000993,-0.00026580,0.00002242,-0.000000
 53,-0.04674224,-0.04784057,0.00036257,-0.01139444,0.02621383,-0.000089
 66,0.00419100,-0.00492387,0.00001798,-0.00010663,0.00008538,-0.0000006
 7,0.00012992,-0.00011904,0.00000003,0.00004617,-0.00007832,0.00000009,
 -0.00005512,0.00000523,-0.00000063,-0.00000361,-0.00000286,0.00000005,
 0.00000415,-0.00000169,0.00000543,0.00000414,-0.00000173,-0.00000533,0
 .66798323,-0.11919661,-0.24137274,0.00142294,0.00013927,-0.00014190,0.
 00000369,0.03166342,0.00246670,-0.00007928,0.00002154,0.00025293,0.000
 00105,-0.03739056,-0.06857508,0.00049961,0.00004896,0.00028314,-0.0000
 0167,0.00006958,-0.00004025,-0.00000142,-0.00125423,-0.00123135,0.0000
 2213,-0.00061587,0.00004559,-0.00000362,-0.02741412,-0.00700739,0.0000
 7041,-0.01420999,0.02192686,-0.00007489,0.01098236,-0.00176131,-0.0000
 0675,-0.00031790,0.00009920,-0.00000205,0.00030802,-0.00023355,-0.0000
 0005,0.00014286,-0.00010305,0.00000076,-0.00013079,0.00000095,-0.00000
 128,-0.00000303,-0.00000207,0.00000012,0.00001255,-0.00000407,0.000010
 24,0.00001247,-0.00000418,-0.00001000,0.74097053,1.10454990,0.00105097
 ,0.00142394,-0.03396808,-0.00000026,0.00000025,-0.00002461,-0.00018474
 ,0.00000135,0.00601462,-0.00000243,-0.00000092,-0.00003857,0.00010266,
 0.00042707,-0.00404812,0.00000002,-0.00000022,-0.00000055,-0.00000031,
 0.00000008,0.00001351,0.00001126,0.00001883,0.00263203,0.00000311,-0.0
 0000050,0.00005293,0.00025474,0.00012851,-0.00603363,0.00010548,-0.000
 19606,-0.00333523,-0.00006470,0.00003342,0.00291719,0.00000567,0.00000
 059,0.00002160,-0.00000360,0.00000159,-0.00001362,-0.00000310,-0.00000
 098,-0.00001197,0.00000191,0.00000019,0.00000623,-0.00000008,-0.000000
 10,0.00000160,-0.00000144,0.00000153,-0.00000139,0.00000098,-0.0000014
 0,-0.00000117,-0.00564451,-0.00767949,0.07726771,0.00024746,-0.0318970
 2,0.00020305,-0.00001439,0.00005299,-0.00000058,-0.00891621,-0.0022315
 9,0.00003483,-0.00006750,-0.00009815,-0.00000027,0.00126938,0.01200687
 ,-0.00004988,-0.00000198,-0.00009756,-0.00000021,-0.00002285,0.0000150
 4,0.00000062,-0.00017106,0.00031665,-0.00000363,0.00022852,-0.00001523
 ,0.00000108,0.00851459,0.00658415,-0.00005145,0.00655190,-0.00860391,0
 .00002221,-0.00422272,0.00112925,0.00000448,0.00023361,-0.00000258,0.0
 0000140,-0.00016663,0.00008913,-0.00000029,-0.00011718,-0.00000966,-0.
 00000102,0.00008057,0.00000634,0.00000059,-0.00000174,-0.00000234,-0.0
 0000009,-0.00000892,0.00000278,-0.00000442,-0.00000890,0.00000292,0.00
 000434,-0.47444297,-0.58271051,0.00438466,0.47173803,-0.02410372,-0.02
 392509,0.00025605,-0.00006573,0.00009496,-0.00000193,-0.01254017,-0.00
 221009,0.00004400,-0.00000680,-0.00013512,-0.00000070,0.00591246,0.018
 80242,-0.00009302,-0.00001619,-0.00021014,0.00000021,-0.00005394,0.000
 02150,0.00000078,0.00006660,0.00048375,-0.00000604,0.00034898,-0.00002
 623,0.00000221,0.00783278,0.00321663,-0.00002646,0.00835415,-0.0093070
 8,0.00002449,-0.00621902,0.00081990,0.00000921,0.00017020,-0.00008118,
 0.00000100,-0.00017618,0.00014615,0.00000017,-0.00007236,0.00007660,-0
 .00000024,0.00007097,-0.00000348,0.00000074,0.00000249,0.00000224,-0.0
 0000006,-0.00000650,0.00000194,-0.00000626,-0.00000643,0.00000197,0.00
 000610,-0.58485321,-0.80982392,0.00582800,0.60566076,0.82209248,0.0001
 6527,0.00028550,0.01266797,-0.00000004,-0.00000066,0.00002344,0.000086
 47,0.00001418,-0.00099620,0.00000091,0.00000065,0.00002285,-0.00002201
 ,-0.00011909,0.00252137,-0.00000015,0.00000084,-0.00002340,0.00000015,
 -0.00000007,-0.00001206,-0.00000154,-0.00000616,-0.00062281,-0.0000020
 3,0.00000041,-0.00002261,-0.00005844,-0.00002268,0.00246863,-0.0000582
 6,0.00007723,0.00117801,0.00004155,-0.00001025,-0.00072645,-0.00000240
 ,-0.00000019,-0.00002049,0.00000160,-0.00000079,0.00001430,0.00000128,
 0.00000035,0.00001002,-0.00000078,-0.00000002,-0.00000632,0.00000004,0
 .00000003,-0.00000138,0.00000124,-0.00000137,0.00000130,-0.00000101,0.
 00000131,0.00000120,0.00439404,0.00581874,-0.03806825,-0.00454951,-0.0
 0604112,0.02117438,0.00018405,0.00073528,-0.00002393,-0.00003972,-0.00
 003114,-0.00000053,-0.01103350,0.00918100,-0.00000849,0.00007018,0.000
 02513,-0.00000024,-0.42532856,0.11378423,0.00061591,-0.00003033,0.0000
 5570,0.00000104,0.00001945,-0.00000130,-0.00000028,0.00114388,0.000056
 81,-0.00000775,-0.00007027,0.00000423,-0.00000005,0.00656675,-0.000066
 84,0.00000720,-0.00492473,-0.00460834,0.00004550,0.00135150,0.00082347
 ,-0.00000756,-0.00018185,-0.00002465,-0.00000096,0.00009963,-0.0000319
 9,0.00000034,0.00009633,0.00004688,0.00000091,-0.00005460,-0.00000888,
 -0.00000026,0.00000334,0.00000366,0.00000008,0.00000664,-0.00000179,0.
 00000206,0.00000664,-0.00000194,-0.00000205,0.00011680,-0.00112795,-0.
 00001629,-0.00070103,-0.00029915,0.00000361,0.43269936,0.03092863,0.00
 234079,-0.00012378,-0.00000932,-0.00000189,-0.00000042,-0.01832132,0.0
 1635006,-0.00003200,-0.00004165,-0.00002826,-0.00000030,0.11011347,-0.
 10811632,0.00006623,-0.00001412,0.00001001,0.00000078,0.00000490,0.000
 00327,0.00000019,0.00047122,-0.00011071,-0.00000780,0.00005017,0.00000
 942,0.00000061,0.00142640,-0.00614957,0.00006805,-0.00391855,-0.003947
 48,0.00004473,-0.00171031,0.00114797,-0.00000111,0.00008631,0.00005358
 ,0.00000085,-0.00004295,-0.00000208,-0.00000030,-0.00004579,-0.0000416
 9,-0.00000059,0.00002272,0.00000834,0.00000010,-0.00000286,-0.00000293
 ,-0.00000002,-0.00000355,0.00000093,0.00000006,-0.00000354,0.00000099,
 -0.00000007,-0.00027909,0.00067559,0.00001435,-0.00019834,-0.00003822,
 0.00000316,-0.11851244,0.09783824,-0.00015455,-0.00003873,-0.00349214,
 0.00000096,0.00000030,-0.00002193,0.00012938,-0.00011555,-0.00086773,-
 0.00000056,0.00000008,-0.00002034,0.00059273,0.00007023,-0.02332162,0.
 00000054,-0.00000036,0.00003155,-0.00000018,-0.00000015,0.00000770,-0.
 00001279,-0.00000733,-0.00179667,-0.00000013,0.00000009,0.00001539,0.0
 0000124,0.00007204,0.00943690,0.00004351,0.00004727,0.00318634,0.00000
 448,-0.00000857,-0.00008093,0.00000100,0.00000057,0.00002275,-0.000000
 24,-0.00000016,-0.00001312,-0.00000059,-0.00000070,-0.00001280,0.00000
 021,0.00000003,0.00000693,-0.00000006,-0.00000004,0.00000227,-0.000001
 27,0.00000196,-0.00000147,0.00000117,-0.00000194,-0.00000145,-0.000000
 60,0.00001080,-0.00338222,0.00000406,0.00000288,0.00041650,-0.00060828
 ,-0.00003272,0.01988607\\-0.00001199,0.00000212,-0.00000384,0.00000796
 ,0.00000964,0.00001116,-0.00000464,-0.00000847,0.00000297,-0.00000127,
 -0.00000252,-0.00002404,0.00058012,0.00179337,-0.00003148,-0.00000777,
 0.00000446,-0.00000356,0.00000061,0.00000331,0.00000217,-0.00000232,0.
 00000238,-0.00000102,0.00000662,-0.00000594,0.00000595,-0.00000175,0.0
 0000496,0.00001061,0.00000690,-0.00000730,0.00000363,-0.00001938,0.000
 00033,0.00000351,-0.00001209,-0.00000816,-0.00003371,-0.00005578,-0.00
 017458,0.00004209,-0.00000364,0.00000274,-0.00002043,0.00000057,-0.000
 00326,0.00000910,-0.00000060,0.00000668,0.00001335,0.00000325,-0.00000
 563,-0.00000631,-0.00000438,0.00001694,-0.00000172,-0.00000015,-0.0000
 0898,-0.00000048,0.00000548,0.00000352,-0.00000131,-0.00048575,-0.0016
 2562,0.00002335\\\@
 The archive entry for this job was punched.


 IT'S WHAT YOU LEARN AFTER YOU KNOW IT ALL
 THAT COUNTS.
 Job cpu time:       0 days  0 hours 17 minutes 18.1 seconds.
 Elapsed time:       0 days  0 hours  1 minutes 27.6 seconds.
 File lengths (MBytes):  RWF=    236 Int=      0 D2E=      0 Chk=     11 Scr=      1
 Normal termination of Gaussian 16 at Sat Dec 30 20:52:42 2023.
