Unloading slurm/anatra/current
  ERROR: No such file or directory on
    '/cm/local/modulefiles/slurm/anatra/current'
environment: line 0: unalias: gv: not found
environment: line 0: unalias: sl: not found
 Entering Gaussian System, Link 0=g16
 Initial command:
 /apps/gaussian/g16/C.01/g16/l1.exe "/local/jobs/1153039/Gau-208864.inp" -scrdir="/local/jobs/1153039/"
 Entering Link 1 = /apps/gaussian/g16/C.01/g16/l1.exe PID=    208865.
  
 Copyright (c) 1988-2019, Gaussian, Inc.  All Rights Reserved.
  
 This is part of the Gaussian(R) 16 program.  It is based on
 the Gaussian(R) 09 system (copyright 2009, Gaussian, Inc.),
 the Gaussian(R) 03 system (copyright 2003, Gaussian, Inc.),
 the Gaussian(R) 98 system (copyright 1998, Gaussian, Inc.),
 the Gaussian(R) 94 system (copyright 1995, Gaussian, Inc.),
 the Gaussian 92(TM) system (copyright 1992, Gaussian, Inc.),
 the Gaussian 90(TM) system (copyright 1990, Gaussian, Inc.),
 the Gaussian 88(TM) system (copyright 1988, Gaussian, Inc.),
 the Gaussian 86(TM) system (copyright 1986, Carnegie Mellon
 University), and the Gaussian 82(TM) system (copyright 1983,
 Carnegie Mellon University). Gaussian is a federally registered
 trademark of Gaussian, Inc.
  
 This software contains proprietary and confidential information,
 including trade secrets, belonging to Gaussian, Inc.
  
 This software is provided under written license and may be
 used, copied, transmitted, or stored only in accord with that
 written license.
  
 The following legend is applicable only to US Government
 contracts under FAR:
  
                    RESTRICTED RIGHTS LEGEND
  
 Use, reproduction and disclosure by the US Government is
 subject to restrictions as set forth in subparagraphs (a)
 and (c) of the Commercial Computer Software - Restricted
 Rights clause in FAR 52.227-19.
  
 Gaussian, Inc.
 340 Quinnipiac St., Bldg. 40, Wallingford CT 06492
  
  
 ---------------------------------------------------------------
 Warning -- This program may not be used in any manner that
 competes with the business of Gaussian, Inc. or will provide
 assistance to any competitor of Gaussian, Inc.  The licensee
 of this program is prohibited from giving any competitor of
 Gaussian, Inc. access to this program.  By using this program,
 the user acknowledges that Gaussian, Inc. is engaged in the
 business of creating and licensing software in the field of
 computational chemistry and represents and warrants to the
 licensee that it is not a competitor of Gaussian, Inc. and that
 it will not use this program in any manner prohibited above.
 ---------------------------------------------------------------
  

 Cite this work as:
 Gaussian 16, Revision C.01,
 M. J. Frisch, G. W. Trucks, H. B. Schlegel, G. E. Scuseria, 
 M. A. Robb, J. R. Cheeseman, G. Scalmani, V. Barone, 
 G. A. Petersson, H. Nakatsuji, X. Li, M. Caricato, A. V. Marenich, 
 J. Bloino, B. G. Janesko, R. Gomperts, B. Mennucci, H. P. Hratchian, 
 J. V. Ortiz, A. F. Izmaylov, J. L. Sonnenberg, D. Williams-Young, 
 F. Ding, F. Lipparini, F. Egidi, J. Goings, B. Peng, A. Petrone, 
 T. Henderson, D. Ranasinghe, V. G. Zakrzewski, J. Gao, N. Rega, 
 G. Zheng, W. Liang, M. Hada, M. Ehara, K. Toyota, R. Fukuda, 
 J. Hasegawa, M. Ishida, T. Nakajima, Y. Honda, O. Kitao, H. Nakai, 
 T. Vreven, K. Throssell, J. A. Montgomery, Jr., J. E. Peralta, 
 F. Ogliaro, M. J. Bearpark, J. J. Heyd, E. N. Brothers, K. N. Kudin, 
 V. N. Staroverov, T. A. Keith, R. Kobayashi, J. Normand, 
 K. Raghavachari, A. P. Rendell, J. C. Burant, S. S. Iyengar, 
 J. Tomasi, M. Cossi, J. M. Millam, M. Klene, C. Adamo, R. Cammi, 
 J. W. Ochterski, R. L. Martin, K. Morokuma, O. Farkas, 
 J. B. Foresman, and D. J. Fox, Gaussian, Inc., Wallingford CT, 2019.
 
 ******************************************
 Gaussian 16:  ES64L-G16RevC.01  3-Jul-2019
                25-Dec-2023 
 ******************************************
 %chk=da-2_1_opt_hf_re.chk
 %nprocshared=12
 Will use up to   12 processors via shared memory.
 %mem=48GB
 ----------------------------------------------------------------------
 # wb97xd def2svp geom=allchk scrf=(iefpcm,solvent=toluene) opt=(readfc
 ,ts,noeigen,maxcycles=50,maxstep=10)
 ----------------------------------------------------------------------
 1/5=1,6=50,8=10,10=3,11=1,18=20,26=3,29=7,38=1/1,3;
 2/9=110,12=2,40=1/2;
 3/5=43,7=101,11=2,14=-4,25=1,30=1,70=2201,71=1,72=13,74=-58/1,2,3;
 4//1;
 5/5=2,38=5,53=13/2;
 6/7=2,8=2,9=2,10=2,28=1/1;
 7//1,2,3,16;
 1/5=1,6=50,8=10,11=1,18=20,26=3/3(2);
 2/9=110/2;
 99//99;
 2/9=110/2;
 3/5=43,7=101,11=2,14=-2,25=1,30=1,70=2205,71=1,72=13,74=-58/1,2,3;
 4/5=5,16=3,69=1/1;
 5/5=2,38=5,53=13/2;
 7//1,2,3,16;
 1/5=1,6=50,8=10,11=1,18=20,26=3/3(-5);
 2/9=110/2;
 6/7=2,8=2,9=2,10=2,19=2,28=1/1;
 99/9=1/99;
 Structure from the checkpoint file:  "da-2_1_opt_hf_re.chk"
 ---------------------
 da-2_1_opt_hf_re3.out
 ---------------------
 Charge =  0 Multiplicity = 1
 Redundant internal coordinates found in file.  (old form).
 C,0,-1.32882,1.20527,-0.48017
 C,0,1.07506,-1.61812,-0.48801
 C,0,-2.88042,-1.45563,-0.65196
 C,0,0.88708,-1.48117,0.82347
 C,0,-1.91863,0.53951,0.52408
 C,0,-2.45077,-0.83023,0.45066
 H,0,-3.24269,-2.48559,-0.612
 H,0,-2.90036,-0.95841,-1.62651
 H,0,-1.19792,0.69534,-1.44418
 H,0,0.87495,-2.47094,-1.1334
 H,0,0.49335,-2.19263,1.54647
 O,0,1.75313,0.52397,0.06266
 C,0,1.61407,-0.32894,-1.00734
 C,0,1.30481,-0.10117,1.20468
 O,0,1.89169,-0.00755,-2.11843
 O,0,1.29521,0.43633,2.26479
 C,0,-0.80884,2.60428,-0.39891
 H,0,-1.31342,3.25095,-1.13511
 H,0,-0.9577,3.03519,0.6015
 H,0,0.26717,2.63272,-0.63218
 H,0,-2.00241,1.03529,1.49862
 H,0,-2.50254,-1.36667,1.40559
 Recover connectivity data from disk.

 GradGradGradGradGradGradGradGradGradGradGradGradGradGradGradGradGradGrad
 Berny optimization.
 Initialization pass.
 Force constant matrix read from checkpoint file:
 "da-2_1_opt_hf_re.chk"
                           ----------------------------
                           !    Initial Parameters    !
                           ! (Angstroms and Degrees)  !
 --------------------------                            --------------------------
 ! Name  Definition              Value          Derivative Info.                !
 --------------------------------------------------------------------------------
 ! R1    R(1,5)                  1.3415         D2E/DX2 =    0.6483             !
 ! R2    R(1,9)                  1.0984         D2E/DX2 =    0.3505             !
 ! R3    R(1,17)                 1.4947         D2E/DX2 =    0.3523             !
 ! R4    R(2,4)                  1.3319         D2E/DX2 =    0.5663             !
 ! R5    R(2,10)                 1.0881         D2E/DX2 =    0.3801             !
 ! R6    R(2,13)                 1.4907         D2E/DX2 =    0.2776             !
 ! R7    R(3,6)                  1.3385         D2E/DX2 =    0.6594             !
 ! R8    R(3,7)                  1.0925         D2E/DX2 =    0.3648             !
 ! R9    R(3,8)                  1.0942         D2E/DX2 =    0.3619             !
 ! R10   R(4,11)                 1.0881         D2E/DX2 =    0.38               !
 ! R11   R(4,14)                 1.4914         D2E/DX2 =    0.2773             !
 ! R12   R(5,6)                  1.4713         D2E/DX2 =    0.3773             !
 ! R13   R(5,21)                 1.0966         D2E/DX2 =    0.3535             !
 ! R14   R(6,22)                 1.0965         D2E/DX2 =    0.353              !
 ! R15   R(12,13)                1.3754         D2E/DX2 =    0.2971             !
 ! R16   R(12,14)                1.377          D2E/DX2 =    0.2946             !
 ! R17   R(12,20)                2.6716         D2E/DX2 =    0.0129             !
 ! R18   R(13,15)                1.1895         D2E/DX2 =    1.0009             !
 ! R19   R(14,16)                1.1886         D2E/DX2 =    1.0047             !
 ! R20   R(17,18)                1.1022         D2E/DX2 =    0.3379             !
 ! R21   R(17,19)                1.0994         D2E/DX2 =    0.3457             !
 ! R22   R(17,20)                1.1014         D2E/DX2 =    0.3519             !
 ! A1    A(5,1,9)              118.6207         D2E/DX2 =    0.1064             !
 ! A2    A(5,1,17)             125.2223         D2E/DX2 =    0.1294             !
 ! A3    A(9,1,17)             116.1533         D2E/DX2 =    0.1032             !
 ! A4    A(4,2,10)             129.6933         D2E/DX2 =    0.0799             !
 ! A5    A(4,2,13)             107.7664         D2E/DX2 =    0.0942             !
 ! A6    A(10,2,13)            122.5267         D2E/DX2 =    0.0825             !
 ! A7    A(6,3,7)              121.1174         D2E/DX2 =    0.0926             !
 ! A8    A(6,3,8)              121.8174         D2E/DX2 =    0.0931             !
 ! A9    A(7,3,8)              117.0584         D2E/DX2 =    0.0828             !
 ! A10   A(2,4,11)             129.6504         D2E/DX2 =    0.0797             !
 ! A11   A(2,4,14)             107.8961         D2E/DX2 =    0.0943             !
 ! A12   A(11,4,14)            122.4485         D2E/DX2 =    0.0823             !
 ! A13   A(1,5,6)              125.7098         D2E/DX2 =    0.142              !
 ! A14   A(1,5,21)             118.3263         D2E/DX2 =    0.1109             !
 ! A15   A(6,5,21)             115.9514         D2E/DX2 =    0.1093             !
 ! A16   A(3,6,5)              126.3134         D2E/DX2 =    0.1398             !
 ! A17   A(3,6,22)             118.2733         D2E/DX2 =    0.1094             !
 ! A18   A(5,6,22)             115.4085         D2E/DX2 =    0.1089             !
 ! A19   A(13,12,14)           109.3156         D2E/DX2 =    0.0961             !
 ! A20   A(13,12,20)           103.3501         D2E/DX2 =    0.0194             !
 ! A21   A(14,12,20)           113.1389         D2E/DX2 =    0.0182             !
 ! A22   A(2,13,12)            107.567          D2E/DX2 =    0.0949             !
 ! A23   A(2,13,15)            130.0511         D2E/DX2 =    0.1382             !
 ! A24   A(12,13,15)           122.3803         D2E/DX2 =    0.1632             !
 ! A25   A(4,14,12)            107.4152         D2E/DX2 =    0.0945             !
 ! A26   A(4,14,16)            130.1013         D2E/DX2 =    0.1372             !
 ! A27   A(12,14,16)           122.4821         D2E/DX2 =    0.1617             !
 ! A28   A(1,17,18)            110.7065         D2E/DX2 =    0.092              !
 ! A29   A(1,17,19)            111.6675         D2E/DX2 =    0.0816             !
 ! A30   A(1,17,20)            110.6415         D2E/DX2 =    0.2911             !
 ! A31   A(18,17,19)           108.4128         D2E/DX2 =    0.037              !
 ! A32   A(18,17,20)           106.8963         D2E/DX2 =    0.0816             !
 ! A33   A(19,17,20)           108.3544         D2E/DX2 =    0.07               !
 ! A34   A(12,20,17)           117.8995         D2E/DX2 =    0.4838             !
 ! D1    D(9,1,5,6)             -1.623          D2E/DX2 =    0.0161             !
 ! D2    D(9,1,5,21)           177.0323         D2E/DX2 =    0.0168             !
 ! D3    D(17,1,5,6)           179.1019         D2E/DX2 =    0.0265             !
 ! D4    D(17,1,5,21)           -2.2428         D2E/DX2 =    0.0184             !
 ! D5    D(5,1,17,18)         -120.3407         D2E/DX2 =    0.0224             !
 ! D6    D(5,1,17,19)            0.558          D2E/DX2 =    0.0162             !
 ! D7    D(5,1,17,20)          121.3378         D2E/DX2 =    0.0242             !
 ! D8    D(9,1,17,18)           60.3682         D2E/DX2 =    0.0167             !
 ! D9    D(9,1,17,19)         -178.7331         D2E/DX2 =    0.0214             !
 ! D10   D(9,1,17,20)          -57.9534         D2E/DX2 =    0.0163             !
 ! D11   D(10,2,4,11)            0.1951         D2E/DX2 =    0.0095             !
 ! D12   D(10,2,4,14)         -178.9957         D2E/DX2 =    0.0093             !
 ! D13   D(13,2,4,11)          178.8556         D2E/DX2 =    0.0096             !
 ! D14   D(13,2,4,14)           -0.3352         D2E/DX2 =    0.011              !
 ! D15   D(4,2,13,12)            1.4707         D2E/DX2 =    0.0109             !
 ! D16   D(4,2,13,15)         -178.0705         D2E/DX2 =    0.0103             !
 ! D17   D(10,2,13,12)        -179.7517         D2E/DX2 =    0.009              !
 ! D18   D(10,2,13,15)           0.7071         D2E/DX2 =    0.0128             !
 ! D19   D(7,3,6,5)            178.7987         D2E/DX2 =    0.0266             !
 ! D20   D(7,3,6,22)            -2.0299         D2E/DX2 =    0.023              !
 ! D21   D(8,3,6,5)             -2.1774         D2E/DX2 =    0.0225             !
 ! D22   D(8,3,6,22)           176.994          D2E/DX2 =    0.0269             !
 ! D23   D(2,4,14,12)           -0.9025         D2E/DX2 =    0.0107             !
 ! D24   D(2,4,14,16)          179.5265         D2E/DX2 =    0.0098             !
 ! D25   D(11,4,14,12)         179.8358         D2E/DX2 =    0.0091             !
 ! D26   D(11,4,14,16)           0.2647         D2E/DX2 =    0.0126             !
 ! D27   D(1,5,6,3)            -25.7474         D2E/DX2 =    0.0087             !
 ! D28   D(1,5,6,22)           155.0606         D2E/DX2 =    0.0091             !
 ! D29   D(21,5,6,3)           155.5691         D2E/DX2 =    0.0095             !
 ! D30   D(21,5,6,22)          -23.623          D2E/DX2 =    0.0091             !
 ! D31   D(14,12,13,2)          -2.0538         D2E/DX2 =    0.009              !
 ! D32   D(14,12,13,15)        177.5303         D2E/DX2 =    0.0089             !
 ! D33   D(20,12,13,2)        -122.7938         D2E/DX2 =    0.0173             !
 ! D34   D(20,12,13,15)         56.7903         D2E/DX2 =    0.0145             !
 ! D35   D(13,12,14,4)           1.8525         D2E/DX2 =    0.0088             !
 ! D36   D(13,12,14,16)       -178.5365         D2E/DX2 =    0.0089             !
 ! D37   D(20,12,14,4)         116.426          D2E/DX2 =    0.0138             !
 ! D38   D(20,12,14,16)        -63.963          D2E/DX2 =    0.0124             !
 ! D39   D(13,12,20,17)         86.1283         D2E/DX2 =    0.0226             !
 ! D40   D(14,12,20,17)        -31.9782         D2E/DX2 =    0.0211             !
 ! D41   D(1,17,20,12)         -32.6837         D2E/DX2 =    0.024              !
 ! D42   D(18,17,20,12)       -153.3013         D2E/DX2 =    0.0282             !
 ! D43   D(19,17,20,12)         90.0459         D2E/DX2 =    0.0223             !
 --------------------------------------------------------------------------------
 Trust Radius=1.00D-01 FncErr=1.00D-07 GrdErr=1.00D-06 EigMax=2.50D+02 EigMin=1.00D-04
 Number of steps in this run=     50 maximum allowed number of steps=    132.
 Search for a saddle point of order  1.
 GradGradGradGradGradGradGradGradGradGradGradGradGradGradGradGradGradGrad

                          Input orientation:                          
 ---------------------------------------------------------------------
 Center     Atomic      Atomic             Coordinates (Angstroms)
 Number     Number       Type             X           Y           Z
 ---------------------------------------------------------------------
      1          6           0       -1.328820    1.205270   -0.480170
      2          6           0        1.075060   -1.618120   -0.488010
      3          6           0       -2.880420   -1.455630   -0.651960
      4          6           0        0.887080   -1.481170    0.823470
      5          6           0       -1.918630    0.539510    0.524080
      6          6           0       -2.450770   -0.830230    0.450660
      7          1           0       -3.242690   -2.485590   -0.612000
      8          1           0       -2.900360   -0.958410   -1.626510
      9          1           0       -1.197920    0.695340   -1.444180
     10          1           0        0.874950   -2.470940   -1.133400
     11          1           0        0.493350   -2.192630    1.546470
     12          8           0        1.753130    0.523970    0.062660
     13          6           0        1.614070   -0.328940   -1.007340
     14          6           0        1.304810   -0.101170    1.204680
     15          8           0        1.891690   -0.007550   -2.118430
     16          8           0        1.295210    0.436330    2.264790
     17          6           0       -0.808840    2.604280   -0.398910
     18          1           0       -1.313420    3.250950   -1.135110
     19          1           0       -0.957700    3.035190    0.601500
     20          1           0        0.267170    2.632720   -0.632180
     21          1           0       -2.002410    1.035290    1.498620
     22          1           0       -2.502540   -1.366670    1.405590
 ---------------------------------------------------------------------
                    Distance matrix (angstroms):
                    1          2          3          4          5
     1  C    0.000000
     2  C    3.708130   0.000000
     3  C    3.085022   3.962210   0.000000
     4  C    3.718420   1.331943   4.046184   0.000000
     5  C    1.341503   3.826470   2.507727   3.470561   0.000000
     6  C    2.503693   3.732740   1.338467   3.421104   1.471309
     7  H    4.159654   4.405774   1.092545   4.486027   3.492140
     8  H    2.909527   4.187525   1.094245   4.540967   2.798677
     9  H    1.098398   3.381242   2.843429   3.771824   2.101845
    10  H    4.335647   1.088060   3.919878   2.192973   4.428785
    11  H    4.355835   2.192614   4.093725   1.088084   3.785171
    12  O    3.202694   2.313345   5.089134   2.312890   3.700672
    13  C    3.360403   1.490711   4.647167   2.282107   3.947078
    14  C    3.388438   2.284540   4.774707   1.491382   3.356226
    15  O    3.811366   2.432918   5.198125   3.440287   4.669119
    16  O    3.874482   3.441967   5.433491   2.433265   3.656431
    17  C    1.494728   4.624465   4.564904   4.589255   2.519289
    18  H    2.148020   5.461815   4.984056   5.574154   3.235908
    19  H    2.157857   5.193500   5.043360   4.883645   2.675406
    20  H    2.146603   4.329332   5.159682   4.407641   3.239782
    21  H    2.097195   4.523064   3.405962   3.890701   1.096606
    22  H    3.398321   4.055634   2.093853   3.441148   2.179801
                    6          7          8          9         10
     6  C    0.000000
     7  H    2.120519   0.000000
     8  H    2.129130   1.865127   0.000000
     9  H    2.736314   3.871941   2.380428   0.000000
    10  H    4.032566   4.150546   4.096812   3.797197   0.000000
    11  H    3.424146   4.324675   4.807116   4.488291   2.721172
    12  O    4.433641   5.871187   5.167757   3.317926   3.342341
    13  C    4.347411   5.328748   4.599965   3.024445   2.269439
    14  C    3.899289   5.446608   5.141396   3.730220   3.356666
    15  O    5.112141   5.896768   4.910180   3.239500   2.841185
    16  O    4.350587   6.116050   5.889849   4.476521   4.491830
    17  C    3.900457   5.645867   4.309782   2.210888   5.397451
    18  H    4.523744   6.074835   4.525325   2.576821   6.126091
    19  H    4.146502   6.096948   4.968581   3.117276   6.056893
    20  H    4.533405   6.206176   4.890619   2.561108   5.164103
    21  H    2.186187   4.288311   3.814130   3.069665   5.244080
    22  H    1.096512   2.422906   3.085218   3.751681   4.367301
                   11         12         13         14         15
    11  H    0.000000
    12  O    3.341954   0.000000
    13  C    3.354296   1.375388   0.000000
    14  C    2.269249   1.376953   2.245118   0.000000
    15  O    4.490147   2.249192   1.189490   3.375834   0.000000
    16  O    2.840844   2.250944   3.375521   1.188626   4.445833
    17  C    5.337654   3.332331   3.852851   3.789258   4.131739
    18  H    6.331497   4.274904   4.626244   4.854529   4.675197
    19  H    5.507142   3.734324   4.529872   3.914017   4.977480
    20  H    5.299215   2.671649   3.275105   3.453246   3.437882
    21  H    4.080512   4.053086   4.606505   3.509365   5.416141
    22  H    3.110854   4.846515   4.883195   4.017184   5.794409
                   16         17         18         19         20
    16  O    0.000000
    17  C    4.027696   0.000000
    18  H    5.127022   1.102168   0.000000
    19  H    3.820499   1.099392   1.785750   0.000000
    20  H    3.778019   1.101372   1.770145   1.784448   0.000000
    21  H    3.438032   2.736231   3.510041   2.428136   3.499012
    22  H    4.290914   4.679026   5.402923   4.733863   5.274364
                   21         22
    21  H    0.000000
    22  H    2.455239   0.000000
 Stoichiometry    C9H10O3
 Framework group  C1[X(C9H10O3)]
 Deg. of freedom    60
 Full point group                 C1      NOp   1
 Largest Abelian subgroup         C1      NOp   1
 Largest concise Abelian subgroup C1      NOp   1
                         Standard orientation:                         
 ---------------------------------------------------------------------
 Center     Atomic      Atomic             Coordinates (Angstroms)
 Number     Number       Type             X           Y           Z
 ---------------------------------------------------------------------
      1          6           0       -1.328818    1.205271   -0.480170
      2          6           0        1.075060   -1.618121   -0.488010
      3          6           0       -2.880420   -1.455628   -0.651960
      4          6           0        0.887080   -1.481171    0.823470
      5          6           0       -1.918629    0.539511    0.524080
      6          6           0       -2.450770   -0.830229    0.450660
      7          1           0       -3.242691   -2.485588   -0.612000
      8          1           0       -2.900360   -0.958408   -1.626510
      9          1           0       -1.197918    0.695340   -1.444180
     10          1           0        0.874949   -2.470941   -1.133400
     11          1           0        0.493349   -2.192631    1.546470
     12          8           0        1.753131    0.523968    0.062660
     13          6           0        1.614071   -0.328942   -1.007340
     14          6           0        1.304811   -0.101172    1.204680
     15          8           0        1.891691   -0.007552   -2.118430
     16          8           0        1.295211    0.436328    2.264790
     17          6           0       -0.808837    2.604280   -0.398910
     18          1           0       -1.313416    3.250951   -1.135110
     19          1           0       -0.957696    3.035190    0.601500
     20          1           0        0.267173    2.632719   -0.632180
     21          1           0       -2.002408    1.035291    1.498620
     22          1           0       -2.502540   -1.366668    1.405590
 ---------------------------------------------------------------------
 Rotational constants (GHZ):           1.0611985           0.7100754           0.6846457
 Standard basis: def2SVP (5D, 7F)
 There are   230 symmetry adapted cartesian basis functions of A   symmetry.
 There are   218 symmetry adapted basis functions of A   symmetry.
   218 basis functions,   370 primitive gaussians,   230 cartesian basis functions
    44 alpha electrons       44 beta electrons
       nuclear repulsion energy       677.3022291849 Hartrees.
 NAtoms=   22 NActive=   22 NUniq=   22 SFac= 1.00D+00 NAtFMM=   60 NAOKFM=F Big=F
 Integral buffers will be    131072 words long.
 Raffenetti 2 integral format.
 Two-electron integral symmetry is turned on.
 Nuclear repulsion after empirical dispersion term =      677.2880968466 Hartrees.
 ------------------------------------------------------------------------------
 Polarizable Continuum Model (PCM)
 =================================
 Model                : PCM.
 Atomic radii         : UFF (Universal Force Field).
 Polarization charges : Total charges.
 Charge compensation  : None.
 Solution method      : On-the-fly selection.
 Cavity type          : Scaled VdW (van der Waals Surface) (Alpha=1.100).
 Cavity algorithm     : GePol (No added spheres)
                        Default sphere list used, NSphG=   22.
                        Lebedev-Laikov grids with approx.  5.0 points / Ang**2.
                        Smoothing algorithm: York/Karplus (Gamma=1.0000).
                        Polarization charges: spherical gaussians, with
                                              point-specific exponents (IZeta= 3).
                        Self-potential: point-specific (ISelfS= 7).
                        Self-field    : sphere-specific E.n sum rule (ISelfD= 2).
 1st derivatives      : Analytical E(r).r(x)/FMM algorithm (CHGder, D1EAlg=3).
                        Cavity 1st derivative terms included.
 Solvent              : Toluene, Eps=   2.374100 Eps(inf)=   2.238315
 ------------------------------------------------------------------------------
 One-electron integrals computed using PRISM.
   1 Symmetry operations used in ECPInt.
 ECPInt:  NShTT=    5253 NPrTT=   19101 LenC2=    5155 LenP2D=   14182.
 LDataN:  DoStor=T MaxTD1= 4 Len=   56
 NBasis=   218 RedAO= T EigKep=  6.59D-04  NBF=   218
 NBsUse=   218 1.00D-06 EigRej= -1.00D+00 NBFU=   218
 ExpMin= 1.22D-01 ExpMax= 2.27D+03 ExpMxC= 3.41D+02 IAcc=3 IRadAn=         5 AccDes= 0.00D+00
 Harris functional with IExCor= 4639 and IRadAn=       5 diagonalized for initial guess.
 HarFok:  IExCor= 4639 AccDes= 0.00D+00 IRadAn=         5 IDoV= 1 UseB2=F ITyADJ=14
 ICtDFT=  3500011 ScaDFX=  1.000000  1.000000  1.000000  1.000000
 FoFCou: FMM=F IPFlag=           0 FMFlag=      100000 FMFlg1=           0
         NFxFlg=           0 DoJE=T BraDBF=F KetDBF=T FulRan=T
         wScrn=  0.000000 ICntrl=       500 IOpCl=  0 I1Cent=   200000004 NGrid=           0
         NMat0=    1 NMatS0=      1 NMatT0=    0 NMatD0=    1 NMtDS0=    0 NMtDT0=    0
 Petite list used in FoFCou.
 Requested convergence on RMS density matrix=1.00D-08 within 128 cycles.
 Requested convergence on MAX density matrix=1.00D-06.
 Requested convergence on             energy=1.00D-06.
 No special actions if energy rises.
 Inv3:  Mode=1 IEnd=    10818603.
 Iteration    1 A*A^-1 deviation from unit magnitude is 3.33D-15 for   1444.
 Iteration    1 A*A^-1 deviation from orthogonality  is 2.00D-15 for   1727    723.
 Iteration    1 A^-1*A deviation from unit magnitude is 3.11D-15 for   1444.
 Iteration    1 A^-1*A deviation from orthogonality  is 1.58D-15 for   1272    743.
 Error on total polarization charges =  0.00613
 SCF Done:  E(RwB97XD) =  -573.998310336     A.U. after   14 cycles
            NFock= 14  Conv=0.72D-08     -V/T= 2.0096

 **********************************************************************

            Population analysis using the SCF Density.

 **********************************************************************

 Orbital symmetries:
       Occupied  (A) (A) (A) (A) (A) (A) (A) (A) (A) (A) (A) (A)
                 (A) (A) (A) (A) (A) (A) (A) (A) (A) (A) (A) (A)
                 (A) (A) (A) (A) (A) (A) (A) (A) (A) (A) (A) (A)
                 (A) (A) (A) (A) (A) (A) (A) (A)
       Virtual   (A) (A) (A) (A) (A) (A) (A) (A) (A) (A) (A) (A)
                 (A) (A) (A) (A) (A) (A) (A) (A) (A) (A) (A) (A)
                 (A) (A) (A) (A) (A) (A) (A) (A) (A) (A) (A) (A)
                 (A) (A) (A) (A) (A) (A) (A) (A) (A) (A) (A) (A)
                 (A) (A) (A) (A) (A) (A) (A) (A) (A) (A) (A) (A)
                 (A) (A) (A) (A) (A) (A) (A) (A) (A) (A) (A) (A)
                 (A) (A) (A) (A) (A) (A) (A) (A) (A) (A) (A) (A)
                 (A) (A) (A) (A) (A) (A) (A) (A) (A) (A) (A) (A)
                 (A) (A) (A) (A) (A) (A) (A) (A) (A) (A) (A) (A)
                 (A) (A) (A) (A) (A) (A) (A) (A) (A) (A) (A) (A)
                 (A) (A) (A) (A) (A) (A) (A) (A) (A) (A) (A) (A)
                 (A) (A) (A) (A) (A) (A) (A) (A) (A) (A) (A) (A)
                 (A) (A) (A) (A) (A) (A) (A) (A) (A) (A) (A) (A)
                 (A) (A) (A) (A) (A) (A) (A) (A) (A) (A) (A) (A)
                 (A) (A) (A) (A) (A) (A)
 The electronic state is 1-A.
 Alpha  occ. eigenvalues --  -19.33743 -19.28564 -19.28492 -10.46509 -10.46481
 Alpha  occ. eigenvalues --  -10.35887 -10.35758 -10.31094 -10.30936 -10.30302
 Alpha  occ. eigenvalues --  -10.30100 -10.29424  -1.25748  -1.18535  -1.14704
 Alpha  occ. eigenvalues --   -0.94795  -0.90833  -0.85119  -0.80033  -0.77244
 Alpha  occ. eigenvalues --   -0.73975  -0.69253  -0.68762  -0.61986  -0.61023
 Alpha  occ. eigenvalues --   -0.60888  -0.57368  -0.57184  -0.56022  -0.53836
 Alpha  occ. eigenvalues --   -0.53757  -0.52071  -0.51173  -0.49744  -0.49330
 Alpha  occ. eigenvalues --   -0.47341  -0.43757  -0.43516  -0.42982  -0.41635
 Alpha  occ. eigenvalues --   -0.41376  -0.39056  -0.38628  -0.31100
 Alpha virt. eigenvalues --   -0.04484   0.03546   0.10695   0.12631   0.14184
 Alpha virt. eigenvalues --    0.15037   0.15558   0.16439   0.17335   0.19098
 Alpha virt. eigenvalues --    0.20613   0.21488   0.22501   0.23295   0.24985
 Alpha virt. eigenvalues --    0.25592   0.26818   0.29079   0.32244   0.33450
 Alpha virt. eigenvalues --    0.34708   0.37682   0.38343   0.40798   0.43127
 Alpha virt. eigenvalues --    0.44923   0.46719   0.47826   0.48208   0.49147
 Alpha virt. eigenvalues --    0.50921   0.51711   0.52196   0.54692   0.56129
 Alpha virt. eigenvalues --    0.58126   0.59657   0.60011   0.63074   0.64668
 Alpha virt. eigenvalues --    0.66627   0.68414   0.69559   0.69738   0.70402
 Alpha virt. eigenvalues --    0.71085   0.71818   0.72976   0.73436   0.74125
 Alpha virt. eigenvalues --    0.74821   0.76049   0.76365   0.77014   0.77795
 Alpha virt. eigenvalues --    0.78636   0.79642   0.80249   0.80841   0.81549
 Alpha virt. eigenvalues --    0.84459   0.86516   0.87211   0.89899   0.94454
 Alpha virt. eigenvalues --    0.94706   0.96692   1.02761   1.04541   1.04835
 Alpha virt. eigenvalues --    1.06208   1.11263   1.14536   1.15811   1.18016
 Alpha virt. eigenvalues --    1.20325   1.21218   1.23821   1.24407   1.27950
 Alpha virt. eigenvalues --    1.28361   1.29652   1.31340   1.36067   1.36619
 Alpha virt. eigenvalues --    1.38168   1.44217   1.46220   1.48995   1.54646
 Alpha virt. eigenvalues --    1.57704   1.60002   1.62140   1.63364   1.65351
 Alpha virt. eigenvalues --    1.66423   1.67506   1.69339   1.69715   1.72985
 Alpha virt. eigenvalues --    1.76504   1.78044   1.79914   1.80432   1.82314
 Alpha virt. eigenvalues --    1.84165   1.85736   1.87273   1.87779   1.89489
 Alpha virt. eigenvalues --    1.91697   1.92273   1.93029   1.95324   1.95581
 Alpha virt. eigenvalues --    1.97160   1.97713   1.99608   2.00261   2.03149
 Alpha virt. eigenvalues --    2.08849   2.11280   2.12002   2.12057   2.16022
 Alpha virt. eigenvalues --    2.18020   2.19321   2.20884   2.26198   2.29021
 Alpha virt. eigenvalues --    2.30933   2.33409   2.35752   2.37228   2.38868
 Alpha virt. eigenvalues --    2.45460   2.45476   2.47023   2.49415   2.53216
 Alpha virt. eigenvalues --    2.53976   2.60402   2.61385   2.64922   2.68464
 Alpha virt. eigenvalues --    2.69085   2.70358   2.72565   2.74073   2.76977
 Alpha virt. eigenvalues --    2.77968   2.79551   2.82857   2.85553   2.86611
 Alpha virt. eigenvalues --    2.90945   2.94271   3.01157   3.01952   3.02773
 Alpha virt. eigenvalues --    3.07729   3.10037   3.18456   3.24501   3.25799
 Alpha virt. eigenvalues --    3.27213   3.28924   3.34356   3.41968   3.49490
 Alpha virt. eigenvalues --    3.52165   3.72302   3.76255   3.78364
          Condensed to atoms (all electrons):
               1          2          3          4          5          6
     1  C    4.925314  -0.003496  -0.018451   0.000078   0.606552  -0.048270
     2  C   -0.003496   5.305566   0.001838   0.289674   0.000094   0.000275
     3  C   -0.018451   0.001838   4.747986  -0.000804  -0.060791   0.669378
     4  C    0.000078   0.289674  -0.000804   5.307709  -0.006177  -0.001824
     5  C    0.606552   0.000094  -0.060791  -0.006177   4.902284   0.343967
     6  C   -0.048270   0.000275   0.669378  -0.001824   0.343967   4.773678
     7  H   -0.000085   0.000028   0.388846  -0.000025   0.009256  -0.015355
     8  H    0.008428   0.000003   0.394013   0.000037  -0.024111  -0.014649
     9  H    0.389743  -0.001606   0.007735  -0.000657  -0.030973  -0.017917
    10  H   -0.000080   0.428322   0.000678  -0.044204  -0.000113   0.000280
    11  H    0.000070  -0.044581   0.000168   0.426924  -0.000765   0.001136
    12  O    0.008004  -0.105380   0.000009  -0.106431  -0.004359   0.000044
    13  C    0.002069   0.242566  -0.000411   0.014782   0.001016  -0.000845
    14  C   -0.000236   0.015150   0.000014   0.242492   0.007874  -0.001054
    15  O   -0.002074  -0.073334   0.000002   0.003724   0.000174   0.000001
    16  O   -0.002320   0.003823  -0.000002  -0.073997   0.000577  -0.000074
    17  C    0.388406  -0.000087   0.000238   0.000339  -0.050963   0.009106
    18  H   -0.016465   0.000001   0.000001  -0.000005   0.001841  -0.000281
    19  H   -0.023387  -0.000032  -0.000001   0.000066  -0.012375   0.000521
    20  H   -0.018633   0.000672   0.000047   0.000063   0.000683  -0.000364
    21  H   -0.045257   0.000053   0.008520  -0.000652   0.408987  -0.039321
    22  H    0.009383  -0.000378  -0.044148   0.000769  -0.044929   0.406003
               7          8          9         10         11         12
     1  C   -0.000085   0.008428   0.389743  -0.000080   0.000070   0.008004
     2  C    0.000028   0.000003  -0.001606   0.428322  -0.044581  -0.105380
     3  C    0.388846   0.394013   0.007735   0.000678   0.000168   0.000009
     4  C   -0.000025   0.000037  -0.000657  -0.044204   0.426924  -0.106431
     5  C    0.009256  -0.024111  -0.030973  -0.000113  -0.000765  -0.004359
     6  C   -0.015355  -0.014649  -0.017917   0.000280   0.001136   0.000044
     7  H    0.615778  -0.040766  -0.000156   0.000023  -0.000001   0.000000
     8  H   -0.040766   0.614808   0.002194   0.000018   0.000006   0.000004
     9  H   -0.000156   0.002194   0.640085  -0.000010   0.000003  -0.002162
    10  H    0.000023   0.000018  -0.000010   0.559512  -0.005248   0.002858
    11  H   -0.000001   0.000006   0.000003  -0.005248   0.560403   0.002882
    12  O    0.000000   0.000004  -0.002162   0.002858   0.002882   8.025878
    13  C   -0.000000  -0.000054   0.005321  -0.033596   0.008779   0.296013
    14  C   -0.000006   0.000005  -0.000456   0.008854  -0.032471   0.297710
    15  O   -0.000000  -0.000009   0.002187   0.001823  -0.000047  -0.066505
    16  O    0.000000  -0.000000   0.000068  -0.000046   0.001806  -0.065924
    17  C   -0.000001  -0.000025  -0.038378   0.000002  -0.000005  -0.003822
    18  H   -0.000001  -0.000022  -0.003990  -0.000000  -0.000000   0.000080
    19  H    0.000001   0.000001   0.006222   0.000000   0.000000  -0.000014
    20  H    0.000000   0.000017  -0.003576  -0.000003   0.000000   0.006043
    21  H   -0.000222   0.000010   0.007983   0.000003   0.000043  -0.000019
    22  H   -0.013598   0.007691   0.000143  -0.000004   0.000552   0.000002
              13         14         15         16         17         18
     1  C    0.002069  -0.000236  -0.002074  -0.002320   0.388406  -0.016465
     2  C    0.242566   0.015150  -0.073334   0.003823  -0.000087   0.000001
     3  C   -0.000411   0.000014   0.000002  -0.000002   0.000238   0.000001
     4  C    0.014782   0.242492   0.003724  -0.073997   0.000339  -0.000005
     5  C    0.001016   0.007874   0.000174   0.000577  -0.050963   0.001841
     6  C   -0.000845  -0.001054   0.000001  -0.000074   0.009106  -0.000281
     7  H   -0.000000  -0.000006  -0.000000   0.000000  -0.000001  -0.000001
     8  H   -0.000054   0.000005  -0.000009  -0.000000  -0.000025  -0.000022
     9  H    0.005321  -0.000456   0.002187   0.000068  -0.038378  -0.003990
    10  H   -0.033596   0.008854   0.001823  -0.000046   0.000002  -0.000000
    11  H    0.008779  -0.032471  -0.000047   0.001806  -0.000005  -0.000000
    12  O    0.296013   0.297710  -0.066505  -0.065924  -0.003822   0.000080
    13  C    4.517993  -0.083217   0.748949   0.000348  -0.000968   0.000003
    14  C   -0.083217   4.504487   0.000269   0.753115   0.000203   0.000089
    15  O    0.748949   0.000269   7.554843  -0.000015  -0.000104  -0.000003
    16  O    0.000348   0.753115  -0.000015   7.547889   0.000453  -0.000001
    17  C   -0.000968   0.000203  -0.000104   0.000453   4.544358   0.383604
    18  H    0.000003   0.000089  -0.000003  -0.000001   0.383604   0.620400
    19  H    0.000074   0.000023  -0.000001   0.000170   0.401063  -0.021162
    20  H    0.000144  -0.000805   0.000965   0.000054   0.385457  -0.019387
    21  H    0.000021   0.000808   0.000001   0.000636  -0.013382   0.000090
    22  H    0.000019  -0.000288   0.000000   0.000049  -0.000244  -0.000001
              19         20         21         22
     1  C   -0.023387  -0.018633  -0.045257   0.009383
     2  C   -0.000032   0.000672   0.000053  -0.000378
     3  C   -0.000001   0.000047   0.008520  -0.044148
     4  C    0.000066   0.000063  -0.000652   0.000769
     5  C   -0.012375   0.000683   0.408987  -0.044929
     6  C    0.000521  -0.000364  -0.039321   0.406003
     7  H    0.000001   0.000000  -0.000222  -0.013598
     8  H    0.000001   0.000017   0.000010   0.007691
     9  H    0.006222  -0.003576   0.007983   0.000143
    10  H    0.000000  -0.000003   0.000003  -0.000004
    11  H    0.000000   0.000000   0.000043   0.000552
    12  O   -0.000014   0.006043  -0.000019   0.000002
    13  C    0.000074   0.000144   0.000021   0.000019
    14  C    0.000023  -0.000805   0.000808  -0.000288
    15  O   -0.000001   0.000965   0.000001   0.000000
    16  O    0.000170   0.000054   0.000636   0.000049
    17  C    0.401063   0.385457  -0.013382  -0.000244
    18  H   -0.021162  -0.019387   0.000090  -0.000001
    19  H    0.619102  -0.019972   0.006461   0.000001
    20  H   -0.019972   0.609904   0.000260   0.000018
    21  H    0.006461   0.000260   0.638749  -0.008103
    22  H    0.000001   0.000018  -0.008103   0.649846
 Mulliken charges:
               1
     1  C   -0.159292
     2  C   -0.059171
     3  C   -0.094866
     4  C   -0.051880
     5  C   -0.047749
     6  C   -0.064434
     7  H    0.056285
     8  H    0.052401
     9  H    0.038198
    10  H    0.080931
    11  H    0.080346
    12  O   -0.284910
    13  C    0.280995
    14  C    0.287442
    15  O   -0.170848
    16  O   -0.166611
    17  C   -0.005251
    18  H    0.055213
    19  H    0.043239
    20  H    0.058411
    21  H    0.034332
    22  H    0.037218
 Sum of Mulliken charges =  -0.00000
 Mulliken charges with hydrogens summed into heavy atoms:
               1
     1  C   -0.121094
     2  C    0.021760
     3  C    0.013820
     4  C    0.028466
     5  C   -0.013417
     6  C   -0.027216
    12  O   -0.284910
    13  C    0.280995
    14  C    0.287442
    15  O   -0.170848
    16  O   -0.166611
    17  C    0.151612
 Electronic spatial extent (au):  <R**2>=           2053.8907
 Charge=             -0.0000 electrons
 Dipole moment (field-independent basis, Debye):
    X=             -1.4368    Y=             -3.5859    Z=              0.1402  Tot=              3.8656
 Quadrupole moment (field-independent basis, Debye-Ang):
   XX=            -75.6415   YY=            -62.0434   ZZ=            -77.0362
   XY=             -3.8493   XZ=              1.3882   YZ=             -2.1242
 Traceless Quadrupole moment (field-independent basis, Debye-Ang):
   XX=             -4.0678   YY=              9.5303   ZZ=             -5.4625
   XY=             -3.8493   XZ=              1.3882   YZ=             -2.1242
 Octapole moment (field-independent basis, Debye-Ang**2):
  XXX=             29.7469  YYY=             -7.3158  ZZZ=             -0.0111  XYY=              2.4611
  XXY=             -9.5560  XXZ=              5.6147  XZZ=            -17.9803  YZZ=             -8.1737
  YYZ=             -1.5101  XYZ=             -1.1888
 Hexadecapole moment (field-independent basis, Debye-Ang**3):
 XXXX=          -1389.4229 YYYY=           -734.8589 ZZZZ=           -650.9341 XXXY=             11.7381
 XXXZ=             12.0079 YYYX=              6.2407 YYYZ=              2.0473 ZZZX=              4.6410
 ZZZY=            -10.1831 XXYY=           -340.1738 XXZZ=           -333.9548 YYZZ=           -209.2019
 XXYZ=              3.2589 YYXZ=             -4.6879 ZZXY=             -8.6855
 N-N= 6.772880968466D+02 E-N=-2.691619144966D+03  KE= 5.685288456678D+02
   1 Symmetry operations used in ECPInt.
 ECPInt:  NShTT=    5253 NPrTT=   19101 LenC2=    5155 LenP2D=   14182.
 LDataN:  DoStor=T MaxTD1= 5 Len=  102
 D1PCM: PCM CHGder 1st derivatives, ID1Alg=3 FixD1E=F DoIter=F DoCFld=F I1PDM=0.
 Calling FoFJK, ICntrl=      2127 FMM=F ISym2X=0 I1Cent= 0 IOpClX= 0 NMat=1 NMatS=1 NMatT=0.
 ***** Axes restored to original set *****
 -------------------------------------------------------------------
 Center     Atomic                   Forces (Hartrees/Bohr)
 Number     Number              X              Y              Z
 -------------------------------------------------------------------
      1        6           0.000004761    0.000002867   -0.000004143
      2        6           0.000001112   -0.000004030    0.000000557
      3        6          -0.000003374   -0.000006890   -0.000007517
      4        6          -0.000001409   -0.000003813    0.000001035
      5        6          -0.000002536   -0.000003269    0.000005410
      6        6           0.000004852    0.000002593    0.000012502
      7        1           0.000001039    0.000001049   -0.000002036
      8        1           0.000000165    0.000000217   -0.000001339
      9        1          -0.000004436    0.000003856    0.000002232
     10        1          -0.000000569   -0.000001928   -0.000001633
     11        1           0.000001366    0.000001872   -0.000004674
     12        8           0.000000160    0.000018791   -0.000002391
     13        6          -0.000003228   -0.000004803    0.000014222
     14        6          -0.000002833   -0.000002038    0.000003861
     15        8           0.000002564    0.000003884   -0.000009542
     16        8          -0.000001102   -0.000003195   -0.000005232
     17        6          -0.000003562    0.000003325   -0.000001044
     18        1           0.000001795    0.000001146    0.000002801
     19        1          -0.000002167   -0.000001396    0.000001265
     20        1           0.000007631   -0.000008201    0.000002923
     21        1          -0.000000694   -0.000001516   -0.000001208
     22        1           0.000000464    0.000001479   -0.000006051
 -------------------------------------------------------------------
 Cartesian Forces:  Max     0.000018791 RMS     0.000004782

 GradGradGradGradGradGradGradGradGradGradGradGradGradGradGradGradGradGrad
 Berny optimization.
 FormGI is forming the generalized inverse of G from B-inverse, IUseBI=4.
 Internal  Forces:  Max     0.000010459 RMS     0.000002947
 Search for a saddle point.
 Step number   1 out of a maximum of   50
 All quantities printed in internal units (Hartrees-Bohrs-Radians)
 Swapping is turned off.
 Second derivative matrix not updated -- first step.
 ITU=  0
     Eigenvalues ---   -0.00936  -0.00440   0.00289   0.00430   0.00723
     Eigenvalues ---    0.01048   0.01439   0.01462   0.01984   0.02269
     Eigenvalues ---    0.02335   0.02888   0.02962   0.03244   0.03580
     Eigenvalues ---    0.04083   0.04891   0.05113   0.05717   0.05867
     Eigenvalues ---    0.06481   0.10418   0.10562   0.11692   0.11917
     Eigenvalues ---    0.12095   0.12746   0.13227   0.13771   0.15554
     Eigenvalues ---    0.15777   0.15888   0.19022   0.20283   0.21606
     Eigenvalues ---    0.23499   0.24292   0.25680   0.28545   0.33196
     Eigenvalues ---    0.33829   0.34715   0.35072   0.35454   0.35543
     Eigenvalues ---    0.35753   0.36164   0.36434   0.36699   0.36776
     Eigenvalues ---    0.36875   0.38212   0.38327   0.39395   0.62800
     Eigenvalues ---    0.65386   0.66764   0.87670   1.00890   1.03618
 Eigenvectors required to have negative eigenvalues:
                          D40       D41       A20       D43       D39
   1                   -0.39115  -0.36126   0.32323  -0.31657  -0.30817
                          D42       D38       D37       A21       D10
   1                   -0.30277   0.29266   0.29194  -0.22370   0.14313
 RFO step:  Lambda0=6.775704997D-12 Lambda=-4.40024836D-03.
 Linear search not attempted -- option 19 set.
 Iteration  1 RMS(Cart)=  0.03561910 RMS(Int)=  0.00116714
 Iteration  2 RMS(Cart)=  0.00733772 RMS(Int)=  0.00006905
 Iteration  3 RMS(Cart)=  0.00001230 RMS(Int)=  0.00006883
 Iteration  4 RMS(Cart)=  0.00000000 RMS(Int)=  0.00006883
 Variable       Old X    -DE/DX   Delta X   Delta X   Delta X     New X
                                 (Linear)    (Quad)   (Total)
    R1        2.53507   0.00001   0.00000  -0.00013  -0.00013   2.53494
    R2        2.07567  -0.00000   0.00000   0.00003   0.00003   2.07571
    R3        2.82463  -0.00000   0.00000   0.00012   0.00012   2.82475
    R4        2.51701  -0.00000   0.00000  -0.00001   0.00005   2.51706
    R5        2.05614   0.00000   0.00000   0.00003   0.00003   2.05617
    R6        2.81704   0.00000   0.00000   0.00007   0.00009   2.81713
    R7        2.52934   0.00001   0.00000   0.00002   0.00002   2.52936
    R8        2.06461  -0.00000   0.00000  -0.00003  -0.00003   2.06458
    R9        2.06782   0.00000   0.00000  -0.00001  -0.00001   2.06781
   R10        2.05618  -0.00000   0.00000   0.00003   0.00003   2.05621
   R11        2.81830   0.00000   0.00000   0.00028   0.00030   2.81860
   R12        2.78037  -0.00000   0.00000   0.00028   0.00028   2.78065
   R13        2.07229  -0.00000   0.00000  -0.00003  -0.00003   2.07225
   R14        2.07211  -0.00001   0.00000  -0.00001  -0.00001   2.07209
   R15        2.59911   0.00000   0.00000  -0.00004  -0.00009   2.59901
   R16        2.60206   0.00000   0.00000  -0.00052  -0.00058   2.60149
   R17        5.04868  -0.00001   0.00000   0.01375   0.01375   5.06243
   R18        2.24781   0.00001   0.00000   0.00003   0.00003   2.24784
   R19        2.24618  -0.00001   0.00000   0.00013   0.00013   2.24631
   R20        2.08279  -0.00000   0.00000   0.00048   0.00048   2.08327
   R21        2.07755  -0.00000   0.00000  -0.00041  -0.00041   2.07714
   R22        2.08129   0.00000   0.00000  -0.00039  -0.00039   2.08090
    A1        2.07032  -0.00000   0.00000  -0.00064  -0.00064   2.06968
    A2        2.18554   0.00000   0.00000   0.00217   0.00217   2.18772
    A3        2.02726  -0.00000   0.00000  -0.00152  -0.00152   2.02574
    A4        2.26357   0.00000   0.00000   0.00005   0.00004   2.26361
    A5        1.88088  -0.00000   0.00000  -0.00015  -0.00014   1.88074
    A6        2.13850   0.00000   0.00000   0.00013   0.00012   2.13862
    A7        2.11390   0.00000   0.00000  -0.00016  -0.00016   2.11373
    A8        2.12612   0.00000   0.00000   0.00036   0.00036   2.12648
    A9        2.04305  -0.00000   0.00000  -0.00019  -0.00019   2.04286
   A10        2.26283  -0.00000   0.00000   0.00003   0.00002   2.26285
   A11        1.88314   0.00000   0.00000  -0.00009  -0.00007   1.88307
   A12        2.13713   0.00000   0.00000   0.00004   0.00004   2.13717
   A13        2.19405   0.00000   0.00000  -0.00070  -0.00070   2.19335
   A14        2.06518  -0.00000   0.00000   0.00046   0.00046   2.06564
   A15        2.02373  -0.00000   0.00000   0.00024   0.00024   2.02397
   A16        2.20459   0.00000   0.00000   0.00071   0.00071   2.20530
   A17        2.06426  -0.00000   0.00000  -0.00041  -0.00041   2.06385
   A18        2.01426  -0.00000   0.00000  -0.00029  -0.00029   2.01396
   A19        1.90792  -0.00001   0.00000  -0.00007   0.00010   1.90802
   A20        1.80380   0.00001   0.00000  -0.04070  -0.04052   1.76328
   A21        1.97465  -0.00000   0.00000   0.04096   0.04095   2.01560
   A22        1.87740   0.00001   0.00000   0.00014   0.00004   1.87744
   A23        2.26982  -0.00000   0.00000   0.00005   0.00010   2.26992
   A24        2.13594  -0.00000   0.00000  -0.00018  -0.00013   2.13581
   A25        1.87475   0.00000   0.00000   0.00012   0.00002   1.87477
   A26        2.27070  -0.00000   0.00000  -0.00040  -0.00035   2.27035
   A27        2.13772  -0.00000   0.00000   0.00028   0.00033   2.13805
   A28        1.93219   0.00000   0.00000  -0.00335  -0.00336   1.92883
   A29        1.94897  -0.00000   0.00000   0.00432   0.00432   1.95329
   A30        1.93106  -0.00000   0.00000  -0.00305  -0.00306   1.92800
   A31        1.89216  -0.00000   0.00000   0.00036   0.00037   1.89253
   A32        1.86569   0.00000   0.00000  -0.00258  -0.00260   1.86310
   A33        1.89114   0.00000   0.00000   0.00420   0.00420   1.89534
   A34        2.05773  -0.00000   0.00000  -0.03465  -0.03465   2.02308
    D1       -0.02833   0.00000   0.00000   0.00157   0.00157  -0.02676
    D2        3.08980   0.00000   0.00000   0.00144   0.00144   3.09124
    D3        3.12592   0.00000   0.00000   0.00092   0.00092   3.12683
    D4       -0.03914   0.00000   0.00000   0.00079   0.00079  -0.03835
    D5       -2.10034  -0.00000   0.00000   0.02164   0.02165  -2.07869
    D6        0.00974  -0.00000   0.00000   0.02273   0.02273   0.03247
    D7        2.11774  -0.00000   0.00000   0.02889   0.02889   2.14663
    D8        1.05362  -0.00000   0.00000   0.02100   0.02100   1.07463
    D9       -3.11948  -0.00000   0.00000   0.02208   0.02208  -3.09740
   D10       -1.01148  -0.00000   0.00000   0.02825   0.02824  -0.98324
   D11        0.00340   0.00000   0.00000  -0.00042  -0.00043   0.00298
   D12       -3.12407  -0.00000   0.00000   0.00045   0.00044  -3.12363
   D13        3.12162  -0.00000   0.00000   0.00080   0.00082   3.12243
   D14       -0.00585  -0.00000   0.00000   0.00168   0.00168  -0.00417
   D15        0.02567   0.00000   0.00000  -0.00049  -0.00052   0.02515
   D16       -3.10792   0.00000   0.00000  -0.00174  -0.00177  -3.10968
   D17       -3.13726   0.00000   0.00000   0.00062   0.00061  -3.13665
   D18        0.01234  -0.00000   0.00000  -0.00062  -0.00063   0.01171
   D19        3.12063  -0.00000   0.00000  -0.00051  -0.00051   3.12012
   D20       -0.03543  -0.00000   0.00000   0.00012   0.00012  -0.03531
   D21       -0.03800  -0.00000   0.00000  -0.00010  -0.00010  -0.03810
   D22        3.08913   0.00000   0.00000   0.00053   0.00053   3.08966
   D23       -0.01575   0.00000   0.00000  -0.00234  -0.00232  -0.01807
   D24        3.13333   0.00000   0.00000  -0.00316  -0.00316   3.13017
   D25        3.13873  -0.00000   0.00000  -0.00154  -0.00153   3.13720
   D26        0.00462   0.00000   0.00000  -0.00236  -0.00237   0.00225
   D27       -0.44938  -0.00000   0.00000   0.00699   0.00699  -0.44239
   D28        2.70632  -0.00000   0.00000   0.00638   0.00638   2.71270
   D29        2.71519   0.00000   0.00000   0.00711   0.00711   2.72230
   D30       -0.41230   0.00000   0.00000   0.00650   0.00650  -0.40580
   D31       -0.03585  -0.00000   0.00000  -0.00102  -0.00099  -0.03683
   D32        3.09849  -0.00000   0.00000   0.00011   0.00014   3.09863
   D33       -2.14316  -0.00000   0.00000  -0.02637  -0.02647  -2.16962
   D34        0.99118   0.00000   0.00000  -0.02524  -0.02533   0.96584
   D35        0.03233   0.00000   0.00000   0.00201   0.00198   0.03431
   D36       -3.11605  -0.00000   0.00000   0.00275   0.00274  -3.11331
   D37        2.03202   0.00000   0.00000  -0.02443  -0.02444   2.00757
   D38       -1.11637   0.00000   0.00000  -0.02369  -0.02368  -1.14005
   D39        1.50322   0.00000   0.00000   0.10601   0.10560   1.60882
   D40       -0.55812   0.00001   0.00000   0.11060   0.11101  -0.44711
   D41       -0.57044   0.00000   0.00000  -0.10103  -0.10103  -0.67146
   D42       -2.67561  -0.00000   0.00000  -0.09362  -0.09362  -2.76924
   D43        1.57160  -0.00000   0.00000  -0.09482  -0.09482   1.47678
         Item               Value     Threshold  Converged?
 Maximum Force            0.000010     0.000450     YES
 RMS     Force            0.000003     0.000300     YES
 Maximum Displacement     0.161082     0.001800     NO 
 RMS     Displacement     0.037969     0.001200     NO 
 Predicted change in Energy=-1.375843D-04
 GradGradGradGradGradGradGradGradGradGradGradGradGradGradGradGradGradGrad

                          Input orientation:                          
 ---------------------------------------------------------------------
 Center     Atomic      Atomic             Coordinates (Angstroms)
 Number     Number       Type             X           Y           Z
 ---------------------------------------------------------------------
      1          6           0       -1.340332    1.201726   -0.497032
      2          6           0        1.099498   -1.610327   -0.478895
      3          6           0       -2.916312   -1.444659   -0.651779
      4          6           0        0.902070   -1.487314    0.832608
      5          6           0       -1.903815    0.529705    0.518014
      6          6           0       -2.451734   -0.833978    0.444927
      7          1           0       -3.287338   -2.471477   -0.611738
      8          1           0       -2.956878   -0.938376   -1.621000
      9          1           0       -1.247745    0.702169   -1.470884
     10          1           0        0.916592   -2.460796   -1.132467
     11          1           0        0.515367   -2.210813    1.547432
     12          8           0        1.742192    0.536907    0.093858
     13          6           0        1.622455   -0.308896   -0.984027
     14          6           0        1.295141   -0.103721    1.227392
     15          8           0        1.903215    0.025720   -2.090430
     16          8           0        1.268109    0.425423    2.291475
     17          6           0       -0.801942    2.594021   -0.419214
     18          1           0       -1.340874    3.256174   -1.116665
     19          1           0       -0.889035    3.011528    0.593844
     20          1           0        0.257884    2.614235   -0.717421
     21          1           0       -1.950894    1.014010    1.500736
     22          1           0       -2.483626   -1.379459    1.395588
 ---------------------------------------------------------------------
                    Distance matrix (angstroms):
                    1          2          3          4          5
     1  C    0.000000
     2  C    3.723001   0.000000
     3  C    3.083994   4.022943   0.000000
     4  C    3.745296   1.331972   4.096983   0.000000
     5  C    1.341433   3.820138   2.508322   3.469917   0.000000
     6  C    2.503316   3.750655   1.338480   3.438771   1.471457
     7  H    4.158895   4.472533   1.092528   4.539367   3.492501
     8  H    2.908017   4.267331   1.094239   4.605758   2.799925
     9  H    1.098416   3.441109   2.839705   3.836876   2.101401
    10  H    4.348741   1.088076   3.994339   2.193034   4.429659
    11  H    4.389632   2.192668   4.147281   1.088101   3.797707
    12  O    3.208285   2.313377   5.117055   2.312796   3.670604
    13  C    3.361138   1.490759   4.690497   2.282057   3.923514
    14  C    3.409332   2.284634   4.802680   1.491539   3.337329
    15  O    3.800329   2.433034   5.240188   3.440306   4.642355
    16  O    3.896457   3.442042   5.446956   2.433277   3.635539
    17  C    1.494793   4.614713   4.564602   4.596521   2.520699
    18  H    2.145857   5.481331   4.979554   5.597422   3.228423
    19  H    2.160801   5.144567   5.051637   4.848158   2.682345
    20  H    2.144306   4.314177   5.153101   4.431734   3.247231
    21  H    2.097402   4.484526   3.407404   3.852586   1.096590
    22  H    3.398771   4.050403   2.093604   3.433878   2.179730
                    6          7          8          9         10
     6  C    0.000000
     7  H    2.120420   0.000000
     8  H    2.129348   1.864996   0.000000
     9  H    2.734898   3.869121   2.373828   0.000000
    10  H    4.059597   4.236070   4.190489   3.847496   0.000000
    11  H    3.451793   4.380699   4.869758   4.550193   2.721274
    12  O    4.426239   5.902916   5.215215   3.378676   3.342412
    13  C    4.349326   5.377864   4.666077   3.081774   2.269571
    14  C    3.896741   5.476109   5.185523   3.794261   3.356790
    15  O    5.112014   5.946794   4.976982   3.281763   2.841457
    16  O    4.339707   6.129663   5.917595   4.534474   4.491904
    17  C    3.901247   5.645664   4.308813   2.209944   5.386396
    18  H    4.516848   6.070391   4.523281   2.580132   6.146555
    19  H    4.153566   6.104803   4.978278   3.118479   6.015543
    20  H    4.536877   6.200341   4.875674   2.547669   5.134403
    21  H    2.186465   4.289201   3.816942   3.069558   5.218286
    22  H    1.096505   2.422357   3.085178   3.751965   4.372851
                   11         12         13         14         15
    11  H    0.000000
    12  O    3.341847   0.000000
    13  C    3.354283   1.375339   0.000000
    14  C    2.269429   1.376647   2.244907   0.000000
    15  O    4.490238   2.249079   1.189504   3.375566   0.000000
    16  O    2.840767   2.250933   3.375455   1.188695   4.445695
    17  C    5.356251   3.311734   3.824087   3.793004   4.087421
    18  H    6.358536   4.285449   4.637740   4.871557   4.680616
    19  H    5.491312   3.646517   4.452244   3.857043   4.890504
    20  H    5.336379   2.678924   3.236947   3.499354   3.360458
    21  H    4.060062   3.980681   4.548951   3.443948   5.359789
    22  H    3.115792   4.819180   4.865036   3.991851   5.776782
                   16         17         18         19         20
    16  O    0.000000
    17  C    4.041752   0.000000
    18  H    5.141533   1.102421   0.000000
    19  H    3.771360   1.099174   1.786016   0.000000
    20  H    3.855503   1.101166   1.768477   1.786807   0.000000
    21  H    3.366554   2.739112   3.500030   2.437227   3.515628
    22  H    4.258606   4.680824   5.395034   4.739860   5.284910
                   21         22
    21  H    0.000000
    22  H    2.454292   0.000000
 Stoichiometry    C9H10O3
 Framework group  C1[X(C9H10O3)]
 Deg. of freedom    60
 Full point group                 C1      NOp   1
 Largest Abelian subgroup         C1      NOp   1
 Largest concise Abelian subgroup C1      NOp   1
                         Standard orientation:                         
 ---------------------------------------------------------------------
 Center     Atomic      Atomic             Coordinates (Angstroms)
 Number     Number       Type             X           Y           Z
 ---------------------------------------------------------------------
      1          6           0       -1.337248    1.235858   -0.410855
      2          6           0        1.084323   -1.585555   -0.601547
      3          6           0       -2.932169   -1.386452   -0.712082
      4          6           0        0.904038   -1.544543    0.717530
      5          6           0       -1.892401    0.504253    0.566900
      6          6           0       -2.450023   -0.848946    0.414928
      7          1           0       -3.309321   -2.411620   -0.732171
      8          1           0       -2.981511   -0.819711   -1.646817
      9          1           0       -1.260033    0.798320   -1.415403
     10          1           0        0.887782   -2.391970   -1.305092
     11          1           0        0.521577   -2.309555    1.390169
     12          8           0        1.748014    0.517503    0.097292
     13          6           0        1.609385   -0.257801   -1.030201
     14          6           0        1.310960   -0.190921    1.193776
     15          8           0        1.878515    0.144459   -2.116791
     16          8           0        1.300610    0.270069    2.289393
     17          6           0       -0.788910    2.617367   -0.252233
     18          1           0       -1.332175    3.325325   -0.899529
     19          1           0       -0.860675    2.970511    0.786190
     20          1           0        0.267231    2.650355   -0.562145
     21          1           0       -1.924101    0.925750    1.578752
     22          1           0       -2.473617   -1.453221    1.329596
 ---------------------------------------------------------------------
 Rotational constants (GHZ):           1.0632785           0.7066813           0.6839238
 Standard basis: def2SVP (5D, 7F)
 There are   230 symmetry adapted cartesian basis functions of A   symmetry.
 There are   218 symmetry adapted basis functions of A   symmetry.
   218 basis functions,   370 primitive gaussians,   230 cartesian basis functions
    44 alpha electrons       44 beta electrons
       nuclear repulsion energy       677.1201837173 Hartrees.
 NAtoms=   22 NActive=   22 NUniq=   22 SFac= 1.00D+00 NAtFMM=   60 NAOKFM=F Big=F
 Integral buffers will be    131072 words long.
 Raffenetti 2 integral format.
 Two-electron integral symmetry is turned on.
 Nuclear repulsion after empirical dispersion term =      677.1060902581 Hartrees.
 ------------------------------------------------------------------------------
 Polarizable Continuum Model (PCM)
 =================================
 Model                : PCM.
 Atomic radii         : UFF (Universal Force Field).
 Polarization charges : Total charges.
 Charge compensation  : None.
 Solution method      : On-the-fly selection.
 Cavity type          : Scaled VdW (van der Waals Surface) (Alpha=1.100).
 Cavity algorithm     : GePol (No added spheres)
                        Default sphere list used, NSphG=   22.
                        Lebedev-Laikov grids with approx.  5.0 points / Ang**2.
                        Smoothing algorithm: York/Karplus (Gamma=1.0000).
                        Polarization charges: spherical gaussians, with
                                              point-specific exponents (IZeta= 3).
                        Self-potential: point-specific (ISelfS= 7).
                        Self-field    : sphere-specific E.n sum rule (ISelfD= 2).
 1st derivatives      : Analytical E(r).r(x)/FMM algorithm (CHGder, D1EAlg=3).
                        Cavity 1st derivative terms included.
 Solvent              : Toluene, Eps=   2.374100 Eps(inf)=   2.238315
 ------------------------------------------------------------------------------
 One-electron integrals computed using PRISM.
   1 Symmetry operations used in ECPInt.
 ECPInt:  NShTT=    5253 NPrTT=   19101 LenC2=    5156 LenP2D=   14174.
 LDataN:  DoStor=T MaxTD1= 4 Len=   56
 NBasis=   218 RedAO= T EigKep=  6.65D-04  NBF=   218
 NBsUse=   218 1.00D-06 EigRej= -1.00D+00 NBFU=   218
 Initial guess from the checkpoint file:  "da-2_1_opt_hf_re.chk"
 B after Tr=    -0.000000    0.000000   -0.000000
         Rot=    0.999463   -0.032529   -0.003305    0.002135 Ang=  -3.76 deg.
 ExpMin= 1.22D-01 ExpMax= 2.27D+03 ExpMxC= 3.41D+02 IAcc=3 IRadAn=         5 AccDes= 0.00D+00
 Harris functional with IExCor= 4639 and IRadAn=       5 diagonalized for initial guess.
 HarFok:  IExCor= 4639 AccDes= 0.00D+00 IRadAn=         5 IDoV= 1 UseB2=F ITyADJ=14
 ICtDFT=  3500011 ScaDFX=  1.000000  1.000000  1.000000  1.000000
 FoFCou: FMM=F IPFlag=           0 FMFlag=      100000 FMFlg1=           0
         NFxFlg=           0 DoJE=T BraDBF=F KetDBF=T FulRan=T
         wScrn=  0.000000 ICntrl=       500 IOpCl=  0 I1Cent=   200000004 NGrid=           0
         NMat0=    1 NMatS0=      1 NMatT0=    0 NMatD0=    1 NMtDS0=    0 NMtDT0=    0
 Petite list used in FoFCou.
 Requested convergence on RMS density matrix=1.00D-08 within 128 cycles.
 Requested convergence on MAX density matrix=1.00D-06.
 Requested convergence on             energy=1.00D-06.
 No special actions if energy rises.
 Inv3:  Mode=1 IEnd=    10852812.
 Iteration    1 A*A^-1 deviation from unit magnitude is 3.33D-15 for   1329.
 Iteration    1 A*A^-1 deviation from orthogonality  is 2.00D-15 for   1651    396.
 Iteration    1 A^-1*A deviation from unit magnitude is 3.33D-15 for   1329.
 Iteration    1 A^-1*A deviation from orthogonality  is 6.22D-15 for   1783   1758.
 Error on total polarization charges =  0.00610
 SCF Done:  E(RwB97XD) =  -573.998290050     A.U. after   12 cycles
            NFock= 12  Conv=0.68D-08     -V/T= 2.0096
   1 Symmetry operations used in ECPInt.
 ECPInt:  NShTT=    5253 NPrTT=   19101 LenC2=    5156 LenP2D=   14174.
 LDataN:  DoStor=T MaxTD1= 5 Len=  102
 D1PCM: PCM CHGder 1st derivatives, ID1Alg=3 FixD1E=F DoIter=F DoCFld=F I1PDM=0.
 Calling FoFJK, ICntrl=      2127 FMM=F ISym2X=0 I1Cent= 0 IOpClX= 0 NMat=1 NMatS=1 NMatT=0.
 ***** Axes restored to original set *****
 -------------------------------------------------------------------
 Center     Atomic                   Forces (Hartrees/Bohr)
 Number     Number              X              Y              Z
 -------------------------------------------------------------------
      1        6           0.000038164   -0.000018538    0.000095897
      2        6          -0.000014924   -0.000031035   -0.000002556
      3        6           0.000027278   -0.000037720   -0.000012437
      4        6          -0.000139931    0.000017355    0.000003458
      5        6          -0.000023933    0.000035226    0.000056271
      6        6           0.000016850    0.000014644    0.000096465
      7        1          -0.000002904   -0.000000746   -0.000000467
      8        1          -0.000015204   -0.000008256    0.000015856
      9        1           0.000113414   -0.000003519    0.000057263
     10        1           0.000000220    0.000001466   -0.000001208
     11        1          -0.000011776    0.000005084    0.000003466
     12        8           0.000003066   -0.000088062    0.000064645
     13        6           0.000069333    0.000081452    0.000036003
     14        6          -0.000051917    0.000006842   -0.000105322
     15        8          -0.000072432    0.000036152    0.000008563
     16        8           0.000040013    0.000000579   -0.000037640
     17        6          -0.000215921   -0.000221575   -0.000980959
     18        1          -0.000019237    0.000116632    0.000157203
     19        1           0.000068339   -0.000182551    0.000125810
     20        1           0.000138217    0.000288045    0.000415893
     21        1           0.000030974   -0.000019152    0.000010412
     22        1           0.000022309    0.000007680   -0.000006616
 -------------------------------------------------------------------
 Cartesian Forces:  Max     0.000980959 RMS     0.000152843

 GradGradGradGradGradGradGradGradGradGradGradGradGradGradGradGradGradGrad
 Berny optimization.
 FormGI is forming the generalized inverse of G from B-inverse, IUseBI=4.
 Internal  Forces:  Max     0.001161623 RMS     0.000180075
 Search for a saddle point.
 Step number   2 out of a maximum of   50
 All quantities printed in internal units (Hartrees-Bohrs-Radians)
 Swapping is turned off.
 Update second derivatives using D2CorX and points    1    2
 ITU=  0  0
     Eigenvalues ---   -0.00945   0.00058   0.00290   0.00436   0.00731
     Eigenvalues ---    0.01057   0.01440   0.01463   0.01984   0.02270
     Eigenvalues ---    0.02335   0.02890   0.02962   0.03244   0.03580
     Eigenvalues ---    0.04084   0.04891   0.05113   0.05718   0.05886
     Eigenvalues ---    0.06500   0.10427   0.10562   0.11692   0.11953
     Eigenvalues ---    0.12101   0.12747   0.13237   0.13787   0.15554
     Eigenvalues ---    0.15792   0.15889   0.19024   0.20285   0.21615
     Eigenvalues ---    0.23494   0.24292   0.25677   0.28545   0.33196
     Eigenvalues ---    0.33829   0.34716   0.35072   0.35454   0.35543
     Eigenvalues ---    0.35753   0.36164   0.36436   0.36699   0.36777
     Eigenvalues ---    0.36872   0.38212   0.38327   0.39396   0.62799
     Eigenvalues ---    0.65389   0.66765   0.87841   1.00890   1.03620
 Eigenvectors required to have negative eigenvalues:
                          D40       D39       A20       D37       D38
   1                    0.46305   0.36589  -0.34224  -0.30518  -0.30499
                          D41       D43       A21       D42       D10
   1                    0.29284   0.25168   0.24616   0.23876  -0.12240
 RFO step:  Lambda0=1.524438049D-05 Lambda=-5.80249438D-05.
 Linear search not attempted -- option 19 set.
 Iteration  1 RMS(Cart)=  0.03786340 RMS(Int)=  0.00087383
 Iteration  2 RMS(Cart)=  0.00592417 RMS(Int)=  0.00006182
 Iteration  3 RMS(Cart)=  0.00000770 RMS(Int)=  0.00006174
 Iteration  4 RMS(Cart)=  0.00000000 RMS(Int)=  0.00006174
 Variable       Old X    -DE/DX   Delta X   Delta X   Delta X     New X
                                 (Linear)    (Quad)   (Total)
    R1        2.53494   0.00011   0.00000   0.00015   0.00015   2.53509
    R2        2.07571  -0.00004   0.00000  -0.00006  -0.00006   2.07565
    R3        2.82475  -0.00007   0.00000  -0.00012  -0.00012   2.82463
    R4        2.51706   0.00002   0.00000  -0.00012  -0.00006   2.51700
    R5        2.05617   0.00000   0.00000  -0.00003  -0.00003   2.05614
    R6        2.81713   0.00005   0.00000  -0.00009  -0.00007   2.81706
    R7        2.52936   0.00001   0.00000  -0.00001  -0.00001   2.52935
    R8        2.06458   0.00000   0.00000   0.00003   0.00003   2.06460
    R9        2.06781  -0.00002   0.00000   0.00001   0.00001   2.06782
   R10        2.05621   0.00000   0.00000  -0.00004  -0.00004   2.05617
   R11        2.81860   0.00002   0.00000  -0.00030  -0.00028   2.81832
   R12        2.78065  -0.00001   0.00000  -0.00027  -0.00027   2.78038
   R13        2.07225   0.00000   0.00000   0.00003   0.00003   2.07228
   R14        2.07209  -0.00001   0.00000  -0.00000  -0.00000   2.07209
   R15        2.59901  -0.00008   0.00000   0.00013   0.00008   2.59909
   R16        2.60149  -0.00010   0.00000   0.00058   0.00053   2.60202
   R17        5.06243  -0.00013   0.00000  -0.01312  -0.01312   5.04931
   R18        2.24784  -0.00001   0.00000  -0.00001  -0.00001   2.24782
   R19        2.24631  -0.00004   0.00000  -0.00012  -0.00012   2.24618
   R20        2.08327  -0.00002   0.00000  -0.00046  -0.00046   2.08282
   R21        2.07714   0.00004   0.00000   0.00040   0.00040   2.07754
   R22        2.08090  -0.00014   0.00000   0.00036   0.00036   2.08126
    A1        2.06968   0.00022   0.00000   0.00068   0.00068   2.07036
    A2        2.18772  -0.00040   0.00000  -0.00221  -0.00221   2.18550
    A3        2.02574   0.00017   0.00000   0.00152   0.00152   2.02726
    A4        2.26361   0.00001   0.00000  -0.00002  -0.00002   2.26359
    A5        1.88074  -0.00002   0.00000   0.00009   0.00011   1.88085
    A6        2.13862   0.00001   0.00000  -0.00010  -0.00011   2.13851
    A7        2.11373  -0.00000   0.00000   0.00014   0.00014   2.11388
    A8        2.12648   0.00001   0.00000  -0.00032  -0.00032   2.12615
    A9        2.04286  -0.00000   0.00000   0.00017   0.00017   2.04303
   A10        2.26285   0.00002   0.00000  -0.00001  -0.00002   2.26283
   A11        1.88307  -0.00003   0.00000   0.00005   0.00006   1.88313
   A12        2.13717   0.00001   0.00000  -0.00003  -0.00003   2.13713
   A13        2.19335   0.00023   0.00000   0.00076   0.00076   2.19411
   A14        2.06564  -0.00011   0.00000  -0.00048  -0.00048   2.06516
   A15        2.02397  -0.00012   0.00000  -0.00028  -0.00028   2.02370
   A16        2.20530   0.00008   0.00000  -0.00060  -0.00060   2.20470
   A17        2.06385  -0.00003   0.00000   0.00036   0.00036   2.06421
   A18        2.01396  -0.00005   0.00000   0.00024   0.00024   2.01420
   A19        1.90802   0.00003   0.00000  -0.00028  -0.00013   1.90789
   A20        1.76328  -0.00015   0.00000   0.03812   0.03828   1.80156
   A21        2.01560  -0.00010   0.00000  -0.03847  -0.03848   1.97712
   A22        1.87744  -0.00000   0.00000   0.00008  -0.00001   1.87743
   A23        2.26992   0.00002   0.00000  -0.00016  -0.00011   2.26981
   A24        2.13581  -0.00002   0.00000   0.00007   0.00011   2.13592
   A25        1.87477   0.00002   0.00000   0.00010   0.00001   1.87478
   A26        2.27035   0.00002   0.00000   0.00028   0.00033   2.27067
   A27        2.13805  -0.00005   0.00000  -0.00038  -0.00034   2.13771
   A28        1.92883   0.00048   0.00000   0.00335   0.00334   1.93217
   A29        1.95329  -0.00038   0.00000  -0.00427  -0.00427   1.94902
   A30        1.92800  -0.00027   0.00000   0.00293   0.00292   1.93092
   A31        1.89253  -0.00001   0.00000  -0.00036  -0.00036   1.89217
   A32        1.86310   0.00021   0.00000   0.00256   0.00254   1.86564
   A33        1.89534  -0.00001   0.00000  -0.00404  -0.00404   1.89130
   A34        2.02308  -0.00116   0.00000   0.03137   0.03137   2.05446
    D1       -0.02676   0.00001   0.00000  -0.00140  -0.00140  -0.02816
    D2        3.09124  -0.00007   0.00000  -0.00140  -0.00140   3.08984
    D3        3.12683   0.00014   0.00000  -0.00071  -0.00071   3.12612
    D4       -0.03835   0.00006   0.00000  -0.00071  -0.00071  -0.03906
    D5       -2.07869   0.00003   0.00000  -0.01868  -0.01868  -2.09737
    D6        0.03247   0.00009   0.00000  -0.01972  -0.01972   0.01274
    D7        2.14663  -0.00036   0.00000  -0.02574  -0.02574   2.12089
    D8        1.07463   0.00016   0.00000  -0.01800  -0.01799   1.05664
    D9       -3.09740   0.00023   0.00000  -0.01904  -0.01904  -3.11644
   D10       -0.98324  -0.00023   0.00000  -0.02505  -0.02506  -1.00829
   D11        0.00298   0.00001   0.00000   0.00047   0.00046   0.00344
   D12       -3.12363   0.00003   0.00000  -0.00036  -0.00037  -3.12400
   D13        3.12243  -0.00004   0.00000  -0.00086  -0.00085   3.12158
   D14       -0.00417  -0.00002   0.00000  -0.00169  -0.00168  -0.00585
   D15        0.02515   0.00003   0.00000   0.00070   0.00067   0.02582
   D16       -3.10968   0.00010   0.00000   0.00195   0.00192  -3.10776
   D17       -3.13665  -0.00001   0.00000  -0.00051  -0.00052  -3.13717
   D18        0.01171   0.00005   0.00000   0.00074   0.00073   0.01243
   D19        3.12012  -0.00000   0.00000   0.00046   0.00046   3.12058
   D20       -0.03531   0.00001   0.00000  -0.00007  -0.00007  -0.03537
   D21       -0.03810  -0.00002   0.00000   0.00006   0.00006  -0.03804
   D22        3.08966  -0.00001   0.00000  -0.00047  -0.00047   3.08919
   D23       -0.01807   0.00001   0.00000   0.00215   0.00216  -0.01591
   D24        3.13017  -0.00003   0.00000   0.00297   0.00297   3.13313
   D25        3.13720   0.00002   0.00000   0.00140   0.00141   3.13860
   D26        0.00225  -0.00002   0.00000   0.00222   0.00221   0.00446
   D27       -0.44239  -0.00004   0.00000  -0.00614  -0.00614  -0.44853
   D28        2.71270  -0.00006   0.00000  -0.00563  -0.00563   2.70707
   D29        2.72230   0.00004   0.00000  -0.00613  -0.00613   2.71617
   D30       -0.40580   0.00002   0.00000  -0.00562  -0.00562  -0.41143
   D31       -0.03683  -0.00003   0.00000   0.00071   0.00074  -0.03610
   D32        3.09863  -0.00009   0.00000  -0.00043  -0.00040   3.09823
   D33       -2.16962   0.00016   0.00000   0.02466   0.02457  -2.14505
   D34        0.96584   0.00010   0.00000   0.02352   0.02344   0.98928
   D35        0.03431   0.00001   0.00000  -0.00170  -0.00173   0.03259
   D36       -3.11331   0.00005   0.00000  -0.00244  -0.00245  -3.11576
   D37        2.00757  -0.00022   0.00000   0.02338   0.02336   2.03093
   D38       -1.14005  -0.00018   0.00000   0.02264   0.02263  -1.11742
   D39        1.60882  -0.00004   0.00000  -0.09765  -0.09801   1.51081
   D40       -0.44711   0.00007   0.00000  -0.10362  -0.10325  -0.55037
   D41       -0.67146   0.00068   0.00000   0.09242   0.09243  -0.57904
   D42       -2.76924   0.00013   0.00000   0.08517   0.08516  -2.68407
   D43        1.47678   0.00003   0.00000   0.08629   0.08630   1.56308
         Item               Value     Threshold  Converged?
 Maximum Force            0.001162     0.000450     NO 
 RMS     Force            0.000180     0.000300     YES
 Maximum Displacement     0.148604     0.001800     NO 
 RMS     Displacement     0.035491     0.001200     NO 
 Predicted change in Energy=-2.285856D-05
 GradGradGradGradGradGradGradGradGradGradGradGradGradGradGradGradGradGrad

                          Input orientation:                          
 ---------------------------------------------------------------------
 Center     Atomic      Atomic             Coordinates (Angstroms)
 Number     Number       Type             X           Y           Z
 ---------------------------------------------------------------------
      1          6           0       -1.329242    1.205138   -0.481547
      2          6           0        1.075418   -1.617823   -0.486382
      3          6           0       -2.881981   -1.455182   -0.652996
      4          6           0        0.887323   -1.480651    0.825056
      5          6           0       -1.916846    0.538300    0.523294
      6          6           0       -2.449947   -0.831049    0.449421
      7          1           0       -3.244735   -2.484979   -0.613312
      8          1           0       -2.903461   -0.957075   -1.627058
      9          1           0       -1.201216    0.696569   -1.446647
     10          1           0        0.875959   -2.470966   -1.131553
     11          1           0        0.494147   -2.192210    1.548254
     12          8           0        1.751925    0.524934    0.063737
     13          6           0        1.613378   -0.328324   -1.006043
     14          6           0        1.303928   -0.100191    1.205862
     15          8           0        1.890616   -0.006951   -2.117241
     16          8           0        1.293715    0.437650    2.265797
     17          6           0       -0.808082    2.603668   -0.399554
     18          1           0       -1.316325    3.252463   -1.131367
     19          1           0       -0.951223    3.032139    0.602732
     20          1           0        0.266606    2.632012   -0.638783
     21          1           0       -1.997740    1.032747    1.498751
     22          1           0       -2.500216   -1.368418    1.403898
 ---------------------------------------------------------------------
                    Distance matrix (angstroms):
                    1          2          3          4          5
     1  C    0.000000
     2  C    3.708304   0.000000
     3  C    3.085077   3.964243   0.000000
     4  C    3.719386   1.331940   4.048819   0.000000
     5  C    1.341513   3.823866   2.507811   3.468514   0.000000
     6  C    2.503745   3.731345   1.338477   3.420592   1.471315
     7  H    4.159740   4.408150   1.092541   4.489040   3.492188
     8  H    2.909558   4.191563   1.094244   4.545001   2.798851
     9  H    1.098386   3.385495   2.843394   3.776627   2.101867
    10  H    4.335799   1.088063   3.922110   2.192981   4.426506
    11  H    4.357386   2.192610   4.097188   1.088080   3.784060
    12  O    3.202124   2.313375   5.089956   2.312902   3.697466
    13  C    3.359407   1.490724   4.647872   2.282090   3.943652
    14  C    3.388925   2.284538   4.776315   1.491390   3.353648
    15  O    3.809480   2.432932   5.197988   3.440276   4.665457
    16  O    3.875157   3.441963   5.434943   2.433263   3.654333
    17  C    1.494729   4.623429   4.565036   4.588652   2.519276
    18  H    2.148016   5.464076   4.984180   5.575485   3.234998
    19  H    2.157890   5.188023   5.043881   4.878007   2.675439
    20  H    2.146490   4.328799   5.159356   4.409321   3.240604
    21  H    2.097186   4.517806   3.406126   3.885180   1.096604
    22  H    3.398422   4.052224   2.093821   3.438470   2.179760
                    6          7          8          9         10
     6  C    0.000000
     7  H    2.120513   0.000000
     8  H    2.129160   1.865111   0.000000
     9  H    2.736425   3.872036   2.380068   0.000000
[...]
    16  O    4.349852   6.115470   5.889300   4.476352   4.491831
    17  C    3.900470   5.645875   4.309821   2.210875   5.397540
    18  H    4.523949   6.075044   4.525545   2.576739   6.126212
    19  H    4.146516   6.096959   4.968604   3.117251   6.057059
    20  H    4.533201   6.205985   4.890550   2.561189   5.163655
    21  H    2.186191   4.288347   3.814228   3.069649   5.244567
    22  H    1.096504   2.422895   3.085218   3.751654   4.368303
                   11         12         13         14         15
    11  H    0.000000
    12  O    3.341951   0.000000
    13  C    3.354280   1.375396   0.000000
    14  C    2.269243   1.376948   2.245105   0.000000
    15  O    4.490138   2.249195   1.189495   3.375824   0.000000
    16  O    2.840828   2.250935   3.375510   1.188623   4.445825
    17  C    5.337501   3.331667   3.852537   3.788713   4.131469
    18  H    6.331385   4.274183   4.625866   4.853974   4.674817
    19  H    5.507111   3.733638   4.529572   3.913480   4.977191
    20  H    5.298658   2.670669   3.274370   3.452447   3.437229
    21  H    4.080406   4.052466   4.606414   3.508604   5.416171
    22  H    3.110989   4.846382   4.883542   4.016835   5.794885
                   16         17         18         19         20
    16  O    0.000000
    17  C    4.027050   0.000000
    18  H    5.126363   1.102162   0.000000
    19  H    3.819789   1.099394   1.785750   0.000000
    20  H    3.777284   1.101385   1.770180   1.784447   0.000000
    21  H    3.436828   2.736294   3.510335   2.428192   3.498809
    22  H    4.290150   4.679038   5.403128   4.733892   5.274112
                   21         22
    21  H    0.000000
    22  H    2.455208   0.000000
 Stoichiometry    C9H10O3
 Framework group  C1[X(C9H10O3)]
 Deg. of freedom    60
 Full point group                 C1      NOp   1
 Largest Abelian subgroup         C1      NOp   1
 Largest concise Abelian subgroup C1      NOp   1
                         Standard orientation:                         
 ---------------------------------------------------------------------
 Center     Atomic      Atomic             Coordinates (Angstroms)
 Number     Number       Type             X           Y           Z
 ---------------------------------------------------------------------
      1          6           0       -1.328707    1.205392   -0.480288
      2          6           0        1.075583   -1.618128   -0.488236
      3          6           0       -2.880556   -1.455288   -0.652819
      4          6           0        0.886850   -1.481501    0.823171
      5          6           0       -1.918661    0.539493    0.523791
      6          6           0       -2.451013   -0.830146    0.450001
      7          1           0       -3.242969   -2.485205   -0.613114
      8          1           0       -2.900254   -0.957900   -1.627290
      9          1           0       -1.197964    0.695667   -1.444421
     10          1           0        0.876016   -2.470848   -1.133933
     11          1           0        0.492873   -2.193207    1.545783
     12          8           0        1.752886    0.524007    0.063301
     13          6           0        1.614591   -0.328698   -1.006971
     14          6           0        1.304094   -0.101510    1.204923
     15          8           0        1.892729   -0.006976   -2.117841
     16          8           0        1.293849    0.435715    2.265163
     17          6           0       -0.808244    2.604199   -0.398672
     18          1           0       -1.312286    3.251198   -1.134942
     19          1           0       -0.957287    3.034998    0.601761
     20          1           0        0.267884    2.632199   -0.631512
     21          1           0       -2.002330    1.035018    1.498465
     22          1           0       -2.503021   -1.366770    1.404805
 ---------------------------------------------------------------------
 Rotational constants (GHZ):           1.0612665           0.7100782           0.6846511

 **********************************************************************

            Population analysis using the SCF Density.

 **********************************************************************

 Orbital symmetries:
       Occupied  (A) (A) (A) (A) (A) (A) (A) (A) (A) (A) (A) (A)
                 (A) (A) (A) (A) (A) (A) (A) (A) (A) (A) (A) (A)
                 (A) (A) (A) (A) (A) (A) (A) (A) (A) (A) (A) (A)
                 (A) (A) (A) (A) (A) (A) (A) (A)
       Virtual   (A) (A) (A) (A) (A) (A) (A) (A) (A) (A) (A) (A)
                 (A) (A) (A) (A) (A) (A) (A) (A) (A) (A) (A) (A)
                 (A) (A) (A) (A) (A) (A) (A) (A) (A) (A) (A) (A)
                 (A) (A) (A) (A) (A) (A) (A) (A) (A) (A) (A) (A)
                 (A) (A) (A) (A) (A) (A) (A) (A) (A) (A) (A) (A)
                 (A) (A) (A) (A) (A) (A) (A) (A) (A) (A) (A) (A)
                 (A) (A) (A) (A) (A) (A) (A) (A) (A) (A) (A) (A)
                 (A) (A) (A) (A) (A) (A) (A) (A) (A) (A) (A) (A)
                 (A) (A) (A) (A) (A) (A) (A) (A) (A) (A) (A) (A)
                 (A) (A) (A) (A) (A) (A) (A) (A) (A) (A) (A) (A)
                 (A) (A) (A) (A) (A) (A) (A) (A) (A) (A) (A) (A)
                 (A) (A) (A) (A) (A) (A) (A) (A) (A) (A) (A) (A)
                 (A) (A) (A) (A) (A) (A) (A) (A) (A) (A) (A) (A)
                 (A) (A) (A) (A) (A) (A) (A) (A) (A) (A) (A) (A)
                 (A) (A) (A) (A) (A) (A)
 The electronic state is 1-A.
 Alpha  occ. eigenvalues --  -19.33744 -19.28564 -19.28492 -10.46509 -10.46481
 Alpha  occ. eigenvalues --  -10.35887 -10.35759 -10.31094 -10.30936 -10.30302
 Alpha  occ. eigenvalues --  -10.30100 -10.29424  -1.25748  -1.18535  -1.14704
 Alpha  occ. eigenvalues --   -0.94796  -0.90833  -0.85119  -0.80033  -0.77244
 Alpha  occ. eigenvalues --   -0.73976  -0.69254  -0.68762  -0.61986  -0.61023
 Alpha  occ. eigenvalues --   -0.60889  -0.57368  -0.57184  -0.56023  -0.53835
 Alpha  occ. eigenvalues --   -0.53757  -0.52072  -0.51174  -0.49743  -0.49329
 Alpha  occ. eigenvalues --   -0.47340  -0.43756  -0.43516  -0.42982  -0.41635
 Alpha  occ. eigenvalues --   -0.41376  -0.39057  -0.38628  -0.31099
 Alpha virt. eigenvalues --   -0.04484   0.03546   0.10694   0.12631   0.14184
 Alpha virt. eigenvalues --    0.15038   0.15558   0.16440   0.17334   0.19099
 Alpha virt. eigenvalues --    0.20614   0.21489   0.22501   0.23295   0.24987
 Alpha virt. eigenvalues --    0.25592   0.26818   0.29079   0.32244   0.33450
 Alpha virt. eigenvalues --    0.34707   0.37683   0.38343   0.40798   0.43127
 Alpha virt. eigenvalues --    0.44923   0.46720   0.47827   0.48207   0.49147
 Alpha virt. eigenvalues --    0.50921   0.51711   0.52196   0.54692   0.56128
 Alpha virt. eigenvalues --    0.58125   0.59658   0.60012   0.63077   0.64668
 Alpha virt. eigenvalues --    0.66628   0.68411   0.69557   0.69737   0.70402
 Alpha virt. eigenvalues --    0.71083   0.71819   0.72974   0.73436   0.74124
 Alpha virt. eigenvalues --    0.74821   0.76049   0.76365   0.77015   0.77796
 Alpha virt. eigenvalues --    0.78634   0.79643   0.80250   0.80841   0.81551
 Alpha virt. eigenvalues --    0.84460   0.86514   0.87214   0.89900   0.94456
 Alpha virt. eigenvalues --    0.94711   0.96692   1.02761   1.04544   1.04835
 Alpha virt. eigenvalues --    1.06213   1.11262   1.14534   1.15810   1.18017
 Alpha virt. eigenvalues --    1.20327   1.21222   1.23820   1.24409   1.27948
 Alpha virt. eigenvalues --    1.28361   1.29652   1.31339   1.36067   1.36618
 Alpha virt. eigenvalues --    1.38167   1.44218   1.46221   1.48992   1.54647
 Alpha virt. eigenvalues --    1.57703   1.60003   1.62141   1.63363   1.65350
 Alpha virt. eigenvalues --    1.66427   1.67508   1.69337   1.69718   1.72985
 Alpha virt. eigenvalues --    1.76502   1.78043   1.79916   1.80433   1.82315
 Alpha virt. eigenvalues --    1.84164   1.85735   1.87272   1.87779   1.89491
 Alpha virt. eigenvalues --    1.91698   1.92275   1.93028   1.95323   1.95580
 Alpha virt. eigenvalues --    1.97158   1.97714   1.99611   2.00262   2.03150
 Alpha virt. eigenvalues --    2.08850   2.11279   2.12002   2.12058   2.16022
 Alpha virt. eigenvalues --    2.18019   2.19320   2.20884   2.26198   2.29020
 Alpha virt. eigenvalues --    2.30932   2.33409   2.35752   2.37230   2.38868
 Alpha virt. eigenvalues --    2.45459   2.45475   2.47024   2.49415   2.53215
 Alpha virt. eigenvalues --    2.53977   2.60403   2.61384   2.64922   2.68464
 Alpha virt. eigenvalues --    2.69084   2.70358   2.72566   2.74073   2.76976
 Alpha virt. eigenvalues --    2.77969   2.79551   2.82858   2.85554   2.86612
 Alpha virt. eigenvalues --    2.90945   2.94273   3.01157   3.01953   3.02772
 Alpha virt. eigenvalues --    3.07729   3.10037   3.18456   3.24500   3.25799
 Alpha virt. eigenvalues --    3.27214   3.28924   3.34354   3.41967   3.49491
 Alpha virt. eigenvalues --    3.52165   3.72301   3.76255   3.78364
          Condensed to atoms (all electrons):
               1          2          3          4          5          6
     1  C    4.925347  -0.003492  -0.018454   0.000074   0.606527  -0.048267
     2  C   -0.003492   5.305546   0.001837   0.289681   0.000094   0.000279
     3  C   -0.018454   0.001837   4.748015  -0.000801  -0.060793   0.669361
     4  C    0.000074   0.289681  -0.000801   5.307667  -0.006179  -0.001821
     5  C    0.606527   0.000094  -0.060793  -0.006179   4.902281   0.343974
     6  C   -0.048267   0.000279   0.669361  -0.001821   0.343974   4.773685
     7  H   -0.000085   0.000028   0.388846  -0.000025   0.009256  -0.015354
     8  H    0.008428   0.000003   0.394008   0.000037  -0.024113  -0.014643
     9  H    0.389755  -0.001601   0.007736  -0.000656  -0.030969  -0.017924
    10  H   -0.000080   0.428321   0.000676  -0.044201  -0.000112   0.000279
    11  H    0.000070  -0.044581   0.000168   0.426924  -0.000766   0.001137
    12  O    0.008009  -0.105371   0.000009  -0.106428  -0.004364   0.000044
    13  C    0.002068   0.242562  -0.000411   0.014780   0.001015  -0.000845
    14  C   -0.000238   0.015147   0.000014   0.242504   0.007882  -0.001056
    15  O   -0.002071  -0.073329   0.000002   0.003724   0.000173   0.000001
    16  O   -0.002324   0.003823  -0.000002  -0.073997   0.000578  -0.000074
    17  C    0.388397  -0.000087   0.000239   0.000338  -0.050959   0.009106
    18  H   -0.016464   0.000001   0.000001  -0.000005   0.001849  -0.000281
    19  H   -0.023386  -0.000032  -0.000001   0.000066  -0.012376   0.000521
    20  H   -0.018640   0.000673   0.000047   0.000063   0.000675  -0.000364
    21  H   -0.045263   0.000053   0.008521  -0.000652   0.408991  -0.039320
    22  H    0.009384  -0.000377  -0.044155   0.000767  -0.044928   0.406009
               7          8          9         10         11         12
     1  C   -0.000085   0.008428   0.389755  -0.000080   0.000070   0.008009
     2  C    0.000028   0.000003  -0.001601   0.428321  -0.044581  -0.105371
     3  C    0.388846   0.394008   0.007736   0.000676   0.000168   0.000009
     4  C   -0.000025   0.000037  -0.000656  -0.044201   0.426924  -0.106428
     5  C    0.009256  -0.024113  -0.030969  -0.000112  -0.000766  -0.004364
     6  C   -0.015354  -0.014643  -0.017924   0.000279   0.001137   0.000044
     7  H    0.615778  -0.040767  -0.000156   0.000023  -0.000001   0.000000
     8  H   -0.040767   0.614812   0.002193   0.000018   0.000006   0.000004
     9  H   -0.000156   0.002193   0.640097  -0.000010   0.000003  -0.002160
    10  H    0.000023   0.000018  -0.000010   0.559504  -0.005247   0.002858
    11  H   -0.000001   0.000006   0.000003  -0.005247   0.560404   0.002882
    12  O    0.000000   0.000004  -0.002160   0.002858   0.002882   8.025885
    13  C   -0.000000  -0.000054   0.005313  -0.033595   0.008779   0.296004
    14  C   -0.000006   0.000005  -0.000457   0.008853  -0.032469   0.297705
    15  O   -0.000000  -0.000009   0.002182   0.001823  -0.000047  -0.066506
    16  O    0.000000  -0.000000   0.000068  -0.000046   0.001806  -0.065926
    17  C   -0.000001  -0.000025  -0.038385   0.000002  -0.000005  -0.003833
    18  H   -0.000001  -0.000022  -0.003993  -0.000000  -0.000000   0.000080
    19  H    0.000001   0.000001   0.006223   0.000000   0.000000  -0.000014
    20  H    0.000000   0.000017  -0.003573  -0.000003   0.000000   0.006050
    21  H   -0.000222   0.000010   0.007983   0.000003   0.000043  -0.000019
    22  H   -0.013598   0.007691   0.000143  -0.000004   0.000552   0.000002
              13         14         15         16         17         18
     1  C    0.002068  -0.000238  -0.002071  -0.002324   0.388397  -0.016464
     2  C    0.242562   0.015147  -0.073329   0.003823  -0.000087   0.000001
     3  C   -0.000411   0.000014   0.000002  -0.000002   0.000239   0.000001
     4  C    0.014780   0.242504   0.003724  -0.073997   0.000338  -0.000005
     5  C    0.001015   0.007882   0.000173   0.000578  -0.050959   0.001849
     6  C   -0.000845  -0.001056   0.000001  -0.000074   0.009106  -0.000281
     7  H   -0.000000  -0.000006  -0.000000   0.000000  -0.000001  -0.000001
     8  H   -0.000054   0.000005  -0.000009  -0.000000  -0.000025  -0.000022
     9  H    0.005313  -0.000457   0.002182   0.000068  -0.038385  -0.003993
    10  H   -0.033595   0.008853   0.001823  -0.000046   0.000002  -0.000000
    11  H    0.008779  -0.032469  -0.000047   0.001806  -0.000005  -0.000000
    12  O    0.296004   0.297705  -0.066506  -0.065926  -0.003833   0.000080
    13  C    4.518009  -0.083218   0.748949   0.000348  -0.000968   0.000003
    14  C   -0.083218   4.504487   0.000269   0.753113   0.000204   0.000089
    15  O    0.748949   0.000269   7.554846  -0.000015  -0.000104  -0.000003
    16  O    0.000348   0.753113  -0.000015   7.547890   0.000454  -0.000001
    17  C   -0.000968   0.000204  -0.000104   0.000454   4.544380   0.383602
    18  H    0.000003   0.000089  -0.000003  -0.000001   0.383602   0.620405
    19  H    0.000074   0.000023  -0.000001   0.000170   0.401057  -0.021165
    20  H    0.000145  -0.000806   0.000968   0.000054   0.385460  -0.019384
    21  H    0.000021   0.000810   0.000001   0.000639  -0.013381   0.000090
    22  H    0.000019  -0.000288   0.000000   0.000049  -0.000244  -0.000001
              19         20         21         22
     1  C   -0.023386  -0.018640  -0.045263   0.009384
     2  C   -0.000032   0.000673   0.000053  -0.000377
     3  C   -0.000001   0.000047   0.008521  -0.044155
     4  C    0.000066   0.000063  -0.000652   0.000767
     5  C   -0.012376   0.000675   0.408991  -0.044928
     6  C    0.000521  -0.000364  -0.039320   0.406009
     7  H    0.000001   0.000000  -0.000222  -0.013598
     8  H    0.000001   0.000017   0.000010   0.007691
     9  H    0.006223  -0.003573   0.007983   0.000143
    10  H    0.000000  -0.000003   0.000003  -0.000004
    11  H    0.000000   0.000000   0.000043   0.000552
    12  O   -0.000014   0.006050  -0.000019   0.000002
    13  C    0.000074   0.000145   0.000021   0.000019
    14  C    0.000023  -0.000806   0.000810  -0.000288
    15  O   -0.000001   0.000968   0.000001   0.000000
    16  O    0.000170   0.000054   0.000639   0.000049
    17  C    0.401057   0.385460  -0.013381  -0.000244
    18  H   -0.021165  -0.019384   0.000090  -0.000001
    19  H    0.619109  -0.019967   0.006461   0.000001
    20  H   -0.019967   0.609876   0.000260   0.000018
    21  H    0.006461   0.000260   0.638749  -0.008106
    22  H    0.000001   0.000018  -0.008106   0.649850
 Mulliken charges:
               1
     1  C   -0.159295
     2  C   -0.059178
     3  C   -0.094866
     4  C   -0.051861
     5  C   -0.047738
     6  C   -0.064447
     7  H    0.056285
     8  H    0.052399
     9  H    0.038186
    10  H    0.080940
    11  H    0.080344
    12  O   -0.284911
    13  C    0.281005
    14  C    0.287434
    15  O   -0.170852
    16  O   -0.166609
    17  C   -0.005247
    18  H    0.055204
    19  H    0.043234
    20  H    0.058428
    21  H    0.034329
    22  H    0.037215
 Sum of Mulliken charges =  -0.00000
 Mulliken charges with hydrogens summed into heavy atoms:
               1
     1  C   -0.121108
     2  C    0.021763
     3  C    0.013818
     4  C    0.028482
     5  C   -0.013409
     6  C   -0.027232
    12  O   -0.284911
    13  C    0.281005
    14  C    0.287434
    15  O   -0.170852
    16  O   -0.166609
    17  C    0.151619
 Electronic spatial extent (au):  <R**2>=           2053.8519
 Charge=             -0.0000 electrons
 Dipole moment (field-independent basis, Debye):
    X=             -1.4355    Y=             -3.5865    Z=              0.1386  Tot=              3.8656
 Quadrupole moment (field-independent basis, Debye-Ang):
   XX=            -75.6415   YY=            -62.0426   ZZ=            -77.0356
   XY=             -3.8483   XZ=              1.3907   YZ=             -2.1208
 Traceless Quadrupole moment (field-independent basis, Debye-Ang):
   XX=             -4.0683   YY=              9.5306   ZZ=             -5.4623
   XY=             -3.8483   XZ=              1.3907   YZ=             -2.1208
 Octapole moment (field-independent basis, Debye-Ang**2):
  XXX=             29.7435  YYY=             -7.3216  ZZZ=             -0.0332  XYY=              2.4688
  XXY=             -9.5612  XXZ=              5.6366  XZZ=            -17.9739  YZZ=             -8.1743
  YYZ=             -1.5078  XYZ=             -1.1792
 Hexadecapole moment (field-independent basis, Debye-Ang**3):
 XXXX=          -1389.4834 YYYY=           -734.8127 ZZZZ=           -650.8950 XXXY=             11.7565
 XXXZ=             12.0256 YYYX=              6.2351 YYYZ=              2.0420 ZZZX=              4.6457
 ZZZY=            -10.1611 XXYY=           -340.1718 XXZZ=           -333.9466 YYZZ=           -209.1842
 XXYZ=              3.2782 YYXZ=             -4.6962 ZZXY=             -8.6829
 N-N= 6.772940763082D+02 E-N=-2.691631149029D+03  KE= 5.685288252413D+02
 Unable to Open any file for archive entry.
 1\1\GINC-NODE-003\FTS\RwB97XD\def2SVP\C9H10O3\JP2658\25-Dec-2023\0\\# 
 wb97xd def2svp geom=allchk scrf=(iefpcm,solvent=toluene) opt=(readfc,t
 s,noeigen,maxcycles=50,maxstep=10)\\da-2_1_opt_hf_re3.out\\0,1\C,-1.32
 90099547,1.2052424997,-0.4801834598\C,1.075514789,-1.6180770893,-0.488
 1719091\C,-2.8806804709,-1.4556045561,-0.6517454257\C,0.8871165738,-1.
 4811900938,0.8232552182\C,-1.918642671,0.5395046153,0.524190504\C,-2.4
 508995293,-0.8301946511,0.4508295831\H,-3.2429970349,-2.4855435158,-0.
 6117287026\H,-2.9006777598,-0.9584231282,-1.6263161186\H,-1.1984789415
 ,0.6953258052,-1.4442443798\H,0.8758489129,-2.4709494923,-1.1336371068
 \H,0.4933898949,-2.1927770877,1.546121452\O,1.7527839565,0.5242305962,
 0.062735594\C,1.6142776117,-0.3287113136,-1.0073206393\C,1.3043452023,
 -0.1010836853,1.2046073453\O,1.8920960172,-0.0071998349,-2.1183314784\
 O,1.2943347602,0.436363647,2.2647371125\C,-0.8086428503,2.6041102273,-
 0.3989997142\H,-1.3129339481,3.2509117077,-1.1352730033\H,-0.957457768
 8,3.035107223,0.6013816311\H,0.2674207411,2.6321516626,-0.6321293371\H
 ,-2.0020968349,1.0352276175,1.4987825712\H,-2.5026106953,-1.3666211531
 ,1.4057602633\\Version=ES64L-G16RevC.01\State=1-A\HF=-573.9983104\RMSD
 =8.878e-09\RMSF=2.789e-06\Dipole=-0.5646321,-1.4110673,0.0549597\Quadr
 upole=-3.023635,7.0846384,-4.0610035,-2.8621391,1.0344377,-1.5782639\P
 G=C01 [X(C9H10O3)]\\@
 The archive entry for this job was punched.


 Where a calculator on the ENIAC is equipped with 18,000
 vacuum tubes and weighs 30 tons, computers inthe future
 may  have only 1,000 vacuum tubes and weigh only 1 1/2 tons.
              ---Popular Mechanics, March 1949
 Job cpu time:       0 days  0 hours 20 minutes 10.2 seconds.
 Elapsed time:       0 days  0 hours  1 minutes 43.1 seconds.
 File lengths (MBytes):  RWF=    100 Int=      0 D2E=      0 Chk=     11 Scr=      1
 Normal termination of Gaussian 16 at Mon Dec 25 18:52:29 2023.
