Unloading slurm/anatra/current
  ERROR: No such file or directory on
    '/cm/local/modulefiles/slurm/anatra/current'
environment: line 0: unalias: gv: not found
environment: line 0: unalias: sl: not found
 Entering Gaussian System, Link 0=g16
 Initial command:
 /apps/gaussian/g16/C.01/g16/l1.exe "/local/jobs/1153043/Gau-2206769.inp" -scrdir="/local/jobs/1153043/"
 Entering Link 1 = /apps/gaussian/g16/C.01/g16/l1.exe PID=   2206770.
  
 Copyright (c) 1988-2019, Gaussian, Inc.  All Rights Reserved.
  
 This is part of the Gaussian(R) 16 program.  It is based on
 the Gaussian(R) 09 system (copyright 2009, Gaussian, Inc.),
 the Gaussian(R) 03 system (copyright 2003, Gaussian, Inc.),
 the Gaussian(R) 98 system (copyright 1998, Gaussian, Inc.),
 the Gaussian(R) 94 system (copyright 1995, Gaussian, Inc.),
 the Gaussian 92(TM) system (copyright 1992, Gaussian, Inc.),
 the Gaussian 90(TM) system (copyright 1990, Gaussian, Inc.),
 the Gaussian 88(TM) system (copyright 1988, Gaussian, Inc.),
 the Gaussian 86(TM) system (copyright 1986, Carnegie Mellon
 University), and the Gaussian 82(TM) system (copyright 1983,
 Carnegie Mellon University). Gaussian is a federally registered
 trademark of Gaussian, Inc.
  
 This software contains proprietary and confidential information,
 including trade secrets, belonging to Gaussian, Inc.
  
 This software is provided under written license and may be
 used, copied, transmitted, or stored only in accord with that
 written license.
  
 The following legend is applicable only to US Government
 contracts under FAR:
  
                    RESTRICTED RIGHTS LEGEND
  
 Use, reproduction and disclosure by the US Government is
 subject to restrictions as set forth in subparagraphs (a)
 and (c) of the Commercial Computer Software - Restricted
 Rights clause in FAR 52.227-19.
  
 Gaussian, Inc.
 340 Quinnipiac St., Bldg. 40, Wallingford CT 06492
  
  
 ---------------------------------------------------------------
 Warning -- This program may not be used in any manner that
 competes with the business of Gaussian, Inc. or will provide
 assistance to any competitor of Gaussian, Inc.  The licensee
 of this program is prohibited from giving any competitor of
 Gaussian, Inc. access to this program.  By using this program,
 the user acknowledges that Gaussian, Inc. is engaged in the
 business of creating and licensing software in the field of
 computational chemistry and represents and warrants to the
 licensee that it is not a competitor of Gaussian, Inc. and that
 it will not use this program in any manner prohibited above.
 ---------------------------------------------------------------
  

 Cite this work as:
 Gaussian 16, Revision C.01,
 M. J. Frisch, G. W. Trucks, H. B. Schlegel, G. E. Scuseria, 
 M. A. Robb, J. R. Cheeseman, G. Scalmani, V. Barone, 
 G. A. Petersson, H. Nakatsuji, X. Li, M. Caricato, A. V. Marenich, 
 J. Bloino, B. G. Janesko, R. Gomperts, B. Mennucci, H. P. Hratchian, 
 J. V. Ortiz, A. F. Izmaylov, J. L. Sonnenberg, D. Williams-Young, 
 F. Ding, F. Lipparini, F. Egidi, J. Goings, B. Peng, A. Petrone, 
 T. Henderson, D. Ranasinghe, V. G. Zakrzewski, J. Gao, N. Rega, 
 G. Zheng, W. Liang, M. Hada, M. Ehara, K. Toyota, R. Fukuda, 
 J. Hasegawa, M. Ishida, T. Nakajima, Y. Honda, O. Kitao, H. Nakai, 
 T. Vreven, K. Throssell, J. A. Montgomery, Jr., J. E. Peralta, 
 F. Ogliaro, M. J. Bearpark, J. J. Heyd, E. N. Brothers, K. N. Kudin, 
 V. N. Staroverov, T. A. Keith, R. Kobayashi, J. Normand, 
 K. Raghavachari, A. P. Rendell, J. C. Burant, S. S. Iyengar, 
 J. Tomasi, M. Cossi, J. M. Millam, M. Klene, C. Adamo, R. Cammi, 
 J. W. Ochterski, R. L. Martin, K. Morokuma, O. Farkas, 
 J. B. Foresman, and D. J. Fox, Gaussian, Inc., Wallingford CT, 2019.
 
 ******************************************
 Gaussian 16:  ES64L-G16RevC.01  3-Jul-2019
                25-Dec-2023 
 ******************************************
 %chk=da-2_1_hf.chk
 %nprocshared=12
 Will use up to   12 processors via shared memory.
 %mem=48GB
 ----------------------------------------------------------------------
 # wb97xd def2svp geom=allchk scrf=(iefpcm,solvent=toluene) opt=(readfc
 ,ts,noeigen,maxcycles=50,maxstep=10)
 ----------------------------------------------------------------------
 1/5=1,6=50,8=10,10=3,11=1,18=20,26=3,29=7,38=1/1,3;
 2/9=110,12=2,40=1/2;
 3/5=43,7=101,11=2,14=-4,25=1,30=1,70=2201,71=1,72=13,74=-58/1,2,3;
 4//1;
 5/5=2,38=5,53=13/2;
 6/7=2,8=2,9=2,10=2,28=1/1;
 7//1,2,3,16;
 1/5=1,6=50,8=10,11=1,18=20,26=3/3(2);
 2/9=110/2;
 99//99;
 2/9=110/2;
 3/5=43,7=101,11=2,14=-2,25=1,30=1,70=2205,71=1,72=13,74=-58/1,2,3;
 4/5=5,16=3,69=1/1;
 5/5=2,38=5,53=13/2;
 7//1,2,3,16;
 1/5=1,6=50,8=10,11=1,18=20,26=3/3(-5);
 2/9=110/2;
 6/7=2,8=2,9=2,10=2,19=2,28=1/1;
 99/9=1/99;
 Structure from the checkpoint file:  "da-2_1_hf.chk"
 -----------------------
 1d_2b_endo_2_reopt3.out
 -----------------------
 Charge =  0 Multiplicity = 1
 Redundant internal coordinates found in file.  (old form).
 C,0,-2.9016833296,1.5033206662,-0.7009324048
 C,0,1.087279844,-2.0842278734,2.8779900452
 C,0,-1.3813012556,3.3113350205,-2.6850410334
 C,0,2.4136021118,-2.2080110176,2.8270425179
 C,0,-1.5714296463,1.6000788,-0.8415570261
 C,0,-0.8519025695,2.4752368783,-1.7829009981
 H,0,-0.7425071972,3.9170415983,-3.3318683225
 H,0,-2.4621648,3.4208117878,-2.8164706423
 H,0,-3.5549534152,2.1194606559,-1.3319392847
 H,0,0.3652082868,-2.5956795023,3.5117555945
 H,0,3.067364731,-2.8518479872,3.4128390475
 O,0,1.8272920133,-0.6204521753,1.2475554651
 C,0,0.6858003118,-1.0630651211,1.8676780332
 C,0,2.920163531,-1.2727615598,1.7793908795
 O,0,-0.3952353809,-0.6513389786,1.5902418895
 O,0,4.0291082285,-1.064888362,1.4093657103
 C,0,-3.5897981681,0.6025128048,0.2758593925
 H,0,-4.2657714097,-0.0978501498,-0.2423888341
 H,0,-2.8661372197,0.0203425873,0.8630709576
 H,0,-4.2177043692,1.184248158,0.9712468755
 H,0,-0.943023192,0.9764614401,-0.1958970355
 H,0,0.2404928947,2.41907233,-1.7185408269
 Recover connectivity data from disk.

 GradGradGradGradGradGradGradGradGradGradGradGradGradGradGradGradGradGrad
 Berny optimization.
 Initialization pass.
 Force constant matrix read from checkpoint file:
 "da-2_1_hf.chk"
                           ----------------------------
                           !    Initial Parameters    !
                           ! (Angstroms and Degrees)  !
 --------------------------                            --------------------------
 ! Name  Definition              Value          Derivative Info.                !
 --------------------------------------------------------------------------------
 ! R1    R(1,5)                  1.3412         D2E/DX2 =    0.6286             !
 ! R2    R(1,9)                  1.0975         D2E/DX2 =    0.3892             !
 ! R3    R(1,17)                 1.4964         D2E/DX2 =    0.32               !
 ! R4    R(2,4)                  1.3331         D2E/DX2 =    0.5489             !
 ! R5    R(2,10)                 1.0884         D2E/DX2 =    0.4014             !
 ! R6    R(2,13)                 1.4915         D2E/DX2 =    0.3565             !
 ! R7    R(3,6)                  1.3391         D2E/DX2 =    0.6402             !
 ! R8    R(3,7)                  1.0924         D2E/DX2 =    0.3907             !
 ! R9    R(3,8)                  1.0943         D2E/DX2 =    0.4045             !
 ! R10   R(4,11)                 1.0886         D2E/DX2 =    0.4065             !
 ! R11   R(4,14)                 1.4929         D2E/DX2 =    0.3566             !
 ! R12   R(5,6)                  1.473          D2E/DX2 =    0.4101             !
 ! R13   R(5,21)                 1.0958         D2E/DX2 =    0.3849             !
 ! R14   R(6,22)                 1.0957         D2E/DX2 =    0.3852             !
 ! R15   R(8,11)                10.4272         D2E/DX2 =    0.0518             !
 ! R16   R(12,13)                1.3724         D2E/DX2 =    0.3925             !
 ! R17   R(12,14)                1.3794         D2E/DX2 =    0.3919             !
 ! R18   R(13,15)                1.1896         D2E/DX2 =    0.7822             !
 ! R19   R(14,16)                1.1874         D2E/DX2 =    0.7834             !
 ! R20   R(17,18)                1.1027         D2E/DX2 =    0.3627             !
 ! R21   R(17,19)                1.0988         D2E/DX2 =    0.3638             !
 ! R22   R(17,20)                1.1028         D2E/DX2 =    0.3634             !
 ! A1    A(5,1,9)              119.314          D2E/DX2 =    0.1086             !
 ! A2    A(5,1,17)             124.6107         D2E/DX2 =    0.142              !
 ! A3    A(9,1,17)             116.0749         D2E/DX2 =    0.1069             !
 ! A4    A(4,2,10)             129.694          D2E/DX2 =    0.0825             !
 ! A5    A(4,2,13)             107.788          D2E/DX2 =    0.1046             !
 ! A6    A(10,2,13)            122.5179         D2E/DX2 =    0.0868             !
 ! A7    A(6,3,7)              120.9257         D2E/DX2 =    0.1301             !
 ! A8    A(6,3,8)              122.2664         D2E/DX2 =    0.2384             !
 ! A9    A(7,3,8)              116.8074         D2E/DX2 =    0.1206             !
 ! A10   A(2,4,11)             129.1875         D2E/DX2 =    0.1024             !
 ! A11   A(2,4,14)             107.8327         D2E/DX2 =    0.1043             !
 ! A12   A(11,4,14)            122.9797         D2E/DX2 =    0.1051             !
 ! A13   A(1,5,6)              126.468          D2E/DX2 =    0.1743             !
 ! A14   A(1,5,21)             117.7741         D2E/DX2 =    0.1195             !
 ! A15   A(6,5,21)             115.7571         D2E/DX2 =    0.1188             !
 ! A16   A(3,6,5)              127.4723         D2E/DX2 =    0.242              !
 ! A17   A(3,6,22)             117.7563         D2E/DX2 =    0.1365             !
 ! A18   A(5,6,22)             114.7713         D2E/DX2 =    0.1336             !
 ! A19   A(3,8,11)              49.0263         D2E/DX2 =    0.2802             !
 ! A20   A(4,11,8)               5.3009         D2E/DX2 =    0.4877             !
 ! A21   A(13,12,14)           109.4057         D2E/DX2 =    0.1551             !
 ! A22   A(2,13,12)            107.6372         D2E/DX2 =    0.1212             !
 ! A23   A(2,13,15)            129.7575         D2E/DX2 =    0.1478             !
 ! A24   A(12,13,15)           122.6052         D2E/DX2 =    0.1645             !
 ! A25   A(4,14,12)            107.3363         D2E/DX2 =    0.121              !
 ! A26   A(4,14,16)            130.1838         D2E/DX2 =    0.1467             !
 ! A27   A(12,14,16)           122.4799         D2E/DX2 =    0.1617             !
 ! A28   A(1,17,18)            110.9435         D2E/DX2 =    0.1191             !
 ! A29   A(1,17,19)            111.4038         D2E/DX2 =    0.126              !
 ! A30   A(1,17,20)            110.8475         D2E/DX2 =    0.1228             !
 ! A31   A(18,17,19)           108.5639         D2E/DX2 =    0.0653             !
 ! A32   A(18,17,20)           106.3998         D2E/DX2 =    0.065              !
 ! A33   A(19,17,20)           108.5101         D2E/DX2 =    0.0653             !
 ! D1    D(9,1,5,6)              0.0892         D2E/DX2 =    0.0192             !
 ! D2    D(9,1,5,21)           179.7543         D2E/DX2 =    0.0174             !
 ! D3    D(17,1,5,6)          -179.6989         D2E/DX2 =    0.0266             !
 ! D4    D(17,1,5,21)           -0.0339         D2E/DX2 =    0.0163             !
 ! D5    D(5,1,17,18)         -121.4915         D2E/DX2 =    0.0183             !
 ! D6    D(5,1,17,19)           -0.4168         D2E/DX2 =    0.0192             !
 ! D7    D(5,1,17,20)          120.5236         D2E/DX2 =    0.0182             !
 ! D8    D(9,1,17,18)           58.7141         D2E/DX2 =    0.02               !
 ! D9    D(9,1,17,19)          179.7889         D2E/DX2 =    0.0197             !
 ! D10   D(9,1,17,20)          -59.2708         D2E/DX2 =    0.0194             !
 ! D11   D(10,2,4,11)           -0.0332         D2E/DX2 =    0.0116             !
 ! D12   D(10,2,4,14)         -179.9867         D2E/DX2 =    0.0113             !
 ! D13   D(13,2,4,11)          179.8513         D2E/DX2 =    0.0227             !
 ! D14   D(13,2,4,14)           -0.1021         D2E/DX2 =    0.0132             !
 ! D15   D(4,2,13,12)            0.1105         D2E/DX2 =    0.015              !
 ! D16   D(4,2,13,15)         -179.7773         D2E/DX2 =    0.0183             !
 ! D17   D(10,2,13,12)        -179.9949         D2E/DX2 =    0.012              !
 ! D18   D(10,2,13,15)           0.1173         D2E/DX2 =    0.0175             !
 ! D19   D(7,3,6,5)            179.8186         D2E/DX2 =    0.0605             !
 ! D20   D(7,3,6,22)            -0.1284         D2E/DX2 =    0.0291             !
 ! D21   D(8,3,6,5)             -0.462          D2E/DX2 =    0.0488             !
 ! D22   D(8,3,6,22)           179.591          D2E/DX2 =    0.0317             !
 ! D23   D(6,3,8,11)            -2.7795         D2E/DX2 =    0.1078             !
 ! D24   D(7,3,8,11)           176.9508         D2E/DX2 =    0.079              !
 ! D25   D(2,4,11,8)           163.0909         D2E/DX2 =    0.0148             !
 ! D26   D(14,4,11,8)          -16.9619         D2E/DX2 =    0.0053             !
 ! D27   D(2,4,14,12)            0.0622         D2E/DX2 =    0.0139             !
 ! D28   D(2,4,14,16)         -179.9311         D2E/DX2 =    0.0144             !
 ! D29   D(11,4,14,12)        -179.8948         D2E/DX2 =    0.0192             !
 ! D30   D(11,4,14,16)           0.112          D2E/DX2 =    0.0192             !
 ! D31   D(1,5,6,3)             -1.4253         D2E/DX2 =    0.0112             !
 ! D32   D(1,5,6,22)           178.5231         D2E/DX2 =    0.0165             !
 ! D33   D(21,5,6,3)           178.9038         D2E/DX2 =    0.0181             !
 ! D34   D(21,5,6,22)           -1.1479         D2E/DX2 =    0.0097             !
 ! D35   D(3,8,11,4)           156.6673         D2E/DX2 =    0.0488             !
 ! D36   D(14,12,13,2)          -0.07           D2E/DX2 =    0.0163             !
 ! D37   D(14,12,13,15)        179.8276         D2E/DX2 =    0.0173             !
 ! D38   D(13,12,14,4)           0.0094         D2E/DX2 =    0.0157             !
 ! D39   D(13,12,14,16)       -179.9967         D2E/DX2 =    0.0162             !
 --------------------------------------------------------------------------------
 Trust Radius=1.00D-01 FncErr=1.00D-07 GrdErr=1.00D-06 EigMax=2.50D+02 EigMin=1.00D-04
 Number of steps in this run=     50 maximum allowed number of steps=    132.
 Search for a saddle point of order  1.
 GradGradGradGradGradGradGradGradGradGradGradGradGradGradGradGradGradGrad

                          Input orientation:                          
 ---------------------------------------------------------------------
 Center     Atomic      Atomic             Coordinates (Angstroms)
 Number     Number       Type             X           Y           Z
 ---------------------------------------------------------------------
      1          6           0       -2.901683    1.503321   -0.700932
      2          6           0        1.087280   -2.084228    2.877990
      3          6           0       -1.381301    3.311335   -2.685041
      4          6           0        2.413602   -2.208011    2.827043
      5          6           0       -1.571430    1.600079   -0.841557
      6          6           0       -0.851903    2.475237   -1.782901
      7          1           0       -0.742507    3.917042   -3.331868
      8          1           0       -2.462165    3.420812   -2.816471
      9          1           0       -3.554953    2.119461   -1.331939
     10          1           0        0.365208   -2.595680    3.511756
     11          1           0        3.067365   -2.851848    3.412839
     12          8           0        1.827292   -0.620452    1.247555
     13          6           0        0.685800   -1.063065    1.867678
     14          6           0        2.920164   -1.272762    1.779391
     15          8           0       -0.395235   -0.651339    1.590242
     16          8           0        4.029108   -1.064888    1.409366
     17          6           0       -3.589798    0.602513    0.275859
     18          1           0       -4.265771   -0.097850   -0.242389
     19          1           0       -2.866137    0.020343    0.863071
     20          1           0       -4.217704    1.184248    0.971247
     21          1           0       -0.943023    0.976461   -0.195897
     22          1           0        0.240493    2.419072   -1.718541
 ---------------------------------------------------------------------
                    Distance matrix (angstroms):
                    1          2          3          4          5
     1  C    0.000000
     2  C    6.449110   0.000000
     3  C    3.084990   8.133468   0.000000
     4  C    7.380572   1.333060   8.674534   0.000000
     5  C    1.341161   5.871787   2.522495   6.621227   0.000000
     6  C    2.513340   6.802430   1.339097   7.338114   1.473007
     7  H    4.172519   8.827553   1.092394   9.241725   3.501011
     8  H    2.888849   8.679338   1.094315   9.343767   2.829976
     9  H    1.097524   7.546180   2.824219   8.464502   2.108222
    10  H    6.724665   1.088407   8.737471   2.194319   6.348723
    11  H    8.456958   2.189986   9.744721   1.088618   7.709601
    12  O    5.538070   2.312698   6.420229   2.314926   4.565792
    13  C    5.104325   1.491539   6.643458   2.283983   4.418979
    14  C    6.910321   2.285795   7.710233   1.492940   5.941127
    15  O    4.021731   2.430909   5.912119   3.441289   3.516527
    16  O    7.686672   3.442421   8.073910   2.434419   6.598085
    17  C    1.496355   5.988716   4.580623   7.102703   2.513477
    18  H    2.152846   6.506736   5.090114   7.647759   3.240593
    19  H    2.155596   4.911071   5.062062   6.057920   2.660374
    20  H    2.151721   6.516246   5.092948   7.676303   3.234493
    21  H    2.090213   4.789440   3.440866   5.526840   1.095751
    22  H    3.427448   6.490366   2.088174   6.840660   2.173227
                    6          7          8          9         10
     6  C    0.000000
     7  H    2.118978   0.000000
     8  H    2.134320   1.862552   0.000000
     9  H    2.763409   3.891127   2.256443   0.000000
    10  H    7.431618   9.511980   9.178162   7.814192   0.000000
    11  H    8.410363  10.287083  10.427188   9.543685   2.716074
    12  O    5.093627   6.940017   7.158740   6.567304   3.341529
    13  C    5.311388   7.340082   7.208057   6.192739   2.270391
    14  C    6.400461   8.153170   8.492410   7.944475   3.358422
    15  O    4.621917   6.724423   6.346158   5.118622   2.837420
    16  O    6.822560   8.370618   8.950744   8.670226   4.493053
    17  C    3.904057   5.666469   4.333229   2.210738   6.028394
    18  H    4.544057   6.170707   4.718037   2.570768   6.463646
    19  H    4.133378   6.106683   5.026471   3.114295   4.929574
    20  H    4.536585   6.169437   4.736131   2.572650   6.461047
    21  H    2.184768   4.303665   3.892306   3.069075   5.312095
    22  H    1.095730   2.411022   3.084362   3.826832   7.247019
                   11         12         13         14         15
    11  H    0.000000
    12  O    3.347441   0.000000
    13  C    3.355461   1.372393   0.000000
    14  C    2.276694   1.379393   2.245918   0.000000
    15  O    4.489287   2.249003   1.189591   3.378434   0.000000
    16  O    2.851680   2.252044   3.374576   1.187387   4.447309
    17  C    8.129641   5.637792   4.856828   6.939515   3.674912
    18  H    8.644078   6.294320   5.468280   7.556829   4.318094
    19  H    7.068044   4.752549   3.846982   5.999420   2.661821
    20  H    8.678921   6.314687   5.467940   7.592045   4.285301
    21  H    6.615296   3.508324   3.327323   4.887226   2.477922
    22  H    7.880664   4.533693   5.018421   5.748548   4.558467
                   16         17         18         19         20
    16  O    0.000000
    17  C    7.881167   0.000000
    18  H    8.512842   1.102737   0.000000
    19  H    7.001469   1.098829   1.787453   0.000000
    20  H    8.559234   1.102835   1.766069   1.786928   0.000000
    21  H    5.609462   2.714371   3.492415   2.394566   3.482662
    22  H    6.022905   4.684939   5.368458   4.697848   5.351193
                   21         22
    21  H    0.000000
    22  H    2.408377   0.000000
 Stoichiometry    C9H10O3
 Framework group  C1[X(C9H10O3)]
 Deg. of freedom    60
 Full point group                 C1      NOp   1
 Largest Abelian subgroup         C1      NOp   1
 Largest concise Abelian subgroup C1      NOp   1
                         Standard orientation:                         
 ---------------------------------------------------------------------
 Center     Atomic      Atomic             Coordinates (Angstroms)
 Number     Number       Type             X           Y           Z
 ---------------------------------------------------------------------
      1          6           0       -3.462880   -0.906416   -0.041437
      2          6           0        2.967927   -1.387568    0.023665
      3          6           0       -4.413561    2.028071    0.004945
      4          6           0        3.902831   -0.438557   -0.025141
      5          6           0       -2.688641    0.187525    0.009144
      6          6           0       -3.150154    1.585939    0.043677
      7          1           0       -4.635579    3.097087    0.040127
      8          1           0       -5.268334    1.348604   -0.067251
      9          1           0       -4.554215   -0.791849   -0.061969
     10          1           0        3.076853   -2.470331    0.043356
     11          1           0        4.986175   -0.541148   -0.055639
     12          8           0        1.854713    0.639568    0.016586
     13          6           0        1.636979   -0.714954    0.052977
     14          6           0        3.211314    0.884557   -0.031775
     15          8           0        0.546468   -1.187837    0.100877
     16          8           0        3.659878    1.983296   -0.069861
     17          6           0       -2.948402   -2.311285   -0.068599
     18          1           0       -3.295900   -2.840930   -0.971235
     19          1           0       -1.850034   -2.336543   -0.049252
     20          1           0       -3.327049   -2.884665    0.794018
     21          1           0       -1.602616    0.043791    0.032826
     22          1           0       -2.350255    2.331900    0.109475
 ---------------------------------------------------------------------
 Rotational constants (GHZ):           1.5096641           0.3270887           0.2694200
 Standard basis: def2SVP (5D, 7F)
 There are   230 symmetry adapted cartesian basis functions of A   symmetry.
 There are   218 symmetry adapted basis functions of A   symmetry.
   218 basis functions,   370 primitive gaussians,   230 cartesian basis functions
    44 alpha electrons       44 beta electrons
       nuclear repulsion energy       602.0916912142 Hartrees.
 NAtoms=   22 NActive=   22 NUniq=   22 SFac= 1.00D+00 NAtFMM=   60 NAOKFM=F Big=F
 Integral buffers will be    131072 words long.
 Raffenetti 2 integral format.
 Two-electron integral symmetry is turned on.
 Nuclear repulsion after empirical dispersion term =      602.0830453769 Hartrees.
 ------------------------------------------------------------------------------
 Polarizable Continuum Model (PCM)
 =================================
 Model                : PCM.
 Atomic radii         : UFF (Universal Force Field).
 Polarization charges : Total charges.
 Charge compensation  : None.
 Solution method      : On-the-fly selection.
 Cavity type          : Scaled VdW (van der Waals Surface) (Alpha=1.100).
 Cavity algorithm     : GePol (No added spheres)
                        Default sphere list used, NSphG=   22.
                        Lebedev-Laikov grids with approx.  5.0 points / Ang**2.
                        Smoothing algorithm: York/Karplus (Gamma=1.0000).
                        Polarization charges: spherical gaussians, with
                                              point-specific exponents (IZeta= 3).
                        Self-potential: point-specific (ISelfS= 7).
                        Self-field    : sphere-specific E.n sum rule (ISelfD= 2).
 1st derivatives      : Analytical E(r).r(x)/FMM algorithm (CHGder, D1EAlg=3).
                        Cavity 1st derivative terms included.
 Solvent              : Toluene, Eps=   2.374100 Eps(inf)=   2.238315
 ------------------------------------------------------------------------------
 One-electron integrals computed using PRISM.
   1 Symmetry operations used in ECPInt.
 ECPInt:  NShTT=    5253 NPrTT=   19101 LenC2=    4688 LenP2D=   12195.
 LDataN:  DoStor=T MaxTD1= 4 Len=   56
 NBasis=   218 RedAO= T EigKep=  7.27D-04  NBF=   218
 NBsUse=   218 1.00D-06 EigRej= -1.00D+00 NBFU=   218
 ExpMin= 1.22D-01 ExpMax= 2.27D+03 ExpMxC= 3.41D+02 IAcc=3 IRadAn=         5 AccDes= 0.00D+00
 Harris functional with IExCor= 4639 and IRadAn=       5 diagonalized for initial guess.
 HarFok:  IExCor= 4639 AccDes= 0.00D+00 IRadAn=         5 IDoV= 1 UseB2=F ITyADJ=14
 ICtDFT=  3500011 ScaDFX=  1.000000  1.000000  1.000000  1.000000
 FoFCou: FMM=F IPFlag=           0 FMFlag=      100000 FMFlg1=           0
         NFxFlg=           0 DoJE=T BraDBF=F KetDBF=T FulRan=T
         wScrn=  0.000000 ICntrl=       500 IOpCl=  0 I1Cent=   200000004 NGrid=           0
         NMat0=    1 NMatS0=      1 NMatT0=    0 NMatD0=    1 NMtDS0=    0 NMtDT0=    0
 Petite list used in FoFCou.
 Requested convergence on RMS density matrix=1.00D-08 within 128 cycles.
 Requested convergence on MAX density matrix=1.00D-06.
 Requested convergence on             energy=1.00D-06.
 No special actions if energy rises.
 Inv3:  Mode=1 IEnd=    12891987.
 Iteration    1 A*A^-1 deviation from unit magnitude is 3.00D-15 for   1634.
 Iteration    1 A*A^-1 deviation from orthogonality  is 2.15D-15 for   2028    504.
 Iteration    1 A^-1*A deviation from unit magnitude is 3.00D-15 for   1634.
 Iteration    1 A^-1*A deviation from orthogonality  is 2.05D-15 for   1467    119.
 Error on total polarization charges =  0.00588
 SCF Done:  E(RwB97XD) =  -573.991729174     A.U. after   14 cycles
            NFock= 14  Conv=0.40D-08     -V/T= 2.0096

 **********************************************************************

            Population analysis using the SCF Density.

 **********************************************************************

 Orbital symmetries:
       Occupied  (A) (A) (A) (A) (A) (A) (A) (A) (A) (A) (A) (A)
                 (A) (A) (A) (A) (A) (A) (A) (A) (A) (A) (A) (A)
                 (A) (A) (A) (A) (A) (A) (A) (A) (A) (A) (A) (A)
                 (A) (A) (A) (A) (A) (A) (A) (A)
       Virtual   (A) (A) (A) (A) (A) (A) (A) (A) (A) (A) (A) (A)
                 (A) (A) (A) (A) (A) (A) (A) (A) (A) (A) (A) (A)
                 (A) (A) (A) (A) (A) (A) (A) (A) (A) (A) (A) (A)
                 (A) (A) (A) (A) (A) (A) (A) (A) (A) (A) (A) (A)
                 (A) (A) (A) (A) (A) (A) (A) (A) (A) (A) (A) (A)
                 (A) (A) (A) (A) (A) (A) (A) (A) (A) (A) (A) (A)
                 (A) (A) (A) (A) (A) (A) (A) (A) (A) (A) (A) (A)
                 (A) (A) (A) (A) (A) (A) (A) (A) (A) (A) (A) (A)
                 (A) (A) (A) (A) (A) (A) (A) (A) (A) (A) (A) (A)
                 (A) (A) (A) (A) (A) (A) (A) (A) (A) (A) (A) (A)
                 (A) (A) (A) (A) (A) (A) (A) (A) (A) (A) (A) (A)
                 (A) (A) (A) (A) (A) (A) (A) (A) (A) (A) (A) (A)
                 (A) (A) (A) (A) (A) (A) (A) (A) (A) (A) (A) (A)
                 (A) (A) (A) (A) (A) (A) (A) (A) (A) (A) (A) (A)
                 (A) (A) (A) (A) (A) (A)
 The electronic state is 1-A.
 Alpha  occ. eigenvalues --  -19.34353 -19.29347 -19.29139 -10.47183 -10.47073
 Alpha  occ. eigenvalues --  -10.36574 -10.36495 -10.29713 -10.29518 -10.28809
 Alpha  occ. eigenvalues --  -10.28788 -10.28599  -1.26418  -1.19263  -1.15429
 Alpha  occ. eigenvalues --   -0.95473  -0.89353  -0.83949  -0.80706  -0.76088
 Alpha  occ. eigenvalues --   -0.74611  -0.69880  -0.67691  -0.61692  -0.61653
 Alpha  occ. eigenvalues --   -0.60358  -0.57982  -0.56685  -0.55951  -0.54463
 Alpha  occ. eigenvalues --   -0.52772  -0.52705  -0.51553  -0.49022  -0.48040
 Alpha  occ. eigenvalues --   -0.46158  -0.44190  -0.42723  -0.41950  -0.41504
 Alpha  occ. eigenvalues --   -0.41415  -0.39384  -0.39213  -0.29402
 Alpha virt. eigenvalues --   -0.05053   0.04372   0.10089   0.12655   0.15129
 Alpha virt. eigenvalues --    0.16320   0.16898   0.17356   0.17626   0.18721
 Alpha virt. eigenvalues --    0.20563   0.22603   0.23474   0.23649   0.25494
 Alpha virt. eigenvalues --    0.26762   0.27866   0.28499   0.32652   0.33610
 Alpha virt. eigenvalues --    0.35172   0.38980   0.40670   0.42836   0.43392
 Alpha virt. eigenvalues --    0.45329   0.47139   0.48454   0.50054   0.50181
 Alpha virt. eigenvalues --    0.51327   0.52230   0.54153   0.54765   0.57046
 Alpha virt. eigenvalues --    0.57324   0.58094   0.59396   0.60482   0.60864
 Alpha virt. eigenvalues --    0.62497   0.66590   0.66945   0.68256   0.69595
 Alpha virt. eigenvalues --    0.70077   0.70507   0.70858   0.71801   0.72008
 Alpha virt. eigenvalues --    0.73220   0.74324   0.74456   0.75650   0.77034
 Alpha virt. eigenvalues --    0.77277   0.78733   0.79325   0.79406   0.80878
 Alpha virt. eigenvalues --    0.81828   0.85407   0.87194   0.89890   0.91472
 Alpha virt. eigenvalues --    0.95327   0.96562   1.02394   1.03493   1.03814
 Alpha virt. eigenvalues --    1.10576   1.11051   1.14284   1.15104   1.20293
 Alpha virt. eigenvalues --    1.22053   1.22096   1.25374   1.26057   1.26333
 Alpha virt. eigenvalues --    1.28382   1.33348   1.34081   1.35329   1.36051
 Alpha virt. eigenvalues --    1.38095   1.41007   1.43324   1.46589   1.47509
 Alpha virt. eigenvalues --    1.53491   1.58916   1.61625   1.62411   1.63452
 Alpha virt. eigenvalues --    1.63972   1.67057   1.67705   1.69447   1.73325
 Alpha virt. eigenvalues --    1.76739   1.77224   1.78322   1.79156   1.81358
 Alpha virt. eigenvalues --    1.82898   1.84010   1.86247   1.86907   1.87993
 Alpha virt. eigenvalues --    1.90144   1.90749   1.92195   1.94044   1.94227
 Alpha virt. eigenvalues --    1.96028   1.98885   2.00485   2.01065   2.02082
 Alpha virt. eigenvalues --    2.07892   2.09487   2.11186   2.12144   2.14007
 Alpha virt. eigenvalues --    2.15425   2.17521   2.20669   2.24548   2.27124
 Alpha virt. eigenvalues --    2.30120   2.31113   2.34212   2.37481   2.40092
 Alpha virt. eigenvalues --    2.44280   2.44764   2.45451   2.51017   2.52006
 Alpha virt. eigenvalues --    2.54337   2.61686   2.62210   2.63105   2.67580
 Alpha virt. eigenvalues --    2.69291   2.72016   2.72631   2.73676   2.75823
 Alpha virt. eigenvalues --    2.77537   2.79187   2.83821   2.84964   2.86468
 Alpha virt. eigenvalues --    2.89966   2.97256   3.00314   3.02274   3.02403
 Alpha virt. eigenvalues --    3.08426   3.08557   3.19338   3.23764   3.25048
 Alpha virt. eigenvalues --    3.27458   3.28755   3.33233   3.41100   3.51171
 Alpha virt. eigenvalues --    3.52985   3.72026   3.77281   3.78087
          Condensed to atoms (all electrons):
               1          2          3          4          5          6
     1  C    4.908224  -0.000001  -0.027370   0.000000   0.601974  -0.041853
     2  C   -0.000001   5.218835  -0.000000   0.341713  -0.000065   0.000001
     3  C   -0.027370  -0.000000   4.800129   0.000000  -0.050564   0.638200
     4  C    0.000000   0.341713   0.000000   5.287779   0.000001  -0.000000
     5  C    0.601974  -0.000065  -0.050564   0.000001   4.898260   0.340608
     6  C   -0.041853   0.000001   0.638200  -0.000000   0.340608   4.772876
     7  H   -0.000218   0.000000   0.388716  -0.000000   0.009391  -0.013960
     8  H    0.009679   0.000000   0.384756  -0.000000  -0.028285  -0.005700
     9  H    0.393778  -0.000000   0.008495   0.000000  -0.021156  -0.023798
    10  H    0.000000   0.426561  -0.000000  -0.042732   0.000001  -0.000000
    11  H   -0.000000  -0.043036  -0.000000   0.426758  -0.000000   0.000000
    12  O    0.000007  -0.098945   0.000000  -0.112409  -0.000084  -0.000013
    13  C    0.000007   0.269397  -0.000000   0.002733  -0.000266   0.000013
    14  C    0.000000   0.000408  -0.000000   0.242267   0.000002  -0.000000
    15  O    0.000169  -0.062146  -0.000001   0.002334  -0.007718   0.000091
    16  O    0.000000   0.003474  -0.000000  -0.073810   0.000000  -0.000000
    17  C    0.389374   0.000007   0.000054  -0.000000  -0.047921   0.009364
    18  H   -0.018458   0.000000   0.000039   0.000000   0.001098  -0.000329
    19  H   -0.020695  -0.000116  -0.000005   0.000002  -0.011673   0.000462
    20  H   -0.018354   0.000000   0.000043   0.000000   0.000754  -0.000333
    21  H   -0.058436   0.000619   0.010460  -0.000016   0.410020  -0.040875
    22  H    0.012139   0.000000  -0.057274   0.000000  -0.045639   0.417926
               7          8          9         10         11         12
     1  C   -0.000218   0.009679   0.393778   0.000000  -0.000000   0.000007
     2  C    0.000000   0.000000  -0.000000   0.426561  -0.043036  -0.098945
     3  C    0.388716   0.384756   0.008495  -0.000000  -0.000000   0.000000
     4  C   -0.000000  -0.000000   0.000000  -0.042732   0.426758  -0.112409
     5  C    0.009391  -0.028285  -0.021156   0.000001  -0.000000  -0.000084
     6  C   -0.013960  -0.005700  -0.023798  -0.000000   0.000000  -0.000013
     7  H    0.620732  -0.042711  -0.000098   0.000000   0.000000  -0.000000
     8  H   -0.042711   0.630391   0.001472   0.000000   0.000000  -0.000000
     9  H   -0.000098   0.001472   0.656117  -0.000000  -0.000000   0.000000
    10  H    0.000000   0.000000  -0.000000   0.552202  -0.005220   0.002803
    11  H    0.000000   0.000000  -0.000000  -0.005220   0.550718   0.002712
    12  O   -0.000000  -0.000000   0.000000   0.002803   0.002712   7.998350
    13  C   -0.000000   0.000000  -0.000000  -0.032551   0.008967   0.309003
    14  C   -0.000000   0.000000   0.000000   0.008885  -0.031674   0.310592
    15  O    0.000000   0.000000  -0.000004   0.001824  -0.000039  -0.066190
    16  O   -0.000000  -0.000000   0.000000  -0.000043   0.001701  -0.065967
    17  C   -0.000005   0.000096  -0.046020  -0.000003   0.000000  -0.000005
    18  H   -0.000000   0.000001  -0.003369   0.000000   0.000000   0.000000
    19  H    0.000001   0.000000   0.006001   0.000027  -0.000000   0.000054
    20  H   -0.000000   0.000004  -0.003250  -0.000000   0.000000   0.000000
    21  H   -0.000189  -0.000140   0.007965  -0.000016   0.000000   0.000440
    22  H   -0.014465   0.008038  -0.000035   0.000000  -0.000000   0.000029
              13         14         15         16         17         18
     1  C    0.000007   0.000000   0.000169   0.000000   0.389374  -0.018458
     2  C    0.269397   0.000408  -0.062146   0.003474   0.000007   0.000000
     3  C   -0.000000  -0.000000  -0.000001  -0.000000   0.000054   0.000039
     4  C    0.002733   0.242267   0.002334  -0.073810  -0.000000   0.000000
     5  C   -0.000266   0.000002  -0.007718   0.000000  -0.047921   0.001098
     6  C    0.000013  -0.000000   0.000091  -0.000000   0.009364  -0.000329
     7  H   -0.000000  -0.000000   0.000000  -0.000000  -0.000005  -0.000000
     8  H    0.000000   0.000000   0.000000  -0.000000   0.000096   0.000001
     9  H   -0.000000   0.000000  -0.000004   0.000000  -0.046020  -0.003369
    10  H   -0.032551   0.008885   0.001824  -0.000043  -0.000003   0.000000
    11  H    0.008967  -0.031674  -0.000039   0.001701   0.000000   0.000000
    12  O    0.309003   0.310592  -0.066190  -0.065967  -0.000005   0.000000
    13  C    4.527290  -0.085576   0.706442   0.000025   0.000037  -0.000003
    14  C   -0.085576   4.504036   0.000507   0.754307  -0.000000  -0.000000
    15  O    0.706442   0.000507   7.548865  -0.000015  -0.003975   0.000023
    16  O    0.000025   0.754307  -0.000015   7.540444  -0.000000  -0.000000
    17  C    0.000037  -0.000000  -0.003975  -0.000000   4.572712   0.382230
    18  H   -0.000003  -0.000000   0.000023  -0.000000   0.382230   0.635489
    19  H   -0.000005   0.000002   0.013714   0.000000   0.395249  -0.019689
    20  H   -0.000003  -0.000000   0.000022  -0.000000   0.382527  -0.023394
    21  H    0.000277  -0.000021   0.023748  -0.000002  -0.016484   0.000430
    22  H    0.000016   0.000002  -0.000021   0.000000  -0.000221   0.000005
              19         20         21         22
     1  C   -0.020695  -0.018354  -0.058436   0.012139
     2  C   -0.000116   0.000000   0.000619   0.000000
     3  C   -0.000005   0.000043   0.010460  -0.057274
     4  C    0.000002   0.000000  -0.000016   0.000000
     5  C   -0.011673   0.000754   0.410020  -0.045639
     6  C    0.000462  -0.000333  -0.040875   0.417926
     7  H    0.000001  -0.000000  -0.000189  -0.014465
     8  H    0.000000   0.000004  -0.000140   0.008038
     9  H    0.006001  -0.003250   0.007965  -0.000035
    10  H    0.000027  -0.000000  -0.000016   0.000000
    11  H   -0.000000   0.000000   0.000000  -0.000000
    12  O    0.000054   0.000000   0.000440   0.000029
    13  C   -0.000005  -0.000003   0.000277   0.000016
    14  C    0.000002  -0.000000  -0.000021   0.000002
    15  O    0.013714   0.000022   0.023748  -0.000021
    16  O    0.000000  -0.000000  -0.000002   0.000000
    17  C    0.395249   0.382527  -0.016484  -0.000221
    18  H   -0.019689  -0.023394   0.000430   0.000005
    19  H    0.605936  -0.019530   0.004489   0.000000
    20  H   -0.019530   0.634541   0.000443   0.000006
    21  H    0.004489   0.000443   0.652282  -0.012097
    22  H    0.000000   0.000006  -0.012097   0.660339
 Mulliken charges:
               1
     1  C   -0.129965
     2  C   -0.056708
     3  C   -0.095678
     4  C   -0.074621
     5  C   -0.048739
     6  C   -0.052678
     7  H    0.052807
     8  H    0.042399
     9  H    0.023904
    10  H    0.088261
    11  H    0.089111
    12  O   -0.280376
    13  C    0.294198
    14  C    0.296263
    15  O   -0.157630
    16  O   -0.160114
    17  C   -0.017017
    18  H    0.045928
    19  H    0.045777
    20  H    0.046525
    21  H    0.017104
    22  H    0.031251
 Sum of Mulliken charges =  -0.00000
 Mulliken charges with hydrogens summed into heavy atoms:
               1
     1  C   -0.106062
     2  C    0.031553
     3  C   -0.000472
     4  C    0.014490
     5  C   -0.031636
     6  C   -0.021427
    12  O   -0.280376
    13  C    0.294198
    14  C    0.296263
    15  O   -0.157630
    16  O   -0.160114
    17  C    0.121213
 Electronic spatial extent (au):  <R**2>=           3832.8895
 Charge=             -0.0000 electrons
 Dipole moment (field-independent basis, Debye):
    X=              4.0142    Y=             -3.7835    Z=             -0.0363  Tot=              5.5163
 Quadrupole moment (field-independent basis, Debye-Ang):
   XX=            -56.1562   YY=            -71.0989   ZZ=            -71.6254
   XY=            -11.7301   XZ=              0.4345   YZ=              0.4657
 Traceless Quadrupole moment (field-independent basis, Debye-Ang):
   XX=             10.1373   YY=             -4.8054   ZZ=             -5.3319
   XY=            -11.7301   XZ=              0.4345   YZ=              0.4657
 Octapole moment (field-independent basis, Debye-Ang**2):
  XXX=             69.6765  YYY=            -14.1207  ZZZ=              0.0988  XYY=             -8.3152
  XXY=            -58.1944  XXZ=             -0.8209  XZZ=             19.2485  YZZ=             -0.9613
  YYZ=              0.9333  XYZ=              0.1440
 Hexadecapole moment (field-independent basis, Debye-Ang**3):
 XXXX=          -3726.7916 YYYY=           -928.0541 ZZZZ=            -77.8360 XXXY=           -132.2166
 XXXZ=              7.8285 YYYX=            -57.6989 YYYZ=              1.3167 ZZZX=             -0.0914
 ZZZY=             -1.0510 XXYY=           -858.3387 XXZZ=           -738.0681 YYZZ=           -175.5147
 XXYZ=              3.3821 YYXZ=              1.0194 ZZXY=             31.2570
 N-N= 6.020830453769D+02 E-N=-2.541476744953D+03  KE= 5.685517535045D+02
   1 Symmetry operations used in ECPInt.
 ECPInt:  NShTT=    5253 NPrTT=   19101 LenC2=    4688 LenP2D=   12195.
 LDataN:  DoStor=T MaxTD1= 5 Len=  102
 D1PCM: PCM CHGder 1st derivatives, ID1Alg=3 FixD1E=F DoIter=F DoCFld=F I1PDM=0.
 Calling FoFJK, ICntrl=      2127 FMM=F ISym2X=0 I1Cent= 0 IOpClX= 0 NMat=1 NMatS=1 NMatT=0.
 ***** Axes restored to original set *****
 -------------------------------------------------------------------
 Center     Atomic                   Forces (Hartrees/Bohr)
 Number     Number              X              Y              Z
 -------------------------------------------------------------------
      1        6           0.000013467    0.000132463   -0.000075939
      2        6           0.000226196   -0.000080857    0.000119312
      3        6          -0.000001030   -0.000367546   -0.000112142
      4        6          -0.000927335   -0.000369314    0.000535235
      5        6           0.000097150   -0.000051032    0.000076709
      6        6          -0.000073753    0.000087346   -0.000004789
      7        1          -0.000035994    0.000021386   -0.000024605
      8        1           0.000158577    0.000268758   -0.000048234
      9        1          -0.000055633    0.000005902    0.000072864
     10        1          -0.000008380    0.000013556   -0.000008541
     11        1           0.000585085    0.000322560   -0.000524707
     12        8          -0.000033392    0.000047652   -0.000055851
     13        6           0.000247348    0.000073286    0.000126723
     14        6          -0.000165024   -0.000089340    0.000018060
     15        8          -0.000137595   -0.000137027    0.000000573
     16        8           0.000079462    0.000033977   -0.000030533
     17        6          -0.000043187    0.000012153   -0.000101874
     18        1           0.000024632   -0.000046320    0.000021540
     19        1           0.000099073   -0.000027980    0.000114392
     20        1           0.000008976   -0.000084925    0.000033285
     21        1          -0.000054913    0.000174034   -0.000191286
     22        1          -0.000003733    0.000061270    0.000059807
 -------------------------------------------------------------------
 Cartesian Forces:  Max     0.000927335 RMS     0.000201703

 GradGradGradGradGradGradGradGradGradGradGradGradGradGradGradGradGradGrad
 Berny optimization.
 FormGI is forming the generalized inverse of G from B-inverse, IUseBI=4.
 Internal  Forces:  Max     0.003139961 RMS     0.000421841
 Search for a saddle point.
 Step number   1 out of a maximum of   50
 All quantities printed in internal units (Hartrees-Bohrs-Radians)
 Swapping is turned off.
 Second derivative matrix not updated -- first step.
 ITU=  0
     Eigenvalues ---   -0.00367  -0.00121   0.00187   0.00526   0.01323
     Eigenvalues ---    0.01558   0.01708   0.02050   0.02278   0.02320
     Eigenvalues ---    0.02836   0.03504   0.03625   0.04307   0.04699
     Eigenvalues ---    0.05781   0.06790   0.06820   0.07023   0.07398
     Eigenvalues ---    0.11096   0.11798   0.12662   0.12849   0.14050
     Eigenvalues ---    0.14693   0.15056   0.15310   0.16937   0.17186
     Eigenvalues ---    0.19160   0.20566   0.21387   0.22355   0.25437
     Eigenvalues ---    0.27606   0.32083   0.33519   0.34396   0.36007
     Eigenvalues ---    0.36200   0.37270   0.38480   0.38601   0.38972
     Eigenvalues ---    0.39046   0.39505   0.39989   0.40483   0.42471
     Eigenvalues ---    0.42961   0.43327   0.46314   0.57429   0.62001
     Eigenvalues ---    0.63830   0.70437   0.79788   0.82733   0.96792
 Eigenvectors required to have negative eigenvalues:
                          D31       D32       D33       D34       D35
   1                   -0.41650  -0.40410  -0.38015  -0.36774   0.32502
                          D24       D23       D26       A20       R15
   1                   -0.22395  -0.21541   0.19619   0.19272  -0.17646
 RFO step:  Lambda0=1.074171708D-04 Lambda=-1.29301491D-03.
 Linear search not attempted -- option 19 set.
 Maximum step size (   0.100) exceeded in Quadratic search.
    -- Step size scaled by   0.715
 Iteration  1 RMS(Cart)=  0.10464847 RMS(Int)=  0.00323202
 Iteration  2 RMS(Cart)=  0.00533429 RMS(Int)=  0.00001382
 Iteration  3 RMS(Cart)=  0.00001804 RMS(Int)=  0.00000464
 Iteration  4 RMS(Cart)=  0.00000000 RMS(Int)=  0.00000464
 Variable       Old X    -DE/DX   Delta X   Delta X   Delta X     New X
                                 (Linear)    (Quad)   (Total)
    R1        2.53443  -0.00004   0.00000   0.00041   0.00041   2.53484
    R2        2.07402  -0.00001   0.00000  -0.00002  -0.00002   2.07400
    R3        2.82770   0.00009   0.00000   0.00015   0.00015   2.82785
    R4        2.51912  -0.00033   0.00000  -0.00074  -0.00074   2.51837
    R5        2.05679  -0.00001   0.00000  -0.00011  -0.00011   2.05669
    R6        2.81860  -0.00014   0.00000  -0.00117  -0.00117   2.81743
    R7        2.53053  -0.00015   0.00000  -0.00019  -0.00019   2.53033
    R8        2.06432   0.00000   0.00000  -0.00006  -0.00006   2.06427
    R9        2.06796  -0.00004   0.00000  -0.00052  -0.00052   2.06744
   R10        2.05719  -0.00025   0.00000  -0.00183  -0.00183   2.05536
   R11        2.82125  -0.00001   0.00000  -0.00041  -0.00041   2.82083
   R12        2.78358  -0.00014   0.00000   0.00007   0.00007   2.78365
   R13        2.07067  -0.00024   0.00000  -0.00072  -0.00072   2.06995
   R14        2.07063  -0.00000   0.00000  -0.00006  -0.00006   2.07057
   R15       19.70453   0.00015   0.00000  -0.09129  -0.09129  19.61324
   R16        2.59345   0.00001   0.00000  -0.00021  -0.00021   2.59324
   R17        2.60667   0.00006   0.00000   0.00039   0.00039   2.60707
   R18        2.24800   0.00008   0.00000  -0.00039  -0.00039   2.24761
   R19        2.24384   0.00009   0.00000   0.00006   0.00006   2.24389
   R20        2.08387   0.00001   0.00000   0.00034   0.00034   2.08422
   R21        2.07649   0.00014   0.00000  -0.00049  -0.00049   2.07600
   R22        2.08406  -0.00003   0.00000  -0.00034  -0.00034   2.08372
    A1        2.08242   0.00031   0.00000  -0.00008  -0.00008   2.08234
    A2        2.17487  -0.00046   0.00000   0.00076   0.00076   2.17563
    A3        2.02589   0.00015   0.00000  -0.00067  -0.00067   2.02522
    A4        2.26359   0.00000   0.00000   0.00012   0.00011   2.26370
    A5        1.88126   0.00003   0.00000  -0.00047  -0.00047   1.88079
    A6        2.13834  -0.00003   0.00000   0.00034   0.00034   2.13868
    A7        2.11055  -0.00043   0.00000   0.00141   0.00141   2.11196
    A8        2.13395   0.00095   0.00000  -0.00182  -0.00183   2.13212
    A9        2.03867  -0.00053   0.00000   0.00043   0.00043   2.03910
   A10        2.25475  -0.00054   0.00000  -0.00489  -0.00490   2.24985
   A11        1.88204   0.00007   0.00000   0.00075   0.00075   1.88279
   A12        2.14640   0.00047   0.00000   0.00413   0.00412   2.15052
   A13        2.20728   0.00068   0.00000  -0.00058  -0.00058   2.20670
   A14        2.05555  -0.00024   0.00000   0.00027   0.00027   2.05581
   A15        2.02034  -0.00045   0.00000   0.00033   0.00033   2.02067
   A16        2.22481   0.00079   0.00000  -0.00066  -0.00066   2.22415
   A17        2.05524  -0.00039   0.00000   0.00033   0.00033   2.05556
   A18        2.00314  -0.00040   0.00000   0.00033   0.00032   2.00346
   A19        0.85567   0.00155   0.00000   0.01438   0.01438   0.87005
   A20        0.09252   0.00314   0.00000   0.03129   0.03129   0.12381
   A21        1.90949  -0.00011   0.00000  -0.00041  -0.00041   1.90908
   A22        1.87862   0.00006   0.00000   0.00067   0.00067   1.87930
   A23        2.26470  -0.00019   0.00000  -0.00086  -0.00086   2.26384
   A24        2.13986   0.00013   0.00000   0.00018   0.00018   2.14004
   A25        1.87337  -0.00004   0.00000  -0.00055  -0.00055   1.87282
   A26        2.27214   0.00004   0.00000   0.00056   0.00056   2.27269
   A27        2.13768   0.00000   0.00000  -0.00000  -0.00001   2.13767
   A28        1.93633   0.00004   0.00000  -0.00038  -0.00038   1.93595
   A29        1.94436  -0.00005   0.00000   0.00004   0.00004   1.94441
   A30        1.93465   0.00013   0.00000   0.00041   0.00041   1.93507
   A31        1.89480  -0.00001   0.00000  -0.00010  -0.00010   1.89470
   A32        1.85703  -0.00003   0.00000  -0.00008  -0.00008   1.85695
   A33        1.89386  -0.00007   0.00000   0.00010   0.00010   1.89396
    D1        0.00156  -0.00007   0.00000   0.00901   0.00901   0.01057
    D2        3.13730  -0.00000   0.00000   0.01305   0.01305  -3.13283
    D3       -3.13634  -0.00012   0.00000   0.00322   0.00322  -3.13312
    D4       -0.00059  -0.00005   0.00000   0.00725   0.00725   0.00666
    D5       -2.12043   0.00008   0.00000   0.03415   0.03415  -2.08628
    D6       -0.00727   0.00006   0.00000   0.03379   0.03379   0.02651
    D7        2.10353   0.00002   0.00000   0.03423   0.03423   2.13776
    D8        1.02475   0.00004   0.00000   0.02852   0.02852   1.05327
    D9        3.13791   0.00001   0.00000   0.02816   0.02816  -3.11712
   D10       -1.03447  -0.00003   0.00000   0.02860   0.02860  -1.00587
   D11       -0.00058  -0.00001   0.00000  -0.00447  -0.00445  -0.00503
   D12       -3.14136  -0.00002   0.00000   0.00253   0.00252  -3.13884
   D13        3.13900   0.00001   0.00000  -0.00879  -0.00877   3.13022
   D14       -0.00178   0.00001   0.00000  -0.00180  -0.00180  -0.00358
   D15        0.00193  -0.00000   0.00000   0.00227   0.00227   0.00420
   D16       -3.13771  -0.00008   0.00000   0.00333   0.00333  -3.13437
   D17       -3.14150   0.00002   0.00000  -0.00168  -0.00167   3.14001
   D18        0.00205  -0.00006   0.00000  -0.00061  -0.00061   0.00144
   D19        3.13843   0.00002   0.00000   0.00673   0.00673  -3.13803
   D20       -0.00224   0.00001   0.00000   0.01034   0.01034   0.00810
   D21       -0.00806   0.00019   0.00000   0.01263   0.01263   0.00457
   D22        3.13445   0.00018   0.00000   0.01624   0.01624  -3.13249
   D23       -0.04851  -0.00013   0.00000   0.01683   0.01683  -0.03168
   D24        3.08837   0.00003   0.00000   0.02250   0.02250   3.11087
   D25        2.84647   0.00005   0.00000   0.05294   0.05294   2.89942
   D26       -0.29604   0.00006   0.00000   0.04500   0.04500  -0.25104
   D27        0.00108  -0.00001   0.00000   0.00077   0.00076   0.00185
   D28       -3.14039  -0.00001   0.00000  -0.00084  -0.00085  -3.14124
   D29       -3.13976  -0.00001   0.00000   0.00724   0.00726  -3.13250
   D30        0.00195  -0.00001   0.00000   0.00563   0.00565   0.00760
   D31       -0.02488   0.00004   0.00000   0.08966   0.08966   0.06479
   D32        3.11582   0.00005   0.00000   0.08615   0.08615  -3.08122
   D33        3.12246  -0.00004   0.00000   0.08570   0.08570  -3.07503
   D34       -0.02003  -0.00002   0.00000   0.08218   0.08218   0.06215
   D35        2.73436  -0.00002   0.00000   0.00135   0.00135   2.73571
   D36       -0.00122  -0.00000   0.00000  -0.00177  -0.00177  -0.00300
   D37        3.13858   0.00007   0.00000  -0.00274  -0.00274   3.13584
   D38        0.00016   0.00001   0.00000   0.00070   0.00071   0.00087
   D39       -3.14154   0.00001   0.00000   0.00216   0.00217  -3.13937
         Item               Value     Threshold  Converged?
 Maximum Force            0.003140     0.000450     NO 
 RMS     Force            0.000422     0.000300     NO 
 Maximum Displacement     0.367675     0.001800     NO 
 RMS     Displacement     0.107663     0.001200     NO 
 Predicted change in Energy=-1.205315D-04
 GradGradGradGradGradGradGradGradGradGradGradGradGradGradGradGradGradGrad

                          Input orientation:                          
 ---------------------------------------------------------------------
 Center     Atomic      Atomic             Coordinates (Angstroms)
 Number     Number       Type             X           Y           Z
 ---------------------------------------------------------------------
      1          6           0       -2.856340    1.453348   -0.730290
      2          6           0        1.073614   -2.040309    2.949505
      3          6           0       -1.379642    3.355661   -2.657539
      4          6           0        2.385811   -2.207725    2.787916
      5          6           0       -1.529209    1.616263   -0.837441
      6          6           0       -0.830208    2.503134   -1.783338
      7          1           0       -0.756993    3.965092   -3.316446
      8          1           0       -2.462912    3.478678   -2.748739
      9          1           0       -3.522009    2.010923   -1.401507
     10          1           0        0.393804   -2.515038    3.654487
     11          1           0        3.063940   -2.858528    3.335249
     12          8           0        1.715678   -0.630286    1.232525
     13          6           0        0.619356   -1.023577    1.958168
     14          6           0        2.829638   -1.308845    1.681911
     15          8           0       -0.467726   -0.579755    1.768678
     16          8           0        3.908678   -1.143193    1.214800
     17          6           0       -3.525604    0.546956    0.254525
     18          1           0       -4.121179   -0.224495   -0.261793
     19          1           0       -2.792333    0.047258    0.902191
     20          1           0       -4.229095    1.109171    0.890814
     21          1           0       -0.887825    1.041302   -0.160774
     22          1           0        0.263255    2.443766   -1.746403
 ---------------------------------------------------------------------
                    Distance matrix (angstroms):
                    1          2          3          4          5
     1  C    0.000000
     2  C    6.418027   0.000000
     3  C    3.084432   8.159283   0.000000
     4  C    7.298039   1.332667   8.647709   0.000000
     5  C    1.341380   5.872492   2.522030   6.564562   0.000000
     6  C    2.513200   6.831341   1.338995   7.309674   1.473046
     7  H    4.171848   8.870068   1.092362   9.232774   3.501254
     8  H    2.886327   8.685403   1.094041   9.300529   2.827270
     9  H    1.097514   7.514222   2.824123   8.381562   2.108359
    10  H    6.748169   1.088351   8.800675   2.193964   6.398674
    11  H    8.376789   2.186248   9.709535   1.087648   7.650628
    12  O    5.394211   2.312668   6.371921   2.314440   4.456571
    13  C    5.044148   1.490920   6.669218   2.282773   4.404601
    14  C    6.766001   2.285926   7.635868   1.492721   5.822623
    15  O    4.010464   2.429670   5.992536   3.439739   3.569467
    16  O    7.502724   3.442616   7.949907   2.434552   6.434043
    17  C    1.496436   5.925341   4.579749   6.996511   2.514240
    18  H    2.152781   6.371459   5.106187   7.454853   3.230801
    19  H    2.155500   4.847161   5.060920   5.954332   2.661500
    20  H    2.151951   6.502012   5.075127   7.639226   3.245519
    21  H    2.090259   4.797645   3.439764   5.474270   1.095368
    22  H    3.427140   6.543329   2.088260   6.833861   2.173453
                    6          7          8          9         10
     6  C    0.000000
     7  H    2.119693   0.000000
     8  H    2.132934   1.862538   0.000000
     9  H    2.762944   3.889869   2.256330   0.000000
    10  H    7.500013   9.586987   9.224248   7.834601   0.000000
    11  H    8.373276  10.266760  10.378882   9.461666   2.711001
    12  O    5.039373   6.922769   7.084819   6.430199   3.341487
    13  C    5.342078   7.389364   7.205946   6.135675   2.269984
    14  C    6.319304   8.103203   8.400126   7.802034   3.358459
    15  O    4.717247   6.826257   6.392081   5.107869   2.836164
    16  O    6.688914   8.270142   8.812974   8.485789   4.493146
    17  C    3.904444   5.665748   4.329423   2.210352   6.024724
    18  H    4.537131   6.180720   4.759017   2.579738   6.400696
    19  H    4.134408   6.106467   5.021201   3.113749   4.928687
    20  H    4.543859   6.157338   4.688317   2.562784   6.491839
    21  H    2.184717   4.303944   3.888350   3.068959   5.370879
    22  H    1.095696   2.412545   3.083457   3.825510   7.333238
                   11         12         13         14         15
    11  H    0.000000
    12  O    3.347286   0.000000
    13  C    3.352520   1.372282   0.000000
    14  C    2.278145   1.379601   2.245672   0.000000
    15  O    4.485489   2.248836   1.189382   3.378122   0.000000
    16  O    2.855216   2.252252   3.374395   1.187417   4.447151
    17  C    8.031829   5.460166   4.748649   6.772779   3.593432
    18  H    8.455932   6.038754   5.295227   7.298470   4.194847
    19  H    6.975621   4.570596   3.728457   5.835541   2.558856
    20  H    8.654840   6.203451   5.403271   7.503223   4.215568
    21  H    6.561044   3.393186   3.320427   4.768460   2.554817
    22  H    7.860111   4.520325   5.086563   5.694009   4.693805
                   16         17         18         19         20
    16  O    0.000000
    17  C    7.684223   0.000000
    18  H    8.216017   1.102920   0.000000
    19  H    6.813108   1.098570   1.787328   0.000000
    20  H    8.449938   1.102655   1.766017   1.786638   0.000000
    21  H    5.447078   2.715646   3.473763   2.396908   3.503502
    22  H    5.909662   4.685835   5.342934   4.700523   5.377478
                   21         22
    21  H    0.000000
    22  H    2.409587   0.000000
 Stoichiometry    C9H10O3
 Framework group  C1[X(C9H10O3)]
 Deg. of freedom    60
 Full point group                 C1      NOp   1
 Largest Abelian subgroup         C1      NOp   1
 Largest concise Abelian subgroup C1      NOp   1
                         Standard orientation:                         
 ---------------------------------------------------------------------
 Center     Atomic      Atomic             Coordinates (Angstroms)
 Number     Number       Type             X           Y           Z
 ---------------------------------------------------------------------
      1          6           0       -3.384753   -0.922373   -0.134889
      2          6           0        3.015327   -1.344836    0.092189
      3          6           0       -4.441354    1.967510    0.079330
      4          6           0        3.889934   -0.347498   -0.035795
      5          6           0       -2.652288    0.190980    0.017558
      6          6           0       -3.162378    1.571178    0.086303
      7          1           0       -4.702471    3.026905    0.131828
      8          1           0       -5.271026    1.256645    0.022395
      9          1           0       -4.474913   -0.839336   -0.230768
     10          1           0        3.189027   -2.416757    0.165136
     11          1           0        4.975209   -0.393513   -0.090909
     12          8           0        1.784378    0.611711    0.020642
     13          6           0        1.649225   -0.749158    0.134338
     14          6           0        3.122105    0.931601   -0.086388
     15          8           0        0.591390   -1.281193    0.246377
     16          8           0        3.503406    2.050943   -0.194279
     17          6           0       -2.824289   -2.308820   -0.189373
     18          1           0       -3.063573   -2.792840   -1.151090
     19          1           0       -1.733189   -2.305535   -0.061525
     20          1           0       -3.267060   -2.942706    0.596751
     21          1           0       -1.565876    0.079900    0.102424
     22          1           0       -2.388688    2.344058    0.154191
 ---------------------------------------------------------------------
 Rotational constants (GHZ):           1.4863499           0.3352781           0.2749515
 Standard basis: def2SVP (5D, 7F)
 There are   230 symmetry adapted cartesian basis functions of A   symmetry.
 There are   218 symmetry adapted basis functions of A   symmetry.
   218 basis functions,   370 primitive gaussians,   230 cartesian basis functions
    44 alpha electrons       44 beta electrons
       nuclear repulsion energy       603.8448631870 Hartrees.
 NAtoms=   22 NActive=   22 NUniq=   22 SFac= 1.00D+00 NAtFMM=   60 NAOKFM=F Big=F
 Integral buffers will be    131072 words long.
 Raffenetti 2 integral format.
 Two-electron integral symmetry is turned on.
 Nuclear repulsion after empirical dispersion term =      603.8361410242 Hartrees.
 ------------------------------------------------------------------------------
 Polarizable Continuum Model (PCM)
 =================================
 Model                : PCM.
 Atomic radii         : UFF (Universal Force Field).
 Polarization charges : Total charges.
 Charge compensation  : None.
 Solution method      : On-the-fly selection.
 Cavity type          : Scaled VdW (van der Waals Surface) (Alpha=1.100).
 Cavity algorithm     : GePol (No added spheres)
                        Default sphere list used, NSphG=   22.
                        Lebedev-Laikov grids with approx.  5.0 points / Ang**2.
                        Smoothing algorithm: York/Karplus (Gamma=1.0000).
                        Polarization charges: spherical gaussians, with
                                              point-specific exponents (IZeta= 3).
                        Self-potential: point-specific (ISelfS= 7).
                        Self-field    : sphere-specific E.n sum rule (ISelfD= 2).
 1st derivatives      : Analytical E(r).r(x)/FMM algorithm (CHGder, D1EAlg=3).
                        Cavity 1st derivative terms included.
 Solvent              : Toluene, Eps=   2.374100 Eps(inf)=   2.238315
 ------------------------------------------------------------------------------
 One-electron integrals computed using PRISM.
   1 Symmetry operations used in ECPInt.
 ECPInt:  NShTT=    5253 NPrTT=   19101 LenC2=    4705 LenP2D=   12246.
 LDataN:  DoStor=T MaxTD1= 4 Len=   56
 NBasis=   218 RedAO= T EigKep=  7.24D-04  NBF=   218
 NBsUse=   218 1.00D-06 EigRej= -1.00D+00 NBFU=   218
 Initial guess from the checkpoint file:  "da-2_1_hf.chk"
 B after Tr=     0.000000    0.000000   -0.000000
         Rot=    0.999964   -0.001817    0.000107   -0.008341 Ang=  -0.98 deg.
 ExpMin= 1.22D-01 ExpMax= 2.27D+03 ExpMxC= 3.41D+02 IAcc=3 IRadAn=         5 AccDes= 0.00D+00
 Harris functional with IExCor= 4639 and IRadAn=       5 diagonalized for initial guess.
 HarFok:  IExCor= 4639 AccDes= 0.00D+00 IRadAn=         5 IDoV= 1 UseB2=F ITyADJ=14
 ICtDFT=  3500011 ScaDFX=  1.000000  1.000000  1.000000  1.000000
 FoFCou: FMM=F IPFlag=           0 FMFlag=      100000 FMFlg1=           0
         NFxFlg=           0 DoJE=T BraDBF=F KetDBF=T FulRan=T
         wScrn=  0.000000 ICntrl=       500 IOpCl=  0 I1Cent=   200000004 NGrid=           0
         NMat0=    1 NMatS0=      1 NMatT0=    0 NMatD0=    1 NMtDS0=    0 NMtDT0=    0
 Petite list used in FoFCou.
 Requested convergence on RMS density matrix=1.00D-08 within 128 cycles.
 Requested convergence on MAX density matrix=1.00D-06.
 Requested convergence on             energy=1.00D-06.
 No special actions if energy rises.
 Inv3:  Mode=1 IEnd=    12941787.
 Iteration    1 A*A^-1 deviation from unit magnitude is 2.89D-15 for   1649.
 Iteration    1 A*A^-1 deviation from orthogonality  is 1.55D-15 for   1836    652.
 Iteration    1 A^-1*A deviation from unit magnitude is 2.66D-15 for   1649.
 Iteration    1 A^-1*A deviation from orthogonality  is 2.44D-15 for   1318    854.
 Error on total polarization charges =  0.00564
 SCF Done:  E(RwB97XD) =  -573.991814009     A.U. after   13 cycles
            NFock= 13  Conv=0.68D-08     -V/T= 2.0096
   1 Symmetry operations used in ECPInt.
 ECPInt:  NShTT=    5253 NPrTT=   19101 LenC2=    4705 LenP2D=   12246.
 LDataN:  DoStor=T MaxTD1= 5 Len=  102
 D1PCM: PCM CHGder 1st derivatives, ID1Alg=3 FixD1E=F DoIter=F DoCFld=F I1PDM=0.
 Calling FoFJK, ICntrl=      2127 FMM=F ISym2X=0 I1Cent= 0 IOpClX= 0 NMat=1 NMatS=1 NMatT=0.
 ***** Axes restored to original set *****
 -------------------------------------------------------------------
 Center     Atomic                   Forces (Hartrees/Bohr)
 Number     Number              X              Y              Z
 -------------------------------------------------------------------
      1        6           0.000075266   -0.000093110   -0.000069457
      2        6           0.000019946    0.000111259    0.000100377
      3        6          -0.000065658   -0.000171693    0.000191943
      4        6          -0.000966161   -0.000127096    0.000980400
      5        6          -0.000367450    0.000404077    0.000111163
      6        6           0.000137159   -0.000187875   -0.000087941
      7        1           0.000023335    0.000001744    0.000021643
      8        1          -0.000027322    0.000303600   -0.000224856
      9        1           0.000054911   -0.000035096   -0.000099384
     10        1          -0.000015813   -0.000024728   -0.000034851
     11        1           0.001277264   -0.000184014   -0.000659334
     12        8           0.000142360   -0.000088812    0.000025558
     13        6          -0.000054641   -0.000060993   -0.000052600
     14        6           0.000014658    0.000166479   -0.000031960
     15        8          -0.000354477    0.000221162   -0.000264564
     16        8          -0.000078897   -0.000054154   -0.000004001
     17        6           0.000023557   -0.000032155   -0.000067962
     18        1          -0.000046344    0.000044895    0.000003082
     19        1           0.000083340   -0.000134002    0.000032144
     20        1           0.000016362    0.000021753    0.000015010
     21        1           0.000079760    0.000023272    0.000197836
     22        1           0.000028847   -0.000104514   -0.000082244
 -------------------------------------------------------------------
 Cartesian Forces:  Max     0.001277264 RMS     0.000277419

 GradGradGradGradGradGradGradGradGradGradGradGradGradGradGradGradGradGrad
 Berny optimization.
 FormGI is forming the generalized inverse of G from B-inverse, IUseBI=4.
 Internal  Forces:  Max     0.001880038 RMS     0.000248684
 Search for a saddle point.
 Step number   2 out of a maximum of   50
 All quantities printed in internal units (Hartrees-Bohrs-Radians)
 Swapping is turned off.
 Update second derivatives using D2CorX and points    1    2
 ITU=  0  0
     Eigenvalues ---   -0.00411  -0.00042   0.00194   0.00535   0.01323
     Eigenvalues ---    0.01558   0.01708   0.02049   0.02276   0.02320
     Eigenvalues ---    0.02839   0.03512   0.03638   0.04307   0.04698
     Eigenvalues ---    0.05761   0.06790   0.06820   0.07024   0.07398
     Eigenvalues ---    0.11094   0.11795   0.12663   0.12849   0.14054
     Eigenvalues ---    0.14693   0.15064   0.15313   0.16937   0.17192
     Eigenvalues ---    0.19163   0.20567   0.21387   0.22355   0.25440
     Eigenvalues ---    0.27606   0.32083   0.33519   0.34398   0.36007
     Eigenvalues ---    0.36200   0.37270   0.38481   0.38602   0.38974
     Eigenvalues ---    0.39046   0.39507   0.39989   0.40485   0.42476
     Eigenvalues ---    0.42963   0.43329   0.46314   0.57437   0.62004
     Eigenvalues ---    0.63832   0.70438   0.79792   0.82734   0.96829
 Eigenvectors required to have negative eigenvalues:
                          D31       D32       D33       D34       D35
   1                    0.42705   0.41292   0.38853   0.37440  -0.31731
                          D26       D24       D23       D25       A20
   1                   -0.23087   0.20774   0.20334  -0.19088  -0.17495
 RFO step:  Lambda0=3.019092812D-06 Lambda=-6.70575919D-04.
 Linear search not attempted -- option 19 set.
 Maximum step size (   0.100) exceeded in Quadratic search.
    -- Step size scaled by   0.145
 Iteration  1 RMS(Cart)=  0.03852544 RMS(Int)=  0.00098971
 Iteration  2 RMS(Cart)=  0.00092757 RMS(Int)=  0.00000048
 Iteration  3 RMS(Cart)=  0.00000266 RMS(Int)=  0.00000017
 Iteration  4 RMS(Cart)=  0.00000000 RMS(Int)=  0.00000017
 Variable       Old X    -DE/DX   Delta X   Delta X   Delta X     New X
                                 (Linear)    (Quad)   (Total)
    R1        2.53484  -0.00019   0.00000  -0.00009  -0.00009   2.53475
    R2        2.07400   0.00001   0.00000   0.00003   0.00003   2.07403
    R3        2.82785   0.00001   0.00000   0.00001   0.00001   2.82787
    R4        2.51837   0.00033   0.00000   0.00010   0.00010   2.51847
    R5        2.05669  -0.00000   0.00000   0.00001   0.00001   2.05670
    R6        2.81743   0.00038   0.00000  -0.00018  -0.00018   2.81725
    R7        2.53033   0.00006   0.00000   0.00003   0.00003   2.53036
    R8        2.06427   0.00000   0.00000  -0.00002  -0.00002   2.06425
    R9        2.06744   0.00009   0.00000   0.00004   0.00004   2.06748
   R10        2.05536   0.00053   0.00000   0.00007   0.00007   2.05542
   R11        2.82083   0.00006   0.00000  -0.00000  -0.00000   2.82083
   R12        2.78365  -0.00001   0.00000  -0.00002  -0.00002   2.78363
   R13        2.06995   0.00016   0.00000   0.00003   0.00003   2.06997
   R14        2.07057   0.00003   0.00000   0.00001   0.00001   2.07058
   R15       19.61324   0.00005   0.00000  -0.09701  -0.09701  19.51624
   R16        2.59324   0.00003   0.00000   0.00005   0.00005   2.59328
   R17        2.60707  -0.00008   0.00000   0.00009   0.00009   2.60716
   R18        2.24761   0.00045   0.00000   0.00011   0.00011   2.24772
   R19        2.24389  -0.00008   0.00000  -0.00008  -0.00008   2.24381
   R20        2.08422  -0.00001   0.00000   0.00000   0.00000   2.08422
   R21        2.07600   0.00013   0.00000   0.00008   0.00008   2.07607
   R22        2.08372   0.00001   0.00000   0.00003   0.00003   2.08375
    A1        2.08234  -0.00004   0.00000   0.00001   0.00001   2.08235
    A2        2.17563  -0.00006   0.00000  -0.00026  -0.00026   2.17537
    A3        2.02522   0.00011   0.00000   0.00025   0.00024   2.02546
    A4        2.26370  -0.00002   0.00000  -0.00021  -0.00021   2.26349
    A5        1.88079   0.00007   0.00000   0.00013   0.00013   1.88091
    A6        2.13868  -0.00005   0.00000   0.00008   0.00008   2.13876
    A7        2.11196  -0.00002   0.00000   0.00023   0.00023   2.11219
    A8        2.13212  -0.00002   0.00000  -0.00049  -0.00049   2.13163
    A9        2.03910   0.00004   0.00000   0.00026   0.00026   2.03936
   A10        2.24985   0.00051   0.00000  -0.00156  -0.00156   2.24829
   A11        1.88279  -0.00017   0.00000  -0.00002  -0.00002   1.88276
   A12        2.15052  -0.00034   0.00000   0.00157   0.00157   2.15210
   A13        2.20670   0.00007   0.00000   0.00038   0.00038   2.20708
   A14        2.05581  -0.00004   0.00000  -0.00023  -0.00023   2.05558
   A15        2.02067  -0.00003   0.00000  -0.00015  -0.00015   2.02052
   A16        2.22415  -0.00011   0.00000  -0.00032  -0.00033   2.22383
   A17        2.05556   0.00007   0.00000   0.00022   0.00022   2.05579
   A18        2.00346   0.00005   0.00000   0.00010   0.00010   2.00356
   A19        0.87005  -0.00064   0.00000  -0.00432  -0.00432   0.86573
   A20        0.12381   0.00188   0.00000   0.02179   0.02179   0.14559
   A21        1.90908   0.00015   0.00000   0.00014   0.00014   1.90922
   A22        1.87930  -0.00018   0.00000  -0.00012  -0.00012   1.87917
   A23        2.26384   0.00031   0.00000   0.00013   0.00013   2.26397
   A24        2.14004  -0.00013   0.00000  -0.00001  -0.00001   2.14004
   A25        1.87282   0.00014   0.00000  -0.00013  -0.00013   1.87269
   A26        2.27269  -0.00007   0.00000   0.00016   0.00016   2.27285
   A27        2.13767  -0.00006   0.00000  -0.00003  -0.00003   2.13764
   A28        1.93595  -0.00001   0.00000  -0.00001  -0.00001   1.93594
   A29        1.94441   0.00004   0.00000  -0.00007  -0.00007   1.94433
   A30        1.93507  -0.00003   0.00000  -0.00000  -0.00000   1.93506
   A31        1.89470  -0.00001   0.00000   0.00007   0.00007   1.89478
   A32        1.85695  -0.00000   0.00000  -0.00015  -0.00015   1.85679
   A33        1.89396   0.00002   0.00000   0.00017   0.00017   1.89413
    D1        0.01057  -0.00008   0.00000   0.00213   0.00213   0.01270
    D2       -3.13283   0.00001   0.00000   0.00453   0.00453  -3.12830
    D3       -3.13312  -0.00012   0.00000   0.00048   0.00048  -3.13264
    D4        0.00666  -0.00003   0.00000   0.00288   0.00288   0.00955
    D5       -2.08628  -0.00004   0.00000  -0.00048  -0.00048  -2.08676
    D6        0.02651  -0.00005   0.00000  -0.00044  -0.00044   0.02607
    D7        2.13776  -0.00001   0.00000  -0.00028  -0.00028   2.13748
    D8        1.05327  -0.00009   0.00000  -0.00208  -0.00208   1.05120
    D9       -3.11712  -0.00009   0.00000  -0.00204  -0.00204  -3.11916
   D10       -1.00587  -0.00006   0.00000  -0.00188  -0.00188  -1.00775
   D11       -0.00503   0.00005   0.00000  -0.00028  -0.00028  -0.00531
   D12       -3.13884  -0.00006   0.00000  -0.00005  -0.00005  -3.13889
   D13        3.13022   0.00019   0.00000  -0.00083  -0.00083   3.12939
   D14       -0.00358   0.00008   0.00000  -0.00061  -0.00061  -0.00419
   D15        0.00420  -0.00007   0.00000   0.00104   0.00104   0.00523
   D16       -3.13437  -0.00010   0.00000   0.00181   0.00181  -3.13256
   D17        3.14001   0.00005   0.00000   0.00053   0.00053   3.14054
   D18        0.00144   0.00002   0.00000   0.00130   0.00130   0.00274
   D19       -3.13803  -0.00007   0.00000   0.00198   0.00198  -3.13605
   D20        0.00810  -0.00003   0.00000   0.00349   0.00349   0.01159
   D21        0.00457   0.00003   0.00000   0.00205   0.00205   0.00661
   D22       -3.13249   0.00008   0.00000   0.00356   0.00356  -3.12893
   D23       -0.03168  -0.00017   0.00000  -0.00023  -0.00023  -0.03191
   D24        3.11087  -0.00007   0.00000  -0.00017  -0.00017   3.11071
   D25        2.89942  -0.00009   0.00000   0.03975   0.03975   2.93917
   D26       -0.25104   0.00004   0.00000   0.03949   0.03949  -0.21155
   D27        0.00185  -0.00006   0.00000  -0.00000  -0.00000   0.00185
   D28       -3.14124   0.00006   0.00000   0.00003   0.00003  -3.14121
   D29       -3.13250  -0.00017   0.00000   0.00022   0.00022  -3.13227
   D30        0.00760  -0.00005   0.00000   0.00025   0.00025   0.00785
   D31        0.06479   0.00024   0.00000   0.03187   0.03187   0.09666
   D32       -3.08122   0.00020   0.00000   0.03040   0.03040  -3.05083
   D33       -3.07503   0.00015   0.00000   0.02951   0.02951  -3.04552
   D34        0.06215   0.00011   0.00000   0.02803   0.02803   0.09018
   D35        2.73571   0.00010   0.00000   0.04677   0.04677   2.78248
   D36       -0.00300   0.00003   0.00000  -0.00104  -0.00104  -0.00403
   D37        3.13584   0.00006   0.00000  -0.00174  -0.00174   3.13409
   D38        0.00087   0.00001   0.00000   0.00067   0.00067   0.00154
   D39       -3.13937  -0.00009   0.00000   0.00065   0.00065  -3.13872
         Item               Value     Threshold  Converged?
 Maximum Force            0.001880     0.000450     NO 
 RMS     Force            0.000249     0.000300     YES
 Maximum Displacement     0.118717     0.001800     NO 
 RMS     Displacement     0.038528     0.001200     NO 
 Predicted change in Energy=-6.459666D-05
 GradGradGradGradGradGradGradGradGradGradGradGradGradGradGradGradGradGrad

                          Input orientation:                          
 ---------------------------------------------------------------------
 Center     Atomic      Atomic             Coordinates (Angstroms)
 Number     Number       Type             X           Y           Z
 ---------------------------------------------------------------------
      1          6           0       -2.839288    1.439010   -0.732398
      2          6           0        1.069769   -2.042897    2.952484
      3          6           0       -1.357570    3.349186   -2.649580
      4          6           0        2.380213   -2.191275    2.760496
      5          6           0       -1.512919    1.616797   -0.823563
      6          6           0       -0.810873    2.494976   -1.775281
      7          1           0       -0.733434    3.950353   -3.314627
      8          1           0       -2.440271    3.481583   -2.734446
      9          1           0       -3.501942    1.974237   -1.424495
     10          1           0        0.412981   -2.530030    3.670713
     11          1           0        3.078388   -2.835108    3.290674
     12          8           0        1.652856   -0.617341    1.227529
     13          6           0        0.579020   -1.028192    1.976730
     14          6           0        2.786225   -1.281907    1.648554
     15          8           0       -0.517852   -0.597485    1.815069
     16          8           0        3.851838   -1.099193    1.157700
     17          6           0       -3.511124    0.542584    0.259772
     18          1           0       -4.089802   -0.245704   -0.250294
     19          1           0       -2.780853    0.064253    0.926741
     20          1           0       -4.230548    1.107512    0.875541
     21          1           0       -0.874382    1.060558   -0.128776
     22          1           0        0.282268    2.427882   -1.742044
 ---------------------------------------------------------------------
                    Distance matrix (angstroms):
                    1          2          3          4          5
     1  C    0.000000
     2  C    6.401778   0.000000
     3  C    3.085425   8.145529   0.000000
     4  C    7.254135   1.332719   8.598642   0.000000
     5  C    1.341333   5.858513   2.521833   6.519461   0.000000
     6  C    2.513392   6.817687   1.339011   7.260665   1.473036
     7  H    4.172454   8.857046   1.092354   9.182675   3.501212
     8  H    2.887822   8.670723   1.094063   9.252717   2.826461
     9  H    1.097532   7.496390   2.826597   8.334591   2.108339
    10  H    6.761503   1.088358   8.811704   2.193913   6.411223
    11  H    8.334992   2.185525   9.654523   1.087684   7.604374
    12  O    5.315002   2.312503   6.310940   2.314370   4.384117
    13  C    5.011117   1.490824   6.656918   2.282838   4.383357
    14  C    6.687206   2.285948   7.555925   1.492720   5.744257
    15  O    4.003245   2.429706   6.017842   3.439881   3.585468
    16  O    7.401765   3.442635   7.837180   2.434600   6.331084
    17  C    1.496444   5.909314   4.580298   6.959559   2.514034
    18  H    2.152782   6.333156   5.113208   7.396702   3.230770
    19  H    2.155485   4.834356   5.060296   5.923400   2.661130
    20  H    2.151967   6.506315   5.070067   7.624777   3.245278
    21  H    2.090083   4.785950   3.438858   5.432743   1.095382
    22  H    3.426568   6.530437   2.088418   6.783130   2.173514
                    6          7          8          9         10
     6  C    0.000000
     7  H    2.119837   0.000000
     8  H    2.132681   1.862700   0.000000
     9  H    2.763345   3.891308   2.261683   0.000000
    10  H    7.510483   9.597115   9.236157   7.847050   0.000000
    11  H    8.318656  10.207961  10.327548   9.416123   2.709593
    12  O    4.977282   6.869453   7.017984   6.349917   3.341380
    13  C    5.331238   7.382880   7.186750   6.102227   2.269948
    14  C    6.239118   8.024818   8.319722   7.719271   3.358456
    15  O    4.747609   6.858797   6.405668   5.100326   2.836300
    16  O    6.577332   8.156246   8.701893   8.378054   4.493136
    17  C    3.904437   5.666108   4.330102   2.210536   6.039377
    18  H    4.537432   6.185648   4.773325   2.579238   6.392769
    19  H    4.134025   6.105973   5.019804   3.113892   4.945731
[...]
    16  O    4.088034   5.858533   6.196845   5.839892   4.494579
    17  C    3.906935   5.676151   4.351583   2.210391   6.694250
    18  H    4.543522   6.181800   4.746967   2.572142   7.153948
    19  H    4.143284   6.120434   5.048921   3.119102   5.596095
    20  H    4.544638   6.182218   4.747246   2.570279   7.117826
    21  H    2.175272   4.293733   3.892352   3.069231   5.839082
    22  H    1.095684   2.413608   3.086492   3.832029   7.630673
                   11         12         13         14         15
    11  H    0.000000
    12  O    3.341650   0.000000
    13  C    3.358710   1.376100   0.000000
    14  C    2.270892   1.375837   2.248613   0.000000
    15  O    4.494716   2.248626   1.188292   3.377545   0.000000
    16  O    2.845344   2.248685   3.377894   1.188592   4.445673
    17  C    7.160926   3.829441   4.434162   5.000148   4.112736
    18  H    7.782480   4.470819   4.942685   5.672955   4.487037
    19  H    6.176373   2.836096   3.339189   4.097733   3.041438
    20  H    7.752466   4.457761   4.918763   5.655834   4.464377
    21  H    5.283217   2.499575   3.771827   3.020078   4.226515
    22  H    6.287923   4.484116   5.856259   4.343028   6.509983
                   16         17         18         19         20
    16  O    0.000000
    17  C    5.241565   0.000000
    18  H    5.955065   1.102721   0.000000
    19  H    4.517266   1.099278   1.784683   0.000000
    20  H    5.945000   1.102703   1.765265   1.784558   0.000000
    21  H    2.787656   2.719091   3.490979   2.410585   3.493727
    22  H    3.445033   4.680412   5.356066   4.698830   5.357313
                   21         22
    21  H    0.000000
    22  H    2.389409   0.000000
 Stoichiometry    C9H10O3
 Framework group  C1[X(C9H10O3)]
 Deg. of freedom    60
 Full point group                 C1      NOp   1
 Largest Abelian subgroup         C1      NOp   1
 Largest concise Abelian subgroup C1      NOp   1
                         Standard orientation:                         
 ---------------------------------------------------------------------
 Center     Atomic      Atomic             Coordinates (Angstroms)
 Number     Number       Type             X           Y           Z
 ---------------------------------------------------------------------
      1          6           0       -2.664028   -1.287062    0.005400
      2          6           0        3.578358    0.079495    0.025962
      3          6           0       -4.500459    1.204427    0.019030
      4          6           0        3.112940    1.328832    0.020447
      5          6           0       -2.283540   -0.001286   -0.008237
      6          6           0       -3.161802    1.180590   -0.000832
      7          1           0       -5.044579    2.151755    0.022812
      8          1           0       -5.102836    0.291012    0.032091
      9          1           0       -3.734065   -1.530541    0.024041
     10          1           0        4.605885   -0.278928    0.045727
     11          1           0        3.655057    2.272544    0.034414
     12          8           0        1.271512   -0.068867   -0.021609
     13          6           0        2.407256   -0.845583   -0.000427
     14          6           0        1.622143    1.261491   -0.010133
     15          8           0        2.365870   -2.033147   -0.004268
     16          8           0        0.813740    2.132729   -0.023492
     17          6           0       -1.725408   -2.452715   -0.002858
     18          1           0       -1.904520   -3.095993   -0.880415
     19          1           0       -0.673909   -2.132545   -0.018756
     20          1           0       -1.879881   -3.088638    0.884663
     21          1           0       -1.211624    0.217289   -0.026605
     22          1           0       -2.631271    2.139187   -0.013142
 ---------------------------------------------------------------------
 Rotational constants (GHZ):           1.4176712           0.4353058           0.3337523

 **********************************************************************

            Population analysis using the SCF Density.

 **********************************************************************

 Orbital symmetries:
       Occupied  (A) (A) (A) (A) (A) (A) (A) (A) (A) (A) (A) (A)
                 (A) (A) (A) (A) (A) (A) (A) (A) (A) (A) (A) (A)
                 (A) (A) (A) (A) (A) (A) (A) (A) (A) (A) (A) (A)
                 (A) (A) (A) (A) (A) (A) (A) (A)
       Virtual   (A) (A) (A) (A) (A) (A) (A) (A) (A) (A) (A) (A)
                 (A) (A) (A) (A) (A) (A) (A) (A) (A) (A) (A) (A)
                 (A) (A) (A) (A) (A) (A) (A) (A) (A) (A) (A) (A)
                 (A) (A) (A) (A) (A) (A) (A) (A) (A) (A) (A) (A)
                 (A) (A) (A) (A) (A) (A) (A) (A) (A) (A) (A) (A)
                 (A) (A) (A) (A) (A) (A) (A) (A) (A) (A) (A) (A)
                 (A) (A) (A) (A) (A) (A) (A) (A) (A) (A) (A) (A)
                 (A) (A) (A) (A) (A) (A) (A) (A) (A) (A) (A) (A)
                 (A) (A) (A) (A) (A) (A) (A) (A) (A) (A) (A) (A)
                 (A) (A) (A) (A) (A) (A) (A) (A) (A) (A) (A) (A)
                 (A) (A) (A) (A) (A) (A) (A) (A) (A) (A) (A) (A)
                 (A) (A) (A) (A) (A) (A) (A) (A) (A) (A) (A) (A)
                 (A) (A) (A) (A) (A) (A) (A) (A) (A) (A) (A) (A)
                 (A) (A) (A) (A) (A) (A) (A) (A) (A) (A) (A) (A)
                 (A) (A) (A) (A) (A) (A)
 The electronic state is 1-A.
 Alpha  occ. eigenvalues --  -19.34497 -19.29310 -19.29286 -10.47188 -10.47165
 Alpha  occ. eigenvalues --  -10.36659 -10.36583 -10.29621 -10.29497 -10.28754
 Alpha  occ. eigenvalues --  -10.28702 -10.28570  -1.26527  -1.19286  -1.15452
 Alpha  occ. eigenvalues --   -0.95528  -0.89287  -0.83878  -0.80824  -0.76051
 Alpha  occ. eigenvalues --   -0.74701  -0.69965  -0.67646  -0.61728  -0.61561
 Alpha  occ. eigenvalues --   -0.60357  -0.58027  -0.56702  -0.55872  -0.54464
 Alpha  occ. eigenvalues --   -0.52783  -0.52673  -0.51744  -0.48912  -0.47986
 Alpha  occ. eigenvalues --   -0.46043  -0.44268  -0.43062  -0.41855  -0.41532
 Alpha  occ. eigenvalues --   -0.41064  -0.39327  -0.39309  -0.29365
 Alpha virt. eigenvalues --   -0.05096   0.04420   0.10048   0.12625   0.15059
 Alpha virt. eigenvalues --    0.16392   0.16980   0.17430   0.17468   0.18666
 Alpha virt. eigenvalues --    0.20466   0.22551   0.22747   0.24771   0.25484
 Alpha virt. eigenvalues --    0.27164   0.28369   0.28864   0.32848   0.33821
 Alpha virt. eigenvalues --    0.35091   0.39139   0.40939   0.43114   0.43143
 Alpha virt. eigenvalues --    0.45433   0.47374   0.48235   0.49937   0.50081
 Alpha virt. eigenvalues --    0.51453   0.52316   0.54217   0.54538   0.57347
 Alpha virt. eigenvalues --    0.58159   0.59338   0.60735   0.61047   0.61761
 Alpha virt. eigenvalues --    0.62618   0.66320   0.67131   0.68429   0.69602
 Alpha virt. eigenvalues --    0.70206   0.70633   0.71355   0.72141   0.72707
 Alpha virt. eigenvalues --    0.73718   0.74153   0.74883   0.76415   0.77096
 Alpha virt. eigenvalues --    0.77509   0.78497   0.79499   0.80299   0.82296
 Alpha virt. eigenvalues --    0.84463   0.85751   0.87768   0.91290   0.92838
 Alpha virt. eigenvalues --    0.95922   0.99980   1.03065   1.03752   1.03893
 Alpha virt. eigenvalues --    1.06674   1.10578   1.11040   1.14530   1.18817
 Alpha virt. eigenvalues --    1.21391   1.22105   1.25072   1.26089   1.27076
 Alpha virt. eigenvalues --    1.28438   1.33611   1.35351   1.36211   1.37342
 Alpha virt. eigenvalues --    1.38119   1.43247   1.44046   1.46395   1.49022
 Alpha virt. eigenvalues --    1.54266   1.58788   1.62583   1.63199   1.64032
 Alpha virt. eigenvalues --    1.64731   1.66940   1.67783   1.69654   1.73308
 Alpha virt. eigenvalues --    1.76647   1.77295   1.78304   1.79147   1.81604
 Alpha virt. eigenvalues --    1.83351   1.84244   1.86327   1.86818   1.88276
 Alpha virt. eigenvalues --    1.89931   1.90905   1.92371   1.94098   1.95302
 Alpha virt. eigenvalues --    1.96761   1.98727   2.00667   2.01175   2.02486
 Alpha virt. eigenvalues --    2.07974   2.10065   2.11005   2.12675   2.14191
 Alpha virt. eigenvalues --    2.16296   2.19478   2.20548   2.25499   2.27562
 Alpha virt. eigenvalues --    2.30691   2.30936   2.34208   2.37505   2.40573
 Alpha virt. eigenvalues --    2.44659   2.44865   2.45568   2.51028   2.52062
 Alpha virt. eigenvalues --    2.54753   2.61783   2.62518   2.63110   2.67558
 Alpha virt. eigenvalues --    2.69242   2.72109   2.72865   2.73947   2.75942
 Alpha virt. eigenvalues --    2.77600   2.79806   2.84076   2.84853   2.86593
 Alpha virt. eigenvalues --    2.90106   2.98227   3.00254   3.02542   3.03117
 Alpha virt. eigenvalues --    3.08420   3.09332   3.19673   3.23760   3.24887
 Alpha virt. eigenvalues --    3.27406   3.29047   3.33485   3.40805   3.51379
 Alpha virt. eigenvalues --    3.53270   3.71715   3.76171   3.77736
          Condensed to atoms (all electrons):
               1          2          3          4          5          6
     1  C    4.932311   0.000006  -0.028264   0.000005   0.583131  -0.043550
     2  C    0.000006   5.194068  -0.000000   0.371565  -0.000013  -0.000000
     3  C   -0.028264  -0.000000   4.807271   0.000000  -0.051194   0.634006
     4  C    0.000005   0.371565   0.000000   5.177107  -0.000128  -0.000002
     5  C    0.583131  -0.000013  -0.051194  -0.000128   4.903310   0.347346
     6  C   -0.043550  -0.000000   0.634006  -0.000002   0.347346   4.773592
     7  H   -0.000211   0.000000   0.388505  -0.000000   0.009388  -0.013893
     8  H    0.009622  -0.000000   0.384153   0.000000  -0.028050  -0.005166
     9  H    0.391502  -0.000000   0.008476  -0.000000  -0.019931  -0.023472
    10  H    0.000000   0.429379   0.000000  -0.044001  -0.000000  -0.000000
    11  H    0.000000  -0.044416  -0.000000   0.431098   0.000002  -0.000000
    12  O   -0.000289  -0.097659  -0.000001  -0.098503  -0.002419   0.000079
    13  C    0.000076   0.276612  -0.000000  -0.009398   0.000037  -0.000005
    14  C    0.000130  -0.003122  -0.000001   0.273062  -0.000813  -0.000019
    15  O    0.000072  -0.062266  -0.000000   0.002670  -0.000011  -0.000000
    16  O    0.000130   0.002594   0.000011  -0.061589  -0.002832  -0.000693
    17  C    0.381114  -0.000055   0.000039  -0.000004  -0.045074   0.009477
    18  H   -0.018502  -0.000000   0.000039   0.000000   0.000889  -0.000328
    19  H   -0.017843   0.000674  -0.000019  -0.000084  -0.013539   0.000384
    20  H   -0.018536  -0.000000   0.000039   0.000000   0.000977  -0.000330
    21  H   -0.058757  -0.000115   0.011564   0.001177   0.411897  -0.042464
    22  H    0.012884  -0.000001  -0.058430   0.000016  -0.044916   0.415313
               7          8          9         10         11         12
     1  C   -0.000211   0.009622   0.391502   0.000000   0.000000  -0.000289
     2  C    0.000000  -0.000000  -0.000000   0.429379  -0.044416  -0.097659
     3  C    0.388505   0.384153   0.008476   0.000000  -0.000000  -0.000001
     4  C   -0.000000   0.000000  -0.000000  -0.044001   0.431098  -0.098503
     5  C    0.009388  -0.028050  -0.019931  -0.000000   0.000002  -0.002419
     6  C   -0.013893  -0.005166  -0.023472  -0.000000  -0.000000   0.000079
     7  H    0.621519  -0.042847  -0.000101  -0.000000  -0.000000   0.000000
     8  H   -0.042847   0.630810   0.001485  -0.000000   0.000000   0.000000
     9  H   -0.000101   0.001485   0.656663   0.000000   0.000000  -0.000005
    10  H   -0.000000  -0.000000   0.000000   0.551108  -0.005185   0.002770
    11  H   -0.000000   0.000000   0.000000  -0.005185   0.551166   0.002711
    12  O    0.000000   0.000000  -0.000005   0.002770   0.002711   7.996007
    13  C   -0.000000  -0.000000  -0.000000  -0.034176   0.009447   0.304504
    14  C   -0.000000   0.000000  -0.000002   0.009285  -0.035564   0.306013
    15  O    0.000000  -0.000000  -0.000000   0.001697  -0.000039  -0.068467
    16  O   -0.000001  -0.000000  -0.000000  -0.000040   0.001621  -0.068187
    17  C   -0.000004   0.000097  -0.045687   0.000001  -0.000000  -0.000906
    18  H   -0.000000   0.000002  -0.003297  -0.000000  -0.000000   0.000013
    19  H    0.000001   0.000001   0.005927  -0.000008   0.000001   0.002989
    20  H   -0.000000   0.000002  -0.003350  -0.000000  -0.000000   0.000011
    21  H   -0.000215  -0.000171   0.008353   0.000003  -0.000018   0.007465
    22  H   -0.014343   0.007943  -0.000086   0.000000  -0.000000  -0.000022
              13         14         15         16         17         18
     1  C    0.000076   0.000130   0.000072   0.000130   0.381114  -0.018502
     2  C    0.276612  -0.003122  -0.062266   0.002594  -0.000055  -0.000000
     3  C   -0.000000  -0.000001  -0.000000   0.000011   0.000039   0.000039
     4  C   -0.009398   0.273062   0.002670  -0.061589  -0.000004   0.000000
     5  C    0.000037  -0.000813  -0.000011  -0.002832  -0.045074   0.000889
     6  C   -0.000005  -0.000019  -0.000000  -0.000693   0.009477  -0.000328
     7  H   -0.000000  -0.000000   0.000000  -0.000001  -0.000004  -0.000000
     8  H   -0.000000   0.000000  -0.000000  -0.000000   0.000097   0.000002
     9  H   -0.000000  -0.000002  -0.000000  -0.000000  -0.045687  -0.003297
    10  H   -0.034176   0.009285   0.001697  -0.000040   0.000001  -0.000000
    11  H    0.009447  -0.035564  -0.000039   0.001621  -0.000000  -0.000000
    12  O    0.304504   0.306013  -0.068467  -0.068187  -0.000906   0.000013
    13  C    4.506194  -0.088659   0.728316  -0.000091  -0.000506  -0.000008
    14  C   -0.088659   4.522135  -0.000105   0.726428   0.000022  -0.000001
    15  O    0.728316  -0.000105   7.559144  -0.000020  -0.001967   0.000017
    16  O   -0.000091   0.726428  -0.000020   7.559070   0.000000  -0.000000
    17  C   -0.000506   0.000022  -0.001967   0.000000   4.581854   0.382764
    18  H   -0.000008  -0.000001   0.000017  -0.000000   0.382764   0.633002
    19  H    0.002232  -0.000043   0.009564  -0.000068   0.387715  -0.019449
    20  H   -0.000008  -0.000001   0.000019  -0.000000   0.382798  -0.022968
    21  H   -0.000231   0.000725  -0.000219   0.011077  -0.016058   0.000347
    22  H    0.000001   0.000130   0.000000   0.002354  -0.000239   0.000005
              19         20         21         22
     1  C   -0.017843  -0.018536  -0.058757   0.012884
     2  C    0.000674  -0.000000  -0.000115  -0.000001
     3  C   -0.000019   0.000039   0.011564  -0.058430
     4  C   -0.000084   0.000000   0.001177   0.000016
     5  C   -0.013539   0.000977   0.411897  -0.044916
     6  C    0.000384  -0.000330  -0.042464   0.415313
     7  H    0.000001  -0.000000  -0.000215  -0.014343
     8  H    0.000001   0.000002  -0.000171   0.007943
     9  H    0.005927  -0.003350   0.008353  -0.000086
    10  H   -0.000008  -0.000000   0.000003   0.000000
    11  H    0.000001  -0.000000  -0.000018  -0.000000
    12  O    0.002989   0.000011   0.007465  -0.000022
    13  C    0.002232  -0.000008  -0.000231   0.000001
    14  C   -0.000043  -0.000001   0.000725   0.000130
    15  O    0.009564   0.000019  -0.000219   0.000000
    16  O   -0.000068  -0.000000   0.011077   0.002354
    17  C    0.387715   0.382798  -0.016058  -0.000239
    18  H   -0.019449  -0.022968   0.000347   0.000005
    19  H    0.614460  -0.019564   0.005548   0.000009
    20  H   -0.019564   0.633263   0.000357   0.000005
    21  H    0.005548   0.000357   0.662466  -0.012384
    22  H    0.000009   0.000005  -0.012384   0.660099
 Mulliken charges:
               1
     1  C   -0.125031
     2  C   -0.067250
     3  C   -0.096193
     4  C   -0.042989
     5  C   -0.048058
     6  C   -0.050273
     7  H    0.052203
     8  H    0.042119
     9  H    0.023527
    10  H    0.089167
    11  H    0.089177
    12  O   -0.286103
    13  C    0.305662
    14  C    0.290400
    15  O   -0.168404
    16  O   -0.169765
    17  C   -0.015381
    18  H    0.047476
    19  H    0.041113
    20  H    0.047286
    21  H    0.009655
    22  H    0.031663
 Sum of Mulliken charges =  -0.00000
 Mulliken charges with hydrogens summed into heavy atoms:
               1
     1  C   -0.101505
     2  C    0.021917
     3  C   -0.001872
     4  C    0.046188
     5  C   -0.038403
     6  C   -0.018609
    12  O   -0.286103
    13  C    0.305662
    14  C    0.290400
    15  O   -0.168404
    16  O   -0.169765
    17  C    0.120494
 Electronic spatial extent (au):  <R**2>=           3135.0178
 Charge=             -0.0000 electrons
 Dipole moment (field-independent basis, Debye):
    X=              5.1954    Y=              1.1553    Z=              0.0868  Tot=              5.3230
 Quadrupole moment (field-independent basis, Debye-Ang):
   XX=            -50.6079   YY=            -74.0580   ZZ=            -71.6038
   XY=             10.2956   XZ=              0.1300   YZ=              0.0398
 Traceless Quadrupole moment (field-independent basis, Debye-Ang):
   XX=             14.8154   YY=             -8.6348   ZZ=             -6.1806
   XY=             10.2956   XZ=              0.1300   YZ=              0.0398
 Octapole moment (field-independent basis, Debye-Ang**2):
  XXX=             96.5235  YYY=              7.2770  ZZZ=             -0.3312  XYY=             -5.3212
  XXY=             19.7993  XXZ=              1.2160  XZZ=             16.2945  YZZ=             -2.8301
  YYZ=              0.2386  XYZ=              0.1834
 Hexadecapole moment (field-independent basis, Debye-Ang**3):
 XXXX=          -2747.4111 YYYY=           -993.3580 ZZZZ=            -76.8339 XXXY=             71.8305
 XXXZ=              1.3407 YYYX=             46.2210 YYYZ=              0.4210 ZZZX=             -0.2886
 ZZZY=             -0.3683 XXYY=           -645.7416 XXZZ=           -583.9614 YYZZ=           -172.6794
 XXYZ=              0.3182 YYXZ=              0.5447 ZZXY=              2.6191
 N-N= 6.239445129533D+02 E-N=-2.585221068826D+03  KE= 5.685429792149D+02
 Unable to Open any file for archive entry.
 1\1\GINC-NODE-006\FTS\RwB97XD\def2SVP\C9H10O3\JP2658\25-Dec-2023\0\\# 
 wb97xd def2svp geom=allchk scrf=(iefpcm,solvent=toluene) opt=(readfc,t
 s,noeigen,maxcycles=50,maxstep=10)\\1d_2b_endo_2_reopt3.out\\0,1\C,-2.
 4868329969,1.4622956966,-0.6679580185\C,1.2319679748,-2.2085575357,3.0
 104425718\C,-0.925016309,3.2453398109,-2.6583503892\C,2.1943016186,-1.
 6161124331,2.3030456517\C,-1.1575688655,1.5139511093,-0.8369695053\C,-
 0.4194631561,2.3650267249,-1.7851788048\H,-0.2704014731,3.8232354809,-
 3.3148769508\H,-2.0002381947,3.4244820858,-2.7540693384\H,-3.131688924
 ,2.1054804206,-1.2803980189\H,1.3096378619,-2.9397362444,3.8129480798\
 H,3.2748429932,-1.7296368561,2.368013676\O,0.1830011645,-0.7962248157,
 1.5101781868\C,-0.0803443267,-1.6954814626,2.5179665403\C,1.542600146,
 -0.6964816253,1.3245223784\O,-1.1864938105,-1.9543824036,2.8664499815\
 O,2.0222560248,0.0206355942,0.5069510111\C,-3.1862710917,0.5756769414,
 0.3141398083\H,-3.889624415,-0.1015019304,-0.1984189293\H,-2.478233840
 3,-0.0353418798,0.8918522027\H,-3.787813794,1.1699518492,1.0219091867\
 H,-0.5348089613,0.863829385,-0.2151756678\H,0.6688923751,2.2433520879,
 -1.750523652\\Version=ES64L-G16RevC.01\State=1-A\HF=-573.9930779\RMSD=
 4.905e-09\RMSF=1.660e-06\Dipole=1.225497,-1.1803407,1.2209791\Quadrupo
 le=1.851471,-0.675212,-1.1762589,-8.1064836,8.277086,-3.6838945\PG=C01
  [X(C9H10O3)]\\@
 The archive entry for this job was punched.


 ABOVE ALL I AM AN OPTIMIST FOR NUMBER THEORY,
 AND I HOLD THE HOPE THAT WE MAY NOT BE FAR FROM
 A TIME WHEN IRREFUTABLE ARITHMETIC WILL CELEBRATE
 ITS TRIUMPHS IN PHYSICS AND CHEMISTRY.
   -- HERMANN MINKOWSKI, 1905
 Job cpu time:       0 days  2 hours 48 minutes 56.3 seconds.
 Elapsed time:       0 days  0 hours 14 minutes 30.5 seconds.
 File lengths (MBytes):  RWF=    174 Int=      0 D2E=      0 Chk=     11 Scr=      1
 Normal termination of Gaussian 16 at Mon Dec 25 23:20:51 2023.
