Unloading slurm/anatra/current
  ERROR: No such file or directory on
    '/cm/local/modulefiles/slurm/anatra/current'
environment: line 0: unalias: gv: not found
environment: line 0: unalias: sl: not found
 Entering Gaussian System, Link 0=g16
 Initial command:
 /apps/gaussian/g16/C.01/g16/l1.exe "/local/jobs/1153164/Gau-1733833.inp" -scrdir="/local/jobs/1153164/"
 Entering Link 1 = /apps/gaussian/g16/C.01/g16/l1.exe PID=   1733836.
  
 Copyright (c) 1988-2019, Gaussian, Inc.  All Rights Reserved.
  
 This is part of the Gaussian(R) 16 program.  It is based on
 the Gaussian(R) 09 system (copyright 2009, Gaussian, Inc.),
 the Gaussian(R) 03 system (copyright 2003, Gaussian, Inc.),
 the Gaussian(R) 98 system (copyright 1998, Gaussian, Inc.),
 the Gaussian(R) 94 system (copyright 1995, Gaussian, Inc.),
 the Gaussian 92(TM) system (copyright 1992, Gaussian, Inc.),
 the Gaussian 90(TM) system (copyright 1990, Gaussian, Inc.),
 the Gaussian 88(TM) system (copyright 1988, Gaussian, Inc.),
 the Gaussian 86(TM) system (copyright 1986, Carnegie Mellon
 University), and the Gaussian 82(TM) system (copyright 1983,
 Carnegie Mellon University). Gaussian is a federally registered
 trademark of Gaussian, Inc.
  
 This software contains proprietary and confidential information,
 including trade secrets, belonging to Gaussian, Inc.
  
 This software is provided under written license and may be
 used, copied, transmitted, or stored only in accord with that
 written license.
  
 The following legend is applicable only to US Government
 contracts under FAR:
  
                    RESTRICTED RIGHTS LEGEND
  
 Use, reproduction and disclosure by the US Government is
 subject to restrictions as set forth in subparagraphs (a)
 and (c) of the Commercial Computer Software - Restricted
 Rights clause in FAR 52.227-19.
  
 Gaussian, Inc.
 340 Quinnipiac St., Bldg. 40, Wallingford CT 06492
  
  
 ---------------------------------------------------------------
 Warning -- This program may not be used in any manner that
 competes with the business of Gaussian, Inc. or will provide
 assistance to any competitor of Gaussian, Inc.  The licensee
 of this program is prohibited from giving any competitor of
 Gaussian, Inc. access to this program.  By using this program,
 the user acknowledges that Gaussian, Inc. is engaged in the
 business of creating and licensing software in the field of
 computational chemistry and represents and warrants to the
 licensee that it is not a competitor of Gaussian, Inc. and that
 it will not use this program in any manner prohibited above.
 ---------------------------------------------------------------
  

 Cite this work as:
 Gaussian 16, Revision C.01,
 M. J. Frisch, G. W. Trucks, H. B. Schlegel, G. E. Scuseria, 
 M. A. Robb, J. R. Cheeseman, G. Scalmani, V. Barone, 
 G. A. Petersson, H. Nakatsuji, X. Li, M. Caricato, A. V. Marenich, 
 J. Bloino, B. G. Janesko, R. Gomperts, B. Mennucci, H. P. Hratchian, 
 J. V. Ortiz, A. F. Izmaylov, J. L. Sonnenberg, D. Williams-Young, 
 F. Ding, F. Lipparini, F. Egidi, J. Goings, B. Peng, A. Petrone, 
 T. Henderson, D. Ranasinghe, V. G. Zakrzewski, J. Gao, N. Rega, 
 G. Zheng, W. Liang, M. Hada, M. Ehara, K. Toyota, R. Fukuda, 
 J. Hasegawa, M. Ishida, T. Nakajima, Y. Honda, O. Kitao, H. Nakai, 
 T. Vreven, K. Throssell, J. A. Montgomery, Jr., J. E. Peralta, 
 F. Ogliaro, M. J. Bearpark, J. J. Heyd, E. N. Brothers, K. N. Kudin, 
 V. N. Staroverov, T. A. Keith, R. Kobayashi, J. Normand, 
 K. Raghavachari, A. P. Rendell, J. C. Burant, S. S. Iyengar, 
 J. Tomasi, M. Cossi, J. M. Millam, M. Klene, C. Adamo, R. Cammi, 
 J. W. Ochterski, R. L. Martin, K. Morokuma, O. Farkas, 
 J. B. Foresman, and D. J. Fox, Gaussian, Inc., Wallingford CT, 2019.
 
 ******************************************
 Gaussian 16:  ES64L-G16RevC.01  3-Jul-2019
                30-Dec-2023 
 ******************************************
 %chk=da-2_1_opt_hf_re4_freq.chk
 %nprocshared=12
 Will use up to   12 processors via shared memory.
 %mem=48GB
 -----------------------------------------------------------
 # wb97xd def2svp scrf=(iefpcm,solvent=toluene) freq=noraman
 -----------------------------------------------------------
 1/10=4,30=1,38=1/1,3;
 2/12=2,17=6,18=5,40=1/2;
 3/5=43,7=101,11=2,25=1,30=1,70=2201,71=2,72=13,74=-58,140=1/1,2,3;
 4//1;
 5/5=2,38=5,53=13,98=1/2;
 8/6=4,10=90,11=11/1;
 11/6=1,8=1,9=11,15=111,16=1/1,2,10;
 10/6=1/2;
 6/7=2,8=2,9=2,10=2,28=1/1;
 7/8=1,10=1,25=1/1,2,3,16;
 1/10=4,30=1/3;
 99//99;
 ---------------------
 da-2_1_opt_hf_re4.out
 ---------------------
 Symbolic Z-matrix:
 Charge =  0 Multiplicity = 1
 C                    -1.32871   1.20539  -0.48029 
 C                     1.07558  -1.61813  -0.48824 
 C                    -2.88056  -1.45529  -0.65282 
 C                     0.88685  -1.4815    0.82317 
 C                    -1.91866   0.53949   0.52379 
 C                    -2.45101  -0.83015   0.45 
 H                    -3.24297  -2.48521  -0.61311 
 H                    -2.90025  -0.9579   -1.62729 
 H                    -1.19796   0.69567  -1.44442 
 H                     0.87602  -2.47085  -1.13393 
 H                     0.49287  -2.19321   1.54578 
 O                     1.75289   0.52401   0.0633 
 C                     1.61459  -0.3287   -1.00697 
 C                     1.30409  -0.10151   1.20492 
 O                     1.89273  -0.00698  -2.11784 
 O                     1.29385   0.43572   2.26516 
 C                    -0.80824   2.6042   -0.39867 
 H                    -1.31229   3.2512   -1.13494 
 H                    -0.95729   3.035     0.60176 
 H                     0.26788   2.6322   -0.63151 
 H                    -2.00233   1.03502   1.49846 
 H                    -2.50302  -1.36677   1.40481 
 

 GradGradGradGradGradGradGradGradGradGradGradGradGradGradGradGradGradGrad
 Berny optimization.
 Initialization pass.
 Trust Radius=3.00D-01 FncErr=1.00D-07 GrdErr=1.00D-07 EigMax=2.50D+02 EigMin=1.00D-04
 Number of steps in this run=      2 maximum allowed number of steps=      2.
 GradGradGradGradGradGradGradGradGradGradGradGradGradGradGradGradGradGrad

                          Input orientation:                          
 ---------------------------------------------------------------------
 Center     Atomic      Atomic             Coordinates (Angstroms)
 Number     Number       Type             X           Y           Z
 ---------------------------------------------------------------------
      1          6           0       -1.328710    1.205390   -0.480290
      2          6           0        1.075580   -1.618130   -0.488240
      3          6           0       -2.880560   -1.455290   -0.652820
      4          6           0        0.886850   -1.481500    0.823170
      5          6           0       -1.918660    0.539490    0.523790
      6          6           0       -2.451010   -0.830150    0.450000
      7          1           0       -3.242970   -2.485210   -0.613110
      8          1           0       -2.900250   -0.957900   -1.627290
      9          1           0       -1.197960    0.695670   -1.444420
     10          1           0        0.876020   -2.470850   -1.133930
     11          1           0        0.492870   -2.193210    1.545780
     12          8           0        1.752890    0.524010    0.063300
     13          6           0        1.614590   -0.328700   -1.006970
     14          6           0        1.304090   -0.101510    1.204920
     15          8           0        1.892730   -0.006980   -2.117840
     16          8           0        1.293850    0.435720    2.265160
     17          6           0       -0.808240    2.604200   -0.398670
     18          1           0       -1.312290    3.251200   -1.134940
     19          1           0       -0.957290    3.035000    0.601760
     20          1           0        0.267880    2.632200   -0.631510
     21          1           0       -2.002330    1.035020    1.498460
     22          1           0       -2.503020   -1.366770    1.404810
 ---------------------------------------------------------------------
                    Distance matrix (angstroms):
                    1          2          3          4          5
     1  C    0.000000
     2  C    3.708495   0.000000
     3  C    3.085000   3.962909   0.000000
     4  C    3.718480   1.331947   4.046308   0.000000
     5  C    1.341507   3.826879   2.507750   3.470579   0.000000
     6  C    2.503681   3.733369   1.338479   3.421231   1.471311
     7  H    4.159635   4.406506   1.092544   4.486173   3.492155
     8  H    2.909497   4.188146   1.094247   4.541039   2.798721
     9  H    1.098388   3.381854   2.843308   3.772064   2.101821
    10  H    4.336222   1.088058   3.921061   2.192982   4.429494
    11  H    4.355869   2.192602   4.093702   1.088079   3.785180
    12  O    3.202503   2.313376   5.089137   2.312898   3.700347
    13  C    3.360631   1.490719   4.647688   2.282097   3.947257
    14  C    3.388149   2.284545   4.774433   1.491373   3.355732
    15  O    3.811704   2.432927   5.198864   3.440282   4.669425
    16  O    3.873978   3.441969   5.432884   2.433252   3.655593
    17  C    1.494731   4.624378   4.564927   4.589027   2.519324
    18  H    2.148063   5.461732   4.984271   5.573945   3.236115
    19  H    2.157836   5.193484   5.043376   4.883508   2.675422
    20  H    2.146568   4.328765   5.159525   4.407011   3.239616
    21  H    2.097198   4.523241   3.406015   3.890533   1.096600
    22  H    3.398325   4.056254   2.093851   3.441320   2.179794
                    6          7          8          9         10
     6  C    0.000000
     7  H    2.120525   0.000000
     8  H    2.129148   1.865126   0.000000
     9  H    2.736254   3.871839   2.380237   0.000000
    10  H    4.033591   4.151811   4.097882   3.797979   0.000000
    11  H    3.424193   4.324647   4.807039   4.488411   2.721164
    12  O    4.433516   5.871248   5.167772   3.318163   3.342371
    13  C    4.347795   5.329310   4.600486   3.025084   2.269452
    14  C    3.898922   5.446376   5.141137   3.730248   3.356670
    15  O    5.112679   5.897563   4.910962   3.240305   2.841203
    16  O    4.349852   6.115473   5.889297   4.476346   4.491831
    17  C    3.900474   5.645882   4.309822   2.210873   5.397543
    18  H    4.523951   6.075050   4.525544   2.576739   6.126219
    19  H    4.146518   6.096963   4.968602   3.117249   6.057064
    20  H    4.533199   6.205988   4.890546   2.561183   5.163659
    21  H    2.186193   4.288349   3.814224   3.069644   5.244569
    22  H    1.096507   2.422898   3.085222   3.751660   4.368307
                   11         12         13         14         15
    11  H    0.000000
    12  O    3.341958   0.000000
    13  C    3.354279   1.375398   0.000000
    14  C    2.269245   1.376951   2.245102   0.000000
    15  O    4.490136   2.249195   1.189495   3.375821   0.000000
    16  O    2.840836   2.250933   3.375507   1.188625   4.445822
    17  C    5.337501   3.331665   3.852536   3.788708   4.131470
    18  H    6.331387   4.274187   4.625871   4.853973   4.674824
    19  H    5.507115   3.733642   4.529576   3.913481   4.977196
    20  H    5.298660   2.670670   3.274374   3.452445   3.437235
    21  H    4.080408   4.052467   4.606411   3.508601   5.416169
    22  H    3.110986   4.846387   4.883542   4.016830   5.794887
                   16         17         18         19         20
    16  O    0.000000
    17  C    4.027043   0.000000
    18  H    5.126361   1.102166   0.000000
    19  H    3.819789   1.099393   1.785748   0.000000
    20  H    3.777279   1.101378   1.770181   1.784445   0.000000
    21  H    3.436829   2.736289   3.510328   2.428189   3.498801
    22  H    4.290151   4.679041   5.403130   4.733894   5.274111
                   21         22
    21  H    0.000000
    22  H    2.455210   0.000000
 Stoichiometry    C9H10O3
 Framework group  C1[X(C9H10O3)]
 Deg. of freedom    60
 Full point group                 C1      NOp   1
 Largest Abelian subgroup         C1      NOp   1
 Largest concise Abelian subgroup C1      NOp   1
                         Standard orientation:                         
 ---------------------------------------------------------------------
 Center     Atomic      Atomic             Coordinates (Angstroms)
 Number     Number       Type             X           Y           Z
 ---------------------------------------------------------------------
      1          6           0       -1.328708    1.205393   -0.480289
      2          6           0        1.075577   -1.618131   -0.488239
      3          6           0       -2.880563   -1.455284   -0.652819
      4          6           0        0.886847   -1.481501    0.823171
      5          6           0       -1.918659    0.539494    0.523791
      6          6           0       -2.451011   -0.830145    0.450001
      7          1           0       -3.242974   -2.485204   -0.613109
      8          1           0       -2.900252   -0.957894   -1.627289
      9          1           0       -1.197959    0.695673   -1.444419
     10          1           0        0.876016   -2.470851   -1.133929
     11          1           0        0.492866   -2.193210    1.545781
     12          8           0        1.752891    0.524007    0.063301
     13          6           0        1.614589   -0.328702   -1.006969
     14          6           0        1.304090   -0.101512    1.204921
     15          8           0        1.892730   -0.006983   -2.117839
     16          8           0        1.293851    0.435718    2.265161
     17          6           0       -0.808235    2.604202   -0.398669
     18          1           0       -1.312284    3.251203   -1.134939
     19          1           0       -0.957285    3.035002    0.601761
     20          1           0        0.267885    2.632200   -0.631509
     21          1           0       -2.002328    1.035024    1.498461
     22          1           0       -2.503022   -1.366765    1.404811
 ---------------------------------------------------------------------
 Rotational constants (GHZ):           1.0612665           0.7100785           0.6846505
 Standard basis: def2SVP (5D, 7F)
 There are   230 symmetry adapted cartesian basis functions of A   symmetry.
 There are   218 symmetry adapted basis functions of A   symmetry.
   218 basis functions,   370 primitive gaussians,   230 cartesian basis functions
    44 alpha electrons       44 beta electrons
       nuclear repulsion energy       677.3080412865 Hartrees.
 NAtoms=   22 NActive=   22 NUniq=   22 SFac= 1.00D+00 NAtFMM=   60 NAOKFM=F Big=F
 Integral buffers will be    131072 words long.
 Raffenetti 2 integral format.
 Two-electron integral symmetry is turned on.
 Nuclear repulsion after empirical dispersion term =      677.2939087530 Hartrees.
 Force inversion solution in PCM.
 ------------------------------------------------------------------------------
 Polarizable Continuum Model (PCM)
 =================================
 Model                : PCM.
 Atomic radii         : UFF (Universal Force Field).
 Polarization charges : Total charges.
 Charge compensation  : None.
 Solution method      : Matrix inversion.
 Cavity type          : Scaled VdW (van der Waals Surface) (Alpha=1.100).
 Cavity algorithm     : GePol (No added spheres)
                        Default sphere list used, NSphG=   22.
                        Lebedev-Laikov grids with approx.  5.0 points / Ang**2.
                        Smoothing algorithm: York/Karplus (Gamma=1.0000).
                        Polarization charges: spherical gaussians, with
                                              point-specific exponents (IZeta= 3).
                        Self-potential: point-specific (ISelfS= 7).
                        Self-field    : sphere-specific E.n sum rule (ISelfD= 2).
 1st derivatives      : Analytical E(r).r(x)/FMM algorithm (CHGder, D1EAlg=3).
                        Cavity 1st derivative terms included.
 2nd derivatives      : Analytical E(r).r(xy)/FMM algorithm (CHGder, D2EAlg=3).
                        Cavity 2nd derivative terms included.
 Solvent              : Toluene, Eps=   2.374100 Eps(inf)=   2.238315
 ------------------------------------------------------------------------------
 One-electron integrals computed using PRISM.
   1 Symmetry operations used in ECPInt.
 ECPInt:  NShTT=    5253 NPrTT=   19101 LenC2=    5156 LenP2D=   14182.
 LDataN:  DoStor=T MaxTD1= 4 Len=   56
 NBasis=   218 RedAO= T EigKep=  6.59D-04  NBF=   218
 NBsUse=   218 1.00D-06 EigRej= -1.00D+00 NBFU=   218
 ExpMin= 1.22D-01 ExpMax= 2.27D+03 ExpMxC= 3.41D+02 IAcc=3 IRadAn=         5 AccDes= 0.00D+00
 Harris functional with IExCor= 4639 and IRadAn=       5 diagonalized for initial guess.
 HarFok:  IExCor= 4639 AccDes= 0.00D+00 IRadAn=         5 IDoV= 1 UseB2=F ITyADJ=14
 ICtDFT=  3500011 ScaDFX=  1.000000  1.000000  1.000000  1.000000
 FoFCou: FMM=F IPFlag=           0 FMFlag=      100000 FMFlg1=           0
         NFxFlg=           0 DoJE=T BraDBF=F KetDBF=T FulRan=T
         wScrn=  0.000000 ICntrl=       500 IOpCl=  0 I1Cent=   200000004 NGrid=           0
         NMat0=    1 NMatS0=      1 NMatT0=    0 NMatD0=    1 NMtDS0=    0 NMtDT0=    0
 Petite list used in FoFCou.
 Requested convergence on RMS density matrix=1.00D-08 within 128 cycles.
 Requested convergence on MAX density matrix=1.00D-06.
 Requested convergence on             energy=1.00D-06.
 No special actions if energy rises.
 Inv3:  Mode=1 IEnd=    10830000.
 Iteration    1 A*A^-1 deviation from unit magnitude is 3.22D-15 for    903.
 Iteration    1 A*A^-1 deviation from orthogonality  is 1.81D-15 for   1513    507.
 Iteration    1 A^-1*A deviation from unit magnitude is 3.33D-15 for    753.
 Iteration    1 A^-1*A deviation from orthogonality  is 1.94D-15 for   1469    111.
 Error on total polarization charges =  0.00612
 SCF Done:  E(RwB97XD) =  -573.998310378     A.U. after   14 cycles
            NFock= 14  Conv=0.72D-08     -V/T= 2.0096
 DoSCS=F DFT=T ScalE2(SS,OS)=  1.000000  1.000000
 Range of M.O.s used for correlation:     1   218
 NBasis=   218 NAE=    44 NBE=    44 NFC=     0 NFV=     0
 NROrb=    218 NOA=    44 NOB=    44 NVA=   174 NVB=   174

 **** Warning!!: The largest alpha MO coefficient is  0.10495031D+02

   1 Symmetry operations used in ECPInt.
 ECPInt:  NShTT=    5253 NPrTT=   19101 LenC2=    5156 LenP2D=   14182.
 LDataN:  DoStor=T MaxTD1= 5 Len=  102
 Symmetrizing basis deriv contribution to polar:
 IMax=3 JMax=2 DiffMx= 0.00D+00
 G2DrvN: will do    23 centers at a time, making    1 passes.
 Calling FoFCou, ICntrl=  3107 FMM=F I1Cent=   0 AccDes= 0.00D+00.
 NEqPCM:  Using equilibrium solvation (IEInf=0, Eps=   2.3741, EpsInf=   2.2383)
 G2PCM: DoFxE=T DoFxN=T DoGrad=T DoDP/DQ/DG/TGxP=FFFF NFrqRd=   0 IEInf=0 SqF1=F DoCFld=F IF1Alg=4.
 End of G2Drv F.D. properties file   721 does not exist.
 End of G2Drv F.D. properties file   722 does not exist.
 End of G2Drv F.D. properties file   788 does not exist.
          IDoAtm=1111111111111111111111
 NEqPCM:  Using equilibrium solvation (IEInf=0, Eps=   2.3741, EpsInf=   2.2383)
          Differentiating once with respect to electric field.
                with respect to dipole field.
          Differentiating once with respect to nuclear coordinates.
 Keep R1 ints in memory in canonical form, NReq=587803675.
          There are    69 degrees of freedom in the 1st order CPHF.  IDoFFX=6 NUNeed=     3.
     66 vectors produced by pass  0 Test12= 1.11D-14 1.45D-09 XBig12= 6.76D+01 4.42D+00.
 AX will form    66 AO Fock derivatives at one time.
     66 vectors produced by pass  1 Test12= 1.11D-14 1.45D-09 XBig12= 8.19D+00 4.16D-01.
     66 vectors produced by pass  2 Test12= 1.11D-14 1.45D-09 XBig12= 3.30D-01 1.26D-01.
     66 vectors produced by pass  3 Test12= 1.11D-14 1.45D-09 XBig12= 4.15D-03 1.11D-02.
     66 vectors produced by pass  4 Test12= 1.11D-14 1.45D-09 XBig12= 3.67D-05 8.03D-04.
     66 vectors produced by pass  5 Test12= 1.11D-14 1.45D-09 XBig12= 2.37D-07 7.32D-05.
     51 vectors produced by pass  6 Test12= 1.11D-14 1.45D-09 XBig12= 1.18D-09 4.33D-06.
     21 vectors produced by pass  7 Test12= 1.11D-14 1.45D-09 XBig12= 5.41D-12 1.91D-07.
      3 vectors produced by pass  8 Test12= 1.11D-14 1.45D-09 XBig12= 2.18D-14 1.17D-08.
 InvSVY:  IOpt=1 It=  1 EMax= 5.33D-15
 Solved reduced A of dimension   471 with    69 vectors.
 Isotropic polarizability for W=    0.000000      110.28 Bohr**3.
 End of Minotr F.D. properties file   721 does not exist.
 End of Minotr F.D. properties file   722 does not exist.
 End of Minotr F.D. properties file   788 does not exist.

 **********************************************************************

            Population analysis using the SCF Density.

 **********************************************************************

 Orbital symmetries:
       Occupied  (A) (A) (A) (A) (A) (A) (A) (A) (A) (A) (A) (A)
                 (A) (A) (A) (A) (A) (A) (A) (A) (A) (A) (A) (A)
                 (A) (A) (A) (A) (A) (A) (A) (A) (A) (A) (A) (A)
                 (A) (A) (A) (A) (A) (A) (A) (A)
       Virtual   (A) (A) (A) (A) (A) (A) (A) (A) (A) (A) (A) (A)
                 (A) (A) (A) (A) (A) (A) (A) (A) (A) (A) (A) (A)
                 (A) (A) (A) (A) (A) (A) (A) (A) (A) (A) (A) (A)
                 (A) (A) (A) (A) (A) (A) (A) (A) (A) (A) (A) (A)
                 (A) (A) (A) (A) (A) (A) (A) (A) (A) (A) (A) (A)
                 (A) (A) (A) (A) (A) (A) (A) (A) (A) (A) (A) (A)
                 (A) (A) (A) (A) (A) (A) (A) (A) (A) (A) (A) (A)
                 (A) (A) (A) (A) (A) (A) (A) (A) (A) (A) (A) (A)
                 (A) (A) (A) (A) (A) (A) (A) (A) (A) (A) (A) (A)
                 (A) (A) (A) (A) (A) (A) (A) (A) (A) (A) (A) (A)
                 (A) (A) (A) (A) (A) (A) (A) (A) (A) (A) (A) (A)
                 (A) (A) (A) (A) (A) (A) (A) (A) (A) (A) (A) (A)
                 (A) (A) (A) (A) (A) (A) (A) (A) (A) (A) (A) (A)
                 (A) (A) (A) (A) (A) (A) (A) (A) (A) (A) (A) (A)
                 (A) (A) (A) (A) (A) (A)
 The electronic state is 1-A.
 Alpha  occ. eigenvalues --  -19.33744 -19.28564 -19.28492 -10.46509 -10.46481
 Alpha  occ. eigenvalues --  -10.35887 -10.35759 -10.31094 -10.30936 -10.30302
 Alpha  occ. eigenvalues --  -10.30100 -10.29424  -1.25748  -1.18535  -1.14704
 Alpha  occ. eigenvalues --   -0.94796  -0.90833  -0.85119  -0.80033  -0.77244
 Alpha  occ. eigenvalues --   -0.73976  -0.69254  -0.68762  -0.61986  -0.61023
 Alpha  occ. eigenvalues --   -0.60889  -0.57368  -0.57184  -0.56023  -0.53835
 Alpha  occ. eigenvalues --   -0.53757  -0.52072  -0.51174  -0.49743  -0.49329
 Alpha  occ. eigenvalues --   -0.47340  -0.43756  -0.43516  -0.42982  -0.41635
 Alpha  occ. eigenvalues --   -0.41376  -0.39057  -0.38628  -0.31099
 Alpha virt. eigenvalues --   -0.04484   0.03546   0.10694   0.12631   0.14184
 Alpha virt. eigenvalues --    0.15038   0.15558   0.16440   0.17334   0.19099
 Alpha virt. eigenvalues --    0.20614   0.21488   0.22501   0.23295   0.24987
 Alpha virt. eigenvalues --    0.25592   0.26818   0.29079   0.32244   0.33450
 Alpha virt. eigenvalues --    0.34707   0.37683   0.38343   0.40798   0.43127
 Alpha virt. eigenvalues --    0.44923   0.46720   0.47827   0.48207   0.49147
 Alpha virt. eigenvalues --    0.50921   0.51711   0.52196   0.54692   0.56128
 Alpha virt. eigenvalues --    0.58125   0.59658   0.60012   0.63077   0.64668
 Alpha virt. eigenvalues --    0.66628   0.68411   0.69557   0.69737   0.70401
 Alpha virt. eigenvalues --    0.71083   0.71819   0.72974   0.73436   0.74124
 Alpha virt. eigenvalues --    0.74821   0.76049   0.76365   0.77015   0.77796
 Alpha virt. eigenvalues --    0.78634   0.79643   0.80250   0.80841   0.81551
 Alpha virt. eigenvalues --    0.84460   0.86514   0.87214   0.89900   0.94456
 Alpha virt. eigenvalues --    0.94711   0.96692   1.02761   1.04545   1.04835
 Alpha virt. eigenvalues --    1.06213   1.11262   1.14534   1.15810   1.18017
 Alpha virt. eigenvalues --    1.20327   1.21222   1.23821   1.24409   1.27948
 Alpha virt. eigenvalues --    1.28360   1.29652   1.31339   1.36067   1.36618
 Alpha virt. eigenvalues --    1.38167   1.44218   1.46221   1.48992   1.54647
 Alpha virt. eigenvalues --    1.57703   1.60003   1.62141   1.63363   1.65350
 Alpha virt. eigenvalues --    1.66427   1.67508   1.69337   1.69718   1.72985
 Alpha virt. eigenvalues --    1.76502   1.78043   1.79916   1.80433   1.82315
 Alpha virt. eigenvalues --    1.84163   1.85735   1.87272   1.87779   1.89491
 Alpha virt. eigenvalues --    1.91698   1.92275   1.93028   1.95323   1.95580
 Alpha virt. eigenvalues --    1.97158   1.97714   1.99611   2.00262   2.03150
 Alpha virt. eigenvalues --    2.08850   2.11279   2.12002   2.12058   2.16022
 Alpha virt. eigenvalues --    2.18018   2.19320   2.20884   2.26198   2.29019
 Alpha virt. eigenvalues --    2.30932   2.33409   2.35752   2.37230   2.38868
 Alpha virt. eigenvalues --    2.45459   2.45475   2.47024   2.49414   2.53215
 Alpha virt. eigenvalues --    2.53977   2.60403   2.61384   2.64922   2.68464
 Alpha virt. eigenvalues --    2.69084   2.70358   2.72566   2.74073   2.76976
 Alpha virt. eigenvalues --    2.77969   2.79551   2.82858   2.85554   2.86612
 Alpha virt. eigenvalues --    2.90945   2.94273   3.01157   3.01954   3.02772
 Alpha virt. eigenvalues --    3.07729   3.10037   3.18456   3.24500   3.25799
 Alpha virt. eigenvalues --    3.27214   3.28923   3.34354   3.41967   3.49490
 Alpha virt. eigenvalues --    3.52165   3.72301   3.76255   3.78364
          Condensed to atoms (all electrons):
               1          2          3          4          5          6
     1  C    4.925346  -0.003492  -0.018454   0.000074   0.606527  -0.048267
     2  C   -0.003492   5.305542   0.001837   0.289679   0.000094   0.000279
     3  C   -0.018454   0.001837   4.748014  -0.000801  -0.060792   0.669362
     4  C    0.000074   0.289679  -0.000801   5.307671  -0.006179  -0.001821
     5  C    0.606527   0.000094  -0.060792  -0.006179   4.902280   0.343973
     6  C   -0.048267   0.000279   0.669362  -0.001821   0.343973   4.773689
     7  H   -0.000085   0.000028   0.388846  -0.000025   0.009256  -0.015354
     8  H    0.008428   0.000003   0.394008   0.000037  -0.024113  -0.014643
     9  H    0.389756  -0.001602   0.007736  -0.000656  -0.030969  -0.017924
    10  H   -0.000080   0.428324   0.000676  -0.044202  -0.000112   0.000279
    11  H    0.000070  -0.044580   0.000168   0.426923  -0.000766   0.001137
    12  O    0.008009  -0.105370   0.000009  -0.106427  -0.004364   0.000044
    13  C    0.002068   0.242559  -0.000411   0.014781   0.001015  -0.000845
    14  C   -0.000238   0.015148   0.000014   0.242501   0.007882  -0.001056
    15  O   -0.002071  -0.073329   0.000002   0.003724   0.000173   0.000001
    16  O   -0.002324   0.003823  -0.000002  -0.073996   0.000578  -0.000074
    17  C    0.388397  -0.000087   0.000239   0.000338  -0.050959   0.009106
    18  H   -0.016464   0.000001   0.000001  -0.000005   0.001849  -0.000281
    19  H   -0.023386  -0.000032  -0.000001   0.000066  -0.012376   0.000521
    20  H   -0.018639   0.000673   0.000047   0.000063   0.000675  -0.000364
    21  H   -0.045262   0.000053   0.008521  -0.000652   0.408991  -0.039320
    22  H    0.009384  -0.000377  -0.044154   0.000767  -0.044927   0.406008
               7          8          9         10         11         12
     1  C   -0.000085   0.008428   0.389756  -0.000080   0.000070   0.008009
     2  C    0.000028   0.000003  -0.001602   0.428324  -0.044580  -0.105370
     3  C    0.388846   0.394008   0.007736   0.000676   0.000168   0.000009
     4  C   -0.000025   0.000037  -0.000656  -0.044202   0.426923  -0.106427
     5  C    0.009256  -0.024113  -0.030969  -0.000112  -0.000766  -0.004364
     6  C   -0.015354  -0.014643  -0.017924   0.000279   0.001137   0.000044
     7  H    0.615777  -0.040766  -0.000156   0.000023  -0.000001   0.000000
     8  H   -0.040766   0.614812   0.002193   0.000018   0.000006   0.000004
     9  H   -0.000156   0.002193   0.640098  -0.000010   0.000003  -0.002160
    10  H    0.000023   0.000018  -0.000010   0.559505  -0.005247   0.002858
    11  H   -0.000001   0.000006   0.000003  -0.005247   0.560402   0.002882
    12  O    0.000000   0.000004  -0.002160   0.002858   0.002882   8.025887
    13  C   -0.000000  -0.000054   0.005313  -0.033596   0.008779   0.296003
    14  C   -0.000006   0.000005  -0.000457   0.008853  -0.032469   0.297704
    15  O   -0.000000  -0.000009   0.002182   0.001823  -0.000047  -0.066506
    16  O    0.000000  -0.000000   0.000068  -0.000046   0.001806  -0.065927
    17  C   -0.000001  -0.000025  -0.038384   0.000002  -0.000005  -0.003833
    18  H   -0.000001  -0.000022  -0.003992  -0.000000  -0.000000   0.000080
    19  H    0.000001   0.000001   0.006223   0.000000   0.000000  -0.000014
    20  H    0.000000   0.000017  -0.003573  -0.000003   0.000000   0.006050
    21  H   -0.000222   0.000010   0.007983   0.000003   0.000043  -0.000019
    22  H   -0.013598   0.007691   0.000143  -0.000004   0.000552   0.000002
              13         14         15         16         17         18
     1  C    0.002068  -0.000238  -0.002071  -0.002324   0.388397  -0.016464
     2  C    0.242559   0.015148  -0.073329   0.003823  -0.000087   0.000001
     3  C   -0.000411   0.000014   0.000002  -0.000002   0.000239   0.000001
     4  C    0.014781   0.242501   0.003724  -0.073996   0.000338  -0.000005
     5  C    0.001015   0.007882   0.000173   0.000578  -0.050959   0.001849
     6  C   -0.000845  -0.001056   0.000001  -0.000074   0.009106  -0.000281
     7  H   -0.000000  -0.000006  -0.000000   0.000000  -0.000001  -0.000001
     8  H   -0.000054   0.000005  -0.000009  -0.000000  -0.000025  -0.000022
     9  H    0.005313  -0.000457   0.002182   0.000068  -0.038384  -0.003992
    10  H   -0.033596   0.008853   0.001823  -0.000046   0.000002  -0.000000
    11  H    0.008779  -0.032469  -0.000047   0.001806  -0.000005  -0.000000
    12  O    0.296003   0.297704  -0.066506  -0.065927  -0.003833   0.000080
    13  C    4.518013  -0.083219   0.748948   0.000348  -0.000968   0.000003
    14  C   -0.083219   4.504490   0.000269   0.753112   0.000204   0.000089
    15  O    0.748948   0.000269   7.554847  -0.000015  -0.000104  -0.000003
    16  O    0.000348   0.753112  -0.000015   7.547893   0.000454  -0.000001
    17  C   -0.000968   0.000204  -0.000104   0.000454   4.544379   0.383601
    18  H    0.000003   0.000089  -0.000003  -0.000001   0.383601   0.620406
    19  H    0.000074   0.000023  -0.000001   0.000170   0.401057  -0.021166
    20  H    0.000145  -0.000806   0.000968   0.000054   0.385462  -0.019384
    21  H    0.000021   0.000810   0.000001   0.000639  -0.013381   0.000090
    22  H    0.000019  -0.000288   0.000000   0.000049  -0.000244  -0.000001
              19         20         21         22
     1  C   -0.023386  -0.018639  -0.045262   0.009384
     2  C   -0.000032   0.000673   0.000053  -0.000377
     3  C   -0.000001   0.000047   0.008521  -0.044154
     4  C    0.000066   0.000063  -0.000652   0.000767
     5  C   -0.012376   0.000675   0.408991  -0.044927
     6  C    0.000521  -0.000364  -0.039320   0.406008
     7  H    0.000001   0.000000  -0.000222  -0.013598
     8  H    0.000001   0.000017   0.000010   0.007691
     9  H    0.006223  -0.003573   0.007983   0.000143
    10  H    0.000000  -0.000003   0.000003  -0.000004
    11  H    0.000000   0.000000   0.000043   0.000552
    12  O   -0.000014   0.006050  -0.000019   0.000002
    13  C    0.000074   0.000145   0.000021   0.000019
    14  C    0.000023  -0.000806   0.000810  -0.000288
    15  O   -0.000001   0.000968   0.000001   0.000000
    16  O    0.000170   0.000054   0.000639   0.000049
    17  C    0.401057   0.385462  -0.013381  -0.000244
    18  H   -0.021166  -0.019384   0.000090  -0.000001
    19  H    0.619109  -0.019966   0.006461   0.000001
    20  H   -0.019966   0.609874   0.000260   0.000018
    21  H    0.006461   0.000260   0.638749  -0.008106
    22  H    0.000001   0.000018  -0.008106   0.649848
 Mulliken charges:
               1
     1  C   -0.159295
     2  C   -0.059173
     3  C   -0.094864
     4  C   -0.051862
     5  C   -0.047737
     6  C   -0.064450
     7  H    0.056285
     8  H    0.052399
     9  H    0.038185
    10  H    0.080938
    11  H    0.080345
    12  O   -0.284911
    13  C    0.281004
    14  C    0.287435
    15  O   -0.170853
    16  O   -0.166611
    17  C   -0.005247
    18  H    0.055204
    19  H    0.043234
    20  H    0.058428
    21  H    0.034329
    22  H    0.037217
 Sum of Mulliken charges =  -0.00000
 Mulliken charges with hydrogens summed into heavy atoms:
               1
     1  C   -0.121110
     2  C    0.021765
     3  C    0.013820
     4  C    0.028483
     5  C   -0.013408
     6  C   -0.027233
    12  O   -0.284911
    13  C    0.281004
    14  C    0.287435
    15  O   -0.170853
    16  O   -0.166611
    17  C    0.151618
 APT charges:
               1
     1  C    0.045887
     2  C   -0.140950
     3  C   -0.179673
     4  C   -0.112976
     5  C   -0.100405
     6  C    0.097137
     7  H    0.043241
     8  H    0.051166
     9  H    0.018867
    10  H    0.118411
    11  H    0.117417
    12  O   -0.931888
    13  C    1.230391
    14  C    1.231108
    15  O   -0.766148
    16  O   -0.765458
    17  C   -0.005990
    18  H   -0.012622
    19  H    0.001313
    20  H    0.013526
    21  H    0.030329
    22  H    0.017318
 Sum of APT charges =  -0.00000
 APT charges with hydrogens summed into heavy atoms:
               1
     1  C    0.064754
     2  C   -0.022539
     3  C   -0.085265
     4  C    0.004441
     5  C   -0.070077
     6  C    0.114455
    12  O   -0.931888
    13  C    1.230391
    14  C    1.231108
    15  O   -0.766148
    16  O   -0.765458
    17  C   -0.003773
 Electronic spatial extent (au):  <R**2>=           2053.8523
 Charge=             -0.0000 electrons
 Dipole moment (field-independent basis, Debye):
    X=             -1.4355    Y=             -3.5865    Z=              0.1386  Tot=              3.8656
 Quadrupole moment (field-independent basis, Debye-Ang):
   XX=            -75.6417   YY=            -62.0426   ZZ=            -77.0356
   XY=             -3.8483   XZ=              1.3907   YZ=             -2.1208
 Traceless Quadrupole moment (field-independent basis, Debye-Ang):
   XX=             -4.0684   YY=              9.5307   ZZ=             -5.4624
   XY=             -3.8483   XZ=              1.3907   YZ=             -2.1208
 Octapole moment (field-independent basis, Debye-Ang**2):
  XXX=             29.7435  YYY=             -7.3219  ZZZ=             -0.0332  XYY=              2.4689
  XXY=             -9.5612  XXZ=              5.6366  XZZ=            -17.9739  YZZ=             -8.1743
  YYZ=             -1.5077  XYZ=             -1.1792
 Hexadecapole moment (field-independent basis, Debye-Ang**3):
 XXXX=          -1389.4853 YYYY=           -734.8130 ZZZZ=           -650.8942 XXXY=             11.7561
 XXXZ=             12.0252 YYYX=              6.2349 YYYZ=              2.0419 ZZZX=              4.6457
 ZZZY=            -10.1616 XXYY=           -340.1718 XXZZ=           -333.9469 YYZZ=           -209.1844
 XXYZ=              3.2779 YYXZ=             -4.6965 ZZXY=             -8.6829
 N-N= 6.772939087530D+02 E-N=-2.691630803639D+03  KE= 5.685288061119D+02
  Exact polarizability:      81.531      23.368     117.816      -6.876       3.763     131.496
 Approx polarizability:      79.338      18.999     108.580      -9.572       4.995     152.463
   1 Symmetry operations used in ECPInt.
 ECPInt:  NShTT=    5253 NPrTT=   19101 LenC2=    5156 LenP2D=   14182.
 LDataN:  DoStor=T MaxTD1= 6 Len=  172
 D2PCM: PCM CHGder 2nd derivatives, FixD1E=F FixD2E=F DoIter=F DoCFld=F I1PDM=0
 Calling FoFJK, ICntrl=    100127 FMM=F ISym2X=0 I1Cent= 0 IOpClX= 0 NMat=1 NMatS=1 NMatT=0.
 Full mass-weighted force constant matrix:
 Low frequencies ---  -24.8537  -13.2394  -11.3358   -0.0006    0.0006    0.0008
 Low frequencies ---    7.2178   26.9491   45.6092
 ******    1 imaginary frequencies (negative Signs) ****** 
 Diagonal vibrational polarizability:
      115.1409644      19.1000703      92.8849136
 Harmonic frequencies (cm**-1), IR intensities (KM/Mole), Raman scattering
 activities (A**4/AMU), depolarization ratios for plane and unpolarized
 incident light, reduced masses (AMU), force constants (mDyne/A),
 and normal coordinates:
                      1                      2                      3
                      A                      A                      A
 Frequencies --    -23.6145                26.8307                45.3943
 Red. masses --      4.6430                 6.6846                 2.6153
 Frc consts  --      0.0015                 0.0028                 0.0032
 IR Inten    --      1.6005                 0.4034                 1.6367
  Atom  AN      X      Y      Z        X      Y      Z        X      Y      Z
     1   6     0.00   0.03   0.11     0.00  -0.03   0.14     0.03   0.01   0.01
     2   6    -0.02  -0.04   0.10     0.06   0.00  -0.11    -0.12   0.03  -0.02
     3   6     0.04   0.03  -0.21     0.03  -0.04   0.14     0.25  -0.12  -0.01
     4   6     0.01   0.07   0.09    -0.13   0.04  -0.14    -0.08   0.02  -0.01
     5   6    -0.04  -0.07   0.02    -0.10   0.03   0.12    -0.10   0.07  -0.02
     6   6    -0.03  -0.06  -0.13    -0.11   0.03   0.15    -0.05   0.05   0.02
     7   1     0.05   0.02  -0.32     0.01  -0.04   0.17     0.27  -0.12   0.05
     8   1     0.10   0.11  -0.17     0.16  -0.12   0.10     0.49  -0.26  -0.08
     9   1     0.06   0.13   0.07     0.10  -0.07   0.18     0.18  -0.05   0.07
    10   1    -0.05  -0.09   0.17     0.12  -0.01  -0.11    -0.19   0.06  -0.03
    11   1     0.02   0.13   0.16    -0.25   0.08  -0.18    -0.11   0.03  -0.02
    12   8     0.01  -0.00  -0.09     0.04  -0.00  -0.07     0.03  -0.02   0.01
    13   6    -0.03  -0.09  -0.02     0.17  -0.03  -0.07    -0.05   0.01  -0.00
    14   6     0.03   0.09  -0.03    -0.12   0.04  -0.11     0.02  -0.02   0.01
    15   8    -0.05  -0.18  -0.05     0.35  -0.07  -0.04    -0.06   0.01  -0.00
    16   8     0.06   0.18  -0.07    -0.23   0.06  -0.13     0.09  -0.05   0.02
    17   6    -0.00   0.03   0.28     0.01  -0.03   0.13    -0.01   0.03  -0.01
    18   1     0.07   0.09   0.28     0.15  -0.07   0.00     0.14  -0.05  -0.17
    19   1    -0.09  -0.06   0.30    -0.14   0.04   0.08    -0.22   0.12  -0.08
    20   1     0.02   0.04   0.38     0.05  -0.07   0.31     0.04   0.02   0.20
    21   1    -0.09  -0.16   0.06    -0.19   0.09   0.08    -0.26   0.15  -0.08
    22   1    -0.08  -0.15  -0.18    -0.23   0.10   0.18    -0.27   0.17   0.07
                      4                      5                      6
                      A                      A                      A
 Frequencies --     56.4598                75.3424                93.9103
 Red. masses --      5.6800                 4.0084                 3.2360
 Frc consts  --      0.0107                 0.0134                 0.0168
 IR Inten    --      3.6159                 4.9319                 7.5412
  Atom  AN      X      Y      Z        X      Y      Z        X      Y      Z
     1   6    -0.01  -0.16  -0.01     0.13  -0.10   0.01    -0.03   0.02   0.02
     2   6    -0.11   0.13  -0.01     0.04   0.01   0.00     0.22  -0.08   0.02
     3   6    -0.26  -0.01  -0.03     0.02  -0.03   0.00    -0.07   0.04  -0.01
     4   6    -0.08   0.12  -0.01     0.04   0.00   0.00     0.22  -0.09   0.02
     5   6    -0.13  -0.08  -0.03     0.05  -0.04   0.00    -0.17   0.09  -0.02
     6   6    -0.22  -0.05  -0.03    -0.07   0.01   0.02    -0.16   0.08  -0.00
     7   1    -0.34   0.02  -0.04    -0.07   0.00   0.03    -0.07   0.04  -0.01
     8   1    -0.22   0.00  -0.03     0.20  -0.11  -0.04     0.00   0.01  -0.03
     9   1     0.02  -0.20   0.02     0.10  -0.11   0.01     0.11  -0.05   0.08
    10   1    -0.24   0.17  -0.03     0.10  -0.01   0.01     0.32  -0.12   0.04
    11   1    -0.16   0.16  -0.02     0.09  -0.02   0.01     0.32  -0.13   0.04
    12   8     0.17   0.03   0.03    -0.10   0.06  -0.01    -0.05   0.01  -0.01
    13   6     0.06   0.07   0.01    -0.07   0.05  -0.01     0.04  -0.02  -0.00
    14   6     0.13   0.05   0.02    -0.07   0.04  -0.01     0.06  -0.04   0.00
    15   8     0.09   0.06   0.02    -0.16   0.09  -0.02    -0.03   0.01  -0.01
    16   8     0.23   0.02   0.04    -0.13   0.06  -0.02     0.03  -0.04   0.00
    17   6     0.06  -0.18  -0.02     0.31  -0.16   0.03    -0.05   0.02  -0.01
    18   1     0.15  -0.18  -0.09     0.48  -0.11  -0.02     0.18  -0.07  -0.24
    19   1     0.01  -0.13  -0.05     0.29  -0.13   0.01    -0.34   0.15  -0.11
    20   1     0.08  -0.24   0.06     0.34  -0.33   0.14     0.02  -0.03   0.31
    21   1    -0.17  -0.05  -0.05     0.08  -0.02  -0.00    -0.32   0.16  -0.06
    22   1    -0.28  -0.04  -0.03    -0.24   0.07   0.04    -0.23   0.12   0.02
                      7                      8                      9
                      A                      A                      A
 Frequencies --    121.3600               180.8451               190.8254
 Red. masses --      1.3143                 3.1840                 4.0020
 Frc consts  --      0.0114                 0.0614                 0.0859
 IR Inten    --      0.2234                 0.1485                 3.3656
  Atom  AN      X      Y      Z        X      Y      Z        X      Y      Z
     1   6    -0.07   0.03  -0.02     0.13  -0.10   0.10    -0.11   0.11  -0.12
     2   6     0.04  -0.01   0.01     0.03  -0.01   0.00     0.01  -0.00   0.00
     3   6     0.04  -0.03  -0.01     0.03   0.10  -0.06    -0.07  -0.14   0.08
     4   6     0.03  -0.01   0.00     0.01  -0.00  -0.00     0.03  -0.01   0.00
     5   6    -0.00   0.00   0.00    -0.04   0.01   0.07     0.01   0.01  -0.12
     6   6    -0.11   0.04   0.01    -0.02   0.00   0.02     0.01   0.00  -0.03
     7   1    -0.06   0.00   0.04     0.04   0.10  -0.18    -0.07  -0.13   0.26
     8   1     0.27  -0.15  -0.07     0.07   0.21  -0.00    -0.13  -0.28   0.01
     9   1    -0.22   0.10  -0.08     0.31  -0.23   0.20    -0.23   0.26  -0.21
    10   1     0.05  -0.02   0.01    -0.02   0.01  -0.01    -0.08   0.03  -0.01
    11   1     0.03  -0.01   0.00    -0.05   0.02  -0.01    -0.05   0.02  -0.01
    12   8     0.00  -0.00  -0.00     0.20  -0.07   0.03     0.26  -0.09   0.05
    13   6     0.02  -0.00   0.00     0.04  -0.02   0.00     0.05  -0.02   0.01
    14   6     0.01  -0.00   0.00     0.03  -0.01  -0.00     0.06  -0.02   0.01
    15   8     0.01  -0.00   0.00    -0.14   0.05  -0.02    -0.12   0.05  -0.01
    16   8     0.01  -0.00   0.00    -0.13   0.05  -0.03    -0.14   0.05  -0.03
    17   6     0.01  -0.00   0.01    -0.08  -0.02  -0.07     0.02   0.06   0.11
    18   1    -0.28   0.14   0.34    -0.44  -0.14   0.06     0.32   0.19   0.02
    19   1     0.43  -0.18   0.15     0.12  -0.01  -0.05    -0.18  -0.01   0.11
    20   1    -0.09   0.01  -0.43    -0.16   0.20  -0.41     0.09  -0.07   0.41
    21   1     0.14  -0.04   0.04    -0.25   0.09   0.01     0.17  -0.06  -0.07
    22   1    -0.33   0.13   0.04    -0.07  -0.06  -0.02     0.07   0.10   0.03
                     10                     11                     12
                      A                      A                      A
 Frequencies --    220.9533               251.5569               260.1827
 Red. masses --      1.9834                 2.1414                 3.6312
 Frc consts  --      0.0571                 0.0798                 0.1448
 IR Inten    --      0.7242                 5.5307                 0.3449
  Atom  AN      X      Y      Z        X      Y      Z        X      Y      Z
     1   6     0.16  -0.01  -0.02     0.13  -0.03  -0.03     0.07  -0.03  -0.01
     2   6     0.00  -0.00  -0.00     0.07  -0.02   0.01    -0.26   0.09  -0.04
     3   6    -0.08  -0.10   0.07    -0.05  -0.00   0.01    -0.02   0.00   0.00
     4   6    -0.00  -0.00  -0.00    -0.08   0.03  -0.01     0.26  -0.10   0.05
     5   6    -0.08   0.05  -0.13     0.19  -0.08  -0.03     0.08  -0.03  -0.01
     6   6     0.02   0.00  -0.03    -0.07   0.02   0.01    -0.05   0.02   0.01
     7   1     0.01  -0.13   0.20    -0.37   0.11   0.10    -0.18   0.06   0.04
     8   1    -0.25  -0.16   0.04     0.29  -0.14  -0.06     0.16  -0.06  -0.04
     9   1     0.43  -0.04   0.03     0.12   0.04  -0.08     0.08  -0.00  -0.02
    10   1     0.02  -0.01   0.00     0.14  -0.05   0.02    -0.49   0.17  -0.08
    11   1     0.02  -0.01   0.00    -0.14   0.05  -0.03     0.50  -0.18   0.10
    12   8    -0.04   0.02  -0.01    -0.02   0.01  -0.00    -0.01   0.01  -0.00
    13   6    -0.01   0.00  -0.00     0.02  -0.01   0.01    -0.10   0.04  -0.02
    14   6    -0.01   0.00  -0.00    -0.03   0.01  -0.01     0.09  -0.04   0.02
    15   8     0.01  -0.01  -0.00    -0.03   0.01  -0.00     0.12  -0.04   0.02
    16   8     0.02  -0.01   0.00     0.03  -0.01   0.01    -0.11   0.04  -0.02
    17   6     0.02   0.05   0.09    -0.10   0.05   0.03    -0.05   0.02   0.01
    18   1    -0.26   0.12   0.33    -0.11  -0.07  -0.08    -0.08  -0.04  -0.02
    19   1     0.19  -0.15   0.20    -0.38   0.05  -0.01    -0.16   0.01  -0.00
    20   1    -0.05   0.24  -0.17    -0.07   0.28   0.22    -0.04   0.14   0.08
    21   1    -0.32   0.15  -0.20     0.23  -0.07  -0.03     0.08  -0.02  -0.02
    22   1     0.18   0.05   0.01    -0.41   0.16   0.07    -0.23   0.09   0.04
                     13                     14                     15
                      A                      A                      A
 Frequencies --    392.9354               416.2106               577.5574
 Red. masses --      2.8021                12.7459                 4.5408
 Frc consts  --      0.2549                 1.3009                 0.8924
 IR Inten    --      1.9771                13.3958                 2.1204
  Atom  AN      X      Y      Z        X      Y      Z        X      Y      Z
     1   6     0.04   0.12   0.20     0.00  -0.00  -0.00     0.00  -0.00   0.00
     2   6    -0.00  -0.00  -0.00    -0.07  -0.23  -0.01    -0.07  -0.14   0.16
     3   6    -0.09  -0.17  -0.04     0.00   0.00   0.00     0.00  -0.00  -0.00
     4   6     0.00  -0.00   0.00    -0.08  -0.22   0.03     0.03   0.17   0.15
     5   6     0.02  -0.03   0.10     0.00   0.00  -0.00     0.00   0.00   0.00
     6   6    -0.03  -0.06  -0.11     0.00   0.00   0.00    -0.00   0.00  -0.00
     7   1    -0.14  -0.14   0.16     0.00   0.00   0.00     0.01  -0.00   0.00
     8   1    -0.10  -0.35  -0.13    -0.00   0.00   0.00    -0.01  -0.00  -0.00
     9   1    -0.03   0.12   0.19     0.01   0.00  -0.00    -0.00  -0.00  -0.00
    10   1    -0.01   0.00  -0.00    -0.07  -0.28   0.06    -0.18  -0.34   0.46
    11   1     0.00  -0.00   0.00    -0.08  -0.29  -0.03     0.08   0.42   0.42
    12   8     0.00  -0.00  -0.00    -0.13  -0.32   0.02     0.02  -0.02  -0.13
    13   6    -0.00  -0.00  -0.00    -0.05  -0.12   0.02    -0.03  -0.12  -0.12
    14   6     0.00  -0.00   0.00    -0.05  -0.12  -0.01     0.06   0.10  -0.13
    15   8     0.00   0.00   0.00     0.13   0.46   0.23     0.07   0.21   0.00
    16   8    -0.00   0.00  -0.00     0.20   0.41  -0.27    -0.08  -0.21   0.02
    17   6     0.08   0.15  -0.11    -0.01   0.00   0.00    -0.00  -0.00   0.00
    18   1     0.02  -0.08  -0.28    -0.01  -0.00  -0.00    -0.00  -0.00   0.00
    19   1     0.18   0.47  -0.23    -0.01   0.00   0.00    -0.01  -0.00   0.00
    20   1     0.05   0.05  -0.24    -0.01   0.01  -0.00    -0.00   0.00   0.00
    21   1    -0.03  -0.22   0.19    -0.01   0.01  -0.00     0.01  -0.00   0.00
    22   1    -0.08  -0.06  -0.11     0.00   0.00   0.00     0.00   0.00  -0.00
                     16                     17                     18
                      A                      A                      A
 Frequencies --    586.4855               649.9240               654.4266
 Red. masses --      2.0197                 2.7046                 4.7365
 Frc consts  --      0.4093                 0.6731                 1.1952
 IR Inten    --      5.5380                 2.1929                 0.3216
  Atom  AN      X      Y      Z        X      Y      Z        X      Y      Z
     1   6     0.03  -0.07   0.02    -0.02   0.00   0.00     0.04  -0.00  -0.01
     2   6     0.00   0.00  -0.00     0.01  -0.02   0.01    -0.02  -0.01   0.02
     3   6     0.00  -0.03  -0.03    -0.01   0.00  -0.00     0.01  -0.01   0.00
     4   6    -0.00  -0.00  -0.00     0.01  -0.01  -0.01    -0.01  -0.02  -0.02
     5   6     0.05   0.09   0.09     0.00   0.01   0.01    -0.00  -0.03  -0.03
     6   6    -0.03   0.18  -0.13     0.05   0.01  -0.02    -0.11  -0.02   0.05
     7   1     0.40  -0.16   0.31    -0.15   0.06   0.08     0.35  -0.14  -0.19
     8   1    -0.38  -0.30  -0.16     0.05  -0.06  -0.04    -0.14   0.16   0.09
     9   1    -0.22  -0.10   0.01     0.04  -0.04   0.03    -0.08   0.09  -0.08
    10   1     0.01   0.00  -0.00    -0.56   0.25  -0.16     0.41  -0.00  -0.12
    11   1     0.00  -0.00  -0.00    -0.57   0.27  -0.05     0.36   0.02   0.23
    12   8    -0.00   0.00   0.00    -0.10   0.10  -0.02     0.12   0.11   0.01
    13   6    -0.00   0.00   0.00     0.16  -0.05   0.11    -0.13   0.07   0.20
    14   6     0.00  -0.00   0.00     0.19  -0.07  -0.06    -0.07   0.02  -0.24
    15   8    -0.00  -0.00   0.00    -0.07  -0.00   0.09    -0.03  -0.06   0.23
    16   8     0.00   0.00  -0.00    -0.04  -0.02  -0.10     0.04  -0.10  -0.22
    17   6    -0.05  -0.10   0.02    -0.01  -0.02   0.00     0.02   0.04  -0.00
    18   1    -0.12  -0.17   0.02     0.01   0.01   0.01    -0.02  -0.02  -0.03
    19   1    -0.18  -0.15   0.02     0.01  -0.03   0.01    -0.03   0.08  -0.03
    20   1    -0.04   0.07   0.07    -0.01  -0.06   0.00     0.02   0.13  -0.00
    21   1     0.30  -0.01   0.16    -0.07   0.02  -0.00     0.19  -0.06   0.01
    22   1     0.19   0.05  -0.19    -0.05   0.03  -0.01     0.12  -0.08   0.03
                     19                     20                     21
                      A                      A                      A
 Frequencies --    660.0085               714.1839               773.3435
 Red. masses --      1.7841                 8.7169                 7.8030
 Frc consts  --      0.4579                 2.6196                 2.7495
 IR Inten    --      8.1589                34.3311                 0.5832
  Atom  AN      X      Y      Z        X      Y      Z        X      Y      Z
     1   6    -0.06  -0.00   0.02    -0.00  -0.00  -0.00     0.01  -0.01   0.01
     2   6    -0.01   0.00   0.00     0.04   0.26   0.33     0.17  -0.06   0.03
     3   6    -0.02   0.02  -0.00    -0.00  -0.00   0.00     0.00   0.00   0.00
     4   6    -0.00  -0.00  -0.00    -0.13  -0.19   0.35    -0.19   0.07  -0.04
     5   6    -0.00   0.05   0.04     0.00  -0.00   0.00    -0.02   0.01  -0.01
     6   6     0.17   0.02  -0.08     0.00  -0.00   0.00     0.01  -0.01  -0.00
     7   1    -0.56   0.22   0.30     0.01  -0.00  -0.00    -0.05   0.02   0.00
     8   1     0.23  -0.26  -0.15    -0.00   0.00   0.00     0.02   0.00   0.00
     9   1     0.09  -0.14   0.11    -0.00  -0.00  -0.00    -0.06   0.01  -0.01
    10   1     0.19  -0.04   0.00     0.06   0.30   0.27     0.47  -0.16   0.07
    11   1     0.19  -0.04   0.06    -0.19  -0.22   0.29    -0.34   0.12  -0.06
    12   8     0.05   0.01   0.00     0.01  -0.01  -0.07    -0.00   0.00   0.01
    13   6    -0.05   0.02   0.03     0.12   0.30  -0.05    -0.46   0.16  -0.07
    14   6    -0.05   0.02  -0.05    -0.10  -0.31  -0.01     0.47  -0.16   0.08
    15   8     0.00  -0.01   0.04     0.04   0.03  -0.22     0.12  -0.04   0.02
    16   8     0.02  -0.02  -0.04     0.01  -0.07  -0.21    -0.12   0.04  -0.03
    17   6    -0.03  -0.07   0.01     0.00   0.00  -0.00     0.01  -0.00  -0.00
    18   1     0.04   0.03   0.04     0.00   0.00   0.00    -0.02  -0.02  -0.00
    19   1     0.04  -0.11   0.04     0.00  -0.00  -0.00    -0.01  -0.00  -0.00
    20   1    -0.03  -0.19   0.01     0.00   0.01   0.00     0.01   0.04   0.01
    21   1    -0.30   0.08  -0.01     0.00  -0.00   0.00     0.01  -0.01   0.00
    22   1    -0.19   0.13  -0.05     0.00  -0.00  -0.00    -0.01   0.01   0.01
                     22                     23                     24
                      A                      A                      A
 Frequencies --    848.6411               863.0909               904.9491
 Red. masses --      1.5580                 2.0312                 9.0653
 Frc consts  --      0.6611                 0.8915                 4.3740
 IR Inten    --      5.4808               121.5751                 5.5685
  Atom  AN      X      Y      Z        X      Y      Z        X      Y      Z
     1   6    -0.07   0.02  -0.04     0.01  -0.00   0.01    -0.00   0.01   0.01
     2   6    -0.01   0.00  -0.00    -0.12   0.04  -0.02    -0.14  -0.41   0.01
     3   6    -0.02  -0.01  -0.02    -0.00   0.00   0.00     0.00   0.01   0.01
     4   6    -0.01   0.00  -0.00    -0.11   0.04  -0.02    -0.15  -0.41   0.04
     5   6     0.16  -0.05   0.07    -0.02   0.00  -0.01     0.00  -0.01  -0.02
     6   6    -0.07   0.02   0.01     0.01  -0.00  -0.00     0.00   0.01  -0.00
     7   1     0.31  -0.12   0.01    -0.03   0.01  -0.00     0.03  -0.00   0.01
     8   1    -0.14  -0.06  -0.04     0.04   0.00   0.00     0.00   0.00   0.00
     9   1     0.45  -0.24   0.16    -0.03   0.03  -0.01     0.03   0.04  -0.00
    10   1     0.07  -0.02   0.01     0.62  -0.22   0.10    -0.12  -0.38  -0.09
    11   1     0.05  -0.02   0.01     0.62  -0.22   0.13    -0.19  -0.35   0.12
    12   8    -0.00   0.00  -0.00    -0.05   0.02  -0.01     0.17   0.43  -0.03
    13   6     0.00  -0.00   0.00     0.16  -0.06   0.02     0.03   0.07  -0.07
    14   6     0.02  -0.01   0.01     0.14  -0.05   0.03     0.01   0.08   0.06
    15   8    -0.00   0.00   0.00    -0.04   0.01  -0.01     0.03   0.05  -0.10
    16   8    -0.01   0.00  -0.00    -0.03   0.01  -0.01     0.01   0.07   0.10
    17   6    -0.04   0.04  -0.03     0.00  -0.01   0.00    -0.01  -0.01   0.01
    18   1     0.22   0.36   0.08    -0.03  -0.05  -0.01    -0.00  -0.05  -0.03
    19   1     0.13  -0.12   0.07    -0.01   0.02  -0.01     0.03   0.05  -0.01
    20   1    -0.01  -0.27   0.06    -0.00   0.02  -0.01    -0.02  -0.06  -0.03
    21   1    -0.39   0.21  -0.11     0.07  -0.04   0.02     0.00  -0.02  -0.01
    22   1    -0.05  -0.09  -0.05     0.02   0.01   0.01     0.01   0.02   0.01
                     25                     26                     27
                      A                      A                      A
 Frequencies --    909.8036               948.6585               966.9028
 Red. masses --      1.6607                 1.3557                 6.3297
 Frc consts  --      0.8099                 0.7188                 3.4866
 IR Inten    --      8.0810                45.0164               120.6096
  Atom  AN      X      Y      Z        X      Y      Z        X      Y      Z
     1   6     0.01  -0.05  -0.06     0.01  -0.00   0.00    -0.00   0.00   0.00
     2   6    -0.01  -0.01  -0.00     0.00  -0.00  -0.00    -0.04  -0.14  -0.02
     3   6    -0.01  -0.06  -0.04    -0.16   0.05   0.03    -0.00   0.01   0.00
     4   6    -0.00  -0.01   0.00     0.00  -0.00   0.00     0.04   0.12  -0.03
     5   6    -0.03   0.11   0.11    -0.01   0.02   0.00     0.00  -0.01  -0.01
     6   6     0.00  -0.08   0.02     0.05  -0.03  -0.01     0.00   0.00  -0.00
     7   1    -0.21   0.00  -0.14     0.54  -0.20  -0.13     0.03  -0.00   0.02
     8   1     0.02   0.01  -0.00     0.73  -0.25  -0.14     0.01  -0.01  -0.01
     9   1    -0.26  -0.31   0.04    -0.06   0.01  -0.01     0.02   0.00   0.01
    10   1    -0.00  -0.02   0.00    -0.00   0.00  -0.01    -0.26  -0.36   0.34
    11   1     0.01  -0.01   0.01    -0.02   0.01  -0.00     0.16   0.43   0.32
    12   8     0.00   0.01   0.01     0.00  -0.00  -0.00    -0.07   0.05   0.49
    13   6     0.01  -0.00  -0.00    -0.00   0.00   0.00     0.04   0.04  -0.12
    14   6     0.00   0.00  -0.00    -0.00   0.00  -0.00    -0.00  -0.06  -0.11
    15   8    -0.00   0.00  -0.01     0.00   0.00   0.00     0.01  -0.03  -0.16
    16   8     0.00   0.00   0.00     0.00  -0.00   0.00     0.03   0.00  -0.16
    17   6     0.07   0.08  -0.08     0.00  -0.01  -0.00    -0.00  -0.00   0.00
    18   1     0.01   0.37   0.21    -0.02  -0.01   0.01     0.01   0.00  -0.01
    19   1    -0.22  -0.39   0.09    -0.03  -0.03   0.00     0.03   0.01  -0.00
    20   1     0.13   0.42   0.25     0.01   0.04   0.01    -0.00  -0.03  -0.00
    21   1     0.08   0.10   0.13    -0.01   0.02   0.01    -0.02  -0.01  -0.01
    22   1    -0.05  -0.16  -0.03     0.07  -0.03  -0.01    -0.01   0.01   0.00
                     28                     29                     30
                      A                      A                      A
 Frequencies --    996.4308              1006.4582              1016.8449
 Red. masses --      1.3039                 1.7366                 1.1571
 Frc consts  --      0.7627                 1.0364                 0.7049
 IR Inten    --      1.4805                10.5820                37.5468
  Atom  AN      X      Y      Z        X      Y      Z        X      Y      Z
     1   6     0.00   0.00  -0.00    -0.03  -0.07  -0.00    -0.00   0.03   0.00
     2   6     0.11  -0.03   0.02     0.01  -0.00   0.00     0.00   0.00   0.00
     3   6    -0.00  -0.00  -0.00     0.03   0.13   0.01    -0.02  -0.06   0.00
     4   6    -0.11   0.03  -0.02    -0.00  -0.00   0.00     0.00   0.00   0.00
     5   6     0.00   0.00   0.00    -0.11  -0.13  -0.04    -0.04   0.06  -0.01
     6   6    -0.00   0.00   0.00     0.04   0.01   0.01     0.01   0.01  -0.02
     7   1    -0.01   0.00  -0.01     0.24   0.08   0.52    -0.06  -0.05  -0.25
     8   1     0.02  -0.00  -0.00    -0.15  -0.26  -0.17     0.09   0.14   0.10
     9   1    -0.01   0.01  -0.00     0.18  -0.21   0.10     0.51  -0.18   0.18
    10   1    -0.64   0.24  -0.11    -0.03   0.02  -0.01    -0.01   0.00   0.00
    11   1     0.65  -0.25   0.12     0.02  -0.01   0.00    -0.00  -0.00  -0.01
    12   8     0.00   0.00  -0.01     0.00  -0.00  -0.00     0.00   0.00   0.00
    13   6    -0.01   0.00   0.00    -0.00   0.00   0.00    -0.01   0.00  -0.00
    14   6     0.01  -0.00   0.00    -0.00   0.00  -0.00    -0.00  -0.00  -0.00
    15   8     0.00  -0.00   0.00     0.00   0.00   0.00     0.00  -0.00   0.00
    16   8    -0.00   0.00   0.00     0.00   0.00   0.00     0.00  -0.00  -0.00
    17   6    -0.00  -0.00   0.00     0.03   0.09  -0.03    -0.05  -0.02  -0.01
    18   1    -0.00  -0.00  -0.00     0.07   0.25   0.07     0.09   0.12   0.01
    19   1     0.00   0.00   0.00     0.00  -0.01   0.01     0.06  -0.05   0.02
    20   1    -0.00  -0.01  -0.00     0.06   0.13   0.07    -0.04  -0.25  -0.00
    21   1    -0.01   0.01  -0.01     0.26  -0.39   0.12     0.61  -0.19   0.18
    22   1     0.03  -0.01  -0.00    -0.23  -0.04  -0.04    -0.00   0.13   0.06
                     31                     32                     33
                      A                      A                      A
 Frequencies --   1042.3521              1068.6613              1069.7080
 Red. masses --      1.1391                 1.1289                 1.5575
 Frc consts  --      0.7292                 0.7596                 1.0500
 IR Inten    --     18.2380                19.7864                 2.4425
  Atom  AN      X      Y      Z        X      Y      Z        X      Y      Z
     1   6     0.00  -0.01  -0.01     0.02  -0.01   0.01     0.15  -0.06   0.05
     2   6    -0.00  -0.00   0.00     0.00   0.04   0.03    -0.00  -0.00  -0.00
     3   6     0.03   0.02  -0.01    -0.00   0.00   0.00     0.00   0.01   0.00
     4   6     0.00   0.00  -0.00     0.02   0.03  -0.04    -0.00  -0.01   0.01
     5   6    -0.01  -0.01  -0.00    -0.00  -0.00  -0.00    -0.03   0.01  -0.01
     6   6    -0.09   0.02   0.02     0.00   0.00  -0.00     0.01  -0.00  -0.00
     7   1    -0.32   0.15   0.18     0.01  -0.00  -0.00     0.01   0.00   0.01
     8   1     0.31  -0.20  -0.12    -0.00   0.01   0.01    -0.02   0.01   0.00
     9   1     0.11  -0.01   0.00    -0.08   0.02  -0.02    -0.45   0.17  -0.16
    10   1     0.01  -0.01   0.01    -0.20  -0.32   0.58     0.05   0.08  -0.13
    11   1    -0.03   0.01  -0.01    -0.05  -0.43  -0.54     0.01   0.07   0.10
    12   8     0.00  -0.00  -0.00     0.01   0.04  -0.00    -0.00  -0.01   0.00
    13   6    -0.00   0.00   0.00    -0.01  -0.02   0.00     0.00  -0.01  -0.00
    14   6    -0.00  -0.00   0.00    -0.01  -0.02  -0.00     0.00   0.01  -0.00
    15   8     0.00  -0.00   0.00    -0.01  -0.00   0.03     0.00   0.00  -0.00
    16   8     0.00  -0.00  -0.00     0.00  -0.01  -0.02    -0.00   0.00   0.01
    17   6    -0.01   0.02   0.00    -0.02   0.01  -0.01    -0.13   0.05  -0.04
    18   1     0.04   0.04  -0.01     0.05   0.06   0.00     0.33   0.41  -0.02
    19   1     0.05   0.04   0.00     0.04  -0.03   0.01     0.28  -0.10   0.08
    20   1    -0.01  -0.06  -0.01    -0.01  -0.07   0.02    -0.07  -0.51   0.10
    21   1     0.10   0.02  -0.01    -0.02  -0.02   0.00    -0.02  -0.01  -0.01
    22   1     0.71  -0.35  -0.14    -0.00   0.02   0.01    -0.03   0.02   0.01
                     34                     35                     36
                      A                      A                      A
 Frequencies --   1075.8080              1092.3764              1152.6328
 Red. masses --      1.4839                 3.3109                 2.1629
 Frc consts  --      1.0119                 2.3277                 1.6931
 IR Inten    --      0.9932               106.5283                 1.7461
  Atom  AN      X      Y      Z        X      Y      Z        X      Y      Z
     1   6     0.02  -0.02  -0.06     0.01  -0.00   0.01     0.06   0.21   0.09
     2   6    -0.00  -0.00  -0.00    -0.03  -0.14  -0.08     0.00   0.00   0.00
     3   6    -0.01   0.02  -0.06     0.00  -0.00   0.00     0.02   0.05  -0.02
     4   6     0.00   0.00  -0.00     0.06   0.12  -0.09     0.00   0.00   0.00
     5   6    -0.01   0.10   0.04    -0.00  -0.00  -0.00     0.00   0.02  -0.05
     6   6     0.02  -0.11   0.06     0.00   0.00  -0.00    -0.03  -0.08   0.06
     7   1     0.07  -0.00   0.18     0.00  -0.00  -0.01     0.07   0.03   0.23
     8   1    -0.19  -0.24  -0.19     0.00   0.02   0.01    -0.12  -0.14  -0.11
     9   1     0.15   0.15  -0.14    -0.04   0.01  -0.00     0.14   0.36   0.03
    10   1    -0.01  -0.03   0.04    -0.22  -0.44   0.37     0.00   0.00  -0.00
    11   1     0.00  -0.01  -0.02     0.13   0.53   0.34     0.00   0.00   0.00
    12   8     0.00   0.00  -0.00     0.02  -0.01  -0.13     0.00   0.00   0.00
    13   6     0.00   0.00   0.00     0.05   0.22   0.12    -0.00  -0.00  -0.00
    14   6    -0.00  -0.01   0.00    -0.09  -0.19   0.14    -0.00  -0.00   0.00
    15   8     0.00  -0.00   0.00    -0.01  -0.03   0.01    -0.00   0.00   0.00
    16   8     0.00   0.00  -0.00     0.01   0.03   0.01     0.00   0.00  -0.00
    17   6    -0.02   0.01   0.07    -0.01   0.00  -0.01    -0.01  -0.14  -0.12
    18   1     0.03  -0.14  -0.10     0.02   0.03   0.01    -0.14   0.01   0.11
    19   1     0.13   0.28  -0.03     0.00  -0.02   0.01    -0.28  -0.65   0.06
    20   1    -0.06  -0.12  -0.13    -0.00  -0.02   0.01     0.04  -0.06   0.16
    21   1     0.33   0.43  -0.09    -0.01  -0.03   0.01     0.01  -0.08   0.01
    22   1    -0.34  -0.37  -0.09     0.00   0.02   0.01    -0.10  -0.25  -0.04
                     37                     38                     39
                      A                      A                      A
 Frequencies --   1302.0497              1316.5882              1321.4631
 Red. masses --      1.2736                 7.7495                 1.2994
 Frc consts  --      1.2722                 7.9145                 1.3369
 IR Inten    --      0.9436               185.0650                 1.5137
  Atom  AN      X      Y      Z        X      Y      Z        X      Y      Z
     1   6     0.01  -0.03  -0.06    -0.00  -0.00   0.01    -0.04  -0.07   0.05
     2   6     0.00   0.00   0.00    -0.05  -0.12   0.02     0.00   0.00  -0.00
     3   6     0.01  -0.02   0.08    -0.00  -0.00  -0.02    -0.01  -0.01  -0.04
     4   6     0.00   0.00   0.00    -0.05  -0.14  -0.02     0.00   0.01   0.00
     5   6    -0.02   0.01   0.07    -0.01  -0.01   0.02    -0.04  -0.07   0.07
     6   6     0.00   0.05  -0.06     0.00  -0.00   0.00     0.02   0.02  -0.01
     7   1     0.00  -0.01   0.05    -0.00  -0.00  -0.01    -0.02  -0.01  -0.04
     8   1     0.14   0.25   0.23    -0.03  -0.03  -0.03    -0.02  -0.04  -0.05
     9   1     0.26   0.43  -0.27     0.10   0.18  -0.07     0.30   0.57  -0.25
    10   1     0.00   0.00  -0.00    -0.14  -0.29   0.25     0.01   0.02  -0.02
    11   1     0.00  -0.00  -0.00    -0.07  -0.30  -0.17     0.00   0.01   0.00
    12   8     0.00   0.00   0.00    -0.10  -0.27   0.01     0.00   0.01  -0.00
    13   6    -0.00  -0.00  -0.00     0.13   0.42   0.16    -0.00  -0.02  -0.01
    14   6    -0.00  -0.00   0.00     0.18   0.39  -0.20    -0.01  -0.02   0.01
    15   8     0.00   0.00  -0.00    -0.01  -0.06  -0.05     0.00   0.00   0.00
    16   8    -0.00  -0.00  -0.00    -0.03  -0.05   0.06     0.00   0.00  -0.00
    17   6     0.00  -0.01  -0.01    -0.01  -0.03  -0.01     0.02  -0.01  -0.06
    18   1     0.04   0.04   0.00     0.15   0.12   0.01    -0.01   0.19   0.13
    19   1     0.00  -0.01  -0.01     0.03   0.01  -0.02    -0.00  -0.02  -0.05
    20   1     0.00   0.06  -0.01    -0.02   0.15  -0.02     0.06   0.16   0.14
    21   1    -0.18  -0.29   0.21     0.01   0.03   0.01     0.17   0.39  -0.15
    22   1    -0.21  -0.43  -0.35     0.05   0.12   0.08     0.16   0.36   0.19
                     40                     41                     42
                      A                      A                      A
 Frequencies --   1337.2593              1343.8325              1401.0265
 Red. masses --      1.9372                 1.3261                 1.3192
 Frc consts  --      2.0410                 1.4109                 1.5257
 IR Inten    --      2.6071                 0.1310                 0.4590
  Atom  AN      X      Y      Z        X      Y      Z        X      Y      Z
     1   6     0.00   0.00  -0.01    -0.03   0.00   0.09     0.01   0.04   0.02
     2   6    -0.07  -0.16   0.08    -0.00  -0.01   0.00     0.00   0.00  -0.00
     3   6    -0.00   0.00  -0.00     0.00  -0.02   0.06     0.00   0.00   0.00
     4   6     0.05   0.18   0.06     0.00   0.01   0.00     0.00   0.00   0.00
     5   6     0.00   0.01   0.00    -0.00  -0.06  -0.06     0.01   0.01  -0.03
     6   6    -0.00  -0.00   0.01     0.01   0.04  -0.07    -0.01  -0.01   0.00
     7   1     0.00   0.00  -0.01     0.01  -0.01   0.09     0.01   0.00   0.02
     8   1    -0.01  -0.02  -0.01     0.14   0.26   0.21     0.00   0.01   0.01
     9   1     0.00   0.00  -0.01    -0.13  -0.16   0.17    -0.05  -0.07   0.08
    10   1     0.19   0.26  -0.59     0.00   0.01  -0.02     0.00   0.01  -0.01
    11   1    -0.03  -0.38  -0.56    -0.00  -0.03  -0.03     0.00   0.01   0.00
    12   8    -0.00  -0.00  -0.00    -0.00  -0.01  -0.00     0.00   0.01  -0.00
    13   6     0.02   0.05   0.02     0.00   0.01   0.00    -0.00  -0.01  -0.00
    14   6    -0.02  -0.04   0.03     0.00   0.01  -0.00    -0.01  -0.01   0.01
    15   8     0.01   0.01  -0.03    -0.00  -0.00  -0.00     0.00   0.00   0.00
    16   8     0.00  -0.01  -0.03    -0.00  -0.00  -0.00     0.00   0.00  -0.00
    17   6    -0.00  -0.00   0.00     0.01   0.01  -0.02    -0.05  -0.15   0.01
    18   1     0.01  -0.00  -0.01    -0.08   0.03   0.07     0.47   0.40   0.11
    19   1    -0.00   0.00   0.00    -0.01  -0.02  -0.01     0.16   0.36  -0.17
    20   1    -0.00  -0.00  -0.01     0.04  -0.02   0.10    -0.09   0.60  -0.10
    21   1    -0.03  -0.05   0.03     0.31   0.53  -0.34    -0.00  -0.03  -0.01
    22   1     0.01   0.02   0.02    -0.18  -0.33  -0.30    -0.02  -0.05  -0.02
                     43                     44                     45
                      A                      A                      A
 Frequencies --   1435.5088              1453.7740              1462.9597
 Red. masses --      1.2105                 1.0452                 1.0704
 Frc consts  --      1.4697                 1.3015                 1.3498
 IR Inten    --      5.5527                12.2269                14.5968
  Atom  AN      X      Y      Z        X      Y      Z        X      Y      Z
     1   6     0.01   0.00  -0.02    -0.02   0.01   0.00    -0.00   0.00  -0.02
     2   6     0.00   0.00  -0.00     0.00   0.00  -0.00    -0.00  -0.00   0.00
     3   6    -0.01  -0.01  -0.06     0.00  -0.00   0.00    -0.00   0.00  -0.01
     4   6     0.00   0.00  -0.00     0.00   0.00   0.00    -0.00  -0.00  -0.00
     5   6     0.01   0.03   0.03    -0.01  -0.01   0.00     0.02   0.03  -0.01
     6   6    -0.04  -0.09  -0.05     0.00   0.01   0.00    -0.01  -0.02   0.00
     7   1     0.13  -0.01   0.70    -0.01   0.00  -0.05     0.02  -0.00   0.08
     8   1     0.22   0.50   0.21    -0.01  -0.03  -0.01     0.01   0.04   0.01
     9   1    -0.01  -0.03  -0.00     0.05  -0.00   0.02     0.00  -0.04   0.01
    10   1     0.00   0.00   0.00     0.00   0.00  -0.00    -0.00  -0.00   0.00
    11   1    -0.00   0.00   0.00     0.00   0.00   0.00    -0.00  -0.00  -0.00
    12   8     0.00   0.00   0.00     0.00   0.00  -0.00    -0.00  -0.00  -0.00
    13   6    -0.00  -0.00  -0.00    -0.00  -0.00  -0.00     0.00   0.00   0.00
    14   6    -0.00  -0.00   0.00    -0.00  -0.00   0.00     0.00   0.00  -0.00
    15   8     0.00   0.00  -0.00    -0.00   0.00   0.00    -0.00  -0.00   0.00
    16   8     0.00   0.00  -0.00     0.00   0.00   0.00    -0.00  -0.00   0.00
    17   6    -0.01   0.01   0.01    -0.04   0.02  -0.00    -0.02  -0.03  -0.05
    18   1     0.06  -0.05  -0.08     0.19  -0.32  -0.46    -0.41  -0.05   0.23
    19   1    -0.00  -0.06   0.04     0.52  -0.37   0.25     0.43   0.32  -0.12
    20   1    -0.02   0.01  -0.08     0.00   0.36   0.19     0.13  -0.04   0.65
    21   1     0.01   0.03   0.03     0.03   0.04  -0.02    -0.05  -0.11   0.05
    22   1     0.11   0.26   0.16    -0.01  -0.01  -0.01     0.00   0.00   0.02
                     46                     47                     48
                      A                      A                      A
 Frequencies --   1707.7607              1724.9930              1755.4499
 Red. masses --      6.8004                 5.0029                 5.9551
 Frc consts  --     11.6853                 8.7709                10.8122
 IR Inten    --      4.3895                10.2091                17.0922
  Atom  AN      X      Y      Z        X      Y      Z        X      Y      Z
     1   6     0.00   0.00  -0.00     0.02   0.03  -0.01     0.22   0.30  -0.29
     2   6    -0.09   0.00   0.50     0.00  -0.00  -0.00     0.00   0.00  -0.00
     3   6    -0.00  -0.00  -0.00    -0.13  -0.19  -0.31     0.01   0.02   0.04
     4   6     0.05  -0.10  -0.50    -0.00   0.00   0.00    -0.00  -0.00   0.00
     5   6    -0.00  -0.00   0.00    -0.04  -0.08  -0.02    -0.21  -0.30   0.29
     6   6     0.00   0.00   0.00     0.16   0.28   0.32     0.01   0.03  -0.07
     7   1    -0.00  -0.00   0.00    -0.04  -0.26   0.34    -0.03   0.04  -0.08
     8   1     0.00   0.00  -0.00     0.19   0.46  -0.05     0.02  -0.06   0.02
     9   1    -0.00  -0.00   0.00    -0.07  -0.04   0.01    -0.19  -0.42  -0.02
    10   1     0.16   0.46   0.00     0.00  -0.00   0.00    -0.00  -0.00   0.00
    11   1     0.17   0.45  -0.05    -0.00  -0.00  -0.00    -0.00  -0.00   0.00
    12   8    -0.00  -0.01   0.00    -0.00  -0.00  -0.00    -0.00  -0.00   0.00
    13   6    -0.01  -0.02   0.01     0.00   0.00   0.00     0.00   0.00   0.00
    14   6    -0.01  -0.02  -0.01     0.00   0.00  -0.00     0.00   0.00  -0.00
    15   8     0.01   0.02  -0.04    -0.00  -0.00   0.00     0.00   0.00  -0.00
    16   8     0.00   0.03   0.04    -0.00  -0.00   0.00    -0.00  -0.00  -0.00
    17   6    -0.00  -0.00   0.00     0.00  -0.01  -0.00    -0.03  -0.06   0.02
    18   1     0.00   0.00   0.00    -0.01  -0.00   0.01    -0.10  -0.08   0.04
    19   1     0.00   0.00  -0.00     0.01   0.01  -0.01     0.08   0.15  -0.06
    20   1     0.00   0.00   0.00     0.00   0.01   0.01    -0.02  -0.12   0.07
    21   1     0.00   0.00  -0.00    -0.06  -0.11  -0.01     0.13   0.44   0.01
    22   1    -0.00  -0.00  -0.00    -0.11  -0.41  -0.03     0.08   0.18   0.01
                     49                     50                     51
                      A                      A                      A
 Frequencies --   1916.5927              1989.2805              3044.7969
 Red. masses --     12.8930                12.6914                 1.0377
 Frc consts  --     27.9038                29.5905                 5.6681
 IR Inten    --    804.9324                96.2799                24.2097
  Atom  AN      X      Y      Z        X      Y      Z        X      Y      Z
     1   6    -0.00  -0.00   0.00     0.00  -0.00  -0.00     0.00   0.00  -0.00
     2   6     0.02   0.03  -0.05    -0.02  -0.03   0.05     0.00   0.00   0.00
     3   6    -0.00  -0.00  -0.00     0.00  -0.00  -0.00    -0.00  -0.00  -0.00
     4   6    -0.01  -0.04  -0.04    -0.00  -0.04  -0.05     0.00   0.00   0.00
     5   6    -0.00   0.00  -0.00    -0.00  -0.00   0.00     0.00   0.00   0.00
     6   6     0.00   0.00   0.00     0.00   0.00   0.00    -0.00  -0.00   0.00
     7   1    -0.00  -0.00  -0.00    -0.00   0.00   0.00     0.00   0.00  -0.00
     8   1    -0.00   0.00   0.00    -0.00   0.00  -0.00     0.00  -0.00   0.00
     9   1    -0.01  -0.00   0.01     0.00   0.00  -0.00    -0.00   0.01   0.02
    10   1    -0.03  -0.05   0.10     0.04   0.06  -0.10    -0.00  -0.00  -0.00
    11   1     0.01   0.06   0.09     0.01   0.08   0.10    -0.00  -0.00   0.00
    12   8    -0.00   0.00   0.00    -0.01  -0.03   0.00     0.00   0.00   0.00
    13   6    -0.16  -0.22   0.53     0.14   0.17  -0.53    -0.00   0.00   0.00
    14   6     0.02   0.30   0.47     0.00   0.29   0.54    -0.00  -0.00  -0.00
    15   8     0.10   0.12  -0.37    -0.08  -0.10   0.32     0.00  -0.00  -0.00
    16   8    -0.00  -0.18  -0.33     0.00  -0.17  -0.33    -0.00   0.00   0.00
    17   6    -0.00   0.00  -0.00    -0.00  -0.00   0.00    -0.02  -0.05   0.01
    18   1    -0.00  -0.00  -0.00     0.01  -0.00  -0.01    -0.30   0.37  -0.43
    19   1     0.01  -0.00   0.01     0.00  -0.00   0.00    -0.07   0.19   0.46
    20   1     0.00   0.01   0.02    -0.00   0.01  -0.01     0.57   0.01  -0.12
    21   1     0.01  -0.00   0.00     0.00  -0.00   0.00    -0.00  -0.00  -0.00
    22   1     0.00   0.00   0.00    -0.00   0.00   0.00     0.00   0.00  -0.00
                     52                     53                     54
                      A                      A                      A
 Frequencies --   3130.3561              3147.2801              3156.0905
 Red. masses --      1.1018                 1.0932                 1.0670
 Frc consts  --      6.3614                 6.3801                 6.2620
 IR Inten    --      7.8877                 2.1119                 9.4307
  Atom  AN      X      Y      Z        X      Y      Z        X      Y      Z
     1   6    -0.00   0.00   0.00     0.01  -0.03  -0.07    -0.00   0.00   0.00
     2   6     0.00   0.00  -0.00    -0.00   0.00   0.00    -0.00  -0.00  -0.00
     3   6    -0.00   0.00  -0.00    -0.00  -0.00   0.00    -0.02  -0.02  -0.04
     4   6    -0.00   0.00   0.00    -0.00  -0.00   0.00    -0.00  -0.00   0.00
     5   6    -0.00   0.00  -0.00    -0.00  -0.00   0.01    -0.00   0.01   0.02
     6   6    -0.00   0.00  -0.00     0.00   0.00  -0.01     0.00   0.03  -0.04
     7   1     0.00   0.00  -0.00     0.00   0.01   0.00     0.17   0.48  -0.03
     8   1     0.00  -0.00   0.00     0.00  -0.00   0.00     0.01  -0.25   0.47
     9   1     0.01  -0.02  -0.03    -0.11   0.40   0.77     0.01  -0.02  -0.05
    10   1     0.00  -0.00  -0.00     0.00   0.00   0.00    -0.00  -0.00  -0.00
    11   1     0.00  -0.00   0.00     0.00   0.00  -0.00     0.00   0.00  -0.00
    12   8    -0.00   0.00   0.00    -0.00   0.00   0.00    -0.00  -0.00   0.00
    13   6     0.00  -0.00  -0.00    -0.00   0.00  -0.00     0.00   0.00  -0.00
    14   6     0.00  -0.00   0.00     0.00  -0.00  -0.00     0.00   0.00   0.00
    15   8    -0.00  -0.00   0.00     0.00  -0.00   0.00    -0.00  -0.00   0.00
    16   8    -0.00   0.00  -0.00    -0.00   0.00   0.00     0.00  -0.00  -0.00
    17   6    -0.08   0.03  -0.03    -0.02   0.01   0.04     0.00  -0.00  -0.01
    18   1     0.32  -0.41   0.48    -0.05   0.06  -0.06     0.01  -0.01   0.01
    19   1    -0.03   0.05   0.09     0.05  -0.15  -0.36    -0.01   0.02   0.05
    20   1     0.67   0.02  -0.16     0.20   0.00  -0.04    -0.03  -0.00   0.01
    21   1    -0.00   0.00   0.00     0.01  -0.03  -0.07     0.02  -0.13  -0.26
    22   1     0.00  -0.00   0.00    -0.00  -0.04   0.07    -0.03  -0.30   0.52
                     55                     56                     57
                      A                      A                      A
 Frequencies --   3161.9799              3163.4379              3173.9345
 Red. masses --      1.0946                 1.0912                 1.0935
 Frc consts  --      6.4478                 6.4338                 6.4904
 IR Inten    --      3.7735                30.9355                 9.4802
  Atom  AN      X      Y      Z        X      Y      Z        X      Y      Z
     1   6     0.01  -0.01  -0.02     0.00  -0.02  -0.03    -0.00  -0.00   0.00
     2   6    -0.00  -0.00   0.00    -0.00   0.00   0.00     0.00   0.00   0.00
     3   6     0.01   0.01   0.03    -0.01  -0.01  -0.03     0.01   0.01   0.03
     4   6    -0.00  -0.00   0.00     0.00   0.00  -0.00    -0.00  -0.00   0.00
     5   6    -0.01   0.02   0.04     0.00  -0.02  -0.04     0.00  -0.02  -0.05
     6   6    -0.00   0.01  -0.02     0.00  -0.01   0.02     0.00   0.03  -0.06
     7   1    -0.09  -0.25   0.01     0.08   0.22  -0.01    -0.06  -0.17   0.01
     8   1    -0.00   0.16  -0.31     0.00  -0.14   0.27    -0.00   0.14  -0.28
     9   1    -0.03   0.13   0.24    -0.05   0.18   0.34    -0.00  -0.00  -0.00
    10   1     0.00   0.00   0.00    -0.00  -0.00  -0.00    -0.00  -0.00  -0.00
    11   1     0.00   0.00  -0.00    -0.00  -0.00   0.00     0.00   0.00  -0.00
    12   8     0.00  -0.00   0.00     0.00  -0.00   0.00     0.00  -0.00   0.00
    13   6    -0.00   0.00  -0.00    -0.00   0.00  -0.00    -0.00   0.00  -0.00
    14   6     0.00   0.00  -0.00     0.00  -0.00  -0.00     0.00  -0.00  -0.00
    15   8     0.00  -0.00   0.00     0.00  -0.00   0.00    -0.00  -0.00   0.00
    16   8     0.00   0.00   0.00    -0.00   0.00   0.00    -0.00   0.00   0.00
    17   6     0.02  -0.01  -0.06     0.02  -0.01  -0.05     0.00  -0.00  -0.00
    18   1     0.09  -0.11   0.12     0.09  -0.11   0.12    -0.00   0.00  -0.00
    19   1    -0.07   0.21   0.49    -0.07   0.20   0.47     0.00   0.00   0.00
    20   1    -0.26  -0.01   0.05    -0.25  -0.01   0.05     0.00   0.00   0.00
    21   1     0.04  -0.24  -0.47    -0.04   0.23   0.46    -0.04   0.27   0.53
    22   1    -0.01  -0.11   0.20     0.01   0.12  -0.21    -0.04  -0.35   0.62
                     58                     59                     60
                      A                      A                      A
[...]
 0035544,-0.00062395,-0.00158689,0.00245274,0.00062911,0.00241549,0.002
 69589,-0.05599526,0.02179201,0.42357557,0.00058078,0.00059058,0.000304
 90,-0.09386151,-0.04146047,0.00995851,0.00033787,-0.00007198,-0.000326
 10,-0.00308863,-0.00612657,0.01330140,-0.00010544,-0.00061087,0.000310
 00,0.00032602,-0.00022642,0.00041969,-0.00001288,0.00006476,0.00001452
 ,-0.00014899,0.00002589,-0.00001333,-0.00127009,0.00042821,-0.00077689
 ,0.00058487,0.00010230,0.00171198,0.01068458,-0.00459944,0.00171508,-0
 .07498870,-0.04287056,-0.01000939,0.28118342,0.00070875,0.00067019,-0.
 00035626,-0.04348350,-0.19171332,0.02118887,0.00014591,-0.00103580,-0.
 00047998,-0.00795775,-0.00277921,0.02179340,0.00040562,0.00008826,0.00
 087076,0.00034538,0.00045363,-0.00004601,-0.00009818,-0.00007664,-0.00
 004308,-0.00010202,0.00007697,0.00004579,0.00072042,0.00021848,0.00020
 554,-0.00425172,-0.00651749,0.00907980,-0.00419955,-0.00220672,-0.0044
 1730,-0.04148252,-0.19344130,-0.04378587,0.14168772,0.51707444,-0.0007
 2799,0.00082734,0.00257570,0.00543764,0.00829525,-0.09012165,-0.000314
 68,-0.00027457,0.00030519,0.01320414,0.02154869,-0.03074766,-0.0008809
 7,0.00041534,-0.00153709,0.00020432,0.00064708,-0.00024263,0.00005327,
 -0.00004710,-0.00008133,-0.00014116,0.00008199,-0.00007692,-0.00087117
 ,-0.00056186,-0.00027687,-0.00751098,-0.01670887,0.01061246,0.00142918
 ,-0.00479714,-0.00488751,-0.00784137,-0.03579910,-0.09474956,-0.197478
 82,-0.19967330,1.03489734,0.00107125,0.00189838,-0.00126971,0.00216164
 ,-0.00069009,-0.00399829,0.00035304,0.00009357,-0.00011779,-0.09043618
 ,-0.04315616,-0.00259799,-0.00034008,-0.00098992,0.00145087,-0.0004903
 8,-0.00042176,0.00007408,-0.00000521,0.00007900,0.00004524,-0.00004275
 ,-0.00000570,0.00001090,0.00018020,0.00004333,0.00009285,0.00991907,-0
 .00536668,0.00397327,-0.00027414,-0.00557602,-0.00400503,-0.08380939,-
 0.04940727,0.02399533,-0.00423511,0.03495562,0.02598107,0.23420056,0.0
 0042876,0.00014688,0.00068150,-0.00243662,-0.01309721,-0.02613488,0.00
 031053,-0.00107674,-0.00063202,-0.03994693,-0.19475489,-0.01268537,-0.
 00025196,0.00032946,0.00020252,0.00056033,0.00071481,-0.00006071,-0.00
 013450,-0.00008637,-0.00004992,-0.00018424,0.00010985,0.00002368,0.000
 07890,-0.00002279,-0.00029743,-0.00480278,-0.00076868,0.00227280,-0.00
 071129,-0.00440313,-0.00652431,-0.05111429,-0.17513410,0.04740339,0.02
 352521,0.05768637,0.01871738,0.08956749,0.62003170,0.00052546,-0.00117
 878,-0.00026658,-0.00414913,-0.02610971,-0.02548838,0.00044034,0.00009
 330,-0.00036711,0.00225024,0.00103367,-0.08736269,-0.00042372,0.000536
 82,0.00045458,0.00034313,-0.00043306,0.00047990,-0.00013134,0.00004269
 ,0.00001719,-0.00016702,0.00003420,-0.00008466,-0.00061605,-0.00032368
 ,-0.00095333,0.00414827,0.00247238,-0.00563288,0.00522734,0.01915993,0
 .00943447,0.02172854,0.03900372,-0.09969748,-0.00110413,-0.04626609,-0
 .11287174,-0.03092230,0.32612407,0.97510346,-0.00033912,-0.00025282,-0
 .00048947,0.01515387,-0.01057951,0.02241105,-0.00012596,0.00004621,0.0
 0004863,-0.00013042,-0.00353623,-0.00029900,-0.00002933,0.00021923,0.0
 0010959,-0.00010535,0.00005096,-0.00013394,0.00001786,-0.00002760,0.00
 000058,0.00007903,-0.00000251,0.00000438,0.00014595,0.00017242,0.00043
 926,-0.00071926,0.00045820,-0.00059565,-0.00233788,0.00132084,0.000377
 22,0.01663323,0.00782222,0.00672746,-0.11914634,-0.06742348,0.17219526
 ,0.00568695,-0.00325676,-0.00111112,0.08605096,-0.00018404,-0.00012912
 ,0.00045310,-0.01392920,0.00109122,0.04310196,-0.00008887,0.00028584,0
 .00017454,-0.00248013,-0.00709127,0.00057468,-0.00017656,0.00005681,-0
 .00050414,-0.00008034,-0.00012035,0.00000871,0.00004973,0.00002257,-0.
 00000036,0.00001443,-0.00002912,-0.00003048,-0.00021520,-0.00029980,-0
 .00011692,0.00101570,0.00120057,-0.00148209,0.00087078,0.00118141,0.00
 217871,0.01186228,0.03223913,-0.03407171,-0.06571349,-0.16974132,0.206
 12367,-0.00692947,-0.01070300,0.00307190,0.07421423,0.14923345,0.00038
 470,-0.00024482,-0.00104899,0.01434870,0.02018471,-0.02797326,0.000165
 55,0.00001433,-0.00018584,0.00174113,0.00667043,0.00387070,0.00049266,
 -0.00024834,0.00076383,-0.00003709,-0.00021093,0.00008469,-0.00002489,
 0.00001863,0.00002727,0.00006385,-0.00003680,0.00005143,0.00035374,0.0
 0029393,-0.00001857,0.00057921,0.00173221,-0.00043427,-0.00003391,0.00
 037490,-0.00092589,0.01658510,-0.00938907,-0.11221792,0.17499141,0.216
 47575,-0.73532767,-0.01210479,-0.02021146,0.02525504,-0.20030814,-0.21
 600580,0.86278069,-0.00069698,-0.00077837,0.00023637,0.00017994,-0.002
 12620,-0.00037297,-0.00014490,-0.00009016,-0.00002877,0.02099484,-0.00
 709683,-0.00905426,-0.00054699,0.00078779,-0.00076511,0.00023111,0.000
 20713,0.00001517,0.00000130,-0.00003936,-0.00001803,0.00000969,0.00001
 020,-0.00000496,-0.00000426,-0.00006127,-0.00007260,-0.00199755,0.0012
 5999,-0.00109257,-0.00063358,0.00107777,0.00037820,0.01350747,0.011226
 47,0.02698876,0.00326249,-0.00944351,-0.00303369,-0.07321553,-0.011713
 31,0.00263092,-0.00087338,0.00176723,0.00319090,0.03938695,-0.00000393
 ,-0.00011333,-0.00008686,-0.00296652,-0.00794629,0.00081881,-0.0001636
 9,0.00040215,0.00026080,-0.00295467,-0.01284059,-0.04883840,0.00033733
 ,-0.00021736,-0.00015807,-0.00026382,-0.00026886,0.00003777,0.00008257
 ,0.00003189,0.00002008,0.00009748,-0.00005362,-0.00000105,0.00005713,0
 .00010691,0.00026282,0.00147623,0.00063412,-0.00215878,0.00047498,0.00
 110057,0.00136161,0.00660526,0.03530395,0.00613288,-0.00499077,-0.0062
 6550,0.00183962,-0.01349601,-0.27727569,-0.31858904,0.00104220,0.00205
 290,0.00041641,0.01509126,0.26477388,-0.00032926,0.00019633,-0.0001618
 8,-0.00237926,-0.00498913,0.00440283,-0.00032192,0.00008102,0.00025803
 ,-0.00111169,-0.02627785,-0.01997541,0.00023735,-0.00010566,-0.0004803
 9,-0.00019985,0.00011247,-0.00023447,0.00009367,-0.00001553,-0.0000086
 4,0.00012054,-0.00003763,0.00005419,0.00018569,0.00017083,0.00038702,-
 0.00054791,-0.00035420,-0.00068281,-0.00080359,-0.00183043,-0.00036465
 ,0.01741557,-0.01802817,-0.11213391,0.00725056,0.02517398,0.02278850,-
 0.00075334,-0.32904946,-0.67747133,0.00055500,-0.00351002,-0.01491220,
 -0.01892462,0.35881274,0.79826565,-0.09417810,-0.05536655,0.00029487,-
 0.00003865,-0.00012436,0.00001085,-0.00002938,0.00075251,-0.00083994,-
 0.00005248,-0.00012790,-0.00000167,0.00106326,-0.01940038,0.00144343,0
 .01040527,-0.00223278,0.00594000,-0.00056210,0.00018643,0.00008828,0.0
 0022562,0.00001197,-0.00016742,0.00370592,0.00336634,0.00082794,-0.000
 01490,-0.00001115,0.00001377,-0.00002300,-0.00000640,-0.00001027,-0.00
 050571,0.00018454,0.00026265,0.00006498,0.00057837,-0.00016149,-0.0000
 5387,0.00035995,-0.00073033,0.00002495,-0.00031616,0.00005211,0.000026
 15,0.00011969,0.00036698,0.54851112,-0.05718779,-0.22893788,-0.0141602
 2,-0.00010360,-0.00016942,-0.00004263,-0.00002193,-0.00109586,-0.00032
 076,-0.00009888,-0.00012614,-0.00005510,-0.01050434,-0.01734322,0.0036
 8538,-0.00293606,0.00439843,-0.00105989,0.00022121,-0.00013146,-0.0001
 9027,-0.00010775,-0.00005827,-0.00002167,-0.00520969,-0.00933493,0.001
 52734,-0.00001756,0.00000223,0.00000159,-0.00001645,0.00000941,-0.0000
 1657,0.00044422,-0.00104308,0.00020368,0.00027125,0.00000288,0.0003802
 3,0.00016282,-0.00003316,0.00002171,0.00002409,0.00006880,-0.00016356,
 0.00004752,0.00006695,0.00000038,-0.01436763,0.51957602,-0.00223278,-0
 .02003517,-0.08916168,-0.00002917,0.00022833,0.00004776,-0.00004809,0.
 00115560,-0.00009561,0.00008841,0.00012643,0.00006201,0.01110588,0.024
 83137,0.00318300,0.00400875,-0.00214184,-0.00121711,-0.00038609,0.0002
 0969,0.00048012,0.00052761,0.00000506,0.00030912,-0.00881823,-0.025404
 87,0.00147465,0.00003011,0.00003393,-0.00002624,0.00003408,-0.00000303
 ,0.00003384,-0.00069721,0.00129640,0.00011611,-0.00023859,-0.00016177,
 -0.00148941,0.00000682,-0.00028520,0.00082315,0.00011664,-0.00024208,0
 .00057374,0.00006571,-0.00026020,-0.00019548,-0.01156514,0.00936123,0.
 59194330,0.00615605,-0.00935717,0.01096712,0.00006552,0.00010051,0.000
 02256,-0.00002620,-0.00016040,0.00004531,0.00006984,0.00010765,0.00001
 831,-0.00095890,-0.00139755,-0.00018743,-0.00123849,0.00036272,-0.0003
 3570,0.00009414,-0.00005233,-0.00005657,-0.00006248,0.00000874,-0.0000
 0642,0.00025697,0.00054207,-0.00021447,0.00000873,0.00001591,-0.000008
 35,0.00000624,0.00001790,0.00000769,-0.00036137,0.00094381,-0.00002466
 ,-0.00000185,-0.00049070,-0.00077642,-0.00016945,-0.00046442,0.0005476
 4,-0.00002860,-0.00001276,0.00031359,0.00000670,0.00006244,-0.00017642
 ,-0.10098126,0.07368642,-0.08567317,0.10679626,0.01238406,-0.01760229,
 0.02218376,0.00005885,0.00001912,0.00003906,-0.00014231,-0.00061660,0.
 00029008,0.00006552,-0.00000038,-0.00004869,-0.00031769,-0.00245632,-0
 .00172947,-0.00211928,0.00071488,-0.00071469,0.00016512,-0.00011382,-0
 .00013589,-0.00010223,0.00002364,-0.00002148,-0.00047366,0.00088010,-0
 .00064959,-0.00002327,0.00001296,0.00000843,-0.00002087,0.00002318,-0.
 00001605,0.00008627,0.00004933,-0.00009259,-0.00016810,-0.00011852,0.0
 0030819,-0.00026281,-0.00011724,0.00000846,0.00001798,0.00012333,-0.00
 017332,0.00009248,0.00005909,0.00000565,0.07505511,-0.13569390,0.10489
 202,-0.07733100,0.14744367,0.00385891,-0.00040652,0.00174743,0.0000032
 9,-0.00000725,-0.00000843,-0.00000227,-0.00012598,-0.00014877,0.000007
 89,0.00000782,0.00000512,-0.00067003,-0.00015359,0.00113848,0.00030721
 ,0.00049443,0.00009881,-0.00001948,0.00003350,0.00000417,0.00000258,-0
 .00002992,-0.00002159,0.00023125,0.00045059,0.00021387,-0.00000615,-0.
 00000010,0.00000326,-0.00000362,0.00000060,-0.00000328,0.00010683,-0.0
 0007070,0.00013686,0.00003354,-0.00006553,0.00002627,0.00002629,-0.000
 15780,-0.00021040,-0.00003315,0.00004216,-0.00000682,-0.00003052,0.000
 15982,0.00008387,-0.08640931,0.10238625,-0.16914425,0.09244577,-0.1147
 7568,0.17646416,0.00122401,-0.00408941,-0.01185298,0.00002676,-0.00001
 538,-0.00004877,-0.00000639,-0.00002834,-0.00002671,-0.00003121,0.0000
 4399,-0.00007206,-0.00017057,0.00015962,-0.00090489,-0.00016602,0.0002
 1719,-0.00005420,0.00005048,-0.00002974,0.00001519,-0.00000604,0.00002
 322,0.00004229,0.00087549,-0.00260512,0.00037766,0.00000186,0.00000568
 ,-0.00000549,0.00000531,0.00000331,-0.00000021,0.00000298,0.00005305,-
 0.00054514,0.00001947,-0.00029566,0.00036794,-0.00016390,0.00027569,0.
 00062417,-0.00000758,0.00016685,-0.00018825,0.00009422,-0.00031015,-0.
 00025438,-0.05324052,0.01508614,0.03697003,0.00191510,-0.00698889,-0.0
 1314139,0.05048626,0.00518511,-0.01170339,-0.02953258,0.00001827,0.000
 04683,0.00004166,-0.00008430,-0.00001742,-0.00003664,0.00005909,0.0000
 2873,0.00002562,0.00131682,0.00154502,-0.00115635,0.00004398,0.0001858
 8,0.00013994,-0.00001246,0.00000242,0.00009441,0.00012844,-0.00000841,
 0.00010159,-0.00254257,-0.00469105,0.00025997,-0.00001316,0.00001975,0
 .00000137,-0.00000698,0.00000942,-0.00000456,-0.00001600,0.00015723,0.
 00029536,-0.00017113,-0.00008768,-0.00035231,0.00002028,-0.00043068,-0
 .00042178,0.00003954,0.00000248,0.00016225,-0.00011148,0.00030387,0.00
 019368,0.01443437,-0.08711126,-0.09476689,-0.00411641,0.00762400,0.016
 88862,-0.01323335,0.09483348,0.00006239,0.00055567,-0.00032852,0.00000
 683,-0.00000300,0.00003777,-0.00000044,0.00004219,-0.00006882,0.000010
 75,0.00000137,-0.00000305,0.00010201,0.00170184,0.00148974,-0.00004589
 ,0.00018414,0.00018648,0.00005287,-0.00002407,-0.00000350,-0.00001100,
 0.00003195,0.00000523,0.00022637,0.00003345,0.00105107,-0.00001005,0.0
 0000989,0.00000051,-0.00000722,0.00000581,-0.00000497,0.00006467,-0.00
 006156,0.00023633,-0.00007768,0.00007396,-0.00021858,0.00000809,-0.000
 16137,-0.00032035,0.00004387,-0.00006540,0.00011558,-0.00000947,0.0001
 5326,0.00011260,0.03597071,-0.09727837,-0.27975387,0.00432726,-0.00869
 568,-0.01508955,-0.03922613,0.10522929,0.29601039,-0.00749308,-0.00208
 165,0.00324521,0.00007383,0.00004535,-0.00006338,-0.00004411,0.0000097
 4,0.00009834,-0.00000705,0.00006883,0.00009822,-0.00013758,-0.00035858
 ,-0.00180508,0.00030830,-0.00037434,0.00029092,-0.00002039,-0.00002483
 ,-0.00002251,0.00001296,0.00003376,-0.00000616,0.00056190,-0.00039892,
 -0.00001952,0.00000328,-0.00000290,0.00000935,-0.00000114,0.00000295,-
 0.00000540,-0.00005279,0.00051126,0.00001297,-0.00000641,-0.00010944,0
 .00031175,0.00008373,-0.00034151,-0.00007125,-0.00005175,0.00000394,-0
 .00018969,-0.00001997,0.00000714,-0.00000274,-0.30732667,-0.00292725,0
 .05839252,-0.01225795,-0.00089868,0.00375306,-0.00103019,-0.00044178,-
 0.00122482,0.32775810,-0.03249488,-0.00103168,0.00928935,0.00022953,0.
 00013800,-0.00002297,-0.00005484,-0.00004999,-0.00003619,0.00018203,0.
 00023278,-0.00011284,-0.00027920,-0.00343371,-0.00153241,0.00169728,-0
 .00074454,0.00135919,-0.00007718,-0.00002832,-0.00002766,0.00003951,0.
 00003944,-0.00003940,0.00100211,0.00055696,-0.00025566,-0.00000115,0.0
 0005235,-0.00001940,-0.00000525,0.00005634,0.00001038,-0.00071803,0.00
 153029,-0.00085977,0.00022883,-0.00196445,-0.00088882,-0.00071611,-0.0
 0074871,0.00191405,-0.00028631,0.00045916,0.00031104,0.00012792,-0.000
 02884,-0.00065005,-0.00428835,-0.04358622,-0.00249892,0.01777601,0.000
 22367,-0.00481390,0.01144173,-0.00060553,-0.00113925,0.00731827,0.0490
 9578,-0.00141231,0.00249608,-0.00077136,-0.00002028,-0.00020760,-0.000
 11155,-0.00002282,-0.00015313,-0.00010885,-0.00010640,-0.00010443,-0.0
 0005678,0.00014292,0.00000661,0.00092667,-0.00024332,0.00067166,-0.000
 00573,0.00009422,-0.00003867,-0.00003292,-0.00004577,0.00000158,-0.000
 00881,-0.00003898,0.00021299,0.00016032,-0.00001501,-0.00002057,0.0000
 1582,-0.00001276,-0.00001921,-0.00001972,0.00039603,-0.00108020,-0.000
 55692,0.00009391,0.00012628,0.00189671,0.00001299,0.00083779,-0.000296
 82,-0.00009766,0.00046071,-0.00077398,0.00008047,-0.00032691,0.0000680
 3,0.05719983,-0.00351590,-0.05851019,-0.02138520,-0.00095300,0.0046238
 7,0.02753483,0.00166947,-0.00369911,-0.06260475,0.00019682,0.05696268,
 0.00374494,0.00382150,0.01521100,0.00003505,0.00000209,0.00004070,0.00
 068756,-0.00166538,0.00144103,0.00006532,-0.00001871,-0.00007833,-0.04
 163657,0.00636984,0.01942724,0.00214998,-0.00772912,-0.01131285,-0.000
 68020,-0.00019893,-0.00022368,0.00037671,0.00002796,-0.00001723,0.0074
 3152,-0.00455490,0.00464128,-0.00001485,0.00000655,-0.00000902,-0.0000
 0489,0.00001111,-0.00000536,0.00007528,-0.00017432,-0.00038697,-0.0000
 6626,0.00012738,0.00044548,-0.00035053,0.00046439,0.00081318,0.0000492
 9,0.00003405,-0.00024383,0.00033899,-0.00039112,-0.00036840,-0.0060272
 0,0.00354095,-0.00174867,0.00062742,0.00085381,-0.00045869,0.00010255,
 -0.00047912,-0.00025740,-0.00032936,-0.00089662,0.00046749,0.03372965,
 -0.00332634,0.00962101,0.01342926,0.00000318,-0.00003621,-0.00000726,-
 0.00157769,-0.00442633,0.00137252,-0.00000491,0.00002993,0.00000362,0.
 00549927,-0.11212165,-0.11257795,0.00198498,-0.00883963,-0.02552635,-0
 .00112742,-0.00018789,-0.00081791,0.00026927,0.00007491,-0.00014319,-0
 .00485056,0.00034750,0.00114864,-0.00001957,0.00000541,0.00001658,-0.0
 0000517,-0.00002961,-0.00003235,-0.00000155,0.00005683,0.00021314,0.00
 005407,-0.00012161,-0.00006935,0.00021334,-0.00022054,-0.00060542,-0.0
 0006005,0.00002285,0.00007216,-0.00028100,0.00015925,0.00028446,0.0024
 0682,0.00017622,0.00294078,-0.00025492,-0.00036838,0.00010450,0.000055
 79,-0.00010231,-0.00051797,0.00013430,0.00032236,-0.00027165,0.0007444
 9,0.11497062,0.00212515,-0.01347939,-0.01824881,0.00001303,0.00002999,
 0.00005825,0.00096841,-0.00010894,0.00116476,0.00005212,-0.00001032,-0
 .00000814,0.02284890,-0.11105667,-0.27434520,0.00059167,0.00204507,0.0
 0135470,0.00001702,-0.00002044,-0.00005911,0.00021861,0.00010335,0.000
 04373,0.00395157,0.00139326,-0.00137457,-0.00001672,0.00001777,0.00000
 309,-0.00001113,-0.00000086,-0.00000495,0.00000039,0.00005296,0.000275
 44,-0.00014182,-0.00000044,-0.00035709,0.00006947,-0.00023029,-0.00056
 355,0.00006385,-0.00005539,0.00018612,-0.00019844,0.00022385,0.0002200
 5,-0.00251490,-0.00074884,0.00060336,0.00013337,0.00021399,0.00008450,
 0.00038287,0.00115099,0.00024083,-0.00017806,-0.00020068,0.00029596,-0
 .02780741,0.12084389,0.28979375,0.00128455,-0.00181149,-0.00125388,0.0
 0024516,0.00013649,-0.00001454,0.00595540,0.00280956,-0.01201783,-0.00
 002467,-0.00012314,0.00009339,0.00149166,-0.00773845,0.01065328,-0.042
 39989,-0.00947669,0.01338670,-0.00697409,0.00282406,0.00141139,0.00944
 922,-0.00435247,-0.00351249,0.00038687,0.00000777,0.00002094,-0.000027
 33,0.00002075,0.00000848,-0.00026764,0.00016022,-0.00000162,0.00004168
 ,0.00023265,-0.00006720,-0.00011228,-0.00033713,0.00010867,-0.00006993
 ,-0.00021262,0.00014715,0.00005288,0.00012702,-0.00013207,0.00009329,0
 .00008698,-0.00005197,-0.00099341,0.00001430,0.00009059,0.00008359,0.0
 0006958,-0.00000200,0.00001793,-0.00001715,-0.00000573,-0.00002366,-0.
 00022529,-0.00001741,-0.00030439,0.00014365,-0.00056795,0.03209505,-0.
 00099163,-0.00458279,-0.00191926,-0.00001600,0.00008137,-0.00003741,-0
 .00160050,0.01068260,-0.01449861,0.00001976,-0.00011206,0.00005199,-0.
 00245542,-0.00991702,0.02537339,-0.01000885,-0.12355276,0.11969473,0.0
 0304360,-0.00013940,-0.00078419,-0.00473135,0.00077550,-0.00183365,0.0
 0023128,0.00008120,0.00014695,0.00001830,0.00000477,-0.00000753,0.0000
 3135,0.00014825,-0.00001600,-0.00005125,0.00017966,-0.00013330,0.00003
 100,-0.00020167,-0.00001237,-0.00001583,-0.00014613,0.00041068,-0.0000
 0283,0.00007345,-0.00004263,0.00004573,0.00001455,-0.00018340,-0.00121
 442,0.00036386,0.00071912,0.00001346,-0.00010952,0.00003868,0.00006379
 ,-0.00000140,-0.00007617,-0.00017566,-0.00048518,0.00001130,0.00010409
 ,0.00066726,-0.00016286,0.01766140,0.12617546,-0.00104106,-0.00036568,
 0.00087041,-0.00008233,-0.00015612,0.00004681,0.00123182,0.01507390,-0
 .01933956,-0.00002832,0.00017010,-0.00016056,-0.00079503,-0.00327623,0
 .00345617,0.01026835,0.11765806,-0.26577179,0.00100242,-0.00043595,0.0
 0078865,-0.00261825,-0.00208936,-0.00224653,-0.00017592,-0.00008112,0.
 00003791,0.00000018,0.00001034,-0.00002856,0.00011036,-0.00009068,0.00
 004871,-0.00003675,-0.00020583,0.00003536,0.00006126,0.00026150,-0.000
 11645,0.00002197,0.00021709,0.00001952,-0.00002465,-0.00010575,0.00011
 632,0.00001951,-0.00008116,-0.00001960,-0.00007096,0.00000601,-0.00005
 632,0.00001619,0.00005650,0.00000244,0.00000565,0.00001689,0.00000380,
 -0.00001897,0.00001708,0.00000270,0.00043044,0.00013986,0.00063688,-0.
 00827591,-0.12673945,0.28167369\\-0.00000532,-0.00000321,0.00000197,-0
 .00000396,-0.00000953,-0.00000715,-0.00000142,0.00000131,-0.00000161,0
 .00000375,0.00001016,0.00000888,-0.00000104,0.00000055,0.00000193,0.00
 000152,0.00000136,-0.00000080,-0.00000038,-0.00000126,0.00000169,0.000
 00028,-0.00000011,-0.00000009,0.00000018,-0.00000058,0.00000374,0.0000
 0080,0.00000227,0.00000239,-0.00000080,-0.00000065,0.00000061,0.000002
 27,-0.00000406,0.00000788,0.00000187,-0.00000121,0.00000083,-0.0000022
 0,-0.00000294,-0.00001059,-0.00000038,-0.00000014,-0.00000006,0.000002
 83,0.00000218,0.00000072,0.00000914,-0.00000170,-0.00000744,-0.0000024
 1,0.00000140,-0.00000131,-0.00000002,-0.00000007,-0.00000132,-0.000005
 41,0.00000573,-0.00000174,0.00000094,0.00000076,-0.00000174,-0.0000002
 7,-0.00000027,0.00000322\\\@
 The archive entry for this job was punched.


 SATCHEL PAIGE'S GUIDE TO LONGEVITY

    1.  AVOID FRIED MEATS, WHICH ANGRY UP THE BLOOD.

    2.  IF YOUR STOMACH DISPUTES YOU, LIE DOWN AND PACIFY IT WITH COOL
        THOUGHTS.

    3.  KEEP THE JUICES FLOWING BY JANGLING AROUND GENTLY AS YOU MOVE.

    4.  GO VERY LIGHT ON THE VICES, SUCH AS CARRYING ON IN SOCIETY.
        THE SOCIAL RUMBLE AIN'T RESTFUL.

    5.  AVOID RUNNING AT ALL TIMES.

    6.  DON'T LOOK BACK.  SOMETHING MAY BE GAINING ON YOU.
 Job cpu time:       0 days  0 hours 21 minutes 45.0 seconds.
 Elapsed time:       0 days  0 hours  1 minutes 50.3 seconds.
 File lengths (MBytes):  RWF=    192 Int=      0 D2E=      0 Chk=     10 Scr=      1
 Normal termination of Gaussian 16 at Sat Dec 30 20:54:48 2023.
