Unloading slurm/anatra/current
  ERROR: No such file or directory on
    '/cm/local/modulefiles/slurm/anatra/current'
environment: line 0: unalias: gv: not found
environment: line 0: unalias: sl: not found
 Entering Gaussian System, Link 0=g16
 Initial command:
 /apps/gaussian/g16/C.01/g16/l1.exe "/local/jobs/1153162/Gau-1733321.inp" -scrdir="/local/jobs/1153162/"
 Entering Link 1 = /apps/gaussian/g16/C.01/g16/l1.exe PID=   1733325.
  
 Copyright (c) 1988-2019, Gaussian, Inc.  All Rights Reserved.
  
 This is part of the Gaussian(R) 16 program.  It is based on
 the Gaussian(R) 09 system (copyright 2009, Gaussian, Inc.),
 the Gaussian(R) 03 system (copyright 2003, Gaussian, Inc.),
 the Gaussian(R) 98 system (copyright 1998, Gaussian, Inc.),
 the Gaussian(R) 94 system (copyright 1995, Gaussian, Inc.),
 the Gaussian 92(TM) system (copyright 1992, Gaussian, Inc.),
 the Gaussian 90(TM) system (copyright 1990, Gaussian, Inc.),
 the Gaussian 88(TM) system (copyright 1988, Gaussian, Inc.),
 the Gaussian 86(TM) system (copyright 1986, Carnegie Mellon
 University), and the Gaussian 82(TM) system (copyright 1983,
 Carnegie Mellon University). Gaussian is a federally registered
 trademark of Gaussian, Inc.
  
 This software contains proprietary and confidential information,
 including trade secrets, belonging to Gaussian, Inc.
  
 This software is provided under written license and may be
 used, copied, transmitted, or stored only in accord with that
 written license.
  
 The following legend is applicable only to US Government
 contracts under FAR:
  
                    RESTRICTED RIGHTS LEGEND
  
 Use, reproduction and disclosure by the US Government is
 subject to restrictions as set forth in subparagraphs (a)
 and (c) of the Commercial Computer Software - Restricted
 Rights clause in FAR 52.227-19.
  
 Gaussian, Inc.
 340 Quinnipiac St., Bldg. 40, Wallingford CT 06492
  
  
 ---------------------------------------------------------------
 Warning -- This program may not be used in any manner that
 competes with the business of Gaussian, Inc. or will provide
 assistance to any competitor of Gaussian, Inc.  The licensee
 of this program is prohibited from giving any competitor of
 Gaussian, Inc. access to this program.  By using this program,
 the user acknowledges that Gaussian, Inc. is engaged in the
 business of creating and licensing software in the field of
 computational chemistry and represents and warrants to the
 licensee that it is not a competitor of Gaussian, Inc. and that
 it will not use this program in any manner prohibited above.
 ---------------------------------------------------------------
  

 Cite this work as:
 Gaussian 16, Revision C.01,
 M. J. Frisch, G. W. Trucks, H. B. Schlegel, G. E. Scuseria, 
 M. A. Robb, J. R. Cheeseman, G. Scalmani, V. Barone, 
 G. A. Petersson, H. Nakatsuji, X. Li, M. Caricato, A. V. Marenich, 
 J. Bloino, B. G. Janesko, R. Gomperts, B. Mennucci, H. P. Hratchian, 
 J. V. Ortiz, A. F. Izmaylov, J. L. Sonnenberg, D. Williams-Young, 
 F. Ding, F. Lipparini, F. Egidi, J. Goings, B. Peng, A. Petrone, 
 T. Henderson, D. Ranasinghe, V. G. Zakrzewski, J. Gao, N. Rega, 
 G. Zheng, W. Liang, M. Hada, M. Ehara, K. Toyota, R. Fukuda, 
 J. Hasegawa, M. Ishida, T. Nakajima, Y. Honda, O. Kitao, H. Nakai, 
 T. Vreven, K. Throssell, J. A. Montgomery, Jr., J. E. Peralta, 
 F. Ogliaro, M. J. Bearpark, J. J. Heyd, E. N. Brothers, K. N. Kudin, 
 V. N. Staroverov, T. A. Keith, R. Kobayashi, J. Normand, 
 K. Raghavachari, A. P. Rendell, J. C. Burant, S. S. Iyengar, 
 J. Tomasi, M. Cossi, J. M. Millam, M. Klene, C. Adamo, R. Cammi, 
 J. W. Ochterski, R. L. Martin, K. Morokuma, O. Farkas, 
 J. B. Foresman, and D. J. Fox, Gaussian, Inc., Wallingford CT, 2019.
 
 ******************************************
 Gaussian 16:  ES64L-G16RevC.01  3-Jul-2019
                30-Dec-2023 
 ******************************************
 %chk=da-2_1_opt_dft_re_freq.chk
 %nprocshared=12
 Will use up to   12 processors via shared memory.
 %mem=48GB
 -----------------------------------------------------------
 # wb97xd def2svp scrf=(iefpcm,solvent=toluene) freq=noraman
 -----------------------------------------------------------
 1/10=4,30=1,38=1/1,3;
 2/12=2,17=6,18=5,40=1/2;
 3/5=43,7=101,11=2,25=1,30=1,70=2201,71=2,72=13,74=-58,140=1/1,2,3;
 4//1;
 5/5=2,38=5,53=13,98=1/2;
 8/6=4,10=90,11=11/1;
 11/6=1,8=1,9=11,15=111,16=1/1,2,10;
 10/6=1/2;
 6/7=2,8=2,9=2,10=2,28=1/1;
 7/8=1,10=1,25=1/1,2,3,16;
 1/10=4,30=1/3;
 99//99;
 ---------------------
 da-2_1_opt_dft_re.out
 ---------------------
 Symbolic Z-matrix:
 Charge =  0 Multiplicity = 1
 C                    -2.17508   0.62679   0.27447 
 C                     0.33148  -1.04276   1.26334 
 C                     0.19957   2.57604   0.37157 
 C                     1.37876  -0.21836   1.32913 
 C                    -1.40885   1.01202  -0.76059 
 C                    -0.32017   1.99397  -0.71962 
 H                     1.02651   3.28429   0.28727 
 H                    -0.18189   2.37937   1.37761 
 H                    -2.02429   1.10737   1.2484 
 H                    -0.36366  -1.34857   2.04266 
 H                     1.77587   0.3363    2.17676 
 O                     1.25657  -0.97157  -0.85317 
 C                     0.24172  -1.55625  -0.13207 
 C                     2.00578  -0.16623  -0.02171 
 O                    -0.51254  -2.34144  -0.61482 
 O                     2.97708   0.40717  -0.3978 
 C                    -3.24617  -0.42273   0.1868 
 H                    -4.03757  -0.12734  -0.52015 
 H                    -2.82831  -1.37751  -0.17099 
 H                    -3.71971  -0.60099   1.16136 
 H                    -1.58225   0.54007  -1.7345 
 H                     0.12417   2.23867  -1.68994 
 

 GradGradGradGradGradGradGradGradGradGradGradGradGradGradGradGradGradGrad
 Berny optimization.
 Initialization pass.
 Trust Radius=3.00D-01 FncErr=1.00D-07 GrdErr=1.00D-07 EigMax=2.50D+02 EigMin=1.00D-04
 Number of steps in this run=      2 maximum allowed number of steps=      2.
 GradGradGradGradGradGradGradGradGradGradGradGradGradGradGradGradGradGrad

                          Input orientation:                          
 ---------------------------------------------------------------------
 Center     Atomic      Atomic             Coordinates (Angstroms)
 Number     Number       Type             X           Y           Z
 ---------------------------------------------------------------------
      1          6           0       -2.175080    0.626790    0.274470
      2          6           0        0.331480   -1.042760    1.263340
      3          6           0        0.199570    2.576040    0.371570
      4          6           0        1.378760   -0.218360    1.329130
      5          6           0       -1.408850    1.012020   -0.760590
      6          6           0       -0.320170    1.993970   -0.719620
      7          1           0        1.026510    3.284290    0.287270
      8          1           0       -0.181890    2.379370    1.377610
      9          1           0       -2.024290    1.107370    1.248400
     10          1           0       -0.363660   -1.348570    2.042660
     11          1           0        1.775870    0.336300    2.176760
     12          8           0        1.256570   -0.971570   -0.853170
     13          6           0        0.241720   -1.556250   -0.132070
     14          6           0        2.005780   -0.166230   -0.021710
     15          8           0       -0.512540   -2.341440   -0.614820
     16          8           0        2.977080    0.407170   -0.397800
     17          6           0       -3.246170   -0.422730    0.186800
     18          1           0       -4.037570   -0.127340   -0.520150
     19          1           0       -2.828310   -1.377510   -0.170990
     20          1           0       -3.719710   -0.600990    1.161360
     21          1           0       -1.582250    0.540070   -1.734500
     22          1           0        0.124170    2.238670   -1.689940
 ---------------------------------------------------------------------
                    Distance matrix (angstroms):
                    1          2          3          4          5
     1  C    0.000000
     2  C    3.169874   0.000000
     3  C    3.073754   3.729392   0.000000
     4  C    3.802153   1.334451   3.180579   0.000000
     5  C    1.344195   3.368555   2.512958   3.694798   0.000000
     6  C    2.509599   3.684903   1.341503   3.460945   1.466673
     7  H    4.160847   4.489893   1.092041   3.671254   3.491733
     8  H    2.874241   3.462308   1.093758   3.030871   2.819038
     9  H    1.096465   3.189504   2.805597   3.653057   2.103307
    10  H    3.210885   1.088154   4.302596   2.196025   3.810908
    11  H    4.394667   2.195998   3.280224   1.088035   4.384868
    12  O    3.950006   2.310947   3.899073   2.311858   3.323803
    13  C    3.282051   1.489597   4.163082   2.284276   3.116958
    14  C    4.265700   2.285375   3.307130   1.490181   3.686993
    15  O    3.516428   2.434425   5.065735   3.444332   3.474236
    16  O    5.200474   3.443963   3.607006   2.434790   4.442279
    17  C    1.502136   3.787209   4.571639   4.768298   2.516307
    18  H    2.160787   4.807019   5.104585   5.724050   2.875086
    19  H    2.154614   3.486206   5.009290   4.614480   2.841188
    20  H    2.163308   4.076481   5.106667   5.115559   3.411124
    21  H    2.096408   3.892911   3.428642   4.327658   1.096041
    22  H    3.426896   4.419573   2.090294   4.089716   2.172214
                    6          7          8          9         10
     6  C    0.000000
     7  H    2.119505   0.000000
     8  H    2.136827   1.862244   0.000000
     9  H    2.750125   3.869126   2.242569   0.000000
    10  H    4.336434   5.145615   3.791157   3.069232   0.000000
    11  H    3.940846   3.580832   2.940340   3.987182   2.726602
    12  O    3.361305   4.412015   4.274850   4.416178   3.339627
    13  C    3.642114   4.921643   4.236471   3.759703   2.266951
    14  C    3.250167   3.600073   3.636492   4.413242   3.357648
    15  O    4.340941   5.901803   5.134701   4.201341   2.840802
    16  O    3.673331   3.542861   4.125621   5.311681   4.494331
    17  C    3.901732   5.657551   4.319676   2.227373   3.551093
    18  H    4.284718   6.159225   4.975073   2.950521   4.642953
    19  H    4.237763   6.066467   4.849314   2.972498   3.312942
    20  H    4.672127   6.195647   4.630926   2.408427   3.549456
    21  H    2.176385   4.292310   3.876759   3.068374   4.395323
    22  H    1.094914   2.411825   3.085990   3.811766   5.199863
                   11         12         13         14         15
    11  H    0.000000
    12  O    3.340759   0.000000
    13  C    3.356495   1.375411   0.000000
    14  C    2.266862   1.378845   2.248609   0.000000
    15  O    4.494444   2.250134   1.190999   3.380126   0.000000
    16  O    2.841881   2.251320   3.377547   1.188972   4.447404
    17  C    5.454993   4.653754   3.681294   5.262342   3.434643
    18  H    6.425291   5.371363   4.528213   6.063995   4.163777
    19  H    5.444956   4.161298   3.075475   4.985771   2.547339
    20  H    5.666652   5.381359   4.275326   5.862585   4.058315
    21  H    5.159113   3.334771   3.207679   4.038127   3.271248
    22  H    4.615029   3.505446   4.103924   3.479510   4.747493
                   16         17         18         19         20
    16  O    0.000000
    17  C    6.305500   0.000000
    18  H    7.036049   1.101521   0.000000
    19  H    6.077753   1.101919   1.774020   0.000000
    20  H    6.949415   1.098082   1.775628   1.781217   0.000000
    21  H    4.753096   2.717905   2.819340   2.770260   3.775812
    22  H    3.628101   4.686619   4.928133   4.909288   5.564979
                   21         22
    21  H    0.000000
    22  H    2.408131   0.000000
 Stoichiometry    C9H10O3
 Framework group  C1[X(C9H10O3)]
 Deg. of freedom    60
 Full point group                 C1      NOp   1
 Largest Abelian subgroup         C1      NOp   1
 Largest concise Abelian subgroup C1      NOp   1
                         Standard orientation:                         
 ---------------------------------------------------------------------
 Center     Atomic      Atomic             Coordinates (Angstroms)
 Number     Number       Type             X           Y           Z
 ---------------------------------------------------------------------
      1          6           0       -2.175079    0.626795    0.274469
      2          6           0        0.331478   -1.042759    1.263339
      3          6           0        0.199574    2.576041    0.371569
      4          6           0        1.378760   -0.218361    1.329129
      5          6           0       -1.408848    1.012024   -0.760591
      6          6           0       -0.320167    1.993972   -0.719621
      7          1           0        1.026515    3.284290    0.287269
      8          1           0       -0.181886    2.379372    1.377609
      9          1           0       -2.024288    1.107375    1.248399
     10          1           0       -0.363662   -1.348568    2.042659
     11          1           0        1.775871    0.336299    2.176759
     12          8           0        1.256569   -0.971571   -0.853171
     13          6           0        0.241718   -1.556249   -0.132071
     14          6           0        2.005780   -0.166232   -0.021711
     15          8           0       -0.512544   -2.341438   -0.614821
     16          8           0        2.977081    0.407167   -0.397801
     17          6           0       -3.246171   -0.422723    0.186799
     18          1           0       -4.037570   -0.127332   -0.520151
     19          1           0       -2.828312   -1.377504   -0.170991
     20          1           0       -3.719711   -0.600983    1.161359
     21          1           0       -1.582249    0.540074   -1.734501
     22          1           0        0.124174    2.238671   -1.689941
 ---------------------------------------------------------------------
 Rotational constants (GHZ):           1.2069232           0.8437096           0.6134160
 Standard basis: def2SVP (5D, 7F)
 There are   230 symmetry adapted cartesian basis functions of A   symmetry.
 There are   218 symmetry adapted basis functions of A   symmetry.
   218 basis functions,   370 primitive gaussians,   230 cartesian basis functions
    44 alpha electrons       44 beta electrons
       nuclear repulsion energy       688.3304634479 Hartrees.
 NAtoms=   22 NActive=   22 NUniq=   22 SFac= 1.00D+00 NAtFMM=   60 NAOKFM=F Big=F
 Integral buffers will be    131072 words long.
 Raffenetti 2 integral format.
 Two-electron integral symmetry is turned on.
 Nuclear repulsion after empirical dispersion term =      688.3149572800 Hartrees.
 Force inversion solution in PCM.
 ------------------------------------------------------------------------------
 Polarizable Continuum Model (PCM)
 =================================
 Model                : PCM.
 Atomic radii         : UFF (Universal Force Field).
 Polarization charges : Total charges.
 Charge compensation  : None.
 Solution method      : Matrix inversion.
 Cavity type          : Scaled VdW (van der Waals Surface) (Alpha=1.100).
 Cavity algorithm     : GePol (No added spheres)
                        Default sphere list used, NSphG=   22.
                        Lebedev-Laikov grids with approx.  5.0 points / Ang**2.
                        Smoothing algorithm: York/Karplus (Gamma=1.0000).
                        Polarization charges: spherical gaussians, with
                                              point-specific exponents (IZeta= 3).
                        Self-potential: point-specific (ISelfS= 7).
                        Self-field    : sphere-specific E.n sum rule (ISelfD= 2).
 1st derivatives      : Analytical E(r).r(x)/FMM algorithm (CHGder, D1EAlg=3).
                        Cavity 1st derivative terms included.
 2nd derivatives      : Analytical E(r).r(xy)/FMM algorithm (CHGder, D2EAlg=3).
                        Cavity 2nd derivative terms included.
 Solvent              : Toluene, Eps=   2.374100 Eps(inf)=   2.238315
 ------------------------------------------------------------------------------
 One-electron integrals computed using PRISM.
   1 Symmetry operations used in ECPInt.
 ECPInt:  NShTT=    5253 NPrTT=   19101 LenC2=    5151 LenP2D=   14297.
 LDataN:  DoStor=T MaxTD1= 4 Len=   56
 NBasis=   218 RedAO= T EigKep=  5.02D-04  NBF=   218
 NBsUse=   218 1.00D-06 EigRej= -1.00D+00 NBFU=   218
 ExpMin= 1.22D-01 ExpMax= 2.27D+03 ExpMxC= 3.41D+02 IAcc=3 IRadAn=         5 AccDes= 0.00D+00
 Harris functional with IExCor= 4639 and IRadAn=       5 diagonalized for initial guess.
 HarFok:  IExCor= 4639 AccDes= 0.00D+00 IRadAn=         5 IDoV= 1 UseB2=F ITyADJ=14
 ICtDFT=  3500011 ScaDFX=  1.000000  1.000000  1.000000  1.000000
 FoFCou: FMM=F IPFlag=           0 FMFlag=      100000 FMFlg1=           0
         NFxFlg=           0 DoJE=T BraDBF=F KetDBF=T FulRan=T
         wScrn=  0.000000 ICntrl=       500 IOpCl=  0 I1Cent=   200000004 NGrid=           0
         NMat0=    1 NMatS0=      1 NMatT0=    0 NMatD0=    1 NMtDS0=    0 NMtDT0=    0
 Petite list used in FoFCou.
 Requested convergence on RMS density matrix=1.00D-08 within 128 cycles.
 Requested convergence on MAX density matrix=1.00D-06.
 Requested convergence on             energy=1.00D-06.
 No special actions if energy rises.
 Inv3:  Mode=1 IEnd=     9817443.
 Iteration    1 A*A^-1 deviation from unit magnitude is 3.11D-15 for   1621.
 Iteration    1 A*A^-1 deviation from orthogonality  is 1.81D-15 for   1465    441.
 Iteration    1 A^-1*A deviation from unit magnitude is 3.11D-15 for   1621.
 Iteration    1 A^-1*A deviation from orthogonality  is 1.69D-15 for   1496    374.
 Error on total polarization charges =  0.00603
 SCF Done:  E(RwB97XD) =  -573.998631338     A.U. after   14 cycles
            NFock= 14  Conv=0.71D-08     -V/T= 2.0097
 DoSCS=F DFT=T ScalE2(SS,OS)=  1.000000  1.000000
 Range of M.O.s used for correlation:     1   218
 NBasis=   218 NAE=    44 NBE=    44 NFC=     0 NFV=     0
 NROrb=    218 NOA=    44 NOB=    44 NVA=   174 NVB=   174
   1 Symmetry operations used in ECPInt.
 ECPInt:  NShTT=    5253 NPrTT=   19101 LenC2=    5151 LenP2D=   14297.
 LDataN:  DoStor=T MaxTD1= 5 Len=  102
 Symmetrizing basis deriv contribution to polar:
 IMax=3 JMax=2 DiffMx= 0.00D+00
 G2DrvN: will do    23 centers at a time, making    1 passes.
 Calling FoFCou, ICntrl=  3107 FMM=F I1Cent=   0 AccDes= 0.00D+00.
 NEqPCM:  Using equilibrium solvation (IEInf=0, Eps=   2.3741, EpsInf=   2.2383)
 G2PCM: DoFxE=T DoFxN=T DoGrad=T DoDP/DQ/DG/TGxP=FFFF NFrqRd=   0 IEInf=0 SqF1=F DoCFld=F IF1Alg=4.
 End of G2Drv F.D. properties file   721 does not exist.
 End of G2Drv F.D. properties file   722 does not exist.
 End of G2Drv F.D. properties file   788 does not exist.
          IDoAtm=1111111111111111111111
 NEqPCM:  Using equilibrium solvation (IEInf=0, Eps=   2.3741, EpsInf=   2.2383)
          Differentiating once with respect to electric field.
                with respect to dipole field.
          Differentiating once with respect to nuclear coordinates.
 Keep R1 ints in memory in canonical form, NReq=587803661.
          There are    69 degrees of freedom in the 1st order CPHF.  IDoFFX=6 NUNeed=     3.
     66 vectors produced by pass  0 Test12= 1.11D-14 1.45D-09 XBig12= 6.29D+01 3.77D+00.
 AX will form    66 AO Fock derivatives at one time.
     66 vectors produced by pass  1 Test12= 1.11D-14 1.45D-09 XBig12= 7.95D+00 4.92D-01.
     66 vectors produced by pass  2 Test12= 1.11D-14 1.45D-09 XBig12= 3.26D-01 1.15D-01.
     66 vectors produced by pass  3 Test12= 1.11D-14 1.45D-09 XBig12= 5.26D-03 1.43D-02.
     66 vectors produced by pass  4 Test12= 1.11D-14 1.45D-09 XBig12= 4.49D-05 9.06D-04.
     66 vectors produced by pass  5 Test12= 1.11D-14 1.45D-09 XBig12= 2.79D-07 7.17D-05.
     56 vectors produced by pass  6 Test12= 1.11D-14 1.45D-09 XBig12= 1.65D-09 5.49D-06.
     22 vectors produced by pass  7 Test12= 1.11D-14 1.45D-09 XBig12= 8.22D-12 3.05D-07.
      3 vectors produced by pass  8 Test12= 1.11D-14 1.45D-09 XBig12= 3.52D-14 2.59D-08.
 InvSVY:  IOpt=1 It=  1 EMax= 8.88D-15
 Solved reduced A of dimension   477 with    69 vectors.
 Isotropic polarizability for W=    0.000000      114.81 Bohr**3.
 End of Minotr F.D. properties file   721 does not exist.
 End of Minotr F.D. properties file   722 does not exist.
 End of Minotr F.D. properties file   788 does not exist.

 **********************************************************************

            Population analysis using the SCF Density.

 **********************************************************************

 Orbital symmetries:
       Occupied  (A) (A) (A) (A) (A) (A) (A) (A) (A) (A) (A) (A)
                 (A) (A) (A) (A) (A) (A) (A) (A) (A) (A) (A) (A)
                 (A) (A) (A) (A) (A) (A) (A) (A) (A) (A) (A) (A)
                 (A) (A) (A) (A) (A) (A) (A) (A)
       Virtual   (A) (A) (A) (A) (A) (A) (A) (A) (A) (A) (A) (A)
                 (A) (A) (A) (A) (A) (A) (A) (A) (A) (A) (A) (A)
                 (A) (A) (A) (A) (A) (A) (A) (A) (A) (A) (A) (A)
                 (A) (A) (A) (A) (A) (A) (A) (A) (A) (A) (A) (A)
                 (A) (A) (A) (A) (A) (A) (A) (A) (A) (A) (A) (A)
                 (A) (A) (A) (A) (A) (A) (A) (A) (A) (A) (A) (A)
                 (A) (A) (A) (A) (A) (A) (A) (A) (A) (A) (A) (A)
                 (A) (A) (A) (A) (A) (A) (A) (A) (A) (A) (A) (A)
                 (A) (A) (A) (A) (A) (A) (A) (A) (A) (A) (A) (A)
                 (A) (A) (A) (A) (A) (A) (A) (A) (A) (A) (A) (A)
                 (A) (A) (A) (A) (A) (A) (A) (A) (A) (A) (A) (A)
                 (A) (A) (A) (A) (A) (A) (A) (A) (A) (A) (A) (A)
                 (A) (A) (A) (A) (A) (A) (A) (A) (A) (A) (A) (A)
                 (A) (A) (A) (A) (A) (A) (A) (A) (A) (A) (A) (A)
                 (A) (A) (A) (A) (A) (A)
 The electronic state is 1-A.
 Alpha  occ. eigenvalues --  -19.33314 -19.28007 -19.27860 -10.46132 -10.46013
 Alpha  occ. eigenvalues --  -10.35480 -10.35402 -10.31562 -10.31365 -10.30625
 Alpha  occ. eigenvalues --  -10.30593 -10.29895  -1.25212  -1.17961  -1.14138
 Alpha  occ. eigenvalues --   -0.94333  -0.91226  -0.85508  -0.79637  -0.77621
 Alpha  occ. eigenvalues --   -0.73531  -0.69444  -0.68739  -0.62073  -0.60672
 Alpha  occ. eigenvalues --   -0.60452  -0.57623  -0.56917  -0.55626  -0.54403
 Alpha  occ. eigenvalues --   -0.53381  -0.51997  -0.50503  -0.49793  -0.49496
 Alpha  occ. eigenvalues --   -0.47774  -0.43648  -0.43488  -0.42989  -0.42038
 Alpha  occ. eigenvalues --   -0.41094  -0.39126  -0.38144  -0.31111
 Alpha virt. eigenvalues --   -0.03733   0.02282   0.10936   0.12123   0.13695
 Alpha virt. eigenvalues --    0.15356   0.15896   0.16192   0.17119   0.19449
 Alpha virt. eigenvalues --    0.21090   0.21496   0.22497   0.24150   0.25023
 Alpha virt. eigenvalues --    0.27231   0.27874   0.29607   0.31891   0.33583
 Alpha virt. eigenvalues --    0.35276   0.36532   0.39145   0.40202   0.44037
 Alpha virt. eigenvalues --    0.45040   0.45455   0.48049   0.49128   0.49983
 Alpha virt. eigenvalues --    0.50614   0.52719   0.54040   0.54959   0.55686
 Alpha virt. eigenvalues --    0.57859   0.58865   0.60791   0.62540   0.63909
 Alpha virt. eigenvalues --    0.66110   0.69811   0.70385   0.70820   0.71557
 Alpha virt. eigenvalues --    0.72332   0.72709   0.73872   0.74682   0.74940
 Alpha virt. eigenvalues --    0.75395   0.76398   0.76629   0.77597   0.77998
 Alpha virt. eigenvalues --    0.78486   0.80248   0.80542   0.81763   0.86160
 Alpha virt. eigenvalues --    0.87551   0.88486   0.90255   0.91472   0.92915
 Alpha virt. eigenvalues --    0.99146   1.02311   1.05615   1.06254   1.09679
 Alpha virt. eigenvalues --    1.10874   1.12900   1.13297   1.16620   1.18666
 Alpha virt. eigenvalues --    1.19740   1.23250   1.24525   1.25517   1.27536
 Alpha virt. eigenvalues --    1.29694   1.30882   1.33979   1.35185   1.38816
 Alpha virt. eigenvalues --    1.39776   1.44533   1.45624   1.51505   1.56374
 Alpha virt. eigenvalues --    1.58428   1.60870   1.61770   1.62712   1.66452
 Alpha virt. eigenvalues --    1.67295   1.68651   1.70206   1.71809   1.74251
 Alpha virt. eigenvalues --    1.78084   1.78775   1.79818   1.81184   1.83385
 Alpha virt. eigenvalues --    1.86334   1.86957   1.87475   1.88298   1.89207
 Alpha virt. eigenvalues --    1.90361   1.90888   1.93471   1.94502   1.96779
 Alpha virt. eigenvalues --    1.97847   1.98562   2.03277   2.04159   2.06726
 Alpha virt. eigenvalues --    2.09853   2.11205   2.12818   2.13710   2.16500
 Alpha virt. eigenvalues --    2.17195   2.19330   2.21785   2.25975   2.28235
 Alpha virt. eigenvalues --    2.29727   2.31697   2.35236   2.38739   2.42063
 Alpha virt. eigenvalues --    2.42864   2.46483   2.47016   2.48724   2.53502
 Alpha virt. eigenvalues --    2.55893   2.60936   2.64425   2.65585   2.68086
 Alpha virt. eigenvalues --    2.69813   2.71099   2.71303   2.74555   2.77329
 Alpha virt. eigenvalues --    2.80305   2.81332   2.81833   2.86174   2.87113
 Alpha virt. eigenvalues --    2.91489   2.94892   3.01004   3.02262   3.03242
 Alpha virt. eigenvalues --    3.04143   3.10098   3.18363   3.25013   3.27167
 Alpha virt. eigenvalues --    3.28728   3.29121   3.34587   3.42950   3.51197
 Alpha virt. eigenvalues --    3.52468   3.73429   3.76616   3.79186
          Condensed to atoms (all electrons):
               1          2          3          4          5          6
     1  C    4.946968   0.005850  -0.023579  -0.004975   0.559031  -0.035185
     2  C    0.005850   5.394502  -0.006393   0.219768   0.006433  -0.008740
     3  C   -0.023579  -0.006393   4.785206   0.006334  -0.052191   0.626577
     4  C   -0.004975   0.219768   0.006334   5.414226  -0.010890   0.007066
     5  C    0.559031   0.006433  -0.052191  -0.010890   4.942601   0.341243
     6  C   -0.035185  -0.008740   0.626577   0.007066   0.341243   4.791928
     7  H   -0.000275   0.000252   0.392595  -0.001118   0.009876  -0.015305
     8  H    0.011311  -0.002686   0.377630   0.005968  -0.030926  -0.001448
     9  H    0.389557   0.003360   0.010022  -0.001583  -0.013370  -0.025131
    10  H    0.000766   0.429556  -0.000141  -0.046006  -0.000148   0.000006
    11  H   -0.000134  -0.047225   0.000558   0.429475  -0.000020   0.000120
    12  O   -0.001391  -0.107907  -0.001914  -0.109525   0.002420   0.003620
    13  C    0.002826   0.223062   0.000049   0.032774   0.001733   0.000377
    14  C   -0.000169   0.033254   0.003471   0.211516   0.001052  -0.000674
    15  O   -0.000531  -0.077115   0.000036   0.004213  -0.004133   0.000058
    16  O    0.000017   0.004410  -0.000078  -0.077769   0.000065  -0.003072
    17  C    0.391437  -0.001211   0.000038   0.000471  -0.058831   0.008152
    18  H   -0.019228   0.000085   0.000023  -0.000012  -0.009799  -0.000061
    19  H   -0.017660  -0.003186   0.000037   0.000247  -0.014961   0.000298
    20  H   -0.018037  -0.000057   0.000026  -0.000001   0.009301  -0.000376
    21  H   -0.064127   0.000495   0.010782  -0.000188   0.422337  -0.039270
    22  H    0.011453  -0.000107  -0.052026   0.000371  -0.046299   0.420176
               7          8          9         10         11         12
     1  C   -0.000275   0.011311   0.389557   0.000766  -0.000134  -0.001391
     2  C    0.000252  -0.002686   0.003360   0.429556  -0.047225  -0.107907
     3  C    0.392595   0.377630   0.010022  -0.000141   0.000558  -0.001914
     4  C   -0.001118   0.005968  -0.001583  -0.046006   0.429475  -0.109525
     5  C    0.009876  -0.030926  -0.013370  -0.000148  -0.000020   0.002420
     6  C   -0.015305  -0.001448  -0.025131   0.000006   0.000120   0.003620
     7  H    0.599603  -0.041214  -0.000082  -0.000000   0.000128   0.000009
     8  H   -0.041214   0.628015   0.001968  -0.000038   0.000209   0.000024
     9  H   -0.000082   0.001968   0.639354  -0.000069  -0.000051   0.000006
    10  H   -0.000000  -0.000038  -0.000069   0.567090  -0.005320   0.002825
    11  H    0.000128   0.000209  -0.000051  -0.005320   0.564871   0.002950
    12  O    0.000009   0.000024   0.000006   0.002825   0.002950   8.021035
    13  C   -0.000028   0.000328  -0.001173  -0.033848   0.009194   0.306144
    14  C    0.000972  -0.002062   0.000186   0.009039  -0.033514   0.299641
    15  O    0.000000  -0.000001   0.000011   0.001417  -0.000045  -0.063313
    16  O    0.000441  -0.000003   0.000001  -0.000046   0.001819  -0.065823
    17  C   -0.000005   0.000053  -0.044328  -0.000169  -0.000001   0.000009
    18  H    0.000001   0.000005   0.003832  -0.000002  -0.000000   0.000000
    19  H   -0.000000  -0.000001   0.003944   0.000331   0.000000   0.000147
    20  H   -0.000000   0.000009  -0.010404   0.000236   0.000000  -0.000000
    21  H   -0.000190  -0.000066   0.007903  -0.000041   0.000002  -0.000587
    22  H   -0.013551   0.007684  -0.000072   0.000003  -0.000025  -0.000180
              13         14         15         16         17         18
     1  C    0.002826  -0.000169  -0.000531   0.000017   0.391437  -0.019228
     2  C    0.223062   0.033254  -0.077115   0.004410  -0.001211   0.000085
     3  C    0.000049   0.003471   0.000036  -0.000078   0.000038   0.000023
     4  C    0.032774   0.211516   0.004213  -0.077769   0.000471  -0.000012
     5  C    0.001733   0.001052  -0.004133   0.000065  -0.058831  -0.009799
     6  C    0.000377  -0.000674   0.000058  -0.003072   0.008152  -0.000061
     7  H   -0.000028   0.000972   0.000000   0.000441  -0.000005   0.000001
     8  H    0.000328  -0.002062  -0.000001  -0.000003   0.000053   0.000005
     9  H   -0.001173   0.000186   0.000011   0.000001  -0.044328   0.003832
    10  H   -0.033848   0.009039   0.001417  -0.000046  -0.000169  -0.000002
    11  H    0.009194  -0.033514  -0.000045   0.001819  -0.000001  -0.000000
    12  O    0.306144   0.299641  -0.063313  -0.065823   0.000009   0.000000
    13  C    4.514751  -0.082975   0.730054   0.000420  -0.000576   0.000016
    14  C   -0.082975   4.506656   0.000720   0.758836  -0.000042   0.000001
    15  O    0.730054   0.000720   7.573369  -0.000013  -0.005246   0.000027
    16  O    0.000420   0.758836  -0.000013   7.551430  -0.000000   0.000000
    17  C   -0.000576  -0.000042  -0.005246  -0.000000   4.570948   0.395688
    18  H    0.000016   0.000001   0.000027   0.000000   0.395688   0.598974
    19  H    0.000416   0.000009   0.017655   0.000000   0.390667  -0.015332
    20  H    0.000039   0.000000   0.000009  -0.000000   0.388462  -0.020881
    21  H    0.001719  -0.000037   0.000783   0.000004  -0.008926   0.001820
    22  H   -0.000029   0.000360  -0.000002   0.000302  -0.000201   0.000005
              19         20         21         22
     1  C   -0.017660  -0.018037  -0.064127   0.011453
     2  C   -0.003186  -0.000057   0.000495  -0.000107
     3  C    0.000037   0.000026   0.010782  -0.052026
     4  C    0.000247  -0.000001  -0.000188   0.000371
     5  C   -0.014961   0.009301   0.422337  -0.046299
     6  C    0.000298  -0.000376  -0.039270   0.420176
     7  H   -0.000000  -0.000000  -0.000190  -0.013551
     8  H   -0.000001   0.000009  -0.000066   0.007684
     9  H    0.003944  -0.010404   0.007903  -0.000072
    10  H    0.000331   0.000236  -0.000041   0.000003
    11  H    0.000000   0.000000   0.000002  -0.000025
    12  O    0.000147  -0.000000  -0.000587  -0.000180
    13  C    0.000416   0.000039   0.001719  -0.000029
    14  C    0.000009   0.000000  -0.000037   0.000360
    15  O    0.017655   0.000009   0.000783  -0.000002
    16  O    0.000000  -0.000000   0.000004   0.000302
    17  C    0.390667   0.388462  -0.008926  -0.000201
    18  H   -0.015332  -0.020881   0.001820   0.000005
    19  H    0.590619  -0.020285   0.002158  -0.000001
    20  H   -0.020285   0.629231   0.000080   0.000006
    21  H    0.002158   0.000080   0.639396  -0.010670
    22  H   -0.000001   0.000006  -0.010670   0.635005
 Mulliken charges:
               1
     1  C   -0.133925
     2  C   -0.066401
     3  C   -0.077061
     4  C   -0.080362
     5  C   -0.054524
     6  C   -0.070360
     7  H    0.067891
     8  H    0.045241
     9  H    0.036118
    10  H    0.074560
    11  H    0.077008
    12  O   -0.288190
    13  C    0.294730
    14  C    0.293761
    15  O   -0.177954
    16  O   -0.170940
    17  C   -0.026388
    18  H    0.064837
    19  H    0.064898
    20  H    0.042642
    21  H    0.036621
    22  H    0.047798
 Sum of Mulliken charges =  -0.00000
 Mulliken charges with hydrogens summed into heavy atoms:
               1
     1  C   -0.097807
     2  C    0.008159
     3  C    0.036071
     4  C   -0.003354
     5  C   -0.017902
     6  C   -0.022562
    12  O   -0.288190
    13  C    0.294730
    14  C    0.293761
    15  O   -0.177954
    16  O   -0.170940
    17  C    0.145989
 APT charges:
               1
     1  C    0.042737
     2  C   -0.100058
     3  C   -0.212122
     4  C   -0.104676
     5  C   -0.142849
     6  C    0.079571
     7  H    0.057101
     8  H    0.049265
     9  H    0.031169
    10  H    0.109773
    11  H    0.109571
    12  O   -0.924206
    13  C    1.270275
    14  C    1.267444
    15  O   -0.805066
    16  O   -0.799692
    17  C   -0.006429
    18  H   -0.009401
    19  H    0.025968
    20  H   -0.006746
    21  H    0.037007
    22  H    0.031364
 Sum of APT charges =  -0.00000
 APT charges with hydrogens summed into heavy atoms:
               1
     1  C    0.073905
     2  C    0.009715
     3  C   -0.105756
     4  C    0.004895
     5  C   -0.105842
     6  C    0.110935
    12  O   -0.924206
    13  C    1.270275
    14  C    1.267444
    15  O   -0.805066
    16  O   -0.799692
    17  C    0.003393
 Electronic spatial extent (au):  <R**2>=           1976.9148
 Charge=             -0.0000 electrons
 Dipole moment (field-independent basis, Debye):
    X=             -1.8597    Y=              1.0031    Z=              4.0813  Tot=              4.5958
 Quadrupole moment (field-independent basis, Debye-Ang):
   XX=            -75.5125   YY=            -75.0171   ZZ=            -64.6438
   XY=             -0.9644   XZ=              3.5220   YZ=             -3.3630
 Traceless Quadrupole moment (field-independent basis, Debye-Ang):
   XX=             -3.7881   YY=             -3.2926   ZZ=              7.0807
   XY=             -0.9644   XZ=              3.5220   YZ=             -3.3630
 Octapole moment (field-independent basis, Debye-Ang**2):
  XXX=            -27.3330  YYY=              0.4044  ZZZ=              3.7489  XYY=             18.2198
  XXY=            -13.4389  XXZ=             10.6409  XZZ=              1.7086  YZZ=              1.6623
  YYZ=              7.0700  XYZ=              1.7266
 Hexadecapole moment (field-independent basis, Debye-Ang**3):
 XXXX=          -1417.3687 YYYY=           -934.5669 ZZZZ=           -304.7862 XXXY=             -3.9217
 XXXZ=             19.2373 YYYX=             22.5806 YYYZ=             -3.9485 ZZZX=             -0.2631
 ZZZY=              1.4526 XXYY=           -382.6820 XXZZ=           -269.2213 YYZZ=           -199.6007
 XXYZ=              7.7434 YYXZ=            -10.3378 ZZXY=              9.8899
 N-N= 6.883149572800D+02 E-N=-2.713736093652D+03  KE= 5.684968976071D+02
  Exact polarizability:     134.691      35.957     110.195      -0.677       3.700      99.536
 Approx polarizability:     132.078      41.236     110.950      -1.491       6.131     107.665
   1 Symmetry operations used in ECPInt.
 ECPInt:  NShTT=    5253 NPrTT=   19101 LenC2=    5151 LenP2D=   14297.
 LDataN:  DoStor=T MaxTD1= 6 Len=  172
 D2PCM: PCM CHGder 2nd derivatives, FixD1E=F FixD2E=F DoIter=F DoCFld=F I1PDM=0
 Calling FoFJK, ICntrl=    100127 FMM=F ISym2X=0 I1Cent= 0 IOpClX= 0 NMat=1 NMatS=1 NMatT=0.
 Full mass-weighted force constant matrix:
 Low frequencies --- -179.4571   -7.6172   -0.0011   -0.0003    0.0003    5.9157
 Low frequencies ---   11.8981   34.9610   69.5349
 ******    1 imaginary frequencies (negative Signs) ****** 
 Diagonal vibrational polarizability:
       62.2743584      56.6923925       9.3821133
 Harmonic frequencies (cm**-1), IR intensities (KM/Mole), Raman scattering
 activities (A**4/AMU), depolarization ratios for plane and unpolarized
 incident light, reduced masses (AMU), force constants (mDyne/A),
 and normal coordinates:
                      1                      2                      3
                      A                      A                      A
 Frequencies --   -179.4524                33.4222                69.4968
 Red. masses --      1.0988                 5.1196                 3.1373
 Frc consts  --      0.0208                 0.0034                 0.0089
 IR Inten    --      0.9380                 1.2693                 0.0887
  Atom  AN      X      Y      Z        X      Y      Z        X      Y      Z
     1   6     0.04  -0.04   0.02    -0.02   0.02   0.10     0.19  -0.07   0.04
     2   6     0.00  -0.00  -0.00    -0.07  -0.03  -0.07    -0.07  -0.07  -0.01
     3   6     0.01  -0.00   0.00     0.05  -0.05  -0.22     0.06   0.07  -0.06
     4   6    -0.00   0.00  -0.00    -0.06  -0.05   0.05    -0.12   0.00   0.01
     5   6    -0.05   0.05  -0.01    -0.10  -0.06   0.01     0.03   0.08  -0.02
     6   6     0.01  -0.01   0.00    -0.06  -0.10  -0.14     0.10  -0.01  -0.03
     7   1     0.05  -0.05   0.00     0.07  -0.08  -0.32     0.15  -0.03  -0.08
     8   1    -0.04   0.06  -0.00     0.11   0.03  -0.17    -0.06   0.26  -0.07
     9   1     0.18  -0.20   0.07     0.07   0.09   0.05     0.40  -0.29   0.12
    10   1     0.01  -0.01   0.00    -0.13  -0.05  -0.13    -0.05  -0.12  -0.01
    11   1    -0.00   0.00  -0.00    -0.11  -0.10   0.10    -0.16   0.02   0.02
    12   8    -0.00   0.00  -0.00     0.09   0.06   0.00    -0.05   0.00   0.00
    13   6    -0.00   0.00  -0.00     0.02   0.05  -0.11    -0.02  -0.06  -0.01
    14   6    -0.00   0.00  -0.00     0.04   0.00   0.10    -0.11   0.05   0.02
    15   8    -0.00  -0.00   0.00     0.03   0.10  -0.20     0.03  -0.11  -0.02
    16   8    -0.00   0.00  -0.00     0.09  -0.01   0.20    -0.14   0.11   0.03
    17   6    -0.00  -0.00  -0.00    -0.04   0.03   0.26     0.11   0.01   0.04
    18   1     0.28  -0.22  -0.41    -0.09  -0.02   0.29    -0.01   0.20   0.25
    19   1     0.08  -0.15   0.49    -0.07  -0.00   0.30    -0.02   0.05  -0.22
    20   1    -0.36   0.36  -0.11     0.03   0.11   0.30     0.28  -0.15   0.09
    21   1    -0.17   0.18  -0.05    -0.18  -0.13   0.06    -0.16   0.25  -0.07
    22   1     0.04  -0.05   0.01    -0.13  -0.17  -0.19     0.20  -0.15  -0.02
                      4                      5                      6
                      A                      A                      A
 Frequencies --     89.4157                97.0453               106.0763
 Red. masses --      4.8586                 2.2310                 4.4658
 Frc consts  --      0.0229                 0.0124                 0.0296
 IR Inten    --      5.3199                 3.0939                 5.2137
  Atom  AN      X      Y      Z        X      Y      Z        X      Y      Z
     1   6    -0.06   0.00  -0.04    -0.04   0.14  -0.03     0.10  -0.09  -0.05
     2   6     0.14  -0.12   0.09     0.01  -0.11   0.01     0.03  -0.04   0.08
     3   6     0.12  -0.20  -0.03     0.01   0.06  -0.02     0.04  -0.01  -0.07
     4   6     0.12  -0.09   0.07    -0.01  -0.08   0.02     0.08  -0.10   0.08
     5   6    -0.00  -0.08  -0.03     0.10  -0.04   0.01     0.02   0.01  -0.07
     6   6     0.10  -0.20  -0.03    -0.01   0.08  -0.02    -0.06   0.10  -0.08
     7   1     0.21  -0.31  -0.03    -0.10   0.19  -0.04    -0.04   0.08  -0.08
     8   1     0.05  -0.10  -0.04     0.14  -0.09  -0.01     0.21  -0.21  -0.05
     9   1    -0.03  -0.01  -0.04    -0.26   0.41  -0.13     0.08  -0.08  -0.05
    10   1     0.23  -0.23   0.13     0.02  -0.15   0.00     0.08  -0.08   0.10
    11   1     0.19  -0.17   0.09    -0.02  -0.10   0.03     0.18  -0.21   0.11
    12   8    -0.08   0.15   0.00    -0.02  -0.01  -0.00    -0.14   0.13   0.01
    13   6     0.01   0.03   0.04     0.01  -0.07  -0.01    -0.10   0.10   0.04
    14   6    -0.03   0.09   0.01    -0.05   0.00   0.01    -0.02  -0.01   0.04
    15   8    -0.02   0.06   0.03     0.03  -0.08  -0.02    -0.16   0.16   0.02
    16   8    -0.10   0.18  -0.03    -0.09   0.08   0.01     0.00  -0.05   0.03
    17   6    -0.16   0.11  -0.07     0.06   0.02   0.06     0.21  -0.20  -0.02
    18   1    -0.13   0.20  -0.07     0.16  -0.22  -0.15     0.16  -0.28  -0.00
    19   1    -0.25   0.08  -0.09     0.19  -0.03   0.36     0.29  -0.15  -0.04
    20   1    -0.19   0.13  -0.08    -0.09   0.23   0.02     0.25  -0.25  -0.01
    21   1    -0.03  -0.08  -0.03     0.29  -0.27   0.08     0.03   0.02  -0.08
    22   1     0.18  -0.30  -0.02    -0.11   0.19  -0.04    -0.22   0.29  -0.11
                      7                      8                      9
                      A                      A                      A
 Frequencies --    118.0380               124.7999               186.3397
 Red. masses --      4.0389                 2.6625                14.4081
 Frc consts  --      0.0332                 0.0244                 0.2948
 IR Inten    --      6.4204                 1.9420                 7.4329
  Atom  AN      X      Y      Z        X      Y      Z        X      Y      Z
     1   6     0.02  -0.02   0.01     0.02  -0.03   0.01    -0.03   0.04   0.00
     2   6    -0.14   0.17  -0.06     0.03  -0.03   0.01    -0.03   0.02  -0.02
     3   6     0.10  -0.15   0.08    -0.17   0.22  -0.02    -0.02   0.03   0.00
     4   6    -0.13   0.15  -0.06     0.04  -0.05   0.01    -0.05   0.05  -0.02
     5   6     0.16  -0.16   0.05     0.09  -0.10   0.04     0.02  -0.02   0.01
     6   6     0.13  -0.14   0.06     0.10  -0.11   0.03     0.02  -0.02   0.01
     7   1     0.10  -0.14   0.11    -0.15   0.19  -0.03    -0.03   0.04  -0.00
     8   1     0.08  -0.17   0.07    -0.42   0.53  -0.05    -0.05   0.07  -0.00
     9   1    -0.14   0.17  -0.06    -0.00  -0.00   0.00    -0.08   0.10  -0.02
    10   1    -0.18   0.22  -0.08     0.04  -0.04   0.01     0.09  -0.14   0.02
    11   1    -0.16   0.19  -0.07     0.07  -0.08   0.02     0.05  -0.09   0.02
    12   8    -0.03   0.02  -0.02    -0.02   0.02  -0.01    -0.39   0.51  -0.16
    13   6    -0.07   0.08  -0.03    -0.02   0.02  -0.01    -0.04   0.06  -0.03
    14   6    -0.06   0.06  -0.03     0.01  -0.02  -0.00    -0.07   0.08  -0.03
    15   8    -0.05   0.05  -0.02    -0.07   0.08  -0.03     0.32  -0.37   0.10
    16   8    -0.03   0.03  -0.02     0.02  -0.03  -0.01     0.24  -0.35   0.10
    17   6     0.09  -0.09   0.04    -0.00   0.00   0.00    -0.03   0.04   0.01
    18   1     0.15  -0.24  -0.09     0.04  -0.00  -0.04    -0.01   0.02  -0.02
    19   1     0.18  -0.12   0.22    -0.02  -0.02   0.06    -0.04   0.02   0.05
    20   1    -0.01   0.03   0.02    -0.05   0.05  -0.01    -0.06   0.08   0.00
    21   1     0.31  -0.32   0.10     0.15  -0.17   0.06     0.06  -0.07   0.03
    22   1     0.16  -0.14   0.07     0.33  -0.39   0.07     0.04  -0.05   0.01
                     10                     11                     12
                      A                      A                      A
 Frequencies --    220.7828               264.9338               288.7375
 Red. masses --      2.8036                 2.1818                 4.0310
 Frc consts  --      0.0805                 0.0902                 0.1980
 IR Inten    --      0.0381                10.1895                 0.1725
  Atom  AN      X      Y      Z        X      Y      Z        X      Y      Z
     1   6    -0.08  -0.03   0.14    -0.14   0.14  -0.03     0.01  -0.00   0.00
     2   6    -0.01   0.01  -0.00     0.02  -0.03   0.01     0.19  -0.24   0.08
     3   6     0.18   0.12  -0.13     0.02  -0.01   0.01     0.01  -0.01   0.00
     4   6    -0.01   0.00  -0.00    -0.00   0.00  -0.00    -0.18   0.24  -0.08
     5   6    -0.01  -0.01   0.20    -0.12   0.14  -0.02     0.02  -0.02   0.01
     6   6    -0.02   0.00   0.03     0.06  -0.06   0.01    -0.01   0.02   0.00
     7   1     0.17   0.10  -0.36     0.25  -0.27   0.04    -0.03   0.04  -0.00
     8   1     0.36   0.23  -0.04    -0.23   0.28  -0.03     0.05  -0.05   0.01
     9   1    -0.24  -0.07   0.18    -0.19   0.16  -0.03    -0.01   0.01  -0.00
    10   1    -0.02   0.01  -0.01     0.03  -0.04   0.02     0.36  -0.45   0.15
    11   1    -0.01   0.00  -0.00    -0.01   0.02  -0.01    -0.34   0.47  -0.15
    12   8    -0.00  -0.00  -0.00     0.00  -0.00   0.00    -0.00  -0.01   0.00
    13   6    -0.00  -0.00  -0.00     0.01  -0.01   0.01     0.07  -0.10   0.03
    14   6    -0.01   0.00   0.00    -0.00  -0.00  -0.00    -0.07   0.09  -0.03
    15   8     0.00  -0.01  -0.00     0.00   0.00  -0.00    -0.08   0.10  -0.04
    16   8    -0.01   0.00   0.00     0.00  -0.01  -0.00     0.06  -0.10   0.03
    17   6    -0.04  -0.07  -0.16     0.10  -0.10   0.01    -0.00   0.01  -0.01
    18   1     0.08  -0.01  -0.26    -0.02  -0.33   0.05     0.01   0.03  -0.02
    19   1     0.07  -0.00  -0.22     0.34   0.01   0.01    -0.02   0.01  -0.00
    20   1    -0.21  -0.23  -0.27     0.19  -0.23   0.04    -0.02   0.02  -0.01
    21   1     0.01  -0.07   0.22    -0.08   0.10  -0.00     0.04  -0.04   0.01
    22   1    -0.17  -0.08  -0.06     0.32  -0.35   0.06    -0.06   0.07  -0.01
                     13                     14                     15
                      A                      A                      A
 Frequencies --    387.4419               417.5786               582.2581
 Red. masses --      2.9005                12.7222                 4.5114
 Frc consts  --      0.2565                 1.3070                 0.9011
 IR Inten    --      1.3580                13.3173                 1.5421
  Atom  AN      X      Y      Z        X      Y      Z        X      Y      Z
     1   6     0.08   0.12   0.19    -0.00   0.01   0.01    -0.00  -0.00   0.00
     2   6    -0.00  -0.00   0.00     0.07  -0.03  -0.22     0.09   0.13   0.16
     3   6    -0.16  -0.13  -0.03    -0.01  -0.00   0.00    -0.00  -0.00  -0.00
     4   6     0.00  -0.00   0.00     0.03  -0.05  -0.23     0.16   0.07  -0.15
     5   6    -0.02  -0.01   0.09     0.00  -0.00   0.01     0.00   0.01   0.01
     6   6    -0.04  -0.05  -0.11     0.00  -0.01  -0.00     0.01   0.01  -0.01
     7   1    -0.18  -0.09   0.18    -0.00  -0.01   0.01     0.01  -0.02   0.03
     8   1    -0.29  -0.27  -0.11    -0.01  -0.01  -0.00    -0.02  -0.01  -0.01
     9   1     0.02   0.11   0.20    -0.01   0.00   0.01    -0.02   0.00   0.00
    10   1     0.00  -0.00   0.00     0.05  -0.10  -0.28     0.25   0.36   0.40
    11   1     0.00  -0.01   0.00     0.11  -0.05  -0.27     0.43   0.21  -0.37
    12   8    -0.00  -0.00   0.00     0.05  -0.04  -0.34    -0.11  -0.08  -0.01
    13   6     0.00  -0.00   0.00     0.01  -0.02  -0.13    -0.12  -0.06   0.11
    14   6    -0.00  -0.00   0.00     0.03  -0.01  -0.13    -0.07  -0.10  -0.12
    15   8     0.00  -0.00  -0.00    -0.28  -0.08   0.44     0.06  -0.03  -0.21
    16   8    -0.00  -0.00  -0.01     0.12   0.22   0.46    -0.03   0.05   0.21
    17   6     0.16   0.10  -0.11     0.01  -0.00  -0.01    -0.01  -0.00   0.00
    18   1     0.30   0.21  -0.23     0.01  -0.01  -0.01    -0.00  -0.00   0.00
    19   1     0.28   0.20  -0.22     0.03   0.01  -0.01    -0.02  -0.01   0.00
    20   1    -0.05  -0.12  -0.25     0.01  -0.02  -0.01    -0.01   0.00   0.00
    21   1    -0.18  -0.15   0.18    -0.01  -0.01   0.01     0.01  -0.00   0.01
    22   1    -0.04  -0.06  -0.11     0.01  -0.01  -0.00     0.01  -0.00  -0.01
                     16                     17                     18
                      A                      A                      A
 Frequencies --    602.3727               643.7088               651.1097
 Red. masses --      2.4872                 1.4577                 7.3095
 Frc consts  --      0.5317                 0.3559                 1.8258
 IR Inten    --      3.7565                 4.8245                 0.1961
  Atom  AN      X      Y      Z        X      Y      Z        X      Y      Z
     1   6     0.03   0.06  -0.03    -0.06   0.05  -0.01    -0.01   0.01  -0.00
     2   6    -0.00   0.01   0.00     0.00   0.00   0.00    -0.01  -0.02  -0.03
     3   6     0.02   0.03   0.03    -0.01   0.02  -0.01    -0.00   0.00  -0.00
     4   6     0.00  -0.00  -0.00    -0.00   0.00   0.00     0.03   0.01  -0.02
     5   6    -0.08  -0.10  -0.12    -0.00   0.02   0.01    -0.00   0.01   0.00
     6   6    -0.14  -0.14   0.18     0.14  -0.11  -0.00     0.02  -0.03   0.00
     7   1    -0.08   0.08  -0.49    -0.46   0.55   0.01    -0.11   0.13  -0.01
     8   1     0.43   0.29   0.24     0.19  -0.33   0.00     0.04  -0.06   0.00
     9   1     0.23   0.09  -0.09     0.13  -0.18   0.08     0.02  -0.03   0.01
    10   1     0.01   0.01   0.01     0.01  -0.03   0.00    -0.08   0.47   0.11
    11   1     0.02  -0.00  -0.01     0.02  -0.01  -0.00    -0.44   0.19   0.08
    12   8    -0.00  -0.00  -0.00     0.00  -0.01  -0.00    -0.10   0.10   0.17
    13   6    -0.00   0.00   0.00     0.00   0.02  -0.00    -0.16  -0.27   0.02
    14   6    -0.00  -0.00  -0.01    -0.02   0.00  -0.00     0.30   0.09   0.06
    15   8     0.00  -0.00  -0.01     0.01   0.01   0.00    -0.24  -0.20  -0.12
    16   8    -0.00   0.00   0.01    -0.01  -0.01   0.00     0.25   0.19  -0.08
    17   6     0.12   0.10  -0.03    -0.02  -0.02   0.00     0.00  -0.00  -0.00
    18   1     0.14   0.08  -0.06    -0.09  -0.15   0.03    -0.01  -0.03   0.00
    19   1     0.20   0.15  -0.07     0.11   0.04   0.01     0.02   0.00   0.00
    20   1     0.09   0.01  -0.06     0.06  -0.09   0.03     0.01  -0.02   0.00
    21   1    -0.11   0.00  -0.15    -0.24   0.25  -0.05    -0.05   0.05  -0.01
    22   1    -0.16  -0.02   0.20    -0.14   0.19  -0.06    -0.04   0.04  -0.01
                     19                     20                     21
                      A                      A                      A
 Frequencies --    661.8577               716.3116               773.7815
 Red. masses --      2.4427                 8.6937                 7.9418
 Frc consts  --      0.6304                 2.6282                 2.8016
 IR Inten    --     10.4957                33.2951                 0.1718
  Atom  AN      X      Y      Z        X      Y      Z        X      Y      Z
     1   6    -0.00  -0.00   0.00    -0.00   0.00  -0.00     0.01  -0.01   0.00
     2   6    -0.01   0.01  -0.01     0.30   0.19  -0.22    -0.14   0.14  -0.03
     3   6    -0.00   0.00   0.00     0.00  -0.00   0.00    -0.00   0.00   0.00
     4   6    -0.00   0.02  -0.01     0.24   0.23   0.25     0.10  -0.17   0.03
     5   6     0.00  -0.00   0.00    -0.00   0.00  -0.00    -0.01   0.01  -0.00
     6   6    -0.01   0.01  -0.00    -0.00  -0.00   0.00     0.01  -0.01  -0.00
     7   1     0.02  -0.03   0.00     0.00  -0.01  -0.00    -0.01   0.01   0.01
     8   1    -0.01   0.02  -0.00     0.00   0.00   0.00     0.00  -0.01   0.00
     9   1    -0.02   0.01  -0.00    -0.00   0.00  -0.00    -0.02   0.02  -0.01
    10   1     0.43  -0.46   0.20     0.25   0.18  -0.27    -0.28   0.34  -0.08
    11   1     0.35  -0.54   0.19     0.21   0.19   0.30     0.24  -0.34   0.07
    12   8     0.07  -0.10   0.07    -0.05  -0.04  -0.01    -0.00  -0.00  -0.00
    13   6    -0.17   0.11  -0.04     0.06  -0.10  -0.30     0.31  -0.37   0.15
    14   6    -0.07   0.19  -0.04    -0.11   0.06   0.30    -0.28   0.39  -0.14
    15   8    -0.01  -0.08  -0.01    -0.16  -0.14  -0.06    -0.07   0.11  -0.03
    16   8     0.08  -0.01  -0.00    -0.18  -0.13   0.04     0.08  -0.09   0.03
    17   6    -0.00  -0.00   0.00    -0.00   0.00  -0.00    -0.00  -0.00   0.00
    18   1     0.00   0.00  -0.00    -0.00  -0.00  -0.00     0.00   0.02   0.00
    19   1    -0.00  -0.00   0.00     0.01   0.01   0.00    -0.01  -0.00  -0.00
    20   1    -0.00   0.00  -0.00     0.00  -0.00   0.00    -0.01   0.00  -0.00
    21   1     0.01  -0.01   0.00    -0.00   0.00  -0.00     0.02  -0.02   0.01
    22   1     0.01  -0.01   0.00     0.00  -0.00   0.00     0.01  -0.01  -0.00
                     22                     23                     24
                      A                      A                      A
 Frequencies --    837.5657               858.3930               908.1132
 Red. masses --      1.5987                 2.0180                 9.1014
 Frc consts  --      0.6608                 0.8761                 4.4222
 IR Inten    --      6.4569               108.9584                 7.0299
  Atom  AN      X      Y      Z        X      Y      Z        X      Y      Z
     1   6     0.07  -0.08   0.03     0.01  -0.01   0.00    -0.00  -0.00   0.00
     2   6    -0.00   0.00  -0.00     0.07  -0.09   0.04     0.10  -0.07  -0.42
     3   6     0.01  -0.00   0.01     0.00   0.00   0.00     0.00   0.00   0.00
     4   6    -0.01   0.01  -0.00     0.07  -0.10   0.04     0.08  -0.09  -0.42
     5   6    -0.12   0.13  -0.04    -0.01   0.01  -0.00    -0.00  -0.00  -0.01
     6   6     0.05  -0.06   0.01     0.01  -0.00   0.00     0.00   0.00  -0.00
     7   1    -0.22   0.26  -0.06    -0.00   0.00   0.00     0.00   0.00   0.01
     8   1     0.10  -0.07   0.02     0.00  -0.01   0.00     0.01  -0.01   0.00
     9   1    -0.43   0.45  -0.15    -0.03   0.04  -0.01     0.00   0.01  -0.00
    10   1     0.03  -0.05   0.01    -0.40   0.52  -0.14     0.12   0.08  -0.39
    11   1     0.02  -0.02   0.01    -0.39   0.52  -0.15    -0.06  -0.06  -0.42
    12   8    -0.00   0.00  -0.00     0.04  -0.04   0.00    -0.07   0.08   0.46
    13   6     0.00  -0.00  -0.00    -0.10   0.12  -0.04     0.02   0.06   0.07
    14   6     0.01  -0.01   0.01    -0.09   0.13  -0.04    -0.08  -0.02   0.06
    15   8    -0.00   0.00   0.00     0.02  -0.03   0.01     0.06   0.07   0.07
    16   8    -0.00   0.00  -0.00     0.02  -0.03   0.01    -0.10  -0.05   0.06
    17   6     0.03  -0.05   0.01     0.01  -0.00   0.00    -0.00  -0.00   0.00
    18   1     0.18   0.34   0.00     0.03   0.04  -0.00     0.01   0.01  -0.01
    19   1    -0.32  -0.17  -0.06    -0.03  -0.02  -0.01     0.01   0.01  -0.01
    20   1    -0.15   0.12  -0.04    -0.02   0.01  -0.01    -0.02  -0.02  -0.01
    21   1     0.18  -0.21   0.06     0.00  -0.02   0.00    -0.00  -0.01  -0.00
    22   1     0.05  -0.02   0.02     0.01   0.00   0.00     0.01   0.01   0.00
                     25                     26                     27
                      A                      A                      A
 Frequencies --    934.4159               950.4414               965.6391
 Red. masses --      1.7977                 1.3726                 6.1883
 Frc consts  --      0.9248                 0.7306                 3.3998
 IR Inten    --      2.8932                51.7789               137.4862
  Atom  AN      X      Y      Z        X      Y      Z        X      Y      Z
     1   6    -0.01  -0.04  -0.07    -0.00   0.01   0.01    -0.00   0.01   0.01
     2   6     0.00  -0.00  -0.00     0.00  -0.00  -0.01    -0.04   0.00   0.13
     3   6    -0.04  -0.07  -0.04     0.11  -0.12   0.02     0.02  -0.02   0.01
     4   6     0.00  -0.00  -0.00     0.00  -0.00   0.00     0.00  -0.02  -0.12
     5   6     0.07   0.10   0.13     0.00  -0.01  -0.01     0.01  -0.01  -0.00
     6   6    -0.07  -0.06   0.03    -0.03   0.05  -0.01    -0.01   0.01  -0.00
     7   1    -0.13   0.00  -0.24    -0.39   0.46  -0.05    -0.08   0.09  -0.03
     8   1    -0.04   0.07  -0.02    -0.49   0.58  -0.07    -0.08   0.11  -0.00
     9   1    -0.26  -0.19   0.04     0.05  -0.01   0.01    -0.01   0.04  -0.01
    10   1    -0.00   0.01  -0.00    -0.01  -0.01  -0.02     0.13   0.31   0.42
    11   1    -0.00   0.01  -0.01    -0.01  -0.00   0.01     0.39   0.08  -0.38
    12   8     0.00   0.00   0.00    -0.02  -0.01  -0.00     0.39   0.30   0.02
    13   6    -0.00   0.00  -0.00     0.00   0.01   0.00    -0.08  -0.09  -0.05
    14   6    -0.00   0.00  -0.00     0.00   0.00  -0.00    -0.10  -0.06   0.03
    15   8     0.00   0.00   0.00     0.01   0.00  -0.00    -0.13  -0.10   0.01
    16   8    -0.00  -0.00   0.00     0.00   0.00   0.00    -0.12  -0.10  -0.03
    17   6     0.08   0.05  -0.08    -0.01  -0.00   0.01     0.00  -0.01   0.01
    18   1    -0.20  -0.08   0.19     0.01  -0.01  -0.02     0.03   0.01  -0.01
    19   1    -0.16  -0.16   0.20     0.04   0.03  -0.02    -0.03  -0.01  -0.02
    20   1     0.44   0.50   0.18    -0.04  -0.06  -0.01    -0.04  -0.03  -0.02
    21   1     0.12   0.17   0.10     0.03  -0.04  -0.00    -0.06   0.06  -0.03
    22   1    -0.15  -0.15  -0.03    -0.01   0.04  -0.00     0.02   0.00   0.01
                     28                     29                     30
                      A                      A                      A
 Frequencies --    993.5025              1011.6833              1017.2034
 Red. masses --      1.3001                 1.1249                 1.8076
 Frc consts  --      0.7561                 0.6783                 1.1020
 IR Inten    --      1.0214                58.2713                 4.6722
  Atom  AN      X      Y      Z        X      Y      Z        X      Y      Z
     1   6    -0.00  -0.00   0.00    -0.00  -0.01  -0.00    -0.08  -0.07  -0.03
     2   6    -0.07   0.09  -0.02     0.00  -0.00  -0.00     0.00   0.00   0.00
     3   6     0.00  -0.00  -0.00     0.01   0.01  -0.00     0.11   0.09  -0.01
     4   6     0.07  -0.09   0.02     0.00   0.00   0.00    -0.00   0.00  -0.00
     5   6    -0.00  -0.00  -0.00     0.06  -0.07   0.02    -0.12  -0.09  -0.01
     6   6    -0.00   0.00   0.00    -0.01   0.00   0.00    -0.00  -0.00   0.04
     7   1     0.00   0.00   0.01     0.05  -0.04   0.06     0.12   0.17   0.64
     8   1    -0.01  -0.00  -0.00    -0.10   0.06  -0.03    -0.32  -0.25  -0.24
     9   1    -0.01   0.00  -0.00    -0.34   0.37  -0.13    -0.05  -0.15  -0.01
    10   1     0.41  -0.53   0.17    -0.01  -0.01  -0.02     0.01   0.02   0.02
    11   1    -0.37   0.56  -0.19     0.00  -0.01   0.01     0.00  -0.02   0.01
    12   8     0.00   0.00   0.00    -0.01  -0.00   0.00     0.00   0.00  -0.00
    13   6     0.00  -0.00  -0.01     0.00  -0.00   0.00     0.00  -0.00  -0.00
    14   6    -0.00   0.01   0.00     0.00   0.00  -0.00     0.00  -0.00   0.00
    15   8    -0.01  -0.00  -0.00     0.00   0.00  -0.00    -0.00  -0.00   0.00
    16   8     0.00  -0.00  -0.00     0.00   0.00   0.00    -0.00  -0.00  -0.00
    17   6    -0.00   0.00  -0.00     0.03  -0.02   0.01     0.10   0.08  -0.02
    18   1    -0.00  -0.01  -0.00     0.08   0.13   0.01     0.06   0.12   0.05
    19   1     0.01   0.01   0.00    -0.09  -0.05  -0.04     0.03   0.03   0.04
    20   1     0.01  -0.00   0.00    -0.06   0.04  -0.02     0.19   0.23   0.05
    21   1    -0.00   0.00  -0.00    -0.53   0.58  -0.19    -0.06  -0.17   0.02
    22   1     0.00  -0.00   0.00    -0.06   0.01  -0.02    -0.22  -0.14  -0.10
                     31                     32                     33
                      A                      A                      A
 Frequencies --   1044.2105              1055.0748              1064.2004
 Red. masses --      1.1512                 1.5183                 1.1184
 Frc consts  --      0.7396                 0.9958                 0.7463
 IR Inten    --     14.1791                 1.9972                19.1684
  Atom  AN      X      Y      Z        X      Y      Z        X      Y      Z
     1   6     0.01  -0.00   0.01    -0.10   0.11  -0.04    -0.00   0.00  -0.00
     2   6    -0.00   0.00   0.00     0.00   0.01  -0.01    -0.03  -0.02   0.03
     3   6    -0.02   0.01   0.00    -0.01  -0.01  -0.00     0.00   0.00   0.00
     4   6     0.00  -0.00   0.00     0.00   0.00   0.01     0.02   0.03   0.04
     5   6    -0.02   0.02  -0.01     0.03  -0.02   0.01    -0.00  -0.00  -0.00
     6   6     0.08  -0.08   0.01     0.00   0.00  -0.00    -0.00   0.00   0.00
     7   1     0.22  -0.26  -0.00     0.02  -0.05  -0.05     0.00   0.00   0.01
     8   1    -0.23   0.32  -0.02    -0.01   0.06   0.01     0.00  -0.01  -0.00
     9   1    -0.04   0.03  -0.00     0.29  -0.32   0.11     0.01  -0.01   0.00
    10   1    -0.00  -0.00  -0.00     0.01  -0.02  -0.01    -0.39  -0.41  -0.43
    11   1     0.01   0.00  -0.00    -0.03  -0.00   0.03     0.54   0.28  -0.36
    12   8     0.00   0.00   0.00     0.00   0.00   0.00    -0.01   0.01   0.04
    13   6    -0.00  -0.00   0.00    -0.00  -0.00   0.01     0.00  -0.00  -0.02
    14   6    -0.00  -0.00  -0.00    -0.00  -0.00  -0.01     0.00  -0.00  -0.02
    15   8    -0.00  -0.00  -0.00     0.00   0.00  -0.00    -0.02  -0.02  -0.01
    16   8    -0.00  -0.00  -0.00     0.00   0.00   0.00     0.02   0.01  -0.01
    17   6    -0.01   0.00  -0.01     0.09  -0.10   0.04     0.00  -0.00  -0.00
    18   1    -0.03  -0.03   0.01     0.28   0.52   0.08     0.00   0.00   0.00
    19   1     0.01  -0.00   0.02    -0.44  -0.26  -0.15    -0.01  -0.00  -0.00
    20   1     0.02   0.01   0.01    -0.24   0.20  -0.07     0.00   0.01   0.00
    21   1     0.04  -0.09   0.03     0.04  -0.01   0.01     0.01  -0.01   0.00
    22   1    -0.53   0.64  -0.09    -0.04   0.07  -0.00    -0.00  -0.01  -0.00
                     34                     35                     36
                      A                      A                      A
 Frequencies --   1079.3350              1092.6917              1140.5488
 Red. masses --      1.5177                 3.1477                 2.0484
 Frc consts  --      1.0417                 2.2143                 1.5700
 IR Inten    --      3.9129               107.7784                 2.7224
  Atom  AN      X      Y      Z        X      Y      Z        X      Y      Z
     1   6    -0.02  -0.04  -0.08    -0.01   0.01  -0.00     0.13   0.15   0.06
     2   6    -0.00  -0.00   0.00    -0.09  -0.04   0.12    -0.00  -0.00   0.00
     3   6    -0.01  -0.01  -0.06    -0.00  -0.00   0.01     0.04   0.03  -0.04
     4   6    -0.00  -0.00  -0.01    -0.05  -0.07  -0.14     0.00  -0.00  -0.00
     5   6     0.06   0.09   0.05     0.00  -0.01  -0.00     0.02   0.02  -0.03
     6   6    -0.05  -0.06   0.06     0.01   0.01  -0.01    -0.08  -0.06   0.08
     7   1     0.01  -0.01   0.09     0.01  -0.02  -0.02     0.05   0.06   0.31
     8   1    -0.18  -0.15  -0.16     0.01   0.03   0.02    -0.20  -0.16  -0.17
     9   1     0.12   0.04  -0.14     0.01  -0.03   0.02     0.39   0.32  -0.05
    10   1     0.00   0.01   0.02     0.16   0.32   0.50     0.01   0.00   0.01
    11   1     0.02   0.01  -0.02     0.42   0.11  -0.48     0.00   0.00  -0.01
    12   8    -0.00  -0.00  -0.00    -0.10  -0.08  -0.01    -0.00  -0.00  -0.00
    13   6     0.00   0.00  -0.01     0.14   0.05  -0.19    -0.00   0.00  -0.00
    14   6     0.00   0.00   0.01     0.06   0.11   0.22     0.00   0.00   0.00
    15   8    -0.00  -0.00   0.00     0.00   0.01   0.03     0.00   0.00   0.00
    16   8    -0.00  -0.00  -0.00     0.01  -0.00  -0.03    -0.00  -0.00  -0.00
    17   6    -0.02   0.02   0.10     0.01  -0.01  -0.00    -0.08  -0.11  -0.09
    18   1     0.25   0.10  -0.16     0.01   0.05   0.02    -0.30  -0.18   0.12
    19   1     0.20   0.22  -0.18    -0.04  -0.03   0.00    -0.27  -0.28   0.12
    20   1    -0.25  -0.30  -0.08    -0.00   0.04   0.00     0.03   0.07   0.01
    21   1     0.45   0.31  -0.12    -0.04  -0.01   0.01     0.09   0.04  -0.04
    22   1    -0.31  -0.20  -0.09     0.02   0.03   0.01    -0.28  -0.24  -0.05
                     37                     38                     39
                      A                      A                      A
 Frequencies --   1304.3856              1316.0573              1320.3990
 Red. masses --      1.3238                 6.8638                 1.3138
 Frc consts  --      1.3270                 7.0043                 1.3496
 IR Inten    --      4.1863               176.6336                 8.1794
  Atom  AN      X      Y      Z        X      Y      Z        X      Y      Z
     1   6    -0.04  -0.05  -0.05     0.02   0.01  -0.02    -0.06  -0.04   0.07
     2   6    -0.00   0.00   0.00     0.01  -0.03  -0.11     0.00  -0.00  -0.01
     3   6    -0.02  -0.01   0.06    -0.00   0.01   0.05    -0.01  -0.01  -0.06
     4   6    -0.00   0.00   0.00     0.05  -0.01  -0.13     0.00  -0.00  -0.01
     5   6    -0.03   0.00   0.09     0.02   0.01  -0.01    -0.06  -0.04   0.03
     6   6     0.04   0.03  -0.07     0.00  -0.00  -0.03     0.02   0.01   0.01
     7   1    -0.02  -0.00   0.03     0.01   0.01   0.05    -0.01  -0.02  -0.06
     8   1     0.19   0.18   0.19     0.11   0.09   0.11    -0.09  -0.09  -0.11
     9   1     0.56   0.41  -0.37    -0.10  -0.09   0.04     0.32   0.26  -0.13
    10   1     0.00  -0.00   0.01    -0.13  -0.19  -0.32    -0.02  -0.02  -0.03
    11   1    -0.01  -0.00   0.01     0.16   0.06  -0.24     0.01   0.00  -0.02
    12   8    -0.00   0.00   0.01     0.05  -0.04  -0.26     0.00  -0.00  -0.02
    13   6     0.01   0.00  -0.01    -0.21  -0.04   0.38    -0.02  -0.00   0.03
    14   6    -0.00  -0.00  -0.01     0.06   0.16   0.40     0.01   0.01   0.04
    15   8    -0.00  -0.00   0.00     0.05   0.02  -0.05     0.00   0.00  -0.00
    16   8     0.00   0.00   0.00    -0.04  -0.04  -0.05    -0.00  -0.00  -0.00
    17   6    -0.00  -0.01  -0.02     0.00   0.00   0.02     0.01  -0.01  -0.05
    18   1     0.02   0.08  -0.00     0.01  -0.06  -0.03    -0.04   0.11   0.06
    19   1     0.08   0.02   0.01    -0.04   0.01  -0.05     0.09  -0.02   0.10
    20   1     0.08   0.09   0.03    -0.05  -0.04  -0.01     0.13   0.15   0.04
    21   1    -0.12  -0.07   0.14    -0.15  -0.10   0.07     0.41   0.32  -0.22
    22   1    -0.22  -0.23  -0.26    -0.24  -0.23  -0.20     0.38   0.37   0.27
                     40                     41                     42
                      A                      A                      A
 Frequencies --   1337.6398              1356.8337              1397.9926
 Red. masses --      1.9907                 1.3151                 1.2674
 Frc consts  --      2.0986                 1.4264                 1.4594
 IR Inten    --      1.4306                 1.7144                 6.6740
  Atom  AN      X      Y      Z        X      Y      Z        X      Y      Z
     1   6     0.00   0.00  -0.00    -0.02   0.01   0.09     0.02   0.02   0.01
     2   6     0.02   0.07   0.19    -0.00   0.00   0.00    -0.00  -0.00  -0.00
     3   6     0.00  -0.00  -0.00    -0.01  -0.00   0.07     0.00   0.00   0.01
     4   6     0.09   0.01  -0.17    -0.00   0.00   0.00     0.00   0.00   0.00
     5   6     0.00   0.00  -0.00    -0.03  -0.04  -0.06     0.02   0.01  -0.03
     6   6    -0.00  -0.00   0.00     0.03   0.01  -0.07    -0.01  -0.01   0.01
     7   1     0.00  -0.00   0.00    -0.01   0.01   0.10     0.01   0.00  -0.01
     8   1    -0.00   0.00  -0.00     0.21   0.20   0.20    -0.01  -0.02  -0.00
     9   1    -0.01  -0.01   0.01    -0.18  -0.11   0.19    -0.12  -0.09   0.09
    10   1    -0.40  -0.41  -0.35     0.00   0.01   0.01    -0.00   0.00   0.00
    11   1    -0.52  -0.31   0.30    -0.01  -0.00   0.01     0.00   0.00  -0.00
    12   8    -0.00  -0.00   0.01    -0.00   0.00   0.01     0.00   0.00  -0.00
    13   6     0.04   0.01  -0.06     0.01   0.00  -0.01    -0.00   0.00   0.00
    14   6     0.01   0.02   0.05    -0.00  -0.00  -0.01     0.00  -0.00  -0.00
    15   8    -0.03  -0.02  -0.01    -0.00  -0.00   0.00    -0.00  -0.00  -0.00
    16   8    -0.03  -0.02   0.01     0.00   0.00   0.00    -0.00  -0.00   0.00
    17   6    -0.00  -0.00   0.00     0.02   0.01  -0.02    -0.10  -0.10  -0.02
    18   1    -0.00   0.00   0.00    -0.07   0.00   0.07     0.16   0.58  -0.01
    19   1     0.01   0.00  -0.01    -0.02  -0.04   0.08     0.59   0.16   0.14
    20   1    -0.01   0.01   0.00     0.01   0.02  -0.02     0.25   0.27   0.21
    21   1    -0.00  -0.01   0.00     0.50   0.35  -0.35    -0.05  -0.05   0.01
    22   1    -0.00  -0.00   0.00    -0.27  -0.28  -0.29    -0.05  -0.05  -0.02
                     43                     44                     45
                      A                      A                      A
 Frequencies --   1441.8008              1464.8062              1470.1262
 Red. masses --      1.2183                 1.0488                 1.0615
 Frc consts  --      1.4921                 1.3259                 1.3517
 IR Inten    --      5.4316                10.5298                11.6084
  Atom  AN      X      Y      Z        X      Y      Z        X      Y      Z
     1   6     0.01   0.00  -0.01    -0.01   0.02   0.01    -0.01  -0.00  -0.03
     2   6    -0.00  -0.00  -0.00     0.00   0.00   0.00     0.00   0.00   0.00
     3   6    -0.00  -0.01  -0.05     0.00   0.00   0.01    -0.00  -0.00  -0.01
     4   6     0.00   0.00   0.00     0.00  -0.00  -0.00     0.00   0.00  -0.00
     5   6     0.03   0.03   0.02    -0.01  -0.01  -0.00     0.01   0.01   0.01
     6   6    -0.07  -0.07  -0.05     0.01   0.01   0.00    -0.01  -0.01  -0.00
     7   1     0.00   0.09   0.69     0.00  -0.01  -0.08    -0.00   0.01   0.10
     8   1     0.40   0.37   0.19    -0.04  -0.04  -0.02     0.05   0.05   0.02
     9   1    -0.03  -0.02   0.00     0.02   0.01   0.02    -0.01  -0.02  -0.02
    10   1     0.00   0.00   0.00    -0.00  -0.00  -0.00    -0.00  -0.00  -0.01
    11   1     0.00   0.00   0.00    -0.00  -0.00   0.00    -0.00  -0.00  -0.00
    12   8     0.00   0.00   0.00    -0.00  -0.00   0.00     0.00  -0.00  -0.00
    13   6     0.00   0.00  -0.00     0.00  -0.00  -0.00    -0.00  -0.00   0.00
    14   6    -0.00  -0.00  -0.00    -0.00   0.00   0.00     0.00   0.00   0.00
    15   8    -0.00  -0.00   0.00     0.00   0.00   0.00     0.00   0.00  -0.00
    16   8    -0.00   0.00   0.00     0.00   0.00  -0.00    -0.00  -0.00  -0.00
    17   6    -0.01  -0.01   0.02    -0.05   0.02   0.01     0.01   0.04  -0.04
    18   1     0.08  -0.05  -0.11     0.40  -0.03  -0.50    -0.04   0.34   0.17
    19   1    -0.03   0.03  -0.11    -0.33  -0.13   0.02    -0.00  -0.23   0.65
    20   1     0.07   0.05   0.06     0.57  -0.24   0.25    -0.00  -0.58  -0.14
    21   1     0.01   0.02   0.03     0.03   0.03  -0.03    -0.04  -0.02   0.04
    22   1     0.21   0.21   0.15    -0.02  -0.02  -0.02     0.02   0.03   0.03
                     46                     47                     48
                      A                      A                      A
 Frequencies --   1694.4186              1712.1470              1739.2001
 Red. masses --      6.5868                 5.1425                 5.3239
 Frc consts  --     11.1421                 8.8820                 9.4882
 IR Inten    --     12.4581                16.9095                20.3058
  Atom  AN      X      Y      Z        X      Y      Z        X      Y      Z
     1   6    -0.05  -0.03   0.04     0.09   0.06  -0.07     0.27   0.17  -0.26
     2   6    -0.36  -0.30  -0.07    -0.10  -0.08  -0.02    -0.02  -0.02  -0.00
     3   6     0.05   0.05   0.08    -0.15  -0.16  -0.27     0.05   0.06   0.12
     4   6     0.39   0.28  -0.02     0.10   0.08  -0.01     0.02   0.02  -0.00
     5   6     0.06   0.04  -0.03    -0.13  -0.10   0.04    -0.26  -0.16   0.28
     6   6    -0.07  -0.07  -0.08     0.22   0.23   0.27    -0.03  -0.05  -0.15
     7   1     0.06   0.03  -0.11    -0.19  -0.11   0.34     0.07   0.05  -0.17
     8   1    -0.12  -0.11   0.00     0.38   0.32  -0.02    -0.12  -0.11   0.05
     9   1     0.08   0.05  -0.01    -0.16  -0.11   0.04    -0.30  -0.27  -0.02
    10   1    -0.11   0.07   0.44    -0.03   0.01   0.12    -0.01  -0.00   0.02
    11   1    -0.08   0.09   0.45    -0.01   0.02   0.12    -0.00   0.01   0.02
    12   8     0.00  -0.00  -0.01     0.00  -0.00  -0.00     0.00  -0.00  -0.00
    13   6     0.00  -0.01  -0.02    -0.01  -0.01  -0.01    -0.01  -0.00  -0.00
    14   6     0.01  -0.00  -0.02     0.00   0.00  -0.00     0.01   0.00  -0.00
    15   8     0.02   0.03   0.03     0.01   0.01   0.01     0.00   0.00   0.00
    16   8    -0.04  -0.02   0.03    -0.01  -0.01   0.01    -0.00  -0.00   0.00
    17   6     0.01   0.01  -0.00    -0.01  -0.01   0.01    -0.04  -0.04   0.02
    18   1    -0.00  -0.01   0.00     0.01   0.01  -0.01     0.00   0.04   0.00
    19   1    -0.02  -0.01   0.00     0.02   0.01  -0.01     0.06   0.02   0.01
    20   1     0.02   0.01  -0.00    -0.02  -0.02   0.00    -0.12  -0.11  -0.02
    21   1    -0.02  -0.02   0.01    -0.02  -0.01  -0.02     0.36   0.34  -0.01
    22   1     0.08   0.08   0.01    -0.27  -0.26  -0.03     0.24   0.20   0.01
                     49                     50                     51
                      A                      A                      A
 Frequencies --   1911.4935              1984.5871              3049.6718
 Red. masses --     12.8376                12.6708                 1.0386
 Frc consts  --     27.6362                29.4031                 5.6910
 IR Inten    --    851.4084               117.0380                20.2805
  Atom  AN      X      Y      Z        X      Y      Z        X      Y      Z
     1   6     0.00   0.00  -0.00    -0.01  -0.01   0.01     0.00   0.00  -0.00
     2   6    -0.03  -0.04  -0.04     0.03   0.04   0.03    -0.00  -0.00  -0.00
     3   6    -0.01  -0.00  -0.01     0.00   0.00   0.00    -0.00  -0.00   0.00
     4   6    -0.04  -0.02   0.03    -0.05  -0.03   0.03     0.00   0.00  -0.00
     5   6    -0.00  -0.00   0.00     0.01   0.00  -0.01     0.00   0.00  -0.00
     6   6     0.00   0.01   0.01    -0.00  -0.00  -0.00    -0.00  -0.00   0.00
     7   1     0.00  -0.01   0.00     0.01  -0.00  -0.00     0.00   0.00  -0.00
     8   1     0.01  -0.00  -0.00    -0.01   0.00  -0.00    -0.00  -0.00   0.00
     9   1    -0.00   0.00   0.00     0.00   0.01  -0.00     0.00   0.01   0.01
    10   1     0.07   0.08   0.07    -0.06  -0.08  -0.07     0.00   0.00  -0.00
    11   1     0.08   0.05  -0.05     0.11   0.05  -0.07    -0.00  -0.00   0.00
    12   8     0.00   0.00  -0.00    -0.01   0.01   0.03    -0.00  -0.00  -0.00
    13   6     0.36   0.40   0.31    -0.34  -0.35  -0.23     0.00   0.00   0.00
    14   6     0.42   0.23  -0.23     0.51   0.30  -0.22     0.00  -0.00   0.00
    15   8    -0.25  -0.27  -0.17     0.21   0.22   0.14    -0.00  -0.00  -0.00
    16   8    -0.29  -0.17   0.12    -0.32  -0.19   0.13    -0.00   0.00  -0.00
    17   6     0.00   0.00   0.00     0.00  -0.00  -0.00    -0.03  -0.04  -0.02
    18   1     0.00  -0.01  -0.01     0.00   0.01   0.00     0.44  -0.18   0.40
    19   1    -0.05  -0.03  -0.01     0.02   0.02   0.00    -0.25   0.54   0.20
    20   1     0.00  -0.01   0.00     0.00   0.01   0.00     0.19   0.07  -0.41
    21   1    -0.00   0.01  -0.00    -0.01  -0.01  -0.00    -0.00  -0.00  -0.00
    22   1     0.00  -0.01  -0.00     0.00   0.00   0.00     0.00  -0.00  -0.00
                     52                     53                     54
                      A                      A                      A
 Frequencies --   3135.0664              3160.3546              3163.8522
 Red. masses --      1.1026                 1.0961                 1.0625
 Frc consts  --      6.3850                 6.4501                 6.2665
 IR Inten    --      5.1523                10.0363                 3.5477
  Atom  AN      X      Y      Z        X      Y      Z        X      Y      Z
     1   6    -0.00  -0.00   0.00    -0.00  -0.02  -0.05    -0.00  -0.00  -0.01
     2   6    -0.00  -0.00  -0.00    -0.00  -0.00   0.00    -0.00   0.00   0.00
     3   6    -0.00  -0.00  -0.00     0.00   0.01   0.02    -0.02  -0.02  -0.06
     4   6     0.00   0.00  -0.00    -0.00  -0.00  -0.00     0.00   0.00   0.00
     5   6    -0.00   0.00  -0.00    -0.00   0.00   0.01     0.00   0.00   0.01
     6   6    -0.00   0.00  -0.00    -0.00  -0.00  -0.00     0.01   0.01  -0.01
     7   1     0.00   0.00  -0.00    -0.11  -0.09   0.01     0.45   0.39  -0.06
     8   1    -0.00  -0.00   0.00     0.07   0.04  -0.18    -0.26  -0.14   0.66
     9   1     0.00  -0.01  -0.00     0.09   0.28   0.58     0.01   0.05   0.09
    10   1    -0.00  -0.00   0.00     0.00   0.00  -0.00    -0.00  -0.00   0.00
    11   1     0.00   0.00   0.00     0.00   0.00   0.00    -0.00  -0.00  -0.00
    12   8     0.00  -0.00  -0.00     0.00   0.00   0.00    -0.00  -0.00   0.00
    13   6     0.00   0.00   0.00    -0.00  -0.00  -0.00     0.00  -0.00  -0.00
    14   6    -0.00  -0.00   0.00     0.00   0.00  -0.00    -0.00   0.00  -0.00
    15   8    -0.00  -0.00  -0.00     0.00   0.00   0.00    -0.00   0.00   0.00
    16   8     0.00   0.00  -0.00    -0.00  -0.00   0.00     0.00  -0.00   0.00
    17   6     0.06  -0.07   0.02    -0.02   0.01   0.06    -0.01   0.00   0.02
    18   1    -0.51   0.19  -0.47    -0.16   0.06  -0.13    -0.04   0.02  -0.04
    19   1    -0.26   0.59   0.23     0.10  -0.22  -0.07     0.03  -0.07  -0.02
    20   1     0.02  -0.00  -0.03     0.27   0.10  -0.56     0.08   0.03  -0.16
    21   1     0.00  -0.00   0.00    -0.01  -0.03  -0.06    -0.02  -0.04  -0.08
    22   1    -0.00  -0.00   0.00     0.01   0.00  -0.01    -0.09  -0.05   0.20
                     55                     56                     57
                      A                      A                      A
 Frequencies --   3168.2461              3174.2091              3189.2648
 Red. masses --      1.0933                 1.0928                 1.0946
 Frc consts  --      6.4660                 6.4874                 6.5595
 IR Inten    --      8.2369                21.1222                 7.8092
  Atom  AN      X      Y      Z        X      Y      Z        X      Y      Z
     1   6    -0.00   0.01   0.02    -0.01  -0.03  -0.05    -0.00  -0.00   0.00
     2   6     0.00   0.00   0.00    -0.00  -0.00   0.00    -0.00  -0.00   0.00
     3   6    -0.00  -0.00  -0.01    -0.00  -0.00  -0.01    -0.00   0.00   0.02
     4   6     0.00   0.00   0.00     0.00   0.00  -0.00    -0.00  -0.00   0.00
     5   6    -0.01  -0.03  -0.07    -0.01  -0.01  -0.02    -0.01  -0.01  -0.03
     6   6    -0.01  -0.00   0.02    -0.00  -0.00   0.01     0.03   0.02  -0.07
     7   1     0.04   0.03  -0.01     0.05   0.04  -0.01    -0.03  -0.03   0.00
     8   1    -0.04  -0.02   0.10    -0.03  -0.02   0.08     0.07   0.04  -0.18
     9   1    -0.03  -0.09  -0.19     0.10   0.31   0.64    -0.00  -0.01  -0.02
    10   1    -0.00  -0.00   0.00     0.00   0.00  -0.00     0.00   0.00  -0.00
    11   1    -0.00  -0.00  -0.00     0.00   0.00   0.00     0.00   0.00   0.00
    12   8     0.00   0.00   0.00     0.00   0.00   0.00    -0.00  -0.00   0.00
    13   6    -0.00  -0.00  -0.00    -0.00  -0.00  -0.00     0.00  -0.00  -0.00
    14   6    -0.00  -0.00  -0.00    -0.00  -0.00  -0.00     0.00   0.00  -0.00
    15   8     0.00   0.00   0.00     0.00  -0.00   0.00     0.00   0.00   0.00
    16   8     0.00   0.00  -0.00     0.00   0.00  -0.00    -0.00  -0.00   0.00
    17   6    -0.01   0.00   0.03     0.02  -0.00  -0.05    -0.00  -0.00  -0.00
    18   1    -0.06   0.03  -0.05     0.12  -0.05   0.10     0.00   0.00   0.00
    19   1     0.04  -0.09  -0.03    -0.08   0.18   0.06    -0.00   0.00   0.00
    20   1     0.12   0.05  -0.25    -0.22  -0.08   0.46     0.00   0.00  -0.00
    21   1     0.13   0.37   0.77     0.05   0.15   0.31     0.06   0.15   0.30
    22   1     0.12   0.06  -0.27     0.04   0.02  -0.08    -0.37  -0.21   0.81
                     58                     59                     60
                      A                      A                      A
 Frequencies --   3268.3750              3272.8005              3293.7879
[...]
 -0.00234033,0.17061457,0.20845644,0.00050622,0.00005037,-0.00009396,0.
 02880358,0.00459605,-0.04530696,0.00027230,-0.00031407,-0.00015838,-0.
 00781995,-0.02479252,-0.04929388,-0.00019632,0.00004257,0.00010385,-0.
 00021853,-0.00006433,-0.00000961,-0.00004633,0.00010183,0.00003565,-0.
 00020447,0.00012784,0.00026118,-0.00012454,0.00018817,0.00024516,-0.00
 214094,-0.00370111,-0.00438222,0.00466233,0.00162841,-0.00420521,-0.05
 384025,0.06530920,0.41787872,-0.00068781,0.00092797,0.00153215,-0.0847
 9107,-0.00156714,0.02041407,-0.00165053,-0.00083571,-0.00076213,-0.009
 94244,-0.01435426,-0.01887430,0.00142300,0.00027800,-0.00038124,0.0010
 4223,0.00163997,0.00006141,0.00003103,-0.00034099,-0.00012901,0.000083
 48,-0.00007746,0.00012832,-0.00004589,-0.00028024,-0.00036095,0.004174
 03,0.00825058,0.01630446,-0.00056421,-0.00816043,0.00511172,-0.1007478
 1,-0.01499523,0.05529665,0.61713362,0.00512912,0.00125301,-0.00163529,
 -0.00541101,-0.08828033,-0.02555403,-0.00133624,0.00017910,-0.00123656
 ,-0.01457573,-0.01543035,-0.01749926,-0.00173446,-0.00132120,0.0029809
 6,0.00060964,0.00061202,0.00081536,0.00006743,-0.00005543,-0.00004745,
 0.00018882,-0.00029893,-0.00011548,-0.00021514,-0.00011582,-0.00021328
 ,0.00153170,0.00555487,0.01104215,-0.00816639,0.00553619,-0.00041638,-
 0.01465323,-0.07177710,0.00385417,0.39146788,0.60534951,0.00036243,0.0
 0086009,-0.00097848,0.01108624,-0.03316653,-0.20341012,-0.00210641,0.0
 0095393,-0.00248217,-0.01879649,-0.02250377,-0.01067542,-0.00099097,-0
 .00005051,0.00141600,0.00147319,0.00253807,0.00112026,-0.00002947,0.00
 010671,-0.00011948,0.00069465,-0.00056551,-0.00048541,0.00011858,-0.00
 016617,-0.00037998,-0.00513372,-0.00575578,-0.00573170,0.00436346,-0.0
 0023082,-0.00197488,0.06175211,0.00916615,-0.19050001,0.15565640,0.258
 92045,0.60683132,-0.00093872,-0.00153267,0.00138357,-0.02491105,-0.014
 11398,0.01944213,-0.00091640,0.00150342,0.00036442,-0.09419413,-0.0048
 0990,0.02814958,0.00138191,-0.00025318,-0.00062903,-0.00104063,0.00138
 063,-0.00138070,0.00013786,-0.00111778,-0.00004881,-0.00018651,0.00009
 463,0.00025539,-0.00023814,0.00020150,0.00001030,0.00161438,-0.0082422
 5,-0.00097460,0.00829089,0.00127083,-0.01344374,-0.07503511,-0.0117526
 0,-0.00695671,-0.07376646,-0.04375626,0.00974975,0.83148667,-0.0007071
 9,-0.00034603,0.00011207,-0.01408600,-0.00541692,0.01346491,-0.0015512
 6,-0.00066415,-0.00205362,-0.00077896,-0.08093335,-0.01822176,0.000799
 38,-0.00047272,0.00063335,0.00213036,0.00180105,0.00191256,0.00017424,
 -0.00083049,0.00004614,-0.00003315,-0.00011045,0.00015294,0.00001203,0
 .00004407,-0.00016089,-0.00825839,0.00408774,-0.00532221,0.00789063,0.
 00263041,-0.01212950,-0.01268649,-0.08357599,-0.04546621,-0.06107180,-
 0.05017792,0.02932979,0.37534193,0.44508583,-0.00007995,0.00196636,-0.
 00269126,0.02368524,0.01153605,-0.00524718,-0.00005248,0.00023321,-0.0
 0046425,0.03849051,-0.01051866,-0.20046468,-0.00243334,-0.00014715,0.0
 0068669,-0.00023987,0.00035532,0.00061153,0.00006233,0.00007522,0.0000
 2816,0.00024688,-0.00025032,-0.00033530,0.00040102,-0.00061440,-0.0002
 3821,-0.00096910,-0.00466088,-0.00267291,0.00843625,0.00410678,-0.0066
 5616,-0.01378635,-0.05049582,-0.19669794,-0.04492389,-0.01220314,0.064
 15166,-0.25550697,-0.07624289,0.55392699,-0.00211297,-0.00130611,0.000
 40125,0.00303743,-0.01929524,-0.01484088,0.00127892,0.00001172,0.00121
 404,0.00365851,0.00160414,-0.00269218,0.00058124,0.00095391,-0.0010848
 1,-0.00118817,-0.00157099,-0.00061941,0.00001191,0.00012444,0.00006464
 ,-0.00020031,0.00019502,-0.00001255,0.00020795,0.00007732,0.00024665,-
 0.00032224,-0.00019791,-0.00181923,-0.00080645,0.00093350,-0.00100839,
 -0.06461669,-0.06786352,-0.01188192,-0.36894565,-0.31250748,-0.2000208
 9,0.01399769,0.01230955,0.02252264,0.42397810,-0.00139035,-0.00231609,
 0.00140549,-0.02495722,-0.00606155,-0.02183565,0.00081140,-0.00048962,
 0.00124522,0.00290601,0.00225097,-0.00582774,0.00301212,-0.00066878,-0
 .00188783,-0.00078973,-0.00105820,-0.00089257,-0.00003568,0.00005147,0
 .00001464,-0.00020330,0.00026618,0.00004089,0.00000577,0.00009507,0.00
 009522,0.00066059,-0.00075298,-0.00081390,0.00047248,-0.00206983,0.000
 32671,-0.06108417,-0.03574094,-0.00257313,-0.31185792,-0.39967184,-0.2
 2301923,0.00661233,0.01555030,0.01412191,0.39059533,0.43697200,-0.0004
 2903,-0.00056575,0.00064371,-0.03292890,-0.03690129,-0.01026321,0.0010
 4703,-0.00025908,0.00113974,0.00207304,-0.00022454,-0.00832189,0.00055
 309,0.00047202,-0.00107790,-0.00089287,-0.00122773,-0.00058171,0.00000
 881,0.00002432,0.00005031,-0.00027735,0.00024748,0.00014020,-0.0000306
 2,0.00011787,0.00020279,0.00077346,0.00129237,0.00127541,-0.00234486,-
 0.00078764,0.00091580,0.00812581,0.01352482,0.03658647,-0.19234208,-0.
 21663663,-0.24480062,0.00298329,-0.00189014,-0.00847216,0.21147321,0.2
 4159529,0.22981834,0.00046706,0.00127386,-0.00165725,0.00270354,0.0026
 6810,0.00732826,-0.00097892,0.00006466,-0.00089557,-0.02069396,-0.0236
 4335,0.02253130,-0.00197140,-0.00045891,0.00079849,0.00036249,0.001367
 51,0.00151562,-0.00000952,0.00032149,0.00001337,0.00008025,-0.00009695
 ,-0.00010672,0.00020023,-0.00019213,0.00003370,-0.00175211,0.00051687,
 -0.00027689,-0.00061456,0.00064819,0.00116656,-0.06487395,-0.06027854,
 -0.00629848,0.02082860,0.00632994,-0.01630632,-0.58555137,-0.29871993,
 0.22466354,-0.00954079,-0.00623706,0.00086758,0.66126711,0.00035552,0.
 00050863,-0.00052252,0.00114597,0.00246510,0.00188688,0.00163832,-0.00
 050910,0.00074013,-0.01755916,0.01109371,0.00890643,-0.00082889,0.0001
 2243,-0.00008754,0.00002799,-0.00141281,-0.00060768,-0.00016671,0.0007
 9546,0.00000459,0.00006970,0.00002920,-0.00013438,0.00005966,-0.000106
 65,0.00004947,0.00102694,-0.00139451,0.00099628,-0.00017673,-0.0005629
 8,0.00150572,-0.06619806,-0.03323491,0.00139479,0.01192548,0.01081734,
 -0.01626305,-0.30116786,-0.24596135,0.12225271,-0.00716504,-0.00636003
 ,0.00133130,0.37686091,0.26332024,-0.00018911,-0.00088580,0.00114076,0
 .00059876,-0.00112436,-0.00785000,0.00014982,-0.00016317,0.00044023,0.
 04184389,0.02254681,-0.00335114,0.00135029,0.00022574,-0.00041611,-0.0
 0044125,0.00003938,-0.00051198,-0.00000464,-0.00010141,-0.00007775,-0.
 00013211,0.00010583,0.00014194,-0.00016104,0.00022423,0.00004612,0.001
 16591,0.00201117,0.00118709,-0.00159304,-0.00047152,0.00130536,-0.0270
 5624,-0.01354104,0.03500830,0.00419335,-0.00164058,-0.01092221,0.21656
 592,0.11596778,-0.19463378,-0.00299826,-0.00166902,0.00231197,-0.23349
 880,-0.12135504,0.17591606,-0.15645190,-0.08842096,-0.00622141,-0.0001
 5626,0.00003513,-0.00009201,-0.00046109,0.00013375,-0.00077220,-0.0000
 9754,-0.00001159,0.00005686,-0.01536099,-0.01768598,0.00209961,0.00571
 807,-0.00200203,0.00343539,0.00004919,-0.00011343,-0.00008322,-0.00015
 818,0.00025577,-0.00014928,0.00122857,-0.00484845,0.00279370,-0.000180
 27,-0.00003648,-0.00020281,0.00000587,-0.00000868,-0.00000146,-0.00028
 766,-0.00024758,-0.00011129,-0.00004217,0.00002672,0.00029551,0.000128
 77,0.00016161,0.00016765,-0.00072435,0.00016854,-0.00012723,-0.0001152
 4,-0.00008621,0.00000972,0.53450641,-0.08675837,-0.15238033,-0.0138679
 0,0.00010930,0.00050174,0.00046187,-0.00033634,-0.00080357,-0.00070180
 ,-0.00024312,-0.00036626,0.00003672,-0.01330312,-0.00571390,0.00326070
 ,-0.00152987,0.00659935,-0.00115427,-0.00004119,0.00006605,-0.00006448
 ,0.00015436,-0.00036178,0.00012610,-0.01130331,-0.00298285,0.00128033,
 0.00002719,0.00000107,0.00001715,-0.00000905,-0.00000419,0.00001039,-0
 .00063983,-0.00034447,0.00001629,0.00058168,-0.00115140,-0.00062370,0.
 00046085,0.00020235,0.00005064,0.00103458,0.00042598,-0.00003116,-0.00
 041356,-0.00012764,0.00010983,-0.02088244,0.52361909,-0.00046639,-0.00
 764401,-0.08910760,0.00010692,0.00000784,0.00023711,-0.00084600,-0.000
 39453,-0.00078417,-0.00015425,-0.00003853,0.00000713,0.01782077,0.0176
 4497,0.00878185,0.00412081,0.00000403,-0.00317016,0.00002641,0.0000531
 8,0.00028009,0.00010871,0.00009649,0.00033777,-0.01590654,-0.01599321,
 0.00209718,-0.00020090,-0.00003597,-0.00000877,0.00001660,-0.00003671,
 0.00003416,-0.00034754,-0.00008855,-0.00001350,0.00023013,-0.00056442,
 -0.00028166,0.00036005,0.00002412,-0.00001115,0.00023856,0.00021097,0.
 00046241,-0.00025613,-0.00005595,0.00009748,-0.01970684,-0.00539973,0.
 58576550,-0.01538259,0.00426709,-0.01181233,0.00010266,-0.00000999,0.0
 0012280,-0.00033053,-0.00001205,-0.00002268,-0.00008538,-0.00005463,0.
 00004587,0.00150777,-0.00105804,-0.00066637,0.00090051,-0.00059178,0.0
 0013171,0.00000895,-0.00002589,0.00002162,0.00001405,0.00007165,0.0000
 2765,-0.00170616,-0.00076091,0.00013956,-0.00001205,-0.00001705,0.0000
 2102,0.00000619,-0.00001466,0.00002455,-0.00012720,-0.00001936,-0.0000
 0935,0.00026578,-0.00030630,-0.00008236,0.00023891,-0.00004122,-0.0000
 8159,-0.00006285,0.00018906,0.00009389,-0.00017082,-0.00001339,0.00007
 133,-0.18328482,0.05618460,-0.12661101,0.19579283,-0.01867194,0.004739
 46,-0.01570766,0.00005797,-0.00012293,0.00010836,-0.00029199,-0.000051
 55,-0.00011649,-0.00000587,-0.00004316,-0.00003108,0.00034007,0.000373
 06,-0.00081997,0.00086697,-0.00049233,0.00009093,0.00004192,-0.0000848
 1,0.00003844,-0.00002601,0.00012178,0.00002547,-0.00109858,-0.00234801
 ,-0.00009182,-0.00004648,0.00000185,-0.00007138,0.00000739,0.00000234,
 0.00001112,0.00025014,0.00030487,-0.00011074,-0.00059275,-0.00048223,0
 .00004700,-0.00006236,-0.00015098,-0.00002114,0.00052509,0.00011573,-0
 .00005697,0.00006347,0.00007983,-0.00002341,0.05419495,-0.06278817,0.0
 5088082,-0.05582773,0.06843531,-0.00034887,-0.00284422,-0.00016053,-0.
 00002202,-0.00004464,-0.00012066,0.00022658,0.00014830,0.00022828,0.00
 005639,0.00008161,0.00002313,0.00208769,0.00143611,-0.00010782,-0.0004
 3373,-0.00089869,-0.00008407,-0.00005049,0.00004163,0.00001953,0.00000
 367,0.00004869,0.00002540,-0.00057582,-0.00056052,0.00032228,0.0000469
 8,-0.00001770,0.00001623,0.00000935,0.00000172,-0.00000498,0.00006275,
 0.00003635,0.00002668,-0.00005738,0.00013232,0.00006289,-0.00003697,0.
 00000301,-0.00001632,-0.00003482,-0.00008530,-0.00005536,0.00004360,0.
 00000636,-0.00000962,-0.12512026,0.05250164,-0.15902397,0.13688696,-0.
 05476427,0.16653282,0.00874992,-0.02181890,-0.00863843,0.00047339,0.00
 026393,0.00041379,-0.00040893,-0.00016468,-0.00029172,-0.00015379,-0.0
 0022506,0.00012013,-0.00037717,-0.00028676,-0.00042438,-0.00005243,0.0
 0110161,-0.00029766,-0.00005902,0.00005438,0.00001111,0.00011474,-0.00
 012865,0.00006789,-0.00239877,-0.00121477,-0.00046674,-0.00003288,-0.0
 0000095,-0.00009827,0.00000862,0.00003983,0.00000701,0.00088675,0.0010
 9838,0.00008274,-0.00372655,-0.00316801,-0.00141789,-0.00044894,-0.000
 66037,-0.00027034,0.00182651,0.00140820,0.00126550,0.00022847,0.000312
 10,-0.00002418,-0.08519341,0.09179632,0.03718652,-0.00798328,0.0177410
 1,0.00860881,0.09305475,0.00430314,-0.01830223,-0.00591793,0.00003415,
 -0.00027110,0.00000946,-0.00013903,-0.00013541,0.00019111,0.00007923,0
 .00002425,-0.00007416,0.00034602,0.00186479,-0.00154589,-0.00087915,0.
 00060565,-0.00056457,0.00001410,-0.00002875,0.00001848,0.00006650,-0.0
 0003404,0.00003957,-0.00112194,-0.00168709,0.00060701,-0.00005417,0.00
 004983,-0.00005448,0.00000072,0.00001219,0.00000992,0.00024537,0.00031
 784,-0.00007558,-0.00070604,0.00026010,0.00018884,-0.00018329,-0.00033
 782,-0.00000461,0.00107362,-0.00080643,-0.00016499,0.00015852,0.000160
 57,-0.00006293,0.09410927,-0.24824207,-0.07647721,0.00198882,-0.006226
 39,-0.00332651,-0.09621799,0.26678409,-0.00242688,-0.00250948,-0.00133
 941,-0.00018397,-0.00020717,0.00001909,0.00020881,0.00011989,0.0002776
 9,0.00021400,0.00013812,-0.00016238,0.00227416,0.00145919,-0.00009745,
 -0.00096226,-0.00043937,-0.00028236,0.00000392,-0.00003310,0.00002367,
 0.00002864,0.00001039,0.00001713,-0.00091368,-0.00040925,0.00010575,-0
 .00010397,-0.00004857,-0.00017870,0.00001377,-0.00000157,-0.00001291,0
 .00026692,0.00014145,-0.00011598,-0.00040023,0.00036146,0.00047534,-0.
 00023092,-0.00002718,0.00019974,0.00014043,-0.00026946,-0.00066738,0.0
 0023273,0.00007592,-0.00013718,0.03807834,-0.07562070,-0.07442873,-0.0
 0826174,0.01884953,0.00777208,-0.03827541,0.08365483,0.07518164,-0.010
 05936,-0.00118958,0.02119762,0.00001611,-0.00003369,0.00022014,-0.0001
 7561,-0.00006075,-0.00008175,-0.00001944,-0.00007866,-0.00009655,-0.00
 265447,-0.00379240,-0.00123500,0.00018386,-0.00006342,0.00094442,-0.00
 004801,0.00001094,-0.00006175,0.00004572,-0.00004551,-0.00002564,0.000
 82003,0.00048108,-0.00011688,-0.00010373,0.00002470,-0.00004758,-0.000
 00491,-0.00000925,0.00001581,-0.00007550,-0.00005069,-0.00013244,0.000
 27487,-0.00003716,0.00016592,0.00013408,0.00000437,0.00009300,-0.00019
 915,0.00014317,-0.00016262,-0.00007443,0.00000248,-0.00001718,-0.09653
 493,-0.01859991,0.10440996,0.01116660,0.00281823,-0.02082607,-0.005039
 33,-0.00357048,0.00985987,0.10269556,-0.00868942,-0.00431954,0.0225318
 3,0.00008639,0.00000730,-0.00001313,-0.00012239,-0.00008799,-0.0000786
 5,-0.00005204,-0.00002420,0.00007085,-0.00369608,-0.00271724,-0.001332
 65,-0.00035793,0.00058261,0.00076117,0.00003905,-0.00008358,-0.0000482
 1,-0.00004649,0.00006298,-0.00004849,0.00049826,0.00071213,0.00013129,
 0.00001182,0.00002857,0.00003512,-0.00000049,0.00000067,0.00001232,0.0
 0014233,0.00021673,0.00001244,-0.00034409,-0.00048006,-0.00021061,-0.0
 0002721,-0.00013404,-0.00012964,0.00047737,0.00006918,0.00028464,-0.00
 000145,0.00004838,0.00002840,-0.01753478,-0.05356140,0.03550080,-0.004
 58320,-0.00208262,0.00764503,0.01011779,0.00676173,-0.02483205,0.02410
 983,0.05542244,-0.00496604,-0.00288854,0.00484767,0.00000129,0.0000084
 6,-0.00006335,0.00013973,0.00009946,0.00003700,0.00002172,0.00001956,0
 .00002812,-0.00007292,-0.00019237,0.00036571,-0.00018913,-0.00025915,0
 .00017898,0.00000141,0.00002514,0.00001462,-0.00001095,-0.00002596,-0.
 00000572,-0.00013810,0.00002442,0.00110076,0.00006267,0.00001891,0.000
 01022,-0.00000242,0.00000750,-0.00000721,0.00011091,0.00008877,0.00004
 571,-0.00027246,-0.00010449,-0.00012575,-0.00014019,-0.00004777,-0.000
 03730,0.00027521,-0.00007474,0.00012371,0.00008515,0.00002563,-0.00000
 958,0.10763632,0.03920683,-0.27221860,0.00967155,0.00155808,-0.0152399
 1,0.00190072,0.00283664,-0.00670145,-0.11392865,-0.04035097,0.28738876
 ,0.00693316,0.00601815,0.01836017,-0.00001838,0.00004837,0.00014401,-0
 .00199739,-0.00314814,0.00174483,0.00001152,0.00003763,0.00003438,-0.0
 5598534,-0.02594151,-0.03718482,-0.00234684,-0.01086082,-0.02079327,-0
 .00053357,-0.00022836,-0.00079025,0.00012778,0.00006500,-0.00006999,0.
 00328636,-0.00603835,0.00440469,0.00000308,0.00001858,0.00000247,-0.00
 000645,-0.00000577,0.00002522,0.00038694,-0.00002358,0.00043056,-0.000
 29448,0.00037875,-0.00089507,-0.00043434,-0.00055549,-0.00037078,0.000
 14757,-0.00032190,0.00032194,0.00020614,0.00020418,0.00002024,-0.00212
 588,0.00353711,-0.00085744,-0.00074178,-0.00022380,-0.00053298,0.00048
 649,0.00043855,0.00044055,-0.00007642,0.00014910,-0.00018766,0.0530284
 7,-0.00078348,0.00891585,0.00780807,0.00003769,0.00007965,0.00000705,-
 0.00361337,-0.00132586,0.00100514,0.00000120,-0.00016435,0.00010359,-0
 .02682747,-0.10117341,-0.10826006,-0.00286063,-0.00520577,-0.01882804,
 -0.00040691,-0.00019681,-0.00075214,0.00020621,-0.00000356,-0.00006875
 ,-0.00628776,0.00545887,-0.00025387,-0.00002300,0.00001699,0.00001719,
 -0.00000601,-0.00000940,0.00002075,-0.00025148,-0.00010773,0.00009847,
 0.00073322,-0.00009002,0.00019086,0.00017017,-0.00005504,-0.00008681,-
 0.00022879,0.00010617,-0.00013787,-0.00016977,0.00000167,0.00007974,0.
 00299449,-0.00274943,0.00152431,0.00066571,0.00069833,0.00050218,-0.00
 004602,-0.00071332,-0.00038497,0.00011730,-0.00020681,0.00001676,0.035
 90356,0.09677706,-0.00464855,-0.01279313,-0.01918590,0.00005764,0.0000
 5578,0.00012165,0.00051509,-0.00020070,0.00108545,-0.00000800,0.000053
 12,0.00009796,-0.03706230,-0.10779158,-0.27570417,0.00255477,0.0023057
 4,0.00199052,0.00005313,0.00001224,-0.00004842,0.00016173,0.00011004,0
 .00005493,0.00403593,-0.00017695,-0.00162153,0.00001332,-0.00003476,0.
 00001893,0.00002007,-0.00000081,0.00001909,0.00049921,0.00018198,0.000
 34695,-0.00083679,-0.00037361,-0.00092064,-0.00035219,-0.00047811,-0.0
 0037373,0.00057965,-0.00006605,0.00055054,0.00017332,0.00018590,0.0000
 1382,-0.00187518,0.00042812,0.00091439,0.00026257,0.00017828,-0.000208
 86,0.00050217,0.00067771,0.00005203,-0.00018015,0.00001306,0.00027446,
 0.03587141,0.11739831,0.29178110,-0.00150978,-0.00382855,-0.00173620,0
 .00000976,-0.00000372,-0.00006112,0.00884031,0.00011713,-0.01323608,0.
 00002916,-0.00005299,0.00001861,-0.00669802,-0.00576783,0.02133122,-0.
 09676040,-0.03282426,0.10458788,-0.00289978,0.00436093,-0.00084228,0.0
 0434383,-0.00645579,-0.00159813,0.00016895,0.00011033,0.00002094,-0.00
 001650,0.00001033,-0.00002447,0.00000796,-0.00001643,-0.00001769,-0.00
 008474,-0.00012571,-0.00007284,-0.00005158,0.00013744,0.00006135,0.000
 25064,0.00032614,-0.00005440,-0.00000620,-0.00010767,-0.00005108,0.000
 00319,-0.00026722,0.00014660,-0.00046219,0.00017413,0.00072758,-0.0001
 1677,-0.00005971,0.00000662,0.00004487,0.00001406,-0.00000305,-0.00027
 155,-0.00017637,0.00000182,-0.00005666,0.00067512,-0.00033682,0.095235
 50,-0.00330688,-0.00183695,-0.00125418,-0.00016975,0.00004435,-0.00005
 009,0.00367857,0.00799527,-0.01403054,0.00007892,0.00014537,-0.0001951
 3,-0.00882737,-0.00127762,0.01778121,-0.03311718,-0.06379764,0.0548484
 9,0.00448992,-0.00424117,0.00042719,-0.00646408,0.00583655,-0.00304862
 ,0.00007911,-0.00000615,0.00009501,0.00000606,-0.00002206,-0.00002016,
 0.00003279,-0.00001120,0.00001311,0.00010490,0.00037413,-0.00032290,-0
 .00062072,-0.00022952,0.00025376,-0.00001694,-0.00023450,0.00067728,0.
 00021948,0.00009325,-0.00000628,-0.00006186,0.00022741,-0.00030062,-0.
 00020163,0.00016183,0.00078130,-0.00003075,0.00000063,-0.00004310,-0.0
 0000138,-0.00005639,-0.00002791,-0.00018057,-0.00021524,0.00000786,0.0
 0054874,-0.00005308,0.00031540,0.04376063,0.05710274,-0.00054362,-0.00
 032770,0.00080195,-0.00001553,-0.00001047,0.00009615,0.01174282,0.0063
 5047,-0.01984547,-0.00007801,-0.00002201,0.00006184,-0.00305790,-0.002
 91629,0.00326875,0.10267901,0.05524956,-0.27746911,-0.00068086,0.00080
 084,0.00078801,-0.00120221,-0.00299891,-0.00211485,-0.00017608,-0.0000
 7589,0.00005749,-0.00000288,-0.00002119,0.00001794,0.00003303,-0.00002
 647,0.00002414,-0.00021996,-0.00028745,0.00023900,0.00041179,0.0001337
 2,-0.00026895,0.00043644,0.00039359,-0.00059244,-0.00014294,-0.0000417
 0,0.00001884,-0.00015706,-0.00033591,0.00031022,-0.00010989,-0.0000428
 7,0.00003322,0.00002638,0.00002688,0.00000281,0.00003862,0.00003531,-0
 .00000022,0.00000553,0.00001748,-0.00000682,-0.00011822,0.00000010,0.0
 0074142,-0.10886846,-0.05590108,0.29383610\\0.00000584,0.00000811,0.00
 000193,0.00000310,0.00000203,0.00000434,0.00000362,0.00000254,-0.00000
 149,-0.00000520,0.00000025,0.00000299,-0.00000783,-0.00000622,0.000001
 85,0.00000091,-0.00000189,-0.00000153,-0.00000100,-0.00000271,-0.00000
 697,0.00000326,0.00000237,-0.00000749,-0.00000023,0.00000040,-0.000005
 26,-0.00000005,0.00000398,0.00000233,0.00000219,0.00000336,-0.00000107
 ,-0.00000539,-0.00000529,0.00000652,-0.00000457,-0.00000259,-0.0000041
 3,0.00000961,0.00000095,-0.00000742,0.00000127,0.00000058,0.00000765,-
 0.00000395,-0.00000427,0.00000071,0.00000185,-0.00000228,0.00000596,-0
 .00000185,0.00000076,0.00000119,-0.00000271,0.00000251,0.00000518,0.00
 000063,0.00000388,0.00000222,-0.00000049,-0.00000332,-0.00000120,0.000
 00099,-0.00000313,-0.00000629\\\@
 The archive entry for this job was punched.


 You don't have to suffer to be a poet.
 Adolescence is enough suffering for anyone.
                             -- John Ciardi
 Job cpu time:       0 days  0 hours 22 minutes 21.4 seconds.
 Elapsed time:       0 days  0 hours  1 minutes 53.0 seconds.
 File lengths (MBytes):  RWF=    186 Int=      0 D2E=      0 Chk=     10 Scr=      1
 Normal termination of Gaussian 16 at Sat Dec 30 20:54:36 2023.
