Unloading slurm/anatra/current
  ERROR: No such file or directory on
    '/cm/local/modulefiles/slurm/anatra/current'
environment: line 0: unalias: gv: not found
environment: line 0: unalias: sl: not found
 Entering Gaussian System, Link 0=g16
 Initial command:
 /apps/gaussian/g16/C.01/g16/l1.exe "/local/jobs/1153166/Gau-1734339.inp" -scrdir="/local/jobs/1153166/"
 Entering Link 1 = /apps/gaussian/g16/C.01/g16/l1.exe PID=   1734342.
  
 Copyright (c) 1988-2019, Gaussian, Inc.  All Rights Reserved.
  
 This is part of the Gaussian(R) 16 program.  It is based on
 the Gaussian(R) 09 system (copyright 2009, Gaussian, Inc.),
 the Gaussian(R) 03 system (copyright 2003, Gaussian, Inc.),
 the Gaussian(R) 98 system (copyright 1998, Gaussian, Inc.),
 the Gaussian(R) 94 system (copyright 1995, Gaussian, Inc.),
 the Gaussian 92(TM) system (copyright 1992, Gaussian, Inc.),
 the Gaussian 90(TM) system (copyright 1990, Gaussian, Inc.),
 the Gaussian 88(TM) system (copyright 1988, Gaussian, Inc.),
 the Gaussian 86(TM) system (copyright 1986, Carnegie Mellon
 University), and the Gaussian 82(TM) system (copyright 1983,
 Carnegie Mellon University). Gaussian is a federally registered
 trademark of Gaussian, Inc.
  
 This software contains proprietary and confidential information,
 including trade secrets, belonging to Gaussian, Inc.
  
 This software is provided under written license and may be
 used, copied, transmitted, or stored only in accord with that
 written license.
  
 The following legend is applicable only to US Government
 contracts under FAR:
  
                    RESTRICTED RIGHTS LEGEND
  
 Use, reproduction and disclosure by the US Government is
 subject to restrictions as set forth in subparagraphs (a)
 and (c) of the Commercial Computer Software - Restricted
 Rights clause in FAR 52.227-19.
  
 Gaussian, Inc.
 340 Quinnipiac St., Bldg. 40, Wallingford CT 06492
  
  
 ---------------------------------------------------------------
 Warning -- This program may not be used in any manner that
 competes with the business of Gaussian, Inc. or will provide
 assistance to any competitor of Gaussian, Inc.  The licensee
 of this program is prohibited from giving any competitor of
 Gaussian, Inc. access to this program.  By using this program,
 the user acknowledges that Gaussian, Inc. is engaged in the
 business of creating and licensing software in the field of
 computational chemistry and represents and warrants to the
 licensee that it is not a competitor of Gaussian, Inc. and that
 it will not use this program in any manner prohibited above.
 ---------------------------------------------------------------
  

 Cite this work as:
 Gaussian 16, Revision C.01,
 M. J. Frisch, G. W. Trucks, H. B. Schlegel, G. E. Scuseria, 
 M. A. Robb, J. R. Cheeseman, G. Scalmani, V. Barone, 
 G. A. Petersson, H. Nakatsuji, X. Li, M. Caricato, A. V. Marenich, 
 J. Bloino, B. G. Janesko, R. Gomperts, B. Mennucci, H. P. Hratchian, 
 J. V. Ortiz, A. F. Izmaylov, J. L. Sonnenberg, D. Williams-Young, 
 F. Ding, F. Lipparini, F. Egidi, J. Goings, B. Peng, A. Petrone, 
 T. Henderson, D. Ranasinghe, V. G. Zakrzewski, J. Gao, N. Rega, 
 G. Zheng, W. Liang, M. Hada, M. Ehara, K. Toyota, R. Fukuda, 
 J. Hasegawa, M. Ishida, T. Nakajima, Y. Honda, O. Kitao, H. Nakai, 
 T. Vreven, K. Throssell, J. A. Montgomery, Jr., J. E. Peralta, 
 F. Ogliaro, M. J. Bearpark, J. J. Heyd, E. N. Brothers, K. N. Kudin, 
 V. N. Staroverov, T. A. Keith, R. Kobayashi, J. Normand, 
 K. Raghavachari, A. P. Rendell, J. C. Burant, S. S. Iyengar, 
 J. Tomasi, M. Cossi, J. M. Millam, M. Klene, C. Adamo, R. Cammi, 
 J. W. Ochterski, R. L. Martin, K. Morokuma, O. Farkas, 
 J. B. Foresman, and D. J. Fox, Gaussian, Inc., Wallingford CT, 2019.
 
 ******************************************
 Gaussian 16:  ES64L-G16RevC.01  3-Jul-2019
                30-Dec-2023 
 ******************************************
 %chk=da-2_1_opt_sqm_reopt_freq.chk
 %nprocshared=12
 Will use up to   12 processors via shared memory.
 %mem=48GB
 -----------------------------------------------------------
 # wb97xd def2svp scrf=(iefpcm,solvent=toluene) freq=noraman
 -----------------------------------------------------------
 1/10=4,30=1,38=1/1,3;
 2/12=2,17=6,18=5,40=1/2;
 3/5=43,7=101,11=2,25=1,30=1,70=2201,71=2,72=13,74=-58,140=1/1,2,3;
 4//1;
 5/5=2,38=5,53=13,98=1/2;
 8/6=4,10=90,11=11/1;
 11/6=1,8=1,9=11,15=111,16=1/1,2,10;
 10/6=1/2;
 6/7=2,8=2,9=2,10=2,28=1/1;
 7/8=1,10=1,25=1/1,2,3,16;
 1/10=4,30=1/3;
 99//99;
 ------------------------
 da-2_1_opt_sqm_reopt.out
 ------------------------
 Symbolic Z-matrix:
 Charge =  0 Multiplicity = 1
 C                    -2.17526   0.62674   0.27447 
 C                     0.33165  -1.04286   1.26333 
 C                     0.19931   2.57609   0.37162 
 C                     1.37887  -0.21838   1.32913 
 C                    -1.40891   1.01192  -0.76053 
 C                    -0.32038   1.99403  -0.71959 
 H                     1.02615   3.28447   0.28738 
 H                    -0.18215   2.37927   1.37762 
 H                    -2.02467   1.10747   1.24836 
 H                    -0.36341  -1.34879   2.04266 
 H                     1.77599   0.33618   2.17682 
 O                     1.25666  -0.97145  -0.85321 
 C                     0.24192  -1.55629  -0.13209 
 C                     2.0058   -0.16607  -0.02173 
 O                    -0.51226  -2.34158  -0.61482 
 O                     2.97699   0.40751  -0.39784 
 C                    -3.24619  -0.42294   0.18677 
 H                    -4.03756  -0.12772  -0.52028 
 H                    -2.82816  -1.37769  -0.17089 
 H                    -3.71982  -0.60117   1.16131 
 H                    -1.58214   0.53981  -1.7344 
 H                     0.12386   2.23884  -1.68993 
 

 GradGradGradGradGradGradGradGradGradGradGradGradGradGradGradGradGradGrad
 Berny optimization.
 Initialization pass.
 Trust Radius=3.00D-01 FncErr=1.00D-07 GrdErr=1.00D-07 EigMax=2.50D+02 EigMin=1.00D-04
 Number of steps in this run=      2 maximum allowed number of steps=      2.
 GradGradGradGradGradGradGradGradGradGradGradGradGradGradGradGradGradGrad

                          Input orientation:                          
 ---------------------------------------------------------------------
 Center     Atomic      Atomic             Coordinates (Angstroms)
 Number     Number       Type             X           Y           Z
 ---------------------------------------------------------------------
      1          6           0       -2.175260    0.626740    0.274470
      2          6           0        0.331650   -1.042860    1.263330
      3          6           0        0.199310    2.576090    0.371620
      4          6           0        1.378870   -0.218380    1.329130
      5          6           0       -1.408910    1.011920   -0.760530
      6          6           0       -0.320380    1.994030   -0.719590
      7          1           0        1.026150    3.284470    0.287380
      8          1           0       -0.182150    2.379270    1.377620
      9          1           0       -2.024670    1.107470    1.248360
     10          1           0       -0.363410   -1.348790    2.042660
     11          1           0        1.775990    0.336180    2.176820
     12          8           0        1.256660   -0.971450   -0.853210
     13          6           0        0.241920   -1.556290   -0.132090
     14          6           0        2.005800   -0.166070   -0.021730
     15          8           0       -0.512260   -2.341580   -0.614820
     16          8           0        2.976990    0.407510   -0.397840
     17          6           0       -3.246190   -0.422940    0.186770
     18          1           0       -4.037560   -0.127720   -0.520280
     19          1           0       -2.828160   -1.377690   -0.170890
     20          1           0       -3.719820   -0.601170    1.161310
     21          1           0       -1.582140    0.539810   -1.734400
     22          1           0        0.123860    2.238840   -1.689930
 ---------------------------------------------------------------------
                    Distance matrix (angstroms):
                    1          2          3          4          5
     1  C    0.000000
     2  C    3.170174   0.000000
     3  C    3.073758   3.729539   0.000000
     4  C    3.802417   1.334454   3.180762   0.000000
     5  C    1.344203   3.368632   2.512919   3.694866   0.000000
     6  C    2.509625   3.685080   1.341496   3.461136   1.466668
     7  H    4.160856   4.490055   1.092045   3.671459   3.491721
     8  H    2.874159   3.462373   1.093749   3.030993   2.818913
     9  H    1.096467   3.190045   2.805638   3.653558   2.103314
    10  H    3.211233   1.088144   4.302756   2.196017   3.811023
    11  H    4.394967   2.195981   3.280528   1.088035   4.385001
    12  O    3.950183   2.310949   3.899133   2.311852   3.323794
    13  C    3.282327   1.489583   4.163184   2.284255   3.117030
    14  C    4.265858   2.285370   3.307200   1.490168   3.686968
    15  O    3.516721   2.434400   5.065854   3.444313   3.474360
    16  O    5.200552   3.443963   3.606981   2.434779   4.442181
    17  C    1.502135   3.787377   4.571632   4.768439   2.516306
    18  H    2.160787   4.807155   5.104620   5.724181   2.875117
    19  H    2.154614   3.486187   5.009218   4.614451   2.841159
    20  H    2.163311   4.076752   5.106679   5.115792   3.411134
    21  H    2.096403   3.892791   3.428603   4.327545   1.096047
    22  H    3.426906   4.419782   2.090315   4.089952   2.172211
                    6          7          8          9         10
     6  C    0.000000
     7  H    2.119520   0.000000
     8  H    2.136775   1.862256   0.000000
     9  H    2.750167   3.869149   2.242557   0.000000
    10  H    4.336626   5.145773   3.791248   3.069839   0.000000
    11  H    3.941120   3.581153   2.940621   3.987724   2.726565
    12  O    3.361396   4.412135   4.274822   4.416518   3.339622
    13  C    3.642267   4.921781   4.236472   3.760145   2.266940
    14  C    3.250254   3.600207   3.636490   4.413584   3.357631
    15  O    4.341118   5.901958   5.134707   4.201758   2.840772
    16  O    3.673312   3.542909   4.125562   5.311923   4.494319
    17  C    3.901743   5.657553   4.319589   2.227384   3.551330
    18  H    4.284737   6.159262   4.975059   2.950510   4.643173
    19  H    4.237750   6.066420   4.849124   2.972522   3.312949
    20  H    4.672156   6.195658   4.630866   2.408436   3.549817
    21  H    2.176381   4.292311   3.876629   3.068375   4.395258
    22  H    1.094916   2.411892   3.085972   3.811788   5.200072
                   11         12         13         14         15
    11  H    0.000000
    12  O    3.340761   0.000000
    13  C    3.356468   1.375409   0.000000
    14  C    2.266868   1.378843   2.248591   0.000000
    15  O    4.494412   2.250148   1.191006   3.380122   0.000000
    16  O    2.841894   2.251317   3.377535   1.188976   4.447408
    17  C    5.455168   4.653824   3.681449   5.262400   3.434836
    18  H    6.425489   5.371358   4.528295   6.064010   4.163875
    19  H    5.444932   4.161291   3.075515   4.985724   2.547460
    20  H    5.666905   5.381519   4.275573   5.862731   4.058584
    21  H    5.159084   3.334545   3.207527   4.037923   3.271164
    22  H    4.615344   3.505610   4.104122   3.479681   4.747711
                   16         17         18         19         20
    16  O    0.000000
    17  C    6.305504   0.000000
    18  H    7.036006   1.101518   0.000000
    19  H    6.077681   1.101915   1.774020   0.000000
    20  H    6.949507   1.098098   1.775629   1.781235   0.000000
    21  H    4.752848   2.717875   2.819356   2.770187   3.775798
    22  H    3.628170   4.686610   4.928093   4.909297   5.564989
                   21         22
    21  H    0.000000
    22  H    2.408135   0.000000
 Stoichiometry    C9H10O3
 Framework group  C1[X(C9H10O3)]
 Deg. of freedom    60
 Full point group                 C1      NOp   1
 Largest Abelian subgroup         C1      NOp   1
 Largest concise Abelian subgroup C1      NOp   1
                         Standard orientation:                         
 ---------------------------------------------------------------------
 Center     Atomic      Atomic             Coordinates (Angstroms)
 Number     Number       Type             X           Y           Z
 ---------------------------------------------------------------------
      1          6           0       -2.175261    0.626739    0.274470
      2          6           0        0.331650   -1.042859    1.263330
      3          6           0        0.199308    2.576091    0.371620
      4          6           0        1.378869   -0.218379    1.329130
      5          6           0       -1.408911    1.011920   -0.760530
      6          6           0       -0.320382    1.994030   -0.719590
      7          1           0        1.026147    3.284471    0.287380
      8          1           0       -0.182152    2.379270    1.377620
      9          1           0       -2.024671    1.107469    1.248360
     10          1           0       -0.363410   -1.348790    2.042660
     11          1           0        1.775989    0.336182    2.176820
     12          8           0        1.256660   -0.971449   -0.853210
     13          6           0        0.241920   -1.556289   -0.132090
     14          6           0        2.005799   -0.166068   -0.021730
     15          8           0       -0.512259   -2.341580   -0.614820
     16          8           0        2.976989    0.407512   -0.397840
     17          6           0       -3.246191   -0.422941    0.186770
     18          1           0       -4.037561   -0.127722   -0.520280
     19          1           0       -2.828160   -1.377691   -0.170890
     20          1           0       -3.719820   -0.601172    1.161310
     21          1           0       -1.582141    0.539810   -1.734400
     22          1           0        0.123858    2.238841   -1.689930
 ---------------------------------------------------------------------
 Rotational constants (GHZ):           1.2068590           0.8436936           0.6133908
 Standard basis: def2SVP (5D, 7F)
 There are   230 symmetry adapted cartesian basis functions of A   symmetry.
 There are   218 symmetry adapted basis functions of A   symmetry.
   218 basis functions,   370 primitive gaussians,   230 cartesian basis functions
    44 alpha electrons       44 beta electrons
       nuclear repulsion energy       688.3228695563 Hartrees.
 NAtoms=   22 NActive=   22 NUniq=   22 SFac= 1.00D+00 NAtFMM=   60 NAOKFM=F Big=F
 Integral buffers will be    131072 words long.
 Raffenetti 2 integral format.
 Two-electron integral symmetry is turned on.
 Nuclear repulsion after empirical dispersion term =      688.3073642796 Hartrees.
 Force inversion solution in PCM.
 ------------------------------------------------------------------------------
 Polarizable Continuum Model (PCM)
 =================================
 Model                : PCM.
 Atomic radii         : UFF (Universal Force Field).
 Polarization charges : Total charges.
 Charge compensation  : None.
 Solution method      : Matrix inversion.
 Cavity type          : Scaled VdW (van der Waals Surface) (Alpha=1.100).
 Cavity algorithm     : GePol (No added spheres)
                        Default sphere list used, NSphG=   22.
                        Lebedev-Laikov grids with approx.  5.0 points / Ang**2.
                        Smoothing algorithm: York/Karplus (Gamma=1.0000).
                        Polarization charges: spherical gaussians, with
                                              point-specific exponents (IZeta= 3).
                        Self-potential: point-specific (ISelfS= 7).
                        Self-field    : sphere-specific E.n sum rule (ISelfD= 2).
 1st derivatives      : Analytical E(r).r(x)/FMM algorithm (CHGder, D1EAlg=3).
                        Cavity 1st derivative terms included.
 2nd derivatives      : Analytical E(r).r(xy)/FMM algorithm (CHGder, D2EAlg=3).
                        Cavity 2nd derivative terms included.
 Solvent              : Toluene, Eps=   2.374100 Eps(inf)=   2.238315
 ------------------------------------------------------------------------------
 One-electron integrals computed using PRISM.
   1 Symmetry operations used in ECPInt.
 ECPInt:  NShTT=    5253 NPrTT=   19101 LenC2=    5151 LenP2D=   14297.
 LDataN:  DoStor=T MaxTD1= 4 Len=   56
 NBasis=   218 RedAO= T EigKep=  5.02D-04  NBF=   218
 NBsUse=   218 1.00D-06 EigRej= -1.00D+00 NBFU=   218
 ExpMin= 1.22D-01 ExpMax= 2.27D+03 ExpMxC= 3.41D+02 IAcc=3 IRadAn=         5 AccDes= 0.00D+00
 Harris functional with IExCor= 4639 and IRadAn=       5 diagonalized for initial guess.
 HarFok:  IExCor= 4639 AccDes= 0.00D+00 IRadAn=         5 IDoV= 1 UseB2=F ITyADJ=14
 ICtDFT=  3500011 ScaDFX=  1.000000  1.000000  1.000000  1.000000
 FoFCou: FMM=F IPFlag=           0 FMFlag=      100000 FMFlg1=           0
         NFxFlg=           0 DoJE=T BraDBF=F KetDBF=T FulRan=T
         wScrn=  0.000000 ICntrl=       500 IOpCl=  0 I1Cent=   200000004 NGrid=           0
         NMat0=    1 NMatS0=      1 NMatT0=    0 NMatD0=    1 NMtDS0=    0 NMtDT0=    0
 Petite list used in FoFCou.
 Requested convergence on RMS density matrix=1.00D-08 within 128 cycles.
 Requested convergence on MAX density matrix=1.00D-06.
 Requested convergence on             energy=1.00D-06.
 No special actions if energy rises.
 Inv3:  Mode=1 IEnd=     9806592.
 Iteration    1 A*A^-1 deviation from unit magnitude is 3.22D-15 for    607.
 Iteration    1 A*A^-1 deviation from orthogonality  is 1.56D-15 for    821    152.
 Iteration    1 A^-1*A deviation from unit magnitude is 3.44D-15 for    607.
 Iteration    1 A^-1*A deviation from orthogonality  is 2.39D-15 for   1496    374.
 Error on total polarization charges =  0.00603
 SCF Done:  E(RwB97XD) =  -573.998631351     A.U. after   14 cycles
            NFock= 14  Conv=0.71D-08     -V/T= 2.0097
 DoSCS=F DFT=T ScalE2(SS,OS)=  1.000000  1.000000
 Range of M.O.s used for correlation:     1   218
 NBasis=   218 NAE=    44 NBE=    44 NFC=     0 NFV=     0
 NROrb=    218 NOA=    44 NOB=    44 NVA=   174 NVB=   174
   1 Symmetry operations used in ECPInt.
 ECPInt:  NShTT=    5253 NPrTT=   19101 LenC2=    5151 LenP2D=   14297.
 LDataN:  DoStor=T MaxTD1= 5 Len=  102
 Symmetrizing basis deriv contribution to polar:
 IMax=3 JMax=2 DiffMx= 0.00D+00
 G2DrvN: will do    23 centers at a time, making    1 passes.
 Calling FoFCou, ICntrl=  3107 FMM=F I1Cent=   0 AccDes= 0.00D+00.
 NEqPCM:  Using equilibrium solvation (IEInf=0, Eps=   2.3741, EpsInf=   2.2383)
 G2PCM: DoFxE=T DoFxN=T DoGrad=T DoDP/DQ/DG/TGxP=FFFF NFrqRd=   0 IEInf=0 SqF1=F DoCFld=F IF1Alg=4.
 End of G2Drv F.D. properties file   721 does not exist.
 End of G2Drv F.D. properties file   722 does not exist.
 End of G2Drv F.D. properties file   788 does not exist.
          IDoAtm=1111111111111111111111
 NEqPCM:  Using equilibrium solvation (IEInf=0, Eps=   2.3741, EpsInf=   2.2383)
          Differentiating once with respect to electric field.
                with respect to dipole field.
          Differentiating once with respect to nuclear coordinates.
 Keep R1 ints in memory in canonical form, NReq=587803661.
          There are    69 degrees of freedom in the 1st order CPHF.  IDoFFX=6 NUNeed=     3.
     66 vectors produced by pass  0 Test12= 1.11D-14 1.45D-09 XBig12= 6.29D+01 3.77D+00.
 AX will form    66 AO Fock derivatives at one time.
     66 vectors produced by pass  1 Test12= 1.11D-14 1.45D-09 XBig12= 7.95D+00 4.92D-01.
     66 vectors produced by pass  2 Test12= 1.11D-14 1.45D-09 XBig12= 3.26D-01 1.15D-01.
     66 vectors produced by pass  3 Test12= 1.11D-14 1.45D-09 XBig12= 5.26D-03 1.43D-02.
     66 vectors produced by pass  4 Test12= 1.11D-14 1.45D-09 XBig12= 4.49D-05 9.06D-04.
     66 vectors produced by pass  5 Test12= 1.11D-14 1.45D-09 XBig12= 2.79D-07 7.17D-05.
     56 vectors produced by pass  6 Test12= 1.11D-14 1.45D-09 XBig12= 1.65D-09 5.49D-06.
     22 vectors produced by pass  7 Test12= 1.11D-14 1.45D-09 XBig12= 8.22D-12 3.05D-07.
      3 vectors produced by pass  8 Test12= 1.11D-14 1.45D-09 XBig12= 3.52D-14 2.59D-08.
 InvSVY:  IOpt=1 It=  1 EMax= 2.66D-15
 Solved reduced A of dimension   477 with    69 vectors.
 Isotropic polarizability for W=    0.000000      114.81 Bohr**3.
 End of Minotr F.D. properties file   721 does not exist.
 End of Minotr F.D. properties file   722 does not exist.
 End of Minotr F.D. properties file   788 does not exist.

 **********************************************************************

            Population analysis using the SCF Density.

 **********************************************************************

 Orbital symmetries:
       Occupied  (A) (A) (A) (A) (A) (A) (A) (A) (A) (A) (A) (A)
                 (A) (A) (A) (A) (A) (A) (A) (A) (A) (A) (A) (A)
                 (A) (A) (A) (A) (A) (A) (A) (A) (A) (A) (A) (A)
                 (A) (A) (A) (A) (A) (A) (A) (A)
       Virtual   (A) (A) (A) (A) (A) (A) (A) (A) (A) (A) (A) (A)
                 (A) (A) (A) (A) (A) (A) (A) (A) (A) (A) (A) (A)
                 (A) (A) (A) (A) (A) (A) (A) (A) (A) (A) (A) (A)
                 (A) (A) (A) (A) (A) (A) (A) (A) (A) (A) (A) (A)
                 (A) (A) (A) (A) (A) (A) (A) (A) (A) (A) (A) (A)
                 (A) (A) (A) (A) (A) (A) (A) (A) (A) (A) (A) (A)
                 (A) (A) (A) (A) (A) (A) (A) (A) (A) (A) (A) (A)
                 (A) (A) (A) (A) (A) (A) (A) (A) (A) (A) (A) (A)
                 (A) (A) (A) (A) (A) (A) (A) (A) (A) (A) (A) (A)
                 (A) (A) (A) (A) (A) (A) (A) (A) (A) (A) (A) (A)
                 (A) (A) (A) (A) (A) (A) (A) (A) (A) (A) (A) (A)
                 (A) (A) (A) (A) (A) (A) (A) (A) (A) (A) (A) (A)
                 (A) (A) (A) (A) (A) (A) (A) (A) (A) (A) (A) (A)
                 (A) (A) (A) (A) (A) (A) (A) (A) (A) (A) (A) (A)
                 (A) (A) (A) (A) (A) (A)
 The electronic state is 1-A.
 Alpha  occ. eigenvalues --  -19.33314 -19.28007 -19.27860 -10.46132 -10.46013
 Alpha  occ. eigenvalues --  -10.35481 -10.35402 -10.31562 -10.31364 -10.30625
 Alpha  occ. eigenvalues --  -10.30593 -10.29895  -1.25212  -1.17961  -1.14138
 Alpha  occ. eigenvalues --   -0.94334  -0.91226  -0.85508  -0.79638  -0.77620
 Alpha  occ. eigenvalues --   -0.73531  -0.69444  -0.68740  -0.62073  -0.60672
 Alpha  occ. eigenvalues --   -0.60453  -0.57623  -0.56917  -0.55626  -0.54403
 Alpha  occ. eigenvalues --   -0.53381  -0.51997  -0.50503  -0.49794  -0.49496
 Alpha  occ. eigenvalues --   -0.47774  -0.43648  -0.43487  -0.42989  -0.42037
 Alpha  occ. eigenvalues --   -0.41094  -0.39126  -0.38144  -0.31111
 Alpha virt. eigenvalues --   -0.03733   0.02283   0.10936   0.12123   0.13696
 Alpha virt. eigenvalues --    0.15356   0.15896   0.16192   0.17118   0.19449
 Alpha virt. eigenvalues --    0.21090   0.21496   0.22498   0.24150   0.25022
 Alpha virt. eigenvalues --    0.27230   0.27874   0.29607   0.31891   0.33582
 Alpha virt. eigenvalues --    0.35276   0.36532   0.39145   0.40201   0.44037
 Alpha virt. eigenvalues --    0.45039   0.45456   0.48049   0.49128   0.49983
 Alpha virt. eigenvalues --    0.50613   0.52718   0.54040   0.54959   0.55686
 Alpha virt. eigenvalues --    0.57858   0.58865   0.60790   0.62539   0.63909
 Alpha virt. eigenvalues --    0.66110   0.69810   0.70385   0.70820   0.71557
 Alpha virt. eigenvalues --    0.72332   0.72709   0.73871   0.74682   0.74940
 Alpha virt. eigenvalues --    0.75394   0.76398   0.76629   0.77596   0.77998
 Alpha virt. eigenvalues --    0.78486   0.80247   0.80542   0.81761   0.86159
 Alpha virt. eigenvalues --    0.87550   0.88484   0.90254   0.91471   0.92913
 Alpha virt. eigenvalues --    0.99146   1.02308   1.05612   1.06254   1.09676
 Alpha virt. eigenvalues --    1.10874   1.12898   1.13296   1.16620   1.18666
 Alpha virt. eigenvalues --    1.19740   1.23249   1.24523   1.25516   1.27535
 Alpha virt. eigenvalues --    1.29698   1.30880   1.33973   1.35187   1.38817
 Alpha virt. eigenvalues --    1.39775   1.44532   1.45625   1.51505   1.56374
 Alpha virt. eigenvalues --    1.58429   1.60870   1.61769   1.62709   1.66451
 Alpha virt. eigenvalues --    1.67295   1.68650   1.70205   1.71808   1.74252
 Alpha virt. eigenvalues --    1.78084   1.78773   1.79820   1.81184   1.83386
 Alpha virt. eigenvalues --    1.86333   1.86956   1.87475   1.88297   1.89206
 Alpha virt. eigenvalues --    1.90360   1.90888   1.93471   1.94501   1.96779
 Alpha virt. eigenvalues --    1.97845   1.98562   2.03277   2.04156   2.06726
 Alpha virt. eigenvalues --    2.09854   2.11205   2.12819   2.13710   2.16500
 Alpha virt. eigenvalues --    2.17193   2.19329   2.21786   2.25974   2.28235
 Alpha virt. eigenvalues --    2.29728   2.31696   2.35236   2.38740   2.42063
 Alpha virt. eigenvalues --    2.42863   2.46483   2.47016   2.48725   2.53501
 Alpha virt. eigenvalues --    2.55893   2.60936   2.64425   2.65584   2.68086
 Alpha virt. eigenvalues --    2.69813   2.71098   2.71304   2.74555   2.77329
 Alpha virt. eigenvalues --    2.80306   2.81332   2.81833   2.86173   2.87113
 Alpha virt. eigenvalues --    2.91488   2.94891   3.01004   3.02262   3.03243
 Alpha virt. eigenvalues --    3.04142   3.10099   3.18362   3.25012   3.27167
 Alpha virt. eigenvalues --    3.28727   3.29121   3.34586   3.42949   3.51196
 Alpha virt. eigenvalues --    3.52467   3.73429   3.76615   3.79186
          Condensed to atoms (all electrons):
               1          2          3          4          5          6
     1  C    4.946945   0.005844  -0.023577  -0.004971   0.559059  -0.035194
     2  C    0.005844   5.394447  -0.006390   0.219783   0.006431  -0.008733
     3  C   -0.023577  -0.006390   4.785186   0.006332  -0.052195   0.626601
     4  C   -0.004971   0.219783   0.006332   5.414219  -0.010885   0.007060
     5  C    0.559059   0.006431  -0.052195  -0.010885   4.942615   0.341248
     6  C   -0.035194  -0.008733   0.626601   0.007060   0.341248   4.791882
     7  H   -0.000275   0.000252   0.392596  -0.001118   0.009876  -0.015307
     8  H    0.011311  -0.002685   0.377633   0.005967  -0.030928  -0.001450
     9  H    0.389571   0.003354   0.010019  -0.001580  -0.013384  -0.025124
    10  H    0.000765   0.429565  -0.000141  -0.046010  -0.000148   0.000006
    11  H   -0.000134  -0.047225   0.000557   0.429478  -0.000020   0.000121
    12  O   -0.001389  -0.107902  -0.001914  -0.109527   0.002421   0.003618
    13  C    0.002825   0.223073   0.000049   0.032772   0.001733   0.000376
    14  C   -0.000169   0.033253   0.003470   0.211513   0.001051  -0.000671
    15  O   -0.000531  -0.077117   0.000036   0.004213  -0.004132   0.000059
    16  O    0.000017   0.004410  -0.000078  -0.077770   0.000065  -0.003072
    17  C    0.391432  -0.001208   0.000038   0.000471  -0.058828   0.008151
    18  H   -0.019227   0.000085   0.000023  -0.000012  -0.009799  -0.000061
    19  H   -0.017662  -0.003187   0.000037   0.000247  -0.014961   0.000298
    20  H   -0.018039  -0.000056   0.000026  -0.000001   0.009300  -0.000376
    21  H   -0.064117   0.000494   0.010781  -0.000188   0.422320  -0.039267
    22  H    0.011452  -0.000107  -0.052027   0.000371  -0.046298   0.420177
               7          8          9         10         11         12
     1  C   -0.000275   0.011311   0.389571   0.000765  -0.000134  -0.001389
     2  C    0.000252  -0.002685   0.003354   0.429565  -0.047225  -0.107902
     3  C    0.392596   0.377633   0.010019  -0.000141   0.000557  -0.001914
     4  C   -0.001118   0.005967  -0.001580  -0.046010   0.429478  -0.109527
     5  C    0.009876  -0.030928  -0.013384  -0.000148  -0.000020   0.002421
     6  C   -0.015307  -0.001450  -0.025124   0.000006   0.000121   0.003618
     7  H    0.599603  -0.041214  -0.000082  -0.000000   0.000128   0.000009
     8  H   -0.041214   0.628020   0.001969  -0.000038   0.000210   0.000024
     9  H   -0.000082   0.001969   0.639346  -0.000068  -0.000051   0.000006
    10  H   -0.000000  -0.000038  -0.000068   0.567091  -0.005320   0.002825
    11  H    0.000128   0.000210  -0.000051  -0.005320   0.564869   0.002950
    12  O    0.000009   0.000024   0.000006   0.002825   0.002950   8.021021
    13  C   -0.000028   0.000328  -0.001171  -0.033851   0.009194   0.306141
    14  C    0.000972  -0.002062   0.000186   0.009039  -0.033516   0.299647
    15  O    0.000000  -0.000001   0.000011   0.001417  -0.000045  -0.063310
    16  O    0.000441  -0.000003   0.000001  -0.000046   0.001819  -0.065823
    17  C   -0.000005   0.000053  -0.044327  -0.000169  -0.000001   0.000009
    18  H    0.000001   0.000005   0.003832  -0.000002  -0.000000   0.000000
    19  H   -0.000000  -0.000001   0.003944   0.000331   0.000000   0.000147
    20  H   -0.000000   0.000009  -0.010404   0.000235   0.000000  -0.000000
    21  H   -0.000190  -0.000066   0.007903  -0.000041   0.000002  -0.000587
    22  H   -0.013549   0.007685  -0.000073   0.000003  -0.000025  -0.000180
              13         14         15         16         17         18
     1  C    0.002825  -0.000169  -0.000531   0.000017   0.391432  -0.019227
     2  C    0.223073   0.033253  -0.077117   0.004410  -0.001208   0.000085
     3  C    0.000049   0.003470   0.000036  -0.000078   0.000038   0.000023
     4  C    0.032772   0.211513   0.004213  -0.077770   0.000471  -0.000012
     5  C    0.001733   0.001051  -0.004132   0.000065  -0.058828  -0.009799
     6  C    0.000376  -0.000671   0.000059  -0.003072   0.008151  -0.000061
     7  H   -0.000028   0.000972   0.000000   0.000441  -0.000005   0.000001
     8  H    0.000328  -0.002062  -0.000001  -0.000003   0.000053   0.000005
     9  H   -0.001171   0.000186   0.000011   0.000001  -0.044327   0.003832
    10  H   -0.033851   0.009039   0.001417  -0.000046  -0.000169  -0.000002
    11  H    0.009194  -0.033516  -0.000045   0.001819  -0.000001  -0.000000
    12  O    0.306141   0.299647  -0.063310  -0.065823   0.000009   0.000000
    13  C    4.514760  -0.082980   0.730043   0.000420  -0.000577   0.000016
    14  C   -0.082980   4.506652   0.000720   0.758834  -0.000042   0.000001
    15  O    0.730043   0.000720   7.573385  -0.000013  -0.005244   0.000027
    16  O    0.000420   0.758834  -0.000013   7.551434  -0.000000   0.000000
    17  C   -0.000577  -0.000042  -0.005244  -0.000000   4.570959   0.395688
    18  H    0.000016   0.000001   0.000027   0.000000   0.395688   0.598973
    19  H    0.000418   0.000009   0.017653   0.000000   0.390667  -0.015333
    20  H    0.000039   0.000000   0.000009  -0.000000   0.388461  -0.020880
    21  H    0.001722  -0.000037   0.000784   0.000004  -0.008926   0.001820
    22  H   -0.000029   0.000359  -0.000002   0.000302  -0.000201   0.000005
              19         20         21         22
     1  C   -0.017662  -0.018039  -0.064117   0.011452
     2  C   -0.003187  -0.000056   0.000494  -0.000107
     3  C    0.000037   0.000026   0.010781  -0.052027
     4  C    0.000247  -0.000001  -0.000188   0.000371
     5  C   -0.014961   0.009300   0.422320  -0.046298
     6  C    0.000298  -0.000376  -0.039267   0.420177
     7  H   -0.000000  -0.000000  -0.000190  -0.013549
     8  H   -0.000001   0.000009  -0.000066   0.007685
     9  H    0.003944  -0.010404   0.007903  -0.000073
    10  H    0.000331   0.000235  -0.000041   0.000003
    11  H    0.000000   0.000000   0.000002  -0.000025
    12  O    0.000147  -0.000000  -0.000587  -0.000180
    13  C    0.000418   0.000039   0.001722  -0.000029
    14  C    0.000009   0.000000  -0.000037   0.000359
    15  O    0.017653   0.000009   0.000784  -0.000002
    16  O    0.000000  -0.000000   0.000004   0.000302
    17  C    0.390667   0.388461  -0.008926  -0.000201
    18  H   -0.015333  -0.020880   0.001820   0.000005
    19  H    0.590629  -0.020285   0.002158  -0.000001
    20  H   -0.020285   0.629230   0.000080   0.000006
    21  H    0.002158   0.000080   0.639397  -0.010669
    22  H   -0.000001   0.000006  -0.010669   0.635005
 Mulliken charges:
               1
     1  C   -0.133935
     2  C   -0.066378
     3  C   -0.077062
     4  C   -0.080365
     5  C   -0.054543
     6  C   -0.070339
     7  H    0.067890
     8  H    0.045235
     9  H    0.036122
    10  H    0.074556
    11  H    0.077009
    12  O   -0.288183
    13  C    0.294727
    14  C    0.293771
    15  O   -0.177961
    16  O   -0.170941
    17  C   -0.026400
    18  H    0.064838
    19  H    0.064892
    20  H    0.042646
    21  H    0.036624
    22  H    0.047797
 Sum of Mulliken charges =  -0.00000
 Mulliken charges with hydrogens summed into heavy atoms:
               1
     1  C   -0.097813
     2  C    0.008177
     3  C    0.036064
     4  C   -0.003356
     5  C   -0.017918
     6  C   -0.022543
    12  O   -0.288183
    13  C    0.294727
    14  C    0.293771
    15  O   -0.177961
    16  O   -0.170941
    17  C    0.145977
 APT charges:
               1
     1  C    0.042755
     2  C   -0.100048
     3  C   -0.212100
     4  C   -0.104697
     5  C   -0.142844
     6  C    0.079565
     7  H    0.057103
     8  H    0.049258
     9  H    0.031169
    10  H    0.109779
    11  H    0.109573
    12  O   -0.924179
    13  C    1.270218
    14  C    1.267421
    15  O   -0.805051
    16  O   -0.799685
    17  C   -0.006411
    18  H   -0.009402
    19  H    0.025961
    20  H   -0.006749
    21  H    0.037002
    22  H    0.031362
 Sum of APT charges =  -0.00000
 APT charges with hydrogens summed into heavy atoms:
               1
     1  C    0.073924
     2  C    0.009731
     3  C   -0.105740
     4  C    0.004876
     5  C   -0.105842
     6  C    0.110927
    12  O   -0.924179
    13  C    1.270218
    14  C    1.267421
    15  O   -0.805051
    16  O   -0.799685
    17  C    0.003399
 Electronic spatial extent (au):  <R**2>=           1976.9802
 Charge=             -0.0000 electrons
 Dipole moment (field-independent basis, Debye):
    X=             -1.8594    Y=              1.0025    Z=              4.0815  Tot=              4.5957
 Quadrupole moment (field-independent basis, Debye-Ang):
   XX=            -75.5114   YY=            -75.0175   ZZ=            -64.6438
   XY=             -0.9656   XZ=              3.5226   YZ=             -3.3632
 Traceless Quadrupole moment (field-independent basis, Debye-Ang):
   XX=             -3.7872   YY=             -3.2933   ZZ=              7.0804
   XY=             -0.9656   XZ=              3.5226   YZ=             -3.3632
 Octapole moment (field-independent basis, Debye-Ang**2):
  XXX=            -27.3249  YYY=              0.4115  ZZZ=              3.7507  XYY=             18.2172
  XXY=            -13.4465  XXZ=             10.6427  XZZ=              1.7100  YZZ=              1.6607
  YYZ=              7.0705  XYZ=              1.7260
 Hexadecapole moment (field-independent basis, Debye-Ang**3):
 XXXX=          -1417.3845 YYYY=           -934.6200 ZZZZ=           -304.7823 XXXY=             -3.9280
 XXXZ=             19.2346 YYYX=             22.5839 YYYZ=             -3.9558 ZZZX=             -0.2591
 ZZZY=              1.4488 XXYY=           -382.7051 XXZZ=           -269.2268 YYZZ=           -199.6076
 XXYZ=              7.7509 YYXZ=            -10.3370 ZZXY=              9.8890
 N-N= 6.883073642796D+02 E-N=-2.713720910616D+03  KE= 5.684969092704D+02
  Exact polarizability:     134.684      35.962     110.200      -0.679       3.701      99.536
 Approx polarizability:     132.070      41.240     110.956      -1.493       6.132     107.664
   1 Symmetry operations used in ECPInt.
 ECPInt:  NShTT=    5253 NPrTT=   19101 LenC2=    5151 LenP2D=   14297.
 LDataN:  DoStor=T MaxTD1= 6 Len=  172
 D2PCM: PCM CHGder 2nd derivatives, FixD1E=F FixD2E=F DoIter=F DoCFld=F I1PDM=0
 Calling FoFJK, ICntrl=    100127 FMM=F ISym2X=0 I1Cent= 0 IOpClX= 0 NMat=1 NMatS=1 NMatT=0.
 Full mass-weighted force constant matrix:
 Low frequencies --- -179.4077   -7.5073    0.0011    0.0011    0.0012    5.9560
 Low frequencies ---   11.9022   34.9682   69.5393
 ******    1 imaginary frequencies (negative Signs) ****** 
 Diagonal vibrational polarizability:
       62.2763912      56.6532104       9.3781586
 Harmonic frequencies (cm**-1), IR intensities (KM/Mole), Raman scattering
 activities (A**4/AMU), depolarization ratios for plane and unpolarized
 incident light, reduced masses (AMU), force constants (mDyne/A),
 and normal coordinates:
                      1                      2                      3
                      A                      A                      A
 Frequencies --   -179.4029                33.4309                69.5012
 Red. masses --      1.0989                 5.1199                 3.1362
 Frc consts  --      0.0208                 0.0034                 0.0089
 IR Inten    --      0.9379                 1.2692                 0.0903
  Atom  AN      X      Y      Z        X      Y      Z        X      Y      Z
     1   6     0.04  -0.04   0.02    -0.02   0.02   0.10     0.19  -0.07   0.04
     2   6     0.00  -0.00  -0.00    -0.07  -0.03  -0.07    -0.07  -0.07  -0.01
     3   6     0.01  -0.00   0.00     0.05  -0.05  -0.22     0.06   0.07  -0.06
     4   6    -0.00   0.00  -0.00    -0.06  -0.05   0.05    -0.12   0.00   0.01
     5   6    -0.05   0.05  -0.01    -0.10  -0.06   0.01     0.02   0.08  -0.02
     6   6     0.01  -0.01   0.00    -0.06  -0.10  -0.14     0.10  -0.01  -0.03
     7   1     0.05  -0.05   0.00     0.07  -0.08  -0.32     0.15  -0.03  -0.08
     8   1    -0.04   0.06  -0.00     0.11   0.03  -0.17    -0.06   0.26  -0.07
     9   1     0.18  -0.20   0.07     0.07   0.09   0.05     0.40  -0.29   0.12
    10   1     0.01  -0.01   0.00    -0.13  -0.05  -0.13    -0.05  -0.12  -0.01
    11   1    -0.00   0.00  -0.00    -0.11  -0.10   0.10    -0.16   0.02   0.02
    12   8    -0.00   0.00  -0.00     0.09   0.06   0.00    -0.05   0.00   0.00
    13   6    -0.00   0.00  -0.00     0.02   0.05  -0.11    -0.02  -0.06  -0.01
    14   6    -0.00   0.00  -0.00     0.04   0.00   0.10    -0.11   0.05   0.02
    15   8    -0.00  -0.00   0.00     0.03   0.10  -0.20     0.03  -0.11  -0.02
    16   8    -0.00   0.00  -0.00     0.09  -0.01   0.20    -0.14   0.11   0.03
    17   6    -0.00  -0.00  -0.00    -0.04   0.03   0.26     0.11   0.01   0.04
    18   1     0.28  -0.22  -0.41    -0.09  -0.02   0.29    -0.01   0.20   0.25
    19   1     0.08  -0.15   0.49    -0.07  -0.00   0.30    -0.02   0.05  -0.22
    20   1    -0.36   0.36  -0.11     0.03   0.11   0.30     0.28  -0.15   0.09
    21   1    -0.17   0.18  -0.05    -0.18  -0.13   0.06    -0.16   0.25  -0.07
    22   1     0.04  -0.05   0.01    -0.13  -0.17  -0.19     0.20  -0.15  -0.02
                      4                      5                      6
                      A                      A                      A
 Frequencies --     89.4697                97.0295               106.0453
 Red. masses --      4.8593                 2.2301                 4.4600
 Frc consts  --      0.0229                 0.0124                 0.0296
 IR Inten    --      5.3458                 3.0682                 5.2145
  Atom  AN      X      Y      Z        X      Y      Z        X      Y      Z
     1   6    -0.06   0.00  -0.04    -0.04   0.14  -0.03     0.10  -0.09  -0.05
     2   6     0.14  -0.12   0.09     0.01  -0.11   0.01     0.03  -0.04   0.08
     3   6     0.12  -0.20  -0.03     0.01   0.06  -0.02     0.04  -0.01  -0.07
     4   6     0.12  -0.09   0.07    -0.01  -0.08   0.02     0.08  -0.10   0.08
     5   6    -0.00  -0.08  -0.03     0.10  -0.04   0.01     0.02   0.01  -0.07
     6   6     0.10  -0.20  -0.03    -0.01   0.08  -0.02    -0.06   0.10  -0.08
     7   1     0.21  -0.31  -0.03    -0.10   0.19  -0.04    -0.04   0.08  -0.08
     8   1     0.05  -0.10  -0.04     0.14  -0.09  -0.01     0.21  -0.21  -0.04
     9   1    -0.03  -0.01  -0.04    -0.26   0.41  -0.13     0.08  -0.08  -0.05
    10   1     0.23  -0.23   0.13     0.02  -0.15   0.00     0.08  -0.08   0.10
    11   1     0.19  -0.17   0.09    -0.02  -0.10   0.03     0.18  -0.21   0.11
    12   8    -0.08   0.15   0.00    -0.02  -0.01  -0.00    -0.14   0.13   0.01
    13   6     0.01   0.03   0.04     0.01  -0.07  -0.01    -0.10   0.10   0.04
    14   6    -0.03   0.09   0.01    -0.05   0.00   0.01    -0.02  -0.01   0.04
    15   8    -0.01   0.06   0.03     0.03  -0.08  -0.02    -0.16   0.16   0.02
    16   8    -0.10   0.18  -0.03    -0.09   0.08   0.01     0.00  -0.05   0.03
    17   6    -0.16   0.11  -0.07     0.06   0.02   0.06     0.21  -0.20  -0.02
    18   1    -0.13   0.20  -0.07     0.16  -0.22  -0.15     0.16  -0.28  -0.00
    19   1    -0.25   0.08  -0.09     0.19  -0.03   0.36     0.29  -0.15  -0.04
    20   1    -0.19   0.13  -0.08    -0.09   0.23   0.02     0.25  -0.25  -0.01
    21   1    -0.03  -0.08  -0.03     0.29  -0.27   0.08     0.03   0.02  -0.08
    22   1     0.18  -0.30  -0.02    -0.11   0.19  -0.04    -0.22   0.29  -0.11
                      7                      8                      9
                      A                      A                      A
 Frequencies --    118.0985               124.8267               186.3659
 Red. masses --      4.0413                 2.6645                14.4067
 Frc consts  --      0.0332                 0.0245                 0.2948
 IR Inten    --      6.3751                 1.9831                 7.4328
  Atom  AN      X      Y      Z        X      Y      Z        X      Y      Z
     1   6     0.02  -0.02   0.01     0.02  -0.03   0.01    -0.03   0.04   0.00
     2   6    -0.14   0.17  -0.06     0.03  -0.03   0.01    -0.03   0.02  -0.02
     3   6     0.10  -0.15   0.08    -0.17   0.22  -0.02    -0.02   0.03   0.00
     4   6    -0.13   0.15  -0.06     0.04  -0.05   0.01    -0.05   0.05  -0.02
     5   6     0.16  -0.16   0.05     0.09  -0.10   0.04     0.02  -0.02   0.01
     6   6     0.13  -0.14   0.06     0.10  -0.10   0.03     0.02  -0.02   0.01
     7   1     0.10  -0.14   0.11    -0.15   0.19  -0.03    -0.03   0.04  -0.00
     8   1     0.08  -0.16   0.07    -0.42   0.53  -0.05    -0.05   0.07  -0.00
     9   1    -0.14   0.17  -0.06    -0.00  -0.00   0.00    -0.08   0.10  -0.02
    10   1    -0.18   0.22  -0.08     0.04  -0.04   0.01     0.09  -0.14   0.02
    11   1    -0.16   0.19  -0.07     0.07  -0.08   0.02     0.05  -0.09   0.02
    12   8    -0.03   0.02  -0.02    -0.02   0.02  -0.01    -0.39   0.51  -0.16
    13   6    -0.07   0.08  -0.03    -0.02   0.02  -0.01    -0.04   0.06  -0.03
    14   6    -0.06   0.06  -0.03     0.01  -0.02  -0.00    -0.07   0.08  -0.03
    15   8    -0.05   0.05  -0.02    -0.07   0.08  -0.03     0.32  -0.37   0.10
    16   8    -0.03   0.03  -0.02     0.02  -0.03  -0.01     0.24  -0.35   0.10
    17   6     0.09  -0.09   0.04    -0.00   0.00   0.00    -0.03   0.04   0.01
    18   1     0.15  -0.24  -0.09     0.04  -0.00  -0.04    -0.01   0.02  -0.02
    19   1     0.18  -0.12   0.22    -0.02  -0.02   0.06    -0.04   0.02   0.05
    20   1    -0.01   0.03   0.02    -0.05   0.05  -0.01    -0.06   0.08   0.00
    21   1     0.31  -0.32   0.10     0.15  -0.17   0.06     0.07  -0.07   0.03
    22   1     0.16  -0.14   0.07     0.33  -0.38   0.07     0.04  -0.05   0.01
                     10                     11                     12
                      A                      A                      A
 Frequencies --    220.7586               264.9345               288.7368
 Red. masses --      2.8036                 2.1817                 4.0309
 Frc consts  --      0.0805                 0.0902                 0.1980
 IR Inten    --      0.0380                10.1839                 0.1724
  Atom  AN      X      Y      Z        X      Y      Z        X      Y      Z
     1   6    -0.08  -0.03   0.14    -0.14   0.14  -0.03     0.01  -0.00   0.00
     2   6    -0.01   0.01  -0.00     0.02  -0.03   0.01     0.19  -0.24   0.08
     3   6     0.18   0.12  -0.13     0.02  -0.01   0.01     0.01  -0.01   0.00
     4   6    -0.01   0.00  -0.00    -0.00   0.00  -0.00    -0.18   0.24  -0.08
     5   6    -0.01  -0.01   0.20    -0.12   0.14  -0.02     0.02  -0.02   0.01
     6   6    -0.02   0.00   0.03     0.06  -0.06   0.01    -0.01   0.02   0.00
     7   1     0.17   0.10  -0.36     0.25  -0.27   0.04    -0.03   0.04  -0.00
     8   1     0.36   0.23  -0.04    -0.23   0.28  -0.03     0.05  -0.05   0.01
     9   1    -0.24  -0.07   0.18    -0.19   0.16  -0.03    -0.01   0.01  -0.00
    10   1    -0.02   0.01  -0.01     0.03  -0.04   0.02     0.36  -0.45   0.15
    11   1    -0.01   0.00  -0.00    -0.01   0.02  -0.01    -0.34   0.47  -0.15
    12   8    -0.00  -0.00  -0.00     0.00  -0.00   0.00    -0.00  -0.01   0.00
    13   6    -0.00  -0.00  -0.00     0.01  -0.01   0.01     0.07  -0.10   0.03
    14   6    -0.01   0.00   0.00    -0.00  -0.00  -0.00    -0.07   0.09  -0.03
    15   8     0.00  -0.01  -0.00     0.00   0.00  -0.00    -0.08   0.10  -0.04
    16   8    -0.01   0.00   0.00     0.00  -0.01  -0.00     0.06  -0.10   0.03
    17   6    -0.04  -0.07  -0.16     0.10  -0.10   0.01    -0.00   0.01  -0.01
    18   1     0.08  -0.01  -0.26    -0.02  -0.33   0.05     0.01   0.03  -0.02
    19   1     0.07  -0.00  -0.22     0.34   0.01   0.01    -0.02   0.01  -0.00
    20   1    -0.21  -0.23  -0.27     0.19  -0.23   0.04    -0.02   0.02  -0.01
    21   1     0.01  -0.07   0.22    -0.08   0.10  -0.00     0.04  -0.04   0.01
    22   1    -0.17  -0.08  -0.06     0.32  -0.35   0.06    -0.06   0.07  -0.01
                     13                     14                     15
                      A                      A                      A
 Frequencies --    387.4420               417.5869               582.2669
 Red. masses --      2.9004                12.7223                 4.5113
 Frc consts  --      0.2565                 1.3071                 0.9011
 IR Inten    --      1.3587                13.3178                 1.5408
  Atom  AN      X      Y      Z        X      Y      Z        X      Y      Z
     1   6     0.08   0.12   0.19    -0.00   0.01   0.01    -0.00  -0.00   0.00
     2   6    -0.00  -0.00   0.00     0.07  -0.03  -0.22     0.09   0.13   0.16
     3   6    -0.16  -0.13  -0.03    -0.01  -0.00   0.00    -0.00  -0.00  -0.00
     4   6     0.00  -0.00   0.00     0.03  -0.05  -0.23     0.16   0.07  -0.15
     5   6    -0.02  -0.01   0.09     0.00  -0.00   0.01     0.00   0.01   0.01
     6   6    -0.04  -0.05  -0.11     0.00  -0.01  -0.00     0.01   0.01  -0.01
     7   1    -0.18  -0.09   0.18    -0.00  -0.00   0.01     0.01  -0.02   0.03
     8   1    -0.29  -0.27  -0.11    -0.01  -0.01  -0.00    -0.02  -0.01  -0.01
     9   1     0.02   0.11   0.20    -0.01   0.00   0.01    -0.02   0.00   0.00
    10   1     0.00  -0.00   0.00     0.05  -0.10  -0.28     0.25   0.36   0.40
    11   1     0.00  -0.01   0.00     0.11  -0.05  -0.27     0.43   0.21  -0.37
    12   8    -0.00  -0.00   0.00     0.05  -0.04  -0.34    -0.11  -0.08  -0.01
    13   6     0.00  -0.00   0.00     0.01  -0.02  -0.13    -0.12  -0.06   0.11
    14   6    -0.00  -0.00   0.00     0.03  -0.01  -0.13    -0.07  -0.10  -0.12
    15   8     0.00  -0.00  -0.00    -0.28  -0.09   0.44     0.06  -0.03  -0.21
    16   8    -0.00  -0.00  -0.01     0.12   0.22   0.46    -0.03   0.05   0.21
    17   6     0.16   0.10  -0.11     0.01  -0.00  -0.01    -0.01  -0.00   0.00
    18   1     0.30   0.21  -0.23     0.01  -0.01  -0.01    -0.00  -0.00   0.00
    19   1     0.28   0.20  -0.22     0.03   0.01  -0.01    -0.02  -0.01   0.00
    20   1    -0.05  -0.12  -0.25     0.01  -0.02  -0.01    -0.01   0.00   0.00
    21   1    -0.18  -0.15   0.18    -0.01  -0.01   0.01     0.01  -0.00   0.01
    22   1    -0.04  -0.06  -0.11     0.01  -0.01  -0.00     0.01  -0.00  -0.01
                     16                     17                     18
                      A                      A                      A
 Frequencies --    602.3610               643.7334               651.1123
 Red. masses --      2.4869                 1.4579                 7.3064
 Frc consts  --      0.5316                 0.3560                 1.8250
 IR Inten    --      3.7550                 4.8242                 0.1966
  Atom  AN      X      Y      Z        X      Y      Z        X      Y      Z
     1   6     0.03   0.06  -0.03    -0.06   0.05  -0.01    -0.01   0.01  -0.00
     2   6    -0.00   0.01   0.00     0.00   0.00   0.00    -0.01  -0.02  -0.03
     3   6     0.02   0.03   0.03    -0.01   0.02  -0.01    -0.00   0.00  -0.00
     4   6     0.00  -0.00  -0.00    -0.00   0.00   0.00     0.03   0.01  -0.02
     5   6    -0.08  -0.10  -0.12    -0.00   0.02   0.01    -0.00   0.01   0.00
     6   6    -0.14  -0.14   0.18     0.14  -0.11  -0.00     0.02  -0.03   0.00
     7   1    -0.08   0.08  -0.49    -0.46   0.55   0.01    -0.11   0.13  -0.01
     8   1     0.43   0.29   0.24     0.19  -0.33   0.00     0.04  -0.06   0.00
     9   1     0.23   0.09  -0.09     0.13  -0.18   0.08     0.02  -0.03   0.01
    10   1     0.01   0.01   0.01     0.01  -0.03   0.00    -0.08   0.47   0.11
    11   1     0.02  -0.00  -0.01     0.02  -0.01  -0.00    -0.44   0.19   0.08
    12   8    -0.00  -0.00  -0.00     0.00  -0.01  -0.00    -0.10   0.10   0.17
    13   6    -0.00   0.00   0.00     0.00   0.02  -0.00    -0.16  -0.27   0.02
    14   6    -0.00  -0.00  -0.01    -0.02   0.00  -0.00     0.30   0.09   0.06
    15   8     0.00  -0.00  -0.01     0.01   0.01   0.00    -0.24  -0.20  -0.12
    16   8    -0.00   0.00   0.01    -0.01  -0.01   0.00     0.25   0.19  -0.08
    17   6     0.12   0.10  -0.03    -0.02  -0.02   0.00     0.00  -0.00  -0.00
    18   1     0.14   0.08  -0.06    -0.09  -0.15   0.03    -0.01  -0.04   0.00
    19   1     0.20   0.15  -0.07     0.11   0.04   0.01     0.02   0.00   0.00
    20   1     0.09   0.01  -0.06     0.06  -0.09   0.03     0.01  -0.02   0.00
    21   1    -0.11   0.00  -0.15    -0.24   0.25  -0.05    -0.05   0.05  -0.01
    22   1    -0.16  -0.02   0.20    -0.14   0.19  -0.06    -0.04   0.04  -0.01
                     19                     20                     21
                      A                      A                      A
 Frequencies --    661.8585               716.3224               773.8039
 Red. masses --      2.4423                 8.6937                 7.9413
 Frc consts  --      0.6304                 2.6283                 2.8016
 IR Inten    --     10.4844                33.2922                 0.1709
  Atom  AN      X      Y      Z        X      Y      Z        X      Y      Z
     1   6    -0.00  -0.00   0.00    -0.00   0.00  -0.00     0.01  -0.01   0.00
     2   6    -0.01   0.01  -0.01     0.30   0.19  -0.22    -0.14   0.14  -0.03
     3   6    -0.00   0.00   0.00     0.00  -0.00   0.00    -0.00   0.00   0.00
     4   6    -0.00   0.02  -0.01     0.24   0.23   0.25     0.10  -0.17   0.03
     5   6     0.00  -0.00   0.00    -0.00   0.00  -0.00    -0.01   0.01  -0.00
     6   6    -0.01   0.01  -0.00    -0.00  -0.00   0.00     0.01  -0.01  -0.00
     7   1     0.02  -0.03   0.00     0.00  -0.01  -0.00    -0.01   0.01   0.01
     8   1    -0.01   0.02  -0.00     0.00   0.00   0.00     0.00  -0.01   0.00
     9   1    -0.02   0.01  -0.00    -0.00   0.00  -0.00    -0.02   0.02  -0.01
    10   1     0.43  -0.46   0.20     0.25   0.18  -0.27    -0.28   0.34  -0.08
    11   1     0.35  -0.54   0.19     0.21   0.19   0.30     0.24  -0.34   0.07
    12   8     0.07  -0.10   0.07    -0.05  -0.04  -0.01    -0.00  -0.00  -0.00
    13   6    -0.17   0.11  -0.04     0.06  -0.10  -0.30     0.31  -0.37   0.15
    14   6    -0.07   0.19  -0.04    -0.11   0.06   0.30    -0.28   0.39  -0.14
    15   8    -0.01  -0.08  -0.01    -0.16  -0.14  -0.06    -0.07   0.11  -0.03
    16   8     0.08  -0.01  -0.00    -0.18  -0.13   0.04     0.08  -0.09   0.03
    17   6    -0.00  -0.00   0.00    -0.00   0.00  -0.00    -0.00  -0.00   0.00
    18   1     0.00   0.00  -0.00    -0.00  -0.00  -0.00     0.00   0.02   0.00
    19   1    -0.00  -0.00   0.00     0.01   0.01   0.00    -0.01  -0.00  -0.00
    20   1    -0.00   0.00  -0.00     0.00  -0.00   0.00    -0.01   0.00  -0.00
    21   1     0.01  -0.01   0.00    -0.00   0.00  -0.00     0.02  -0.02   0.01
    22   1     0.01  -0.01   0.00     0.00  -0.00   0.00     0.01  -0.01  -0.00
                     22                     23                     24
                      A                      A                      A
 Frequencies --    837.5680               858.3955               908.1296
 Red. masses --      1.5987                 2.0184                 9.1015
 Frc consts  --      0.6608                 0.8763                 4.4224
 IR Inten    --      6.4744               108.9448                 7.0320
  Atom  AN      X      Y      Z        X      Y      Z        X      Y      Z
     1   6     0.07  -0.08   0.03     0.01  -0.01   0.00    -0.00  -0.00   0.00
     2   6    -0.00   0.00  -0.00     0.07  -0.09   0.04     0.10  -0.07  -0.42
     3   6     0.01  -0.00   0.01     0.00   0.00   0.00     0.00   0.00   0.00
     4   6    -0.01   0.01  -0.00     0.07  -0.10   0.04     0.08  -0.09  -0.42
     5   6    -0.12   0.13  -0.04    -0.01   0.01  -0.00    -0.01  -0.00  -0.01
     6   6     0.05  -0.06   0.01     0.01  -0.00   0.00     0.00   0.00  -0.00
     7   1    -0.22   0.26  -0.06    -0.00   0.00   0.00     0.00   0.00   0.01
     8   1     0.10  -0.07   0.02     0.00  -0.01   0.00     0.01  -0.01   0.00
     9   1    -0.43   0.45  -0.15    -0.03   0.04  -0.01     0.00   0.01  -0.00
    10   1     0.03  -0.05   0.01    -0.40   0.52  -0.14     0.12   0.08  -0.39
    11   1     0.02  -0.02   0.01    -0.39   0.52  -0.15    -0.06  -0.06  -0.42
    12   8    -0.00   0.00  -0.00     0.04  -0.04   0.00    -0.07   0.08   0.46
    13   6     0.00  -0.00  -0.00    -0.10   0.12  -0.04     0.02   0.06   0.07
    14   6     0.01  -0.01   0.01    -0.09   0.13  -0.04    -0.08  -0.02   0.06
    15   8    -0.00   0.00   0.00     0.02  -0.03   0.01     0.06   0.07   0.07
    16   8    -0.00   0.00  -0.00     0.02  -0.03   0.01    -0.10  -0.05   0.06
    17   6     0.03  -0.05   0.01     0.01  -0.00   0.00    -0.00  -0.00   0.00
    18   1     0.18   0.34   0.00     0.03   0.04  -0.00     0.01   0.01  -0.01
    19   1    -0.32  -0.17  -0.06    -0.03  -0.02  -0.01     0.01   0.01  -0.01
    20   1    -0.15   0.12  -0.04    -0.02   0.01  -0.01    -0.02  -0.02  -0.01
    21   1     0.18  -0.21   0.06     0.00  -0.02   0.00    -0.00  -0.01  -0.00
    22   1     0.05  -0.02   0.02     0.01   0.00   0.00     0.01   0.01   0.00
                     25                     26                     27
                      A                      A                      A
 Frequencies --    934.4251               950.4424               965.6439
 Red. masses --      1.7977                 1.3726                 6.1881
 Frc consts  --      0.9248                 0.7306                 3.3997
 IR Inten    --      2.8950                51.7730               137.4765
  Atom  AN      X      Y      Z        X      Y      Z        X      Y      Z
     1   6    -0.01  -0.04  -0.07    -0.00   0.01   0.01    -0.00   0.01   0.01
     2   6     0.00  -0.00  -0.00     0.00  -0.00  -0.01    -0.04   0.00   0.13
     3   6    -0.04  -0.07  -0.04     0.11  -0.12   0.02     0.02  -0.02   0.01
     4   6     0.00  -0.00  -0.00     0.00  -0.00   0.00     0.00  -0.02  -0.12
     5   6     0.07   0.10   0.13     0.00  -0.01  -0.01     0.01  -0.01  -0.00
     6   6    -0.06  -0.06   0.03    -0.03   0.05  -0.01    -0.01   0.01  -0.00
     7   1    -0.13   0.00  -0.24    -0.39   0.46  -0.05    -0.08   0.09  -0.03
     8   1    -0.04   0.07  -0.02    -0.49   0.58  -0.07    -0.08   0.11  -0.00
     9   1    -0.26  -0.19   0.04     0.05  -0.01   0.01    -0.01   0.04  -0.01
    10   1    -0.00   0.01  -0.00    -0.01  -0.01  -0.02     0.13   0.31   0.42
    11   1    -0.00   0.01  -0.01    -0.01  -0.00   0.01     0.39   0.08  -0.38
    12   8     0.00   0.00   0.00    -0.02  -0.01  -0.00     0.39   0.30   0.02
    13   6    -0.00   0.00  -0.00     0.00   0.01   0.00    -0.08  -0.09  -0.05
    14   6    -0.00   0.00  -0.00     0.00   0.00  -0.00    -0.10  -0.06   0.03
    15   8     0.00   0.00   0.00     0.01   0.00  -0.00    -0.13  -0.10   0.01
    16   8    -0.00  -0.00   0.00     0.00   0.00   0.00    -0.12  -0.10  -0.03
    17   6     0.08   0.05  -0.08    -0.01  -0.00   0.01     0.00  -0.01   0.01
    18   1    -0.20  -0.08   0.19     0.01  -0.01  -0.02     0.03   0.01  -0.01
    19   1    -0.16  -0.16   0.20     0.04   0.03  -0.02    -0.03  -0.01  -0.02
    20   1     0.44   0.50   0.18    -0.04  -0.06  -0.01    -0.04  -0.03  -0.02
    21   1     0.12   0.17   0.10     0.03  -0.04  -0.00    -0.06   0.06  -0.03
    22   1    -0.15  -0.15  -0.03    -0.01   0.04  -0.00     0.02   0.00   0.01
                     28                     29                     30
                      A                      A                      A
 Frequencies --    993.4980              1011.6991              1017.2031
 Red. masses --      1.3002                 1.1249                 1.8074
 Frc consts  --      0.7561                 0.6784                 1.1019
 IR Inten    --      1.0170                58.2722                 4.6755
  Atom  AN      X      Y      Z        X      Y      Z        X      Y      Z
     1   6    -0.00  -0.00   0.00    -0.00  -0.01  -0.00    -0.08  -0.07  -0.03
     2   6    -0.07   0.09  -0.02     0.00  -0.00  -0.00     0.00   0.00   0.00
     3   6     0.00  -0.00  -0.00     0.01   0.01  -0.00     0.11   0.09  -0.01
     4   6     0.07  -0.09   0.02     0.00   0.00   0.00    -0.00   0.00  -0.00
     5   6    -0.00  -0.00  -0.00     0.06  -0.07   0.02    -0.12  -0.09  -0.01
     6   6    -0.00   0.00   0.00    -0.01   0.00   0.00    -0.00  -0.00   0.04
     7   1     0.00   0.00   0.01     0.05  -0.04   0.06     0.12   0.17   0.64
     8   1    -0.01  -0.00  -0.00    -0.10   0.06  -0.03    -0.32  -0.25  -0.24
     9   1    -0.01   0.00  -0.00    -0.34   0.37  -0.13    -0.05  -0.15  -0.01
    10   1     0.41  -0.53   0.17    -0.01  -0.01  -0.02     0.01   0.02   0.02
    11   1    -0.37   0.56  -0.19     0.00  -0.01   0.01     0.00  -0.02   0.01
    12   8     0.00   0.00   0.00    -0.01  -0.00   0.00     0.00   0.00  -0.00
    13   6     0.00  -0.00  -0.01     0.00  -0.00   0.00     0.00  -0.00  -0.00
    14   6    -0.00   0.01   0.00     0.00   0.00  -0.00     0.00  -0.00   0.00
    15   8    -0.01  -0.00  -0.00     0.00   0.00  -0.00    -0.00  -0.00   0.00
    16   8     0.00  -0.00  -0.00     0.00   0.00   0.00    -0.00  -0.00  -0.00
    17   6    -0.00   0.00  -0.00     0.03  -0.02   0.01     0.10   0.08  -0.02
    18   1    -0.00  -0.01  -0.00     0.08   0.13   0.01     0.06   0.12   0.05
    19   1     0.01   0.01   0.00    -0.09  -0.05  -0.04     0.03   0.03   0.04
    20   1     0.01  -0.00   0.00    -0.06   0.04  -0.02     0.19   0.23   0.05
    21   1    -0.00   0.00  -0.00    -0.53   0.58  -0.19    -0.06  -0.17   0.02
    22   1     0.00  -0.00   0.00    -0.06   0.01  -0.02    -0.22  -0.14  -0.10
                     31                     32                     33
                      A                      A                      A
 Frequencies --   1044.2143              1055.0733              1064.1893
 Red. masses --      1.1513                 1.5184                 1.1184
 Frc consts  --      0.7396                 0.9958                 0.7463
 IR Inten    --     14.1719                 1.9920                19.1616
  Atom  AN      X      Y      Z        X      Y      Z        X      Y      Z
     1   6     0.01  -0.00   0.01    -0.10   0.11  -0.04    -0.00   0.00  -0.00
     2   6    -0.00   0.00   0.00     0.00   0.01  -0.01    -0.03  -0.02   0.03
     3   6    -0.02   0.01   0.00    -0.01  -0.01  -0.00     0.00   0.00   0.00
     4   6     0.00  -0.00   0.00     0.00   0.00   0.01     0.02   0.03   0.04
     5   6    -0.02   0.02  -0.01     0.03  -0.02   0.01    -0.00  -0.00  -0.00
     6   6     0.08  -0.08   0.01     0.00   0.00  -0.00    -0.00   0.00   0.00
     7   1     0.22  -0.26  -0.00     0.02  -0.05  -0.05     0.00   0.00   0.01
     8   1    -0.23   0.32  -0.02    -0.01   0.06   0.01     0.00  -0.01  -0.00
     9   1    -0.04   0.03  -0.00     0.29  -0.32   0.11     0.01  -0.01   0.00
    10   1    -0.00  -0.00  -0.00     0.01  -0.02  -0.01    -0.39  -0.41  -0.43
    11   1     0.01   0.00  -0.00    -0.03  -0.00   0.03     0.54   0.28  -0.36
    12   8     0.00   0.00   0.00     0.00   0.00   0.00    -0.01   0.01   0.04
    13   6    -0.00  -0.00   0.00    -0.00  -0.00   0.01     0.00  -0.00  -0.02
    14   6    -0.00  -0.00  -0.00    -0.00  -0.00  -0.01     0.00  -0.00  -0.02
    15   8    -0.00  -0.00  -0.00     0.00   0.00  -0.00    -0.02  -0.02  -0.01
    16   8    -0.00  -0.00  -0.00     0.00   0.00   0.00     0.02   0.01  -0.01
    17   6    -0.01   0.00  -0.01     0.09  -0.10   0.04     0.00  -0.00  -0.00
    18   1    -0.03  -0.03   0.01     0.28   0.52   0.08     0.00   0.00   0.00
    19   1     0.01  -0.00   0.02    -0.44  -0.26  -0.15    -0.01  -0.00  -0.00
    20   1     0.02   0.01   0.01    -0.24   0.20  -0.07     0.00   0.01   0.00
    21   1     0.04  -0.09   0.03     0.04  -0.01   0.01     0.01  -0.01   0.00
    22   1    -0.53   0.64  -0.09    -0.04   0.07  -0.00    -0.00  -0.01  -0.00
                     34                     35                     36
                      A                      A                      A
 Frequencies --   1079.3482              1092.7076              1140.5381
 Red. masses --      1.5177                 3.1473                 2.0483
 Frc consts  --      1.0418                 2.2141                 1.5699
 IR Inten    --      3.9104               107.7818                 2.7245
  Atom  AN      X      Y      Z        X      Y      Z        X      Y      Z
     1   6    -0.02  -0.04  -0.08    -0.01   0.01  -0.00     0.13   0.15   0.06
     2   6    -0.00  -0.00   0.00    -0.09  -0.04   0.12    -0.00  -0.00   0.00
     3   6    -0.01  -0.01  -0.06    -0.00  -0.00   0.01     0.04   0.03  -0.04
     4   6    -0.00  -0.00  -0.01    -0.05  -0.07  -0.14     0.00  -0.00  -0.00
     5   6     0.06   0.09   0.05     0.00  -0.01  -0.00     0.02   0.02  -0.03
     6   6    -0.05  -0.06   0.06     0.01   0.01  -0.01    -0.08  -0.06   0.08
     7   1     0.01  -0.01   0.09     0.01  -0.02  -0.02     0.05   0.06   0.31
     8   1    -0.18  -0.15  -0.16     0.01   0.03   0.02    -0.20  -0.16  -0.17
     9   1     0.12   0.04  -0.14     0.01  -0.03   0.02     0.39   0.32  -0.05
    10   1     0.00   0.01   0.02     0.16   0.32   0.50     0.01   0.00   0.01
    11   1     0.02   0.01  -0.02     0.42   0.11  -0.48     0.00   0.00  -0.01
    12   8    -0.00  -0.00  -0.00    -0.10  -0.08  -0.01    -0.00  -0.00  -0.00
    13   6     0.00   0.00  -0.01     0.14   0.05  -0.19    -0.00   0.00  -0.00
    14   6     0.00   0.00   0.01     0.06   0.11   0.22     0.00   0.00   0.00
    15   8    -0.00  -0.00   0.00     0.00   0.01   0.03     0.00   0.00   0.00
    16   8    -0.00  -0.00  -0.00     0.01  -0.00  -0.03    -0.00  -0.00  -0.00
    17   6    -0.02   0.02   0.10     0.01  -0.01  -0.00    -0.08  -0.11  -0.09
    18   1     0.25   0.10  -0.16     0.01   0.05   0.02    -0.30  -0.18   0.12
    19   1     0.20   0.22  -0.18    -0.03  -0.03   0.00    -0.27  -0.28   0.12
    20   1    -0.25  -0.30  -0.08    -0.00   0.04   0.00     0.03   0.07   0.01
    21   1     0.45   0.31  -0.12    -0.04  -0.01   0.01     0.09   0.04  -0.04
    22   1    -0.31  -0.20  -0.09     0.02   0.03   0.01    -0.28  -0.24  -0.05
                     37                     38                     39
                      A                      A                      A
 Frequencies --   1304.3807              1316.0790              1320.3944
 Red. masses --      1.3239                 6.8479                 1.3143
 Frc consts  --      1.3271                 6.9883                 1.3501
 IR Inten    --      4.1881               176.5531                 8.2397
  Atom  AN      X      Y      Z        X      Y      Z        X      Y      Z
     1   6    -0.04  -0.05  -0.05     0.02   0.01  -0.02    -0.06  -0.04   0.07
     2   6    -0.00   0.00   0.00     0.01  -0.03  -0.11     0.00  -0.00  -0.01
     3   6    -0.02  -0.01   0.06    -0.00   0.01   0.05    -0.01  -0.01  -0.06
     4   6    -0.00   0.00   0.00     0.05  -0.01  -0.13     0.00  -0.00  -0.01
     5   6    -0.03   0.00   0.09     0.02   0.01  -0.01    -0.06  -0.04   0.03
     6   6     0.04   0.03  -0.07     0.00  -0.00  -0.03     0.02   0.01   0.01
     7   1    -0.02  -0.00   0.03     0.01   0.01   0.05    -0.01  -0.02  -0.06
     8   1     0.19   0.18   0.19     0.11   0.09   0.11    -0.09  -0.09  -0.11
     9   1     0.56   0.41  -0.37    -0.10  -0.09   0.04     0.32   0.26  -0.13
    10   1     0.00  -0.00   0.01    -0.13  -0.19  -0.32    -0.02  -0.02  -0.03
    11   1    -0.01  -0.00   0.01     0.16   0.06  -0.24     0.01   0.00  -0.02
    12   8    -0.00   0.00   0.01     0.05  -0.04  -0.26     0.00  -0.00  -0.02
    13   6     0.01   0.00  -0.01    -0.21  -0.04   0.38    -0.02  -0.00   0.03
    14   6    -0.00  -0.00  -0.01     0.06   0.16   0.40     0.01   0.01   0.04
    15   8    -0.00  -0.00   0.00     0.05   0.02  -0.05     0.00   0.00  -0.00
    16   8     0.00   0.00   0.00    -0.04  -0.04  -0.05    -0.00  -0.00  -0.00
    17   6    -0.00  -0.01  -0.02     0.00   0.00   0.02     0.01  -0.01  -0.05
    18   1     0.02   0.08  -0.00     0.01  -0.06  -0.03    -0.04   0.11   0.06
    19   1     0.08   0.02   0.01    -0.04   0.01  -0.05     0.09  -0.02   0.10
    20   1     0.08   0.09   0.03    -0.05  -0.04  -0.01     0.13   0.15   0.04
    21   1    -0.12  -0.07   0.14    -0.15  -0.10   0.07     0.41   0.32  -0.22
    22   1    -0.22  -0.23  -0.26    -0.24  -0.23  -0.20     0.38   0.37   0.27
                     40                     41                     42
                      A                      A                      A
 Frequencies --   1337.6504              1356.8328              1397.9918
 Red. masses --      1.9910                 1.3151                 1.2674
 Frc consts  --      2.0989                 1.4265                 1.4594
 IR Inten    --      1.4321                 1.7153                 6.6760
  Atom  AN      X      Y      Z        X      Y      Z        X      Y      Z
     1   6     0.00   0.00  -0.00    -0.02   0.01   0.09     0.02   0.02   0.01
     2   6     0.02   0.07   0.19    -0.00   0.00   0.00    -0.00  -0.00  -0.00
     3   6     0.00  -0.00  -0.00    -0.01  -0.00   0.07     0.00   0.00   0.01
     4   6     0.09   0.01  -0.17    -0.00   0.00   0.00     0.00   0.00   0.00
     5   6     0.00   0.00  -0.00    -0.03  -0.04  -0.06     0.02   0.01  -0.03
     6   6    -0.00  -0.00   0.00     0.03   0.01  -0.07    -0.01  -0.01   0.01
     7   1     0.00  -0.00   0.00    -0.01   0.01   0.10     0.01   0.00  -0.01
     8   1    -0.00   0.00  -0.00     0.21   0.20   0.20    -0.01  -0.02  -0.00
     9   1    -0.01  -0.01   0.01    -0.18  -0.11   0.19    -0.12  -0.09   0.09
    10   1    -0.40  -0.41  -0.35     0.00   0.01   0.01    -0.00   0.00   0.00
    11   1    -0.52  -0.31   0.30    -0.01  -0.00   0.01     0.00   0.00  -0.00
    12   8    -0.00  -0.00   0.01    -0.00   0.00   0.01     0.00   0.00  -0.00
    13   6     0.04   0.01  -0.06     0.01   0.00  -0.01    -0.00   0.00   0.00
    14   6     0.01   0.02   0.05    -0.00  -0.00  -0.01     0.00  -0.00  -0.00
    15   8    -0.03  -0.02  -0.01    -0.00  -0.00   0.00    -0.00  -0.00  -0.00
    16   8    -0.03  -0.02   0.01     0.00   0.00   0.00    -0.00  -0.00   0.00
    17   6    -0.00  -0.00   0.00     0.02   0.01  -0.02    -0.10  -0.10  -0.02
    18   1    -0.00   0.00   0.00    -0.07   0.00   0.07     0.16   0.58  -0.01
    19   1     0.01   0.00  -0.01    -0.02  -0.04   0.08     0.59   0.16   0.14
    20   1    -0.01   0.01   0.00     0.01   0.02  -0.02     0.25   0.27   0.21
    21   1    -0.00  -0.01   0.00     0.50   0.35  -0.35    -0.05  -0.05   0.01
    22   1    -0.00  -0.00   0.00    -0.27  -0.28  -0.29    -0.05  -0.05  -0.02
                     43                     44                     45
                      A                      A                      A
 Frequencies --   1441.7867              1464.8143              1470.1275
 Red. masses --      1.2183                 1.0489                 1.0615
 Frc consts  --      1.4921                 1.3260                 1.3517
 IR Inten    --      5.4344                10.5269                11.6031
  Atom  AN      X      Y      Z        X      Y      Z        X      Y      Z
     1   6     0.01   0.00  -0.01    -0.01   0.02   0.01    -0.01  -0.00  -0.03
     2   6    -0.00  -0.00  -0.00     0.00   0.00   0.00     0.00   0.00   0.00
     3   6    -0.00  -0.01  -0.05     0.00   0.00   0.01    -0.00  -0.00  -0.01
     4   6     0.00   0.00   0.00     0.00  -0.00  -0.00     0.00   0.00  -0.00
     5   6     0.03   0.03   0.02    -0.01  -0.01  -0.00     0.01   0.01   0.01
     6   6    -0.07  -0.07  -0.05     0.01   0.01   0.00    -0.01  -0.01  -0.00
     7   1     0.00   0.09   0.69     0.00  -0.01  -0.08    -0.00   0.01   0.10
     8   1     0.40   0.37   0.19    -0.04  -0.04  -0.02     0.05   0.05   0.02
     9   1    -0.03  -0.02   0.00     0.02   0.01   0.02    -0.01  -0.02  -0.02
    10   1     0.00   0.00   0.00    -0.00  -0.00  -0.00    -0.00  -0.00  -0.01
    11   1     0.00   0.00   0.00    -0.00  -0.00   0.00    -0.00  -0.00  -0.00
    12   8     0.00   0.00   0.00    -0.00  -0.00   0.00     0.00  -0.00  -0.00
    13   6     0.00   0.00  -0.00     0.00  -0.00  -0.00    -0.00  -0.00   0.00
    14   6    -0.00  -0.00  -0.00    -0.00   0.00   0.00     0.00   0.00   0.00
    15   8    -0.00  -0.00   0.00     0.00   0.00   0.00     0.00   0.00  -0.00
    16   8    -0.00   0.00   0.00     0.00   0.00  -0.00    -0.00  -0.00  -0.00
    17   6    -0.01  -0.01   0.02    -0.05   0.02   0.01     0.01   0.04  -0.04
    18   1     0.08  -0.05  -0.11     0.40  -0.04  -0.50    -0.04   0.34   0.17
    19   1    -0.03   0.03  -0.11    -0.33  -0.13   0.02    -0.00  -0.23   0.65
    20   1     0.07   0.05   0.06     0.57  -0.24   0.25    -0.00  -0.58  -0.14
    21   1     0.01   0.02   0.03     0.03   0.03  -0.03    -0.04  -0.02   0.04
    22   1     0.21   0.21   0.15    -0.02  -0.02  -0.02     0.02   0.03   0.03
                     46                     47                     48
                      A                      A                      A
 Frequencies --   1694.4141              1712.1641              1739.1818
 Red. masses --      6.5879                 5.1436                 5.3229
 Frc consts  --     11.1440                 8.8841                 9.4861
 IR Inten    --     12.4404                16.9282                20.2855
  Atom  AN      X      Y      Z        X      Y      Z        X      Y      Z
     1   6    -0.05  -0.03   0.04     0.09   0.06  -0.07     0.27   0.17  -0.26
     2   6    -0.36  -0.30  -0.07    -0.10  -0.08  -0.02    -0.02  -0.02  -0.00
     3   6     0.05   0.05   0.08    -0.15  -0.16  -0.27     0.05   0.06   0.12
     4   6     0.39   0.28  -0.02     0.10   0.08  -0.01     0.02   0.02  -0.00
     5   6     0.06   0.04  -0.03    -0.13  -0.10   0.04    -0.26  -0.16   0.28
     6   6    -0.07  -0.07  -0.08     0.22   0.23   0.27    -0.03  -0.05  -0.15
     7   1     0.06   0.03  -0.11    -0.19  -0.11   0.34     0.07   0.05  -0.17
     8   1    -0.12  -0.11   0.00     0.38   0.32  -0.02    -0.12  -0.11   0.05
     9   1     0.08   0.05  -0.01    -0.16  -0.11   0.04    -0.29  -0.27  -0.02
    10   1    -0.11   0.07   0.44    -0.03   0.01   0.12    -0.01  -0.00   0.02
    11   1    -0.08   0.09   0.45    -0.01   0.02   0.12    -0.00   0.01   0.02
    12   8     0.00  -0.00  -0.01     0.00  -0.00  -0.00     0.00  -0.00  -0.00
    13   6     0.00  -0.01  -0.02    -0.01  -0.01  -0.01    -0.01  -0.00  -0.00
    14   6     0.01  -0.00  -0.02     0.00   0.00  -0.00     0.01   0.00  -0.00
    15   8     0.02   0.03   0.03     0.01   0.01   0.01     0.00   0.00   0.00
    16   8    -0.04  -0.02   0.03    -0.01  -0.01   0.01    -0.00  -0.00   0.00
    17   6     0.01   0.01  -0.00    -0.01  -0.01   0.01    -0.04  -0.04   0.02
    18   1    -0.00  -0.01   0.00     0.01   0.01  -0.01     0.00   0.04   0.00
    19   1    -0.02  -0.01   0.00     0.02   0.01  -0.01     0.06   0.02   0.01
    20   1     0.02   0.01  -0.00    -0.02  -0.02   0.00    -0.12  -0.11  -0.02
    21   1    -0.02  -0.02   0.01    -0.02  -0.01  -0.02     0.36   0.34  -0.01
    22   1     0.08   0.08   0.01    -0.27  -0.26  -0.03     0.24   0.20   0.01
                     49                     50                     51
                      A                      A                      A
 Frequencies --   1911.4672              1984.5643              3049.6593
 Red. masses --     12.8375                12.6707                 1.0385
 Frc consts  --     27.6353                29.4023                 5.6909
 IR Inten    --    851.3667               117.0474                20.2966
  Atom  AN      X      Y      Z        X      Y      Z        X      Y      Z
     1   6     0.00   0.00  -0.00    -0.01  -0.01   0.01     0.00   0.00  -0.00
     2   6    -0.03  -0.04  -0.04     0.03   0.04   0.03    -0.00  -0.00  -0.00
     3   6    -0.01  -0.00  -0.01     0.00   0.00   0.00    -0.00  -0.00   0.00
     4   6    -0.04  -0.02   0.03    -0.05  -0.03   0.03     0.00   0.00  -0.00
     5   6    -0.00  -0.00   0.00     0.01   0.00  -0.01     0.00   0.00  -0.00
     6   6     0.00   0.01   0.01    -0.00  -0.00  -0.00    -0.00  -0.00   0.00
     7   1     0.00  -0.01   0.00     0.01  -0.00  -0.00     0.00   0.00  -0.00
     8   1     0.01  -0.00  -0.00    -0.01   0.00  -0.00    -0.00  -0.00   0.00
     9   1    -0.00   0.00   0.00     0.00   0.01  -0.00     0.00   0.01   0.01
    10   1     0.07   0.08   0.07    -0.06  -0.08  -0.07     0.00   0.00  -0.00
    11   1     0.08   0.05  -0.05     0.11   0.05  -0.07    -0.00  -0.00   0.00
    12   8     0.00   0.00  -0.00    -0.01   0.01   0.03    -0.00  -0.00  -0.00
    13   6     0.36   0.40   0.31    -0.34  -0.35  -0.23     0.00   0.00   0.00
    14   6     0.42   0.23  -0.23     0.51   0.30  -0.22     0.00  -0.00   0.00
    15   8    -0.25  -0.27  -0.17     0.21   0.22   0.14    -0.00  -0.00  -0.00
    16   8    -0.29  -0.17   0.12    -0.32  -0.19   0.13    -0.00   0.00  -0.00
    17   6     0.00   0.00   0.00     0.00  -0.00  -0.00    -0.03  -0.04  -0.02
    18   1     0.00  -0.01  -0.01     0.00   0.01   0.00     0.44  -0.18   0.40
    19   1    -0.05  -0.03  -0.01     0.02   0.02   0.00    -0.25   0.54   0.20
    20   1     0.00  -0.01   0.00     0.00   0.01   0.00     0.19   0.07  -0.41
    21   1    -0.00   0.01  -0.00    -0.01  -0.01  -0.00    -0.00  -0.00  -0.00
    22   1     0.00  -0.01  -0.00     0.00   0.00   0.00     0.00  -0.00  -0.00
                     52                     53                     54
                      A                      A                      A
 Frequencies --   3135.0914              3160.2891              3163.8742
 Red. masses --      1.1026                 1.0963                 1.0624
 Frc consts  --      6.3852                 6.4508                 6.2658
 IR Inten    --      5.1520                10.0278                 3.5730
  Atom  AN      X      Y      Z        X      Y      Z        X      Y      Z
     1   6    -0.00  -0.00   0.00    -0.00  -0.02  -0.05    -0.00  -0.00  -0.01
     2   6    -0.00  -0.00  -0.00    -0.00  -0.00   0.00    -0.00   0.00   0.00
     3   6    -0.00  -0.00  -0.00     0.00   0.01   0.01    -0.02  -0.02  -0.06
     4   6     0.00   0.00  -0.00    -0.00  -0.00  -0.00     0.00   0.00   0.00
     5   6    -0.00   0.00  -0.00    -0.00   0.00   0.01     0.00   0.00   0.01
     6   6    -0.00   0.00  -0.00    -0.00  -0.00  -0.00     0.01   0.01  -0.01
     7   1     0.00   0.00  -0.00    -0.11  -0.09   0.01     0.45   0.39  -0.06
     8   1    -0.00  -0.00   0.00     0.07   0.04  -0.17    -0.26  -0.14   0.66
     9   1     0.00  -0.01  -0.00     0.09   0.28   0.58     0.01   0.04   0.09
    10   1    -0.00  -0.00   0.00     0.00   0.00  -0.00    -0.00  -0.00   0.00
    11   1     0.00   0.00   0.00     0.00   0.00   0.00    -0.00  -0.00  -0.00
    12   8     0.00  -0.00  -0.00     0.00   0.00   0.00    -0.00  -0.00   0.00
    13   6     0.00   0.00   0.00    -0.00  -0.00  -0.00     0.00  -0.00  -0.00
    14   6    -0.00  -0.00   0.00     0.00   0.00  -0.00    -0.00   0.00  -0.00
    15   8    -0.00  -0.00  -0.00     0.00   0.00   0.00    -0.00   0.00   0.00
    16   8     0.00   0.00  -0.00    -0.00  -0.00   0.00     0.00  -0.00   0.00
    17   6     0.06  -0.07   0.02    -0.02   0.01   0.06    -0.01   0.00   0.02
    18   1    -0.51   0.19  -0.47    -0.16   0.06  -0.13    -0.04   0.02  -0.04
    19   1    -0.26   0.59   0.23     0.10  -0.22  -0.07     0.03  -0.06  -0.02
    20   1     0.02  -0.00  -0.03     0.27   0.10  -0.56     0.07   0.03  -0.16
    21   1     0.00  -0.00   0.00    -0.01  -0.03  -0.06    -0.02  -0.04  -0.08
    22   1    -0.00  -0.00   0.00     0.01   0.00  -0.01    -0.09  -0.05   0.20
                     55                     56                     57
                      A                      A                      A
 Frequencies --   3168.1902              3174.1499              3189.2512
 Red. masses --      1.0933                 1.0928                 1.0946
 Frc consts  --      6.4659                 6.4868                 6.5595
 IR Inten    --      8.1759                21.1612                 7.8029
  Atom  AN      X      Y      Z        X      Y      Z        X      Y      Z
     1   6    -0.00   0.01   0.02    -0.01  -0.03  -0.05    -0.00  -0.00   0.00
     2   6     0.00   0.00   0.00    -0.00  -0.00   0.00    -0.00  -0.00   0.00
     3   6    -0.00  -0.00  -0.01    -0.00  -0.00  -0.01    -0.00   0.00   0.02
     4   6     0.00   0.00   0.00     0.00   0.00   0.00    -0.00  -0.00   0.00
     5   6    -0.01  -0.03  -0.07    -0.01  -0.01  -0.02    -0.01  -0.01  -0.03
     6   6    -0.01  -0.00   0.02    -0.00  -0.00   0.01     0.03   0.02  -0.07
     7   1     0.04   0.03  -0.01     0.05   0.04  -0.01    -0.03  -0.03   0.00
     8   1    -0.04  -0.02   0.10    -0.03  -0.02   0.08     0.07   0.04  -0.18
     9   1    -0.03  -0.09  -0.19     0.10   0.31   0.64    -0.00  -0.01  -0.02
    10   1    -0.00  -0.00   0.00     0.00   0.00  -0.00     0.00   0.00  -0.00
    11   1    -0.00  -0.00  -0.00     0.00   0.00   0.00     0.00   0.00   0.00
    12   8     0.00   0.00   0.00     0.00   0.00   0.00    -0.00  -0.00   0.00
    13   6    -0.00  -0.00  -0.00    -0.00  -0.00  -0.00     0.00  -0.00  -0.00
    14   6    -0.00  -0.00  -0.00    -0.00  -0.00  -0.00     0.00   0.00  -0.00
    15   8     0.00   0.00   0.00     0.00  -0.00   0.00     0.00   0.00   0.00
    16   8     0.00   0.00  -0.00     0.00   0.00  -0.00    -0.00  -0.00   0.00
    17   6    -0.01   0.00   0.03     0.02  -0.00  -0.05    -0.00  -0.00  -0.00
    18   1    -0.06   0.03  -0.05     0.12  -0.05   0.10     0.00   0.00   0.00
    19   1     0.04  -0.09  -0.03    -0.08   0.18   0.06    -0.00   0.00   0.00
    20   1     0.12   0.05  -0.25    -0.22  -0.08   0.46     0.00   0.00  -0.00
    21   1     0.13   0.37   0.77     0.05   0.15   0.31     0.06   0.15   0.30
    22   1     0.12   0.06  -0.26     0.04   0.02  -0.08    -0.37  -0.21   0.81
                     58                     59                     60
                      A                      A                      A
 Frequencies --   3268.3891              3272.8609              3293.8349
[...]
 0021998,-0.00006397,-0.00000866,-0.00004630,0.00010180,0.00003568,-0.0
 0020451,0.00012768,0.00026119,-0.00012455,0.00018810,0.00024499,-0.002
 14124,-0.00370074,-0.00438226,0.00466229,0.00162918,-0.00420512,-0.053
 83292,0.06528137,0.41789532,-0.00068973,0.00093047,0.00152965,-0.08479
 539,-0.00156512,0.02041339,-0.00165035,-0.00083610,-0.00076266,-0.0099
 4168,-0.01435408,-0.01887373,0.00141862,0.00028311,-0.00038114,0.00103
 979,0.00163975,0.00006231,0.00003108,-0.00034092,-0.00012896,0.0000835
 4,-0.00007745,0.00012832,-0.00004574,-0.00028038,-0.00036064,0.0041740
 2,0.00824905,0.01630292,-0.00056261,-0.00816233,0.00511046,-0.10074364
 ,-0.01500470,0.05529073,0.61704739,0.00512846,0.00125253,-0.00163430,-
 0.00540694,-0.08828404,-0.02555065,-0.00133693,0.00017811,-0.00123705,
 -0.01457528,-0.01542869,-0.01749978,-0.00173021,-0.00132274,0.00298152
 ,0.00060853,0.00061310,0.00081580,0.00006743,-0.00005548,-0.00004748,0
 .00018892,-0.00029886,-0.00011551,-0.00021522,-0.00011584,-0.00021313,
 0.00153238,0.00555576,0.01104506,-0.00816713,0.00553545,-0.00041449,-0
 .01465941,-0.07178367,0.00386717,0.39145296,0.60543417,0.00036019,0.00
 086172,-0.00097969,0.01108250,-0.03316497,-0.20343303,-0.00210532,0.00
 095250,-0.00248045,-0.01879468,-0.02250268,-0.01067837,-0.00099213,-0.
 00004816,0.00141596,0.00147279,0.00253533,0.00111981,-0.00002952,0.000
 10673,-0.00011948,0.00069462,-0.00056499,-0.00048548,0.00011854,-0.000
 16621,-0.00037981,-0.00513363,-0.00575619,-0.00573182,0.00436288,-0.00
 023021,-0.00197534,0.06174851,0.00918231,-0.19050730,0.15562028,0.2589
 1030,0.60684890,-0.00093894,-0.00153297,0.00138395,-0.02490806,-0.0141
 1795,0.01944083,-0.00091765,0.00150487,0.00036467,-0.09419117,-0.00481
 523,0.02815132,0.00138171,-0.00025407,-0.00062926,-0.00104059,0.001382
 40,-0.00138105,0.00013800,-0.00111754,-0.00004885,-0.00018639,0.000094
 32,0.00025543,-0.00023796,0.00020141,0.00000998,0.00161551,-0.00824271
 ,-0.00097493,0.00828974,0.00127328,-0.01344322,-0.07503658,-0.01175423
 ,-0.00695816,-0.07375361,-0.04376108,0.00975048,0.83133980,-0.00070788
 ,-0.00034652,0.00011268,-0.01408877,-0.00542159,0.01346475,-0.00155000
 ,-0.00066536,-0.00205257,-0.00078426,-0.08093039,-0.01820790,0.0007988
 4,-0.00047279,0.00063318,0.00213281,0.00179846,0.00191212,0.00017434,-
 0.00083047,0.00004600,-0.00003309,-0.00011052,0.00015282,0.00001208,0.
 00004411,-0.00016093,-0.00825889,0.00408739,-0.00532132,0.00788951,0.0
 0263214,-0.01212953,-0.01268960,-0.08357235,-0.04546026,-0.06107017,-0
 .05019232,0.02932800,0.37540645,0.44520797,-0.00007920,0.00196508,-0.0
 0269083,0.02368145,0.01153988,-0.00524746,-0.00005228,0.00023350,-0.00
 046355,0.03849311,-0.01050178,-0.20048964,-0.00243280,-0.00014662,0.00
 068699,-0.00023952,0.00035388,0.00061071,0.00006222,0.00007532,0.00002
 813,0.00024695,-0.00025017,-0.00033532,0.00040084,-0.00061400,-0.00023
 775,-0.00096887,-0.00466040,-0.00267340,0.00843608,0.00410812,-0.00665
 570,-0.01378985,-0.05049177,-0.19670548,-0.04491917,-0.01221384,0.0641
 5515,-0.25548328,-0.07630793,0.55396705,-0.00211195,-0.00130636,0.0004
 0134,0.00304192,-0.01929659,-0.01484005,0.00127869,0.00001207,0.001213
 71,0.00365819,0.00160461,-0.00269192,0.00058100,0.00095304,-0.00108499
 ,-0.00118715,-0.00157066,-0.00061930,0.00001189,0.00012443,0.00006465,
 -0.00020033,0.00019494,-0.00001251,0.00020794,0.00007735,0.00024657,-0
 .00032250,-0.00019757,-0.00181899,-0.00080680,0.00093401,-0.00100819,-
 0.06459710,-0.06786313,-0.01187888,-0.36886352,-0.31248952,-0.19997814
 ,0.01399579,0.01230681,0.02252034,0.42387048,-0.00138981,-0.00231551,0
 .00140517,-0.02495806,-0.00606636,-0.02183704,0.00081140,-0.00048922,0
 .00124480,0.00290589,0.00225120,-0.00582866,0.00301127,-0.00066904,-0.
 00188682,-0.00078891,-0.00105801,-0.00089236,-0.00003568,0.00005148,0.
 00001466,-0.00020336,0.00026610,0.00004095,0.00000580,0.00009512,0.000
 09511,0.00066051,-0.00075278,-0.00081414,0.00047245,-0.00206981,0.0003
 2632,-0.06108621,-0.03575672,-0.00257410,-0.31184102,-0.39973564,-0.22
 302498,0.00661263,0.01555144,0.01412556,0.39058289,0.43705432,-0.00042
 875,-0.00056574,0.00064372,-0.03292611,-0.03690687,-0.01026452,0.00104
 668,-0.00025860,0.00113911,0.00207228,-0.00022439,-0.00832185,0.000553
 12,0.00047108,-0.00107805,-0.00089225,-0.00122694,-0.00058145,0.000008
 81,0.00002432,0.00005031,-0.00027735,0.00024730,0.00014024,-0.00003056
 ,0.00011783,0.00020269,0.00077333,0.00129236,0.00127567,-0.00234486,-0
 .00078782,0.00091586,0.00812629,0.01352674,0.03658760,-0.19229920,-0.2
 1663958,-0.24478753,0.00298237,-0.00188984,-0.00847370,0.21142875,0.24
 160081,0.22980678,0.00046699,0.00127346,-0.00165669,0.00270348,0.00266
 739,0.00732720,-0.00097880,0.00006446,-0.00089576,-0.02068502,-0.02364
 808,0.02253045,-0.00197063,-0.00045860,0.00079812,0.00036209,0.0013675
 7,0.00151571,-0.00000964,0.00032136,0.00001337,0.00008026,-0.00009692,
 -0.00010669,0.00020008,-0.00019197,0.00003384,-0.00175212,0.00051720,-
 0.00027686,-0.00061457,0.00064790,0.00116656,-0.06485742,-0.06028348,-
 0.00629752,0.02082465,0.00633116,-0.01630511,-0.58541866,-0.29877341,0
 .22464052,-0.00953881,-0.00623749,0.00086779,0.66111063,0.00035576,0.0
 0050870,-0.00052268,0.00114580,0.00246552,0.00188944,0.00163860,-0.000
 50913,0.00074012,-0.01756725,0.01108560,0.00891174,-0.00082897,0.00012
 245,-0.00008761,0.00002793,-0.00141267,-0.00060767,-0.00016679,0.00079
 542,0.00000463,0.00006965,0.00002930,-0.00013438,0.00005962,-0.0001066
 2,0.00004956,0.00102685,-0.00139472,0.00099590,-0.00017639,-0.00056310
 ,0.00150552,-0.06620059,-0.03325261,0.00139217,0.01192535,0.01082022,-
 0.01626484,-0.30122063,-0.24606901,0.12229971,-0.00716504,-0.00636162,
 0.00133151,0.37692415,0.26345195,-0.00018929,-0.00088546,0.00114062,0.
 00059922,-0.00112377,-0.00785051,0.00014980,-0.00016299,0.00044000,0.0
 4184106,0.02255551,-0.00335301,0.00135011,0.00022549,-0.00041611,-0.00
 044120,0.00003953,-0.00051189,-0.00000459,-0.00010137,-0.00007773,-0.0
 0013213,0.00010578,0.00014195,-0.00016095,0.00022409,0.00004596,0.0011
 6590,0.00201096,0.00118732,-0.00159293,-0.00047190,0.00130549,-0.02705
 318,-0.01354633,0.03500930,0.00419264,-0.00163913,-0.01092269,0.216543
 55,0.11601311,-0.19464415,-0.00299788,-0.00166945,0.00231221,-0.233476
 66,-0.12140516,0.17592822,-0.15642669,-0.08842142,-0.00621834,-0.00015
 655,0.00003501,-0.00009245,-0.00046038,0.00013375,-0.00077216,-0.00009
 728,-0.00001137,0.00005697,-0.01536048,-0.01769012,0.00209752,0.005717
 93,-0.00200151,0.00343772,0.00004918,-0.00011346,-0.00008321,-0.000158
 19,0.00025593,-0.00014930,0.00123291,-0.00484481,0.00279406,-0.0001806
 5,-0.00003667,-0.00020263,0.00000587,-0.00000866,-0.00000148,-0.000287
 57,-0.00024741,-0.00011125,-0.00004198,0.00002669,0.00029561,0.0001287
 2,0.00016164,0.00016764,-0.00072444,0.00016845,-0.00012713,-0.00011510
 ,-0.00008620,0.00000970,0.53451869,-0.08676028,-0.15240909,-0.01387392
 ,0.00010918,0.00050123,0.00046173,-0.00033670,-0.00080376,-0.00070157,
 -0.00024315,-0.00036612,0.00003682,-0.01330074,-0.00571469,0.00326140,
 -0.00153013,0.00659780,-0.00115645,-0.00004113,0.00006602,-0.00006449,
 0.00015431,-0.00036182,0.00012606,-0.01130425,-0.00298717,0.00128004,0
 .00002707,0.00000101,0.00001705,-0.00000905,-0.00000420,0.00001039,-0.
 00063969,-0.00034470,0.00001619,0.00058195,-0.00115065,-0.00062330,0.0
 0046085,0.00020239,0.00005055,0.00103366,0.00042565,-0.00003134,-0.000
 41356,-0.00012770,0.00010987,-0.02089146,0.52362539,-0.00046587,-0.007
 65009,-0.08910419,0.00010682,0.00000770,0.00023677,-0.00084585,-0.0003
 9449,-0.00078415,-0.00015413,-0.00003839,0.00000727,0.01781736,0.01764
 614,0.00878102,0.00412215,0.00000271,-0.00316840,0.00002634,0.00005321
 ,0.00028007,0.00010883,0.00009635,0.00033766,-0.01590285,-0.01599469,0
 .00209715,-0.00020067,-0.00003605,-0.00000863,0.00001659,-0.00003669,0
 .00003414,-0.00034737,-0.00008847,-0.00001356,0.00022993,-0.00056451,-
 0.00028159,0.00036002,0.00002412,-0.00001118,0.00023861,0.00021093,0.0
 0046235,-0.00025605,-0.00005594,0.00009749,-0.01969583,-0.00538673,0.5
 8573358,-0.01537976,0.00426305,-0.01181157,0.00010255,-0.00000998,0.00
 012274,-0.00033041,-0.00001211,-0.00002268,-0.00008530,-0.00005457,0.0
 0004587,0.00150784,-0.00105820,-0.00066634,0.00090035,-0.00059150,0.00
 013207,0.00000896,-0.00002591,0.00002161,0.00001407,0.00007162,0.00002
 765,-0.00170582,-0.00076059,0.00013932,-0.00001204,-0.00001704,0.00002
 104,0.00000619,-0.00001466,0.00002454,-0.00012719,-0.00001939,-0.00000
 938,0.00026575,-0.00030624,-0.00008237,0.00023888,-0.00004116,-0.00008
 155,-0.00006287,0.00018902,0.00009393,-0.00017077,-0.00001340,0.000071
 32,-0.18327690,0.05615378,-0.12662826,0.19578325,-0.01867298,0.0047363
 9,-0.01571155,0.00005790,-0.00012291,0.00010835,-0.00029192,-0.0000515
 9,-0.00011649,-0.00000582,-0.00004311,-0.00003110,0.00034042,0.0003729
 2,-0.00082020,0.00086713,-0.00049234,0.00009135,0.00004192,-0.00008482
 ,0.00003844,-0.00002600,0.00012178,0.00002547,-0.00109830,-0.00234822,
 -0.00009163,-0.00004646,0.00000186,-0.00007136,0.00000739,0.00000234,0
 .00001112,0.00024998,0.00030478,-0.00011079,-0.00059255,-0.00048213,0.
 00004710,-0.00006226,-0.00015092,-0.00002105,0.00052487,0.00011581,-0.
 00005698,0.00006342,0.00007983,-0.00002342,0.05416379,-0.06276457,0.05
 086074,-0.05579419,0.06841021,-0.00034787,-0.00284404,-0.00016001,-0.0
 0002200,-0.00004455,-0.00012058,0.00022650,0.00014837,0.00022823,0.000
 05634,0.00008153,0.00002310,0.00208727,0.00143608,-0.00010774,-0.00043
 343,-0.00089856,-0.00008405,-0.00005050,0.00004164,0.00001953,0.000003
 69,0.00004867,0.00002540,-0.00057575,-0.00056051,0.00032225,0.00004692
 ,-0.00001769,0.00001619,0.00000935,0.00000172,-0.00000497,0.00006266,0
 .00003632,0.00002668,-0.00005729,0.00013234,0.00006287,-0.00003693,0.0
 0000301,-0.00001630,-0.00003487,-0.00008525,-0.00005536,0.00004355,0.0
 0000635,-0.00000961,-0.12513831,0.05248219,-0.15905870,0.13690498,-0.0
 5474331,0.16657090,0.00875314,-0.02181668,-0.00863443,0.00047323,0.000
 26367,0.00041368,-0.00040895,-0.00016481,-0.00029160,-0.00015374,-0.00
 022494,0.00012008,-0.00037671,-0.00028726,-0.00042440,-0.00005253,0.00
 110123,-0.00029795,-0.00005900,0.00005437,0.00001111,0.00011473,-0.000
 12867,0.00006785,-0.00239819,-0.00121514,-0.00046696,-0.00003284,-0.00
 000091,-0.00009827,0.00000861,0.00003984,0.00000700,0.00088647,0.00109
 835,0.00008263,-0.00372579,-0.00316804,-0.00141754,-0.00044884,-0.0006
 6031,-0.00027024,0.00182765,0.00140678,0.00126471,0.00022843,0.0003121
 3,-0.00002420,-0.08522804,0.09183482,0.03718901,-0.00798595,0.01773954
 ,0.00860612,0.09308853,0.00430752,-0.01830423,-0.00591759,0.00003422,-
 0.00027106,0.00000960,-0.00013912,-0.00013544,0.00019115,0.00007918,0.
 00002425,-0.00007416,0.00034623,0.00186508,-0.00154577,-0.00087941,0.0
 0060561,-0.00056489,0.00001413,-0.00002878,0.00001847,0.00006651,-0.00
 003407,0.00003957,-0.00112225,-0.00168744,0.00060712,-0.00005417,0.000
 04984,-0.00005450,0.00000071,0.00001220,0.00000991,0.00024533,0.000317
 68,-0.00007557,-0.00070648,0.00026044,0.00018878,-0.00018318,-0.000337
 85,-0.00000457,0.00107191,-0.00080503,-0.00016443,0.00015846,0.0001606
 1,-0.00006294,0.09414679,-0.24823658,-0.07644868,0.00198810,-0.0062224
 0,-0.00332401,-0.09625566,0.26677597,-0.00242590,-0.00251076,-0.001339
 93,-0.00018391,-0.00020712,0.00001921,0.00020875,0.00011994,0.00027766
 ,0.00021392,0.00013807,-0.00016242,0.00227378,0.00145943,-0.00009720,-
 0.00096213,-0.00043943,-0.00028235,0.00000391,-0.00003310,0.00002367,0
 .00002863,0.00001039,0.00001712,-0.00091374,-0.00040946,0.00010564,-0.
 00010392,-0.00004855,-0.00017868,0.00001376,-0.00000157,-0.00001291,0.
 00026671,0.00014131,-0.00011599,-0.00039997,0.00036160,0.00047538,-0.0
 0023083,-0.00002712,0.00019982,0.00013970,-0.00026887,-0.00066726,0.00
 023264,0.00007589,-0.00013718,0.03808048,-0.07559309,-0.07440752,-0.00
 826615,0.01885151,0.00777081,-0.03827675,0.08362391,0.07515809,-0.0100
 6003,-0.00118858,0.02119292,0.00001609,-0.00003377,0.00022005,-0.00017
 553,-0.00006079,-0.00008167,-0.00001943,-0.00007858,-0.00009653,-0.002
 65323,-0.00379239,-0.00123478,0.00018362,-0.00006333,0.00094424,-0.000
 04799,0.00001091,-0.00006174,0.00004570,-0.00004547,-0.00002563,0.0008
 1987,0.00048110,-0.00011689,-0.00010360,0.00002468,-0.00004749,-0.0000
 0491,-0.00000925,0.00001580,-0.00007554,-0.00005076,-0.00013245,0.0002
 7496,-0.00003693,0.00016595,0.00013410,0.00000443,0.00009302,-0.000199
 35,0.00014310,-0.00016262,-0.00007444,0.00000245,-0.00001718,-0.096549
 66,-0.01859682,0.10441260,0.01116780,0.00281798,-0.02082411,-0.0050414
 6,-0.00357163,0.00986341,0.10271088,-0.00869305,-0.00431888,0.02253432
 ,0.00008634,0.00000731,-0.00001309,-0.00012240,-0.00008809,-0.00007870
 ,-0.00005200,-0.00002419,0.00007084,-0.00369595,-0.00271856,-0.0013326
 8,-0.00035808,0.00058284,0.00076110,0.00003907,-0.00008360,-0.00004822
 ,-0.00004651,0.00006300,-0.00004848,0.00049817,0.00071218,0.00013138,0
 .00001181,0.00002856,0.00003509,-0.00000048,0.00000067,0.00001231,0.00
 014232,0.00021676,0.00001242,-0.00034419,-0.00048016,-0.00021064,-0.00
 002721,-0.00013405,-0.00012960,0.00047748,0.00006927,0.00028458,-0.000
 00145,0.00004840,0.00002839,-0.01753102,-0.05356249,0.03548618,-0.0045
 8132,-0.00208190,0.00764068,0.01011866,0.00676086,-0.02483014,0.024107
 02,0.05542416,-0.00496603,-0.00288841,0.00484697,0.00000128,0.00000850
 ,-0.00006335,0.00013972,0.00009950,0.00003701,0.00002171,0.00001955,0.
 00002810,-0.00007292,-0.00019228,0.00036569,-0.00018908,-0.00025922,0.
 00017902,0.00000140,0.00002515,0.00001462,-0.00001094,-0.00002596,-0.0
 0000572,-0.00013797,0.00002434,0.00110069,0.00006261,0.00001889,0.0000
 1019,-0.00000242,0.00000749,-0.00000720,0.00011087,0.00008875,0.000045
 72,-0.00027239,-0.00010450,-0.00012572,-0.00014016,-0.00004777,-0.0000
 3730,0.00027514,-0.00007468,0.00012365,0.00008514,0.00002563,-0.000009
 59,0.10763832,0.03919264,-0.27217637,0.00967449,0.00155877,-0.01524249
 ,0.00189933,0.00283528,-0.00669788,-0.11393221,-0.04033635,0.28734636,
 0.00692996,0.00602160,0.01836292,-0.00001860,0.00004830,0.00014391,-0.
 00199636,-0.00314822,0.00174505,0.00001156,0.00003795,0.00003440,-0.05
 596885,-0.02592738,-0.03714271,-0.00234385,-0.01086419,-0.02079036,-0.
 00053388,-0.00022801,-0.00079015,0.00012793,0.00006494,-0.00006985,0.0
 0328656,-0.00603792,0.00440640,0.00000307,0.00001857,0.00000251,-0.000
 00644,-0.00000578,0.00002522,0.00038681,-0.00002349,0.00043046,-0.0002
 9434,0.00037896,-0.00089517,-0.00043443,-0.00055546,-0.00037087,0.0001
 4746,-0.00032203,0.00032182,0.00020614,0.00020420,0.00002024,-0.002126
 70,0.00353700,-0.00085847,-0.00074179,-0.00022407,-0.00053299,0.000486
 34,0.00043866,0.00044062,-0.00007634,0.00014913,-0.00018773,0.05301241
 ,-0.00078503,0.00891608,0.00780484,0.00003771,0.00007956,0.00000728,-0
 .00361353,-0.00132759,0.00100484,0.00000129,-0.00016440,0.00010360,-0.
 02681414,-0.10121079,-0.10828404,-0.00285758,-0.00520865,-0.01882983,-
 0.00040711,-0.00019653,-0.00075234,0.00020628,-0.00000360,-0.00006874,
 -0.00628742,0.00545744,-0.00025542,-0.00002299,0.00001699,0.00001716,-
 0.00000601,-0.00000939,0.00002075,-0.00025116,-0.00010791,0.00009875,0
 .00073325,-0.00009010,0.00019062,0.00017002,-0.00005519,-0.00008700,-0
 .00022860,0.00010612,-0.00013770,-0.00016973,0.00000173,0.00007979,0.0
 0299404,-0.00274823,0.00152538,0.00066550,0.00069843,0.00050213,-0.000
 04566,-0.00071329,-0.00038488,0.00011724,-0.00020683,0.00001684,0.0358
 8865,0.09681895,-0.00464351,-0.01279664,-0.01918430,0.00005752,0.00005
 566,0.00012173,0.00051555,-0.00020116,0.00108570,-0.00000797,0.0000532
 7,0.00009798,-0.03701801,-0.10781701,-0.27567221,0.00255355,0.00230552
 ,0.00199020,0.00005314,0.00001218,-0.00004840,0.00016180,0.00011006,0.
 00005497,0.00403754,-0.00017821,-0.00162039,0.00001331,-0.00003473,0.0
 0001891,0.00002007,-0.00000080,0.00001909,0.00049938,0.00018202,0.0003
 4698,-0.00083701,-0.00037351,-0.00092086,-0.00035234,-0.00047823,-0.00
 037383,0.00057978,-0.00006627,0.00055065,0.00017340,0.00018599,0.00001
 379,-0.00187602,0.00042875,0.00091367,0.00026239,0.00017815,-0.0002089
 8,0.00050220,0.00067801,0.00005213,-0.00018022,0.00001312,0.00027442,0
 .03582264,0.11742821,0.29174726,-0.00150779,-0.00382829,-0.00173622,0.
 00000996,-0.00000376,-0.00006103,0.00884013,0.00011831,-0.01323542,0.0
 0002903,-0.00005304,0.00001862,-0.00669668,-0.00576987,0.02132957,-0.0
 9673603,-0.03282951,0.10456598,-0.00290102,0.00436109,-0.00084152,0.00
 434542,-0.00645616,-0.00159811,0.00016910,0.00011023,0.00002099,-0.000
 01650,0.00001035,-0.00002446,0.00000793,-0.00001638,-0.00001769,-0.000
 08477,-0.00012571,-0.00007272,-0.00005140,0.00013742,0.00006125,0.0002
 5062,0.00032610,-0.00005454,-0.00000622,-0.00010765,-0.00005105,0.0000
 0323,-0.00026724,0.00014665,-0.00046270,0.00017433,0.00072709,-0.00011
 683,-0.00005980,0.00000667,0.00004491,0.00001416,-0.00000301,-0.000271
 50,-0.00017633,0.00000182,-0.00005668,0.00067499,-0.00033719,0.0952077
 8,-0.00330659,-0.00183851,-0.00125389,-0.00016969,0.00004450,-0.000050
 19,0.00367807,0.00799727,-0.01402956,0.00007883,0.00014528,-0.00019521
 ,-0.00882659,-0.00127970,0.01778382,-0.03312328,-0.06381435,0.05487335
 ,0.00448984,-0.00423974,0.00042698,-0.00646419,0.00583522,-0.00304838,
 0.00007911,-0.00000618,0.00009507,0.00000607,-0.00002208,-0.00002015,0
 .00003283,-0.00001124,0.00001313,0.00010500,0.00037391,-0.00032270,-0.
 00062043,-0.00022946,0.00025375,-0.00001719,-0.00023456,0.00067713,0.0
 0021938,0.00009323,-0.00000632,-0.00006184,0.00022744,-0.00030061,-0.0
 0020198,0.00016228,0.00078128,-0.00003083,0.00000056,-0.00004310,-0.00
 000129,-0.00005636,-0.00002795,-0.00018061,-0.00021525,0.00000784,0.00
 054859,-0.00005280,0.00031561,0.04376679,0.05712055,-0.00054394,-0.000
 32721,0.00080184,-0.00001560,-0.00001055,0.00009621,0.01174142,0.00635
 384,-0.01984437,-0.00007793,-0.00002190,0.00006181,-0.00305687,-0.0029
 1675,0.00326838,0.10265671,0.05527504,-0.27747516,-0.00068053,0.000800
 30,0.00078826,-0.00120255,-0.00299838,-0.00211530,-0.00017609,-0.00007
 584,0.00005746,-0.00000288,-0.00002118,0.00001793,0.00003302,-0.000026
 45,0.00002414,-0.00021990,-0.00028734,0.00023884,0.00041154,0.00013367
 ,-0.00026891,0.00043640,0.00039360,-0.00059225,-0.00014287,-0.00004169
 ,0.00001886,-0.00015698,-0.00033587,0.00031013,-0.00010992,-0.00004281
 ,0.00003313,0.00002637,0.00002687,0.00000281,0.00003862,0.00003531,-0.
 00000022,0.00000554,0.00001749,-0.00000682,-0.00011788,-0.00000026,0.0
 0074150,-0.10884568,-0.05592990,0.29384176\\-0.00000732,0.00000559,0.0
 0000771,-0.00000991,-0.00000571,0.00000590,0.00000036,-0.00000389,0.00
 000056,0.00000073,0.00000541,-0.00000747,0.00000697,0.00000196,0.00000
 462,-0.00000038,0.00000079,0.00000070,0.00000222,-0.00000139,-0.000007
 00,0.00000025,0.00000321,-0.00001617,0.00000182,0.00000068,-0.00000400
 ,0.00000515,0.00000624,-0.00000198,0.00000235,-0.00000154,0.00000129,-
 0.00000204,-0.00000288,0.00000498,0.00001082,0.00000837,0.00000362,-0.
 00000058,-0.00000620,0.00000042,-0.00000606,-0.00000860,0.00000758,-0.
 00000068,-0.00000044,-0.00000167,0.00000625,-0.00000285,-0.00000738,-0
 .00000082,0.00000029,0.00000310,-0.00000268,0.00000479,0.00000591,-0.0
 0000420,0.00000369,0.00001161,-0.00000140,-0.00000505,-0.00000379,-0.0
 0000085,-0.00000245,-0.00000855\\\@
 The archive entry for this job was punched.


 The earth never tires,
 The earth is rude, silent, incomprehensible at first,
 Nature is rude and incomprehensible at first,
 Be not discouraged, keep on,
 There are divine things well envelop'd,
 I swear to you there are divine things more beautiful than words can tell.
                                 -- Walt Whitman
 Job cpu time:       0 days  0 hours 22 minutes 22.4 seconds.
 Elapsed time:       0 days  0 hours  1 minutes 53.0 seconds.
 File lengths (MBytes):  RWF=    186 Int=      0 D2E=      0 Chk=     10 Scr=      1
 Normal termination of Gaussian 16 at Sat Dec 30 20:55:02 2023.
