Unloading slurm/anatra/current
  ERROR: No such file or directory on
    '/cm/local/modulefiles/slurm/anatra/current'
environment: line 0: unalias: gv: not found
environment: line 0: unalias: sl: not found
 Entering Gaussian System, Link 0=g16
 Initial command:
 /apps/gaussian/g16/C.01/g16/l1.exe "/local/jobs/1153165/Gau-1514982.inp" -scrdir="/local/jobs/1153165/"
 Entering Link 1 = /apps/gaussian/g16/C.01/g16/l1.exe PID=   1514983.
  
 Copyright (c) 1988-2019, Gaussian, Inc.  All Rights Reserved.
  
 This is part of the Gaussian(R) 16 program.  It is based on
 the Gaussian(R) 09 system (copyright 2009, Gaussian, Inc.),
 the Gaussian(R) 03 system (copyright 2003, Gaussian, Inc.),
 the Gaussian(R) 98 system (copyright 1998, Gaussian, Inc.),
 the Gaussian(R) 94 system (copyright 1995, Gaussian, Inc.),
 the Gaussian 92(TM) system (copyright 1992, Gaussian, Inc.),
 the Gaussian 90(TM) system (copyright 1990, Gaussian, Inc.),
 the Gaussian 88(TM) system (copyright 1988, Gaussian, Inc.),
 the Gaussian 86(TM) system (copyright 1986, Carnegie Mellon
 University), and the Gaussian 82(TM) system (copyright 1983,
 Carnegie Mellon University). Gaussian is a federally registered
 trademark of Gaussian, Inc.
  
 This software contains proprietary and confidential information,
 including trade secrets, belonging to Gaussian, Inc.
  
 This software is provided under written license and may be
 used, copied, transmitted, or stored only in accord with that
 written license.
  
 The following legend is applicable only to US Government
 contracts under FAR:
  
                    RESTRICTED RIGHTS LEGEND
  
 Use, reproduction and disclosure by the US Government is
 subject to restrictions as set forth in subparagraphs (a)
 and (c) of the Commercial Computer Software - Restricted
 Rights clause in FAR 52.227-19.
  
 Gaussian, Inc.
 340 Quinnipiac St., Bldg. 40, Wallingford CT 06492
  
  
 ---------------------------------------------------------------
 Warning -- This program may not be used in any manner that
 competes with the business of Gaussian, Inc. or will provide
 assistance to any competitor of Gaussian, Inc.  The licensee
 of this program is prohibited from giving any competitor of
 Gaussian, Inc. access to this program.  By using this program,
 the user acknowledges that Gaussian, Inc. is engaged in the
 business of creating and licensing software in the field of
 computational chemistry and represents and warrants to the
 licensee that it is not a competitor of Gaussian, Inc. and that
 it will not use this program in any manner prohibited above.
 ---------------------------------------------------------------
  

 Cite this work as:
 Gaussian 16, Revision C.01,
 M. J. Frisch, G. W. Trucks, H. B. Schlegel, G. E. Scuseria, 
 M. A. Robb, J. R. Cheeseman, G. Scalmani, V. Barone, 
 G. A. Petersson, H. Nakatsuji, X. Li, M. Caricato, A. V. Marenich, 
 J. Bloino, B. G. Janesko, R. Gomperts, B. Mennucci, H. P. Hratchian, 
 J. V. Ortiz, A. F. Izmaylov, J. L. Sonnenberg, D. Williams-Young, 
 F. Ding, F. Lipparini, F. Egidi, J. Goings, B. Peng, A. Petrone, 
 T. Henderson, D. Ranasinghe, V. G. Zakrzewski, J. Gao, N. Rega, 
 G. Zheng, W. Liang, M. Hada, M. Ehara, K. Toyota, R. Fukuda, 
 J. Hasegawa, M. Ishida, T. Nakajima, Y. Honda, O. Kitao, H. Nakai, 
 T. Vreven, K. Throssell, J. A. Montgomery, Jr., J. E. Peralta, 
 F. Ogliaro, M. J. Bearpark, J. J. Heyd, E. N. Brothers, K. N. Kudin, 
 V. N. Staroverov, T. A. Keith, R. Kobayashi, J. Normand, 
 K. Raghavachari, A. P. Rendell, J. C. Burant, S. S. Iyengar, 
 J. Tomasi, M. Cossi, J. M. Millam, M. Klene, C. Adamo, R. Cammi, 
 J. W. Ochterski, R. L. Martin, K. Morokuma, O. Farkas, 
 J. B. Foresman, and D. J. Fox, Gaussian, Inc., Wallingford CT, 2019.
 
 ******************************************
 Gaussian 16:  ES64L-G16RevC.01  3-Jul-2019
                30-Dec-2023 
 ******************************************
 %chk=da-2_1_opt_hf_reopt8_freq.chk
 %nprocshared=12
 Will use up to   12 processors via shared memory.
 %mem=48GB
 -----------------------------------------------------------
 # wb97xd def2svp scrf=(iefpcm,solvent=toluene) freq=noraman
 -----------------------------------------------------------
 1/10=4,30=1,38=1/1,3;
 2/12=2,17=6,18=5,40=1/2;
 3/5=43,7=101,11=2,25=1,30=1,70=2201,71=2,72=13,74=-58,140=1/1,2,3;
 4//1;
 5/5=2,38=5,53=13,98=1/2;
 8/6=4,10=90,11=11/1;
 11/6=1,8=1,9=11,15=111,16=1/1,2,10;
 10/6=1/2;
 6/7=2,8=2,9=2,10=2,28=1/1;
 7/8=1,10=1,25=1/1,2,3,16;
 1/10=4,30=1/3;
 99//99;
 ------------------------
 da-2_1_opt_hf_reopt8.out
 ------------------------
 Symbolic Z-matrix:
 Charge =  0 Multiplicity = 1
 C                    -2.66403  -1.28706   0.0054 
 C                     3.57836   0.07949   0.02596 
 C                    -4.50046   1.20443   0.01903 
 C                     3.11294   1.32883   0.02045 
 C                    -2.28354  -0.00129  -0.00824 
 C                    -3.1618    1.18059  -0.00083 
 H                    -5.04458   2.15176   0.02281 
 H                    -5.10284   0.29101   0.03209 
 H                    -3.73407  -1.53054   0.02404 
 H                     4.60588  -0.27893   0.04573 
 H                     3.65506   2.27254   0.03441 
 O                     1.27151  -0.06887  -0.02161 
 C                     2.40726  -0.84558  -0.00043 
 C                     1.62214   1.26149  -0.01013 
 O                     2.36587  -2.03315  -0.00427 
 O                     0.81374   2.13273  -0.02349 
 C                    -1.72541  -2.45271  -0.00286 
 H                    -1.90452  -3.09599  -0.88041 
 H                    -0.67391  -2.13254  -0.01876 
 H                    -1.87988  -3.08864   0.88466 
 H                    -1.21162   0.21729  -0.02661 
 H                    -2.63127   2.13919  -0.01314 
 

 GradGradGradGradGradGradGradGradGradGradGradGradGradGradGradGradGradGrad
 Berny optimization.
 Initialization pass.
 Trust Radius=3.00D-01 FncErr=1.00D-07 GrdErr=1.00D-07 EigMax=2.50D+02 EigMin=1.00D-04
 Number of steps in this run=      2 maximum allowed number of steps=      2.
 GradGradGradGradGradGradGradGradGradGradGradGradGradGradGradGradGradGrad

                          Input orientation:                          
 ---------------------------------------------------------------------
 Center     Atomic      Atomic             Coordinates (Angstroms)
 Number     Number       Type             X           Y           Z
 ---------------------------------------------------------------------
      1          6           0       -2.664030   -1.287060    0.005400
      2          6           0        3.578360    0.079490    0.025960
      3          6           0       -4.500460    1.204430    0.019030
      4          6           0        3.112940    1.328830    0.020450
      5          6           0       -2.283540   -0.001290   -0.008240
      6          6           0       -3.161800    1.180590   -0.000830
      7          1           0       -5.044580    2.151760    0.022810
      8          1           0       -5.102840    0.291010    0.032090
      9          1           0       -3.734070   -1.530540    0.024040
     10          1           0        4.605880   -0.278930    0.045730
     11          1           0        3.655060    2.272540    0.034410
     12          8           0        1.271510   -0.068870   -0.021610
     13          6           0        2.407260   -0.845580   -0.000430
     14          6           0        1.622140    1.261490   -0.010130
     15          8           0        2.365870   -2.033150   -0.004270
     16          8           0        0.813740    2.132730   -0.023490
     17          6           0       -1.725410   -2.452710   -0.002860
     18          1           0       -1.904520   -3.095990   -0.880410
     19          1           0       -0.673910   -2.132540   -0.018760
     20          1           0       -1.879880   -3.088640    0.884660
     21          1           0       -1.211620    0.217290   -0.026610
     22          1           0       -2.631270    2.139190   -0.013140
 ---------------------------------------------------------------------
                    Distance matrix (angstroms):
                    1          2          3          4          5
     1  C    0.000000
     2  C    6.390252   0.000000
     3  C    3.095187   8.156768   0.000000
     4  C    6.341647   1.333228   7.614416   0.000000
     5  C    1.340956   5.862556   2.523735   5.558061   0.000000
     6  C    2.517362   6.829560   1.339020   6.276527   1.472493
     7  H    4.182440   8.868450   1.092481   8.198924   3.501418
     8  H    2.904963   8.683779   1.094243   8.281078   2.834699
     9  H    1.097550   7.487579   2.840324   7.420078   2.108005
    10  H    7.339587   1.088418   9.226402   2.194174   6.895223
    11  H    7.252758   2.194407   8.225181   1.088429   6.359174
    12  O    4.119853   2.312105   5.910887   2.312185   3.555717
    13  C    5.090474   1.492624   7.205520   2.286149   4.766182
    14  C    4.986642   2.285875   6.122935   1.492633   4.104748
    15  O    5.084942   2.436041   7.591374   3.444072   5.074001
    16  O    4.877569   3.444033   5.394837   2.436084   3.761305
    17  C    1.496601   5.877316   4.590866   6.140865   2.514160
    18  H    2.152613   6.400559   5.103088   6.750221   3.237515
    19  H    2.162406   4.793420   5.077330   5.130580   2.670814
    20  H    2.152598   6.369207   5.103646   6.722288   3.239127
    21  H    2.091313   4.792250   3.434093   4.465373   1.094133
    22  H    3.426457   6.542431   2.090139   5.801186   2.168547
                    6          7          8          9         10
     6  C    0.000000
     7  H    2.118629   0.000000
     8  H    2.135433   1.861685   0.000000
     9  H    2.770981   3.908551   2.278517   0.000000
    10  H    7.903747   9.951892   9.725444   8.433372   0.000000
    11  H    6.903852   8.700486   8.979269   8.310401   2.722900
    12  O    4.606063   6.695234   6.384727   5.214824   3.341659
    13  C    5.926196   8.032092   7.595689   6.179458   2.270937
    14  C    4.784633   6.725981   6.794775   6.040330   3.358380
    15  O    6.394003   8.510521   7.822063   6.120677   2.845599
    16  O    4.088032   5.858534   6.196849   5.839896   4.494577
    17  C    3.906928   5.676151   4.351581   2.210393   6.694245
    18  H    4.543517   6.181801   4.746965   2.572142   7.153941
    19  H    4.143278   6.120434   5.048921   3.119105   5.596089
    20  H    4.544638   6.182225   4.747250   2.570285   7.117820
    21  H    2.175273   4.293739   3.892361   3.069239   5.839073
    22  H    1.095686   2.413610   3.086499   3.832032   7.630669
                   11         12         13         14         15
    11  H    0.000000
    12  O    3.341654   0.000000
    13  C    3.358704   1.376101   0.000000
    14  C    2.270896   1.375838   2.248611   0.000000
    15  O    4.494716   2.248626   1.188297   3.377547   0.000000
    16  O    2.845347   2.248688   3.377894   1.188591   4.445676
    17  C    7.160924   3.829435   4.434167   5.000143   4.112737
    18  H    7.782476   4.470812   4.942687   5.672949   4.487035
    19  H    6.176369   2.836089   3.339193   4.097726   3.041439
    20  H    7.752467   4.457757   4.918767   5.655831   4.464376
    21  H    5.283214   2.499569   3.771826   3.020070   4.226513
    22  H    6.287924   4.484116   5.856261   4.343025   6.509985
                   16         17         18         19         20
    16  O    0.000000
    17  C    5.241562   0.000000
    18  H    5.955062   1.102716   0.000000
    19  H    4.517262   1.099279   1.784679   0.000000
    20  H    5.945000   1.102706   1.765257   1.784561   0.000000
    21  H    2.787652   2.719089   3.490975   2.410580   3.493731
    22  H    3.445032   4.680410   5.356065   4.698826   5.357316
                   21         22
    21  H    0.000000
    22  H    2.389411   0.000000
 Stoichiometry    C9H10O3
 Framework group  C1[X(C9H10O3)]
 Deg. of freedom    60
 Full point group                 C1      NOp   1
 Largest Abelian subgroup         C1      NOp   1
 Largest concise Abelian subgroup C1      NOp   1
                         Standard orientation:                         
 ---------------------------------------------------------------------
 Center     Atomic      Atomic             Coordinates (Angstroms)
 Number     Number       Type             X           Y           Z
 ---------------------------------------------------------------------
      1          6           0        2.664029    1.287062    0.005400
      2          6           0       -3.578360   -0.079493    0.025960
      3          6           0        4.500461   -1.204427    0.019030
      4          6           0       -3.112939   -1.328833    0.020450
      5          6           0        2.283540    0.001291   -0.008240
      6          6           0        3.161801   -1.180588   -0.000830
      7          1           0        5.044581   -2.151757    0.022810
      8          1           0        5.102840   -0.291007    0.032090
      9          1           0        3.734069    1.530542    0.024040
     10          1           0       -4.605881    0.278926    0.045730
     11          1           0       -3.655059   -2.272543    0.034410
     12          8           0       -1.271510    0.068869   -0.021610
     13          6           0       -2.407261    0.845578   -0.000430
     14          6           0       -1.622139   -1.261492   -0.010130
     15          8           0       -2.365872    2.033148   -0.004270
     16          8           0       -0.813739   -2.132731   -0.023490
     17          6           0        1.725408    2.452711   -0.002860
     18          1           0        1.904517    3.095991   -0.880410
     19          1           0        0.673908    2.132540   -0.018760
     20          1           0        1.879877    3.088641    0.884660
     21          1           0        1.211620   -0.217289   -0.026610
     22          1           0        2.631271   -2.139188   -0.013140
 ---------------------------------------------------------------------
 Rotational constants (GHZ):           1.4176722           0.4353057           0.3337523
 Standard basis: def2SVP (5D, 7F)
 There are   230 symmetry adapted cartesian basis functions of A   symmetry.
 There are   218 symmetry adapted basis functions of A   symmetry.
   218 basis functions,   370 primitive gaussians,   230 cartesian basis functions
    44 alpha electrons       44 beta electrons
       nuclear repulsion energy       623.9540737581 Hartrees.
 NAtoms=   22 NActive=   22 NUniq=   22 SFac= 1.00D+00 NAtFMM=   60 NAOKFM=F Big=F
 Integral buffers will be    131072 words long.
 Raffenetti 2 integral format.
 Two-electron integral symmetry is turned on.
 Nuclear repulsion after empirical dispersion term =      623.9443243743 Hartrees.
 Force inversion solution in PCM.
 ------------------------------------------------------------------------------
 Polarizable Continuum Model (PCM)
 =================================
 Model                : PCM.
 Atomic radii         : UFF (Universal Force Field).
 Polarization charges : Total charges.
 Charge compensation  : None.
 Solution method      : Matrix inversion.
 Cavity type          : Scaled VdW (van der Waals Surface) (Alpha=1.100).
 Cavity algorithm     : GePol (No added spheres)
                        Default sphere list used, NSphG=   22.
                        Lebedev-Laikov grids with approx.  5.0 points / Ang**2.
                        Smoothing algorithm: York/Karplus (Gamma=1.0000).
                        Polarization charges: spherical gaussians, with
                                              point-specific exponents (IZeta= 3).
                        Self-potential: point-specific (ISelfS= 7).
                        Self-field    : sphere-specific E.n sum rule (ISelfD= 2).
 1st derivatives      : Analytical E(r).r(x)/FMM algorithm (CHGder, D1EAlg=3).
                        Cavity 1st derivative terms included.
 2nd derivatives      : Analytical E(r).r(xy)/FMM algorithm (CHGder, D2EAlg=3).
                        Cavity 2nd derivative terms included.
 Solvent              : Toluene, Eps=   2.374100 Eps(inf)=   2.238315
 ------------------------------------------------------------------------------
 One-electron integrals computed using PRISM.
   1 Symmetry operations used in ECPInt.
 ECPInt:  NShTT=    5253 NPrTT=   19101 LenC2=    4872 LenP2D=   12782.
 LDataN:  DoStor=T MaxTD1= 4 Len=   56
 NBasis=   218 RedAO= T EigKep=  6.80D-04  NBF=   218
 NBsUse=   218 1.00D-06 EigRej= -1.00D+00 NBFU=   218
 ExpMin= 1.22D-01 ExpMax= 2.27D+03 ExpMxC= 3.41D+02 IAcc=3 IRadAn=         5 AccDes= 0.00D+00
 Harris functional with IExCor= 4639 and IRadAn=       5 diagonalized for initial guess.
 HarFok:  IExCor= 4639 AccDes= 0.00D+00 IRadAn=         5 IDoV= 1 UseB2=F ITyADJ=14
 ICtDFT=  3500011 ScaDFX=  1.000000  1.000000  1.000000  1.000000
 FoFCou: FMM=F IPFlag=           0 FMFlag=      100000 FMFlg1=           0
         NFxFlg=           0 DoJE=T BraDBF=F KetDBF=T FulRan=T
         wScrn=  0.000000 ICntrl=       500 IOpCl=  0 I1Cent=   200000004 NGrid=           0
         NMat0=    1 NMatS0=      1 NMatT0=    0 NMatD0=    1 NMtDS0=    0 NMtDT0=    0
 Petite list used in FoFCou.
 Requested convergence on RMS density matrix=1.00D-08 within 128 cycles.
 Requested convergence on MAX density matrix=1.00D-06.
 Requested convergence on             energy=1.00D-06.
 No special actions if energy rises.
 Inv3:  Mode=1 IEnd=    12374883.
 Iteration    1 A*A^-1 deviation from unit magnitude is 2.78D-15 for   1664.
 Iteration    1 A*A^-1 deviation from orthogonality  is 1.71D-15 for   1688    410.
 Iteration    1 A^-1*A deviation from unit magnitude is 2.89D-15 for    232.
 Iteration    1 A^-1*A deviation from orthogonality  is 2.55D-15 for   1221    938.
 Error on total polarization charges =  0.00535
 SCF Done:  E(RwB97XD) =  -573.993077894     A.U. after   14 cycles
            NFock= 14  Conv=0.39D-08     -V/T= 2.0096
 DoSCS=F DFT=T ScalE2(SS,OS)=  1.000000  1.000000
 Range of M.O.s used for correlation:     1   218
 NBasis=   218 NAE=    44 NBE=    44 NFC=     0 NFV=     0
 NROrb=    218 NOA=    44 NOB=    44 NVA=   174 NVB=   174

 **** Warning!!: The largest alpha MO coefficient is  0.10514125D+02

   1 Symmetry operations used in ECPInt.
 ECPInt:  NShTT=    5253 NPrTT=   19101 LenC2=    4872 LenP2D=   12782.
 LDataN:  DoStor=T MaxTD1= 5 Len=  102
 Symmetrizing basis deriv contribution to polar:
 IMax=3 JMax=2 DiffMx= 0.00D+00
 G2DrvN: will do    23 centers at a time, making    1 passes.
 Calling FoFCou, ICntrl=  3107 FMM=F I1Cent=   0 AccDes= 0.00D+00.
 NEqPCM:  Using equilibrium solvation (IEInf=0, Eps=   2.3741, EpsInf=   2.2383)
 G2PCM: DoFxE=T DoFxN=T DoGrad=T DoDP/DQ/DG/TGxP=FFFF NFrqRd=   0 IEInf=0 SqF1=F DoCFld=F IF1Alg=4.
 End of G2Drv F.D. properties file   721 does not exist.
 End of G2Drv F.D. properties file   722 does not exist.
 End of G2Drv F.D. properties file   788 does not exist.
          IDoAtm=1111111111111111111111
 NEqPCM:  Using equilibrium solvation (IEInf=0, Eps=   2.3741, EpsInf=   2.2383)
          Differentiating once with respect to electric field.
                with respect to dipole field.
          Differentiating once with respect to nuclear coordinates.
 Keep R1 ints in memory in canonical form, NReq=587803738.
          There are    69 degrees of freedom in the 1st order CPHF.  IDoFFX=6 NUNeed=     3.
     66 vectors produced by pass  0 Test12= 1.11D-14 1.45D-09 XBig12= 7.09D+01 4.28D+00.
 AX will form    66 AO Fock derivatives at one time.
     66 vectors produced by pass  1 Test12= 1.11D-14 1.45D-09 XBig12= 9.87D+00 6.17D-01.
     66 vectors produced by pass  2 Test12= 1.11D-14 1.45D-09 XBig12= 3.49D-01 1.19D-01.
     66 vectors produced by pass  3 Test12= 1.11D-14 1.45D-09 XBig12= 4.13D-03 9.73D-03.
     66 vectors produced by pass  4 Test12= 1.11D-14 1.45D-09 XBig12= 3.07D-05 8.70D-04.
     66 vectors produced by pass  5 Test12= 1.11D-14 1.45D-09 XBig12= 1.69D-07 5.99D-05.
     50 vectors produced by pass  6 Test12= 1.11D-14 1.45D-09 XBig12= 8.38D-10 3.32D-06.
     18 vectors produced by pass  7 Test12= 1.11D-14 1.45D-09 XBig12= 3.39D-12 2.42D-07.
      3 vectors produced by pass  8 Test12= 1.11D-14 1.45D-09 XBig12= 1.18D-14 1.17D-08.
 InvSVY:  IOpt=1 It=  1 EMax= 5.33D-15
 Solved reduced A of dimension   467 with    69 vectors.
 Isotropic polarizability for W=    0.000000      114.17 Bohr**3.
 End of Minotr F.D. properties file   721 does not exist.
 End of Minotr F.D. properties file   722 does not exist.
 End of Minotr F.D. properties file   788 does not exist.

 **********************************************************************

            Population analysis using the SCF Density.

 **********************************************************************

 Orbital symmetries:
       Occupied  (A) (A) (A) (A) (A) (A) (A) (A) (A) (A) (A) (A)
                 (A) (A) (A) (A) (A) (A) (A) (A) (A) (A) (A) (A)
                 (A) (A) (A) (A) (A) (A) (A) (A) (A) (A) (A) (A)
                 (A) (A) (A) (A) (A) (A) (A) (A)
       Virtual   (A) (A) (A) (A) (A) (A) (A) (A) (A) (A) (A) (A)
                 (A) (A) (A) (A) (A) (A) (A) (A) (A) (A) (A) (A)
                 (A) (A) (A) (A) (A) (A) (A) (A) (A) (A) (A) (A)
                 (A) (A) (A) (A) (A) (A) (A) (A) (A) (A) (A) (A)
                 (A) (A) (A) (A) (A) (A) (A) (A) (A) (A) (A) (A)
                 (A) (A) (A) (A) (A) (A) (A) (A) (A) (A) (A) (A)
                 (A) (A) (A) (A) (A) (A) (A) (A) (A) (A) (A) (A)
                 (A) (A) (A) (A) (A) (A) (A) (A) (A) (A) (A) (A)
                 (A) (A) (A) (A) (A) (A) (A) (A) (A) (A) (A) (A)
                 (A) (A) (A) (A) (A) (A) (A) (A) (A) (A) (A) (A)
                 (A) (A) (A) (A) (A) (A) (A) (A) (A) (A) (A) (A)
                 (A) (A) (A) (A) (A) (A) (A) (A) (A) (A) (A) (A)
                 (A) (A) (A) (A) (A) (A) (A) (A) (A) (A) (A) (A)
                 (A) (A) (A) (A) (A) (A) (A) (A) (A) (A) (A) (A)
                 (A) (A) (A) (A) (A) (A)
 The electronic state is 1-A.
 Alpha  occ. eigenvalues --  -19.34497 -19.29310 -19.29286 -10.47188 -10.47165
 Alpha  occ. eigenvalues --  -10.36659 -10.36583 -10.29621 -10.29497 -10.28754
 Alpha  occ. eigenvalues --  -10.28702 -10.28570  -1.26527  -1.19286  -1.15452
 Alpha  occ. eigenvalues --   -0.95528  -0.89287  -0.83878  -0.80824  -0.76051
 Alpha  occ. eigenvalues --   -0.74701  -0.69965  -0.67646  -0.61728  -0.61561
 Alpha  occ. eigenvalues --   -0.60357  -0.58027  -0.56702  -0.55872  -0.54464
 Alpha  occ. eigenvalues --   -0.52783  -0.52673  -0.51744  -0.48912  -0.47986
 Alpha  occ. eigenvalues --   -0.46043  -0.44268  -0.43062  -0.41855  -0.41532
 Alpha  occ. eigenvalues --   -0.41064  -0.39327  -0.39309  -0.29365
 Alpha virt. eigenvalues --   -0.05096   0.04420   0.10048   0.12625   0.15059
 Alpha virt. eigenvalues --    0.16392   0.16980   0.17430   0.17468   0.18666
 Alpha virt. eigenvalues --    0.20466   0.22551   0.22747   0.24771   0.25484
 Alpha virt. eigenvalues --    0.27164   0.28369   0.28864   0.32848   0.33821
 Alpha virt. eigenvalues --    0.35091   0.39139   0.40939   0.43113   0.43143
 Alpha virt. eigenvalues --    0.45433   0.47374   0.48235   0.49937   0.50081
 Alpha virt. eigenvalues --    0.51453   0.52316   0.54217   0.54538   0.57347
 Alpha virt. eigenvalues --    0.58159   0.59338   0.60735   0.61047   0.61761
 Alpha virt. eigenvalues --    0.62618   0.66320   0.67131   0.68429   0.69602
 Alpha virt. eigenvalues --    0.70207   0.70632   0.71355   0.72141   0.72707
 Alpha virt. eigenvalues --    0.73718   0.74153   0.74883   0.76415   0.77096
 Alpha virt. eigenvalues --    0.77509   0.78497   0.79499   0.80299   0.82296
 Alpha virt. eigenvalues --    0.84463   0.85751   0.87768   0.91290   0.92838
 Alpha virt. eigenvalues --    0.95922   0.99980   1.03065   1.03752   1.03893
 Alpha virt. eigenvalues --    1.06674   1.10578   1.11040   1.14530   1.18817
 Alpha virt. eigenvalues --    1.21392   1.22105   1.25072   1.26089   1.27076
 Alpha virt. eigenvalues --    1.28438   1.33611   1.35351   1.36211   1.37341
 Alpha virt. eigenvalues --    1.38119   1.43247   1.44046   1.46396   1.49022
 Alpha virt. eigenvalues --    1.54266   1.58788   1.62583   1.63199   1.64032
 Alpha virt. eigenvalues --    1.64731   1.66940   1.67783   1.69654   1.73307
 Alpha virt. eigenvalues --    1.76647   1.77295   1.78304   1.79147   1.81604
 Alpha virt. eigenvalues --    1.83351   1.84244   1.86327   1.86818   1.88276
 Alpha virt. eigenvalues --    1.89931   1.90905   1.92371   1.94098   1.95302
 Alpha virt. eigenvalues --    1.96761   1.98726   2.00667   2.01174   2.02486
 Alpha virt. eigenvalues --    2.07974   2.10065   2.11005   2.12675   2.14191
 Alpha virt. eigenvalues --    2.16296   2.19478   2.20548   2.25499   2.27562
 Alpha virt. eigenvalues --    2.30691   2.30936   2.34207   2.37505   2.40573
 Alpha virt. eigenvalues --    2.44659   2.44865   2.45568   2.51027   2.52062
 Alpha virt. eigenvalues --    2.54753   2.61783   2.62518   2.63110   2.67558
 Alpha virt. eigenvalues --    2.69242   2.72109   2.72865   2.73947   2.75943
 Alpha virt. eigenvalues --    2.77600   2.79806   2.84075   2.84853   2.86593
 Alpha virt. eigenvalues --    2.90105   2.98227   3.00254   3.02543   3.03116
 Alpha virt. eigenvalues --    3.08420   3.09332   3.19673   3.23760   3.24887
 Alpha virt. eigenvalues --    3.27405   3.29047   3.33485   3.40805   3.51379
 Alpha virt. eigenvalues --    3.53269   3.71715   3.76171   3.77736
          Condensed to atoms (all electrons):
               1          2          3          4          5          6
     1  C    4.932309   0.000006  -0.028264   0.000005   0.583131  -0.043550
     2  C    0.000006   5.194062  -0.000000   0.371561  -0.000013  -0.000000
     3  C   -0.028264  -0.000000   4.807275   0.000000  -0.051194   0.634006
     4  C    0.000005   0.371561   0.000000   5.177110  -0.000128  -0.000002
     5  C    0.583131  -0.000013  -0.051194  -0.000128   4.903311   0.347346
     6  C   -0.043550  -0.000000   0.634006  -0.000002   0.347346   4.773595
     7  H   -0.000211   0.000000   0.388505  -0.000000   0.009388  -0.013894
     8  H    0.009622  -0.000000   0.384152   0.000000  -0.028050  -0.005167
     9  H    0.391502  -0.000000   0.008475  -0.000000  -0.019931  -0.023472
    10  H    0.000000   0.429383   0.000000  -0.044002  -0.000000  -0.000000
    11  H    0.000000  -0.044416  -0.000000   0.431098   0.000002  -0.000000
    12  O   -0.000289  -0.097658  -0.000001  -0.098503  -0.002419   0.000079
    13  C    0.000076   0.276609  -0.000000  -0.009396   0.000037  -0.000005
    14  C    0.000130  -0.003121  -0.000001   0.273061  -0.000813  -0.000019
    15  O    0.000072  -0.062266  -0.000000   0.002670  -0.000011  -0.000000
    16  O    0.000130   0.002594   0.000011  -0.061589  -0.002832  -0.000693
    17  C    0.381114  -0.000055   0.000039  -0.000004  -0.045074   0.009477
    18  H   -0.018502  -0.000000   0.000039   0.000000   0.000889  -0.000328
    19  H   -0.017843   0.000674  -0.000019  -0.000084  -0.013539   0.000384
    20  H   -0.018536  -0.000000   0.000039   0.000000   0.000977  -0.000330
    21  H   -0.058757  -0.000115   0.011564   0.001177   0.411897  -0.042464
    22  H    0.012884  -0.000001  -0.058429   0.000016  -0.044916   0.415312
               7          8          9         10         11         12
     1  C   -0.000211   0.009622   0.391502   0.000000   0.000000  -0.000289
     2  C    0.000000  -0.000000  -0.000000   0.429383  -0.044416  -0.097658
     3  C    0.388505   0.384152   0.008475   0.000000  -0.000000  -0.000001
     4  C   -0.000000   0.000000  -0.000000  -0.044002   0.431098  -0.098503
     5  C    0.009388  -0.028050  -0.019931  -0.000000   0.000002  -0.002419
     6  C   -0.013894  -0.005167  -0.023472  -0.000000  -0.000000   0.000079
     7  H    0.621518  -0.042847  -0.000101  -0.000000  -0.000000   0.000000
     8  H   -0.042847   0.630809   0.001485  -0.000000   0.000000   0.000000
     9  H   -0.000101   0.001485   0.656662   0.000000   0.000000  -0.000005
    10  H   -0.000000  -0.000000   0.000000   0.551111  -0.005185   0.002770
    11  H   -0.000000   0.000000   0.000000  -0.005185   0.551165   0.002711
    12  O    0.000000   0.000000  -0.000005   0.002770   0.002711   7.996008
    13  C   -0.000000  -0.000000  -0.000000  -0.034177   0.009447   0.304503
    14  C   -0.000000   0.000000  -0.000002   0.009285  -0.035564   0.306012
    15  O    0.000000  -0.000000  -0.000000   0.001697  -0.000039  -0.068468
    16  O   -0.000001  -0.000000  -0.000000  -0.000040   0.001621  -0.068186
    17  C   -0.000004   0.000097  -0.045686   0.000001  -0.000000  -0.000906
    18  H   -0.000000   0.000002  -0.003297  -0.000000  -0.000000   0.000013
    19  H    0.000001   0.000001   0.005927  -0.000008   0.000001   0.002989
    20  H   -0.000000   0.000002  -0.003350  -0.000000  -0.000000   0.000011
    21  H   -0.000215  -0.000171   0.008353   0.000003  -0.000018   0.007465
    22  H   -0.014343   0.007943  -0.000086   0.000000  -0.000000  -0.000022
              13         14         15         16         17         18
     1  C    0.000076   0.000130   0.000072   0.000130   0.381114  -0.018502
     2  C    0.276609  -0.003121  -0.062266   0.002594  -0.000055  -0.000000
     3  C   -0.000000  -0.000001  -0.000000   0.000011   0.000039   0.000039
     4  C   -0.009396   0.273061   0.002670  -0.061589  -0.000004   0.000000
     5  C    0.000037  -0.000813  -0.000011  -0.002832  -0.045074   0.000889
     6  C   -0.000005  -0.000019  -0.000000  -0.000693   0.009477  -0.000328
     7  H   -0.000000  -0.000000   0.000000  -0.000001  -0.000004  -0.000000
     8  H   -0.000000   0.000000  -0.000000  -0.000000   0.000097   0.000002
     9  H   -0.000000  -0.000002  -0.000000  -0.000000  -0.045686  -0.003297
    10  H   -0.034177   0.009285   0.001697  -0.000040   0.000001  -0.000000
    11  H    0.009447  -0.035564  -0.000039   0.001621  -0.000000  -0.000000
    12  O    0.304503   0.306012  -0.068468  -0.068186  -0.000906   0.000013
    13  C    4.506200  -0.088659   0.728312  -0.000091  -0.000506  -0.000008
    14  C   -0.088659   4.522136  -0.000105   0.726428   0.000022  -0.000001
    15  O    0.728312  -0.000105   7.559155  -0.000020  -0.001967   0.000017
    16  O   -0.000091   0.726428  -0.000020   7.559068   0.000000  -0.000000
    17  C   -0.000506   0.000022  -0.001967   0.000000   4.581853   0.382764
    18  H   -0.000008  -0.000001   0.000017  -0.000000   0.382764   0.633003
    19  H    0.002232  -0.000043   0.009564  -0.000068   0.387716  -0.019449
    20  H   -0.000008  -0.000001   0.000019  -0.000000   0.382797  -0.022968
    21  H   -0.000231   0.000725  -0.000219   0.011077  -0.016058   0.000347
    22  H    0.000001   0.000130   0.000000   0.002354  -0.000239   0.000005
              19         20         21         22
     1  C   -0.017843  -0.018536  -0.058757   0.012884
     2  C    0.000674  -0.000000  -0.000115  -0.000001
     3  C   -0.000019   0.000039   0.011564  -0.058429
     4  C   -0.000084   0.000000   0.001177   0.000016
     5  C   -0.013539   0.000977   0.411897  -0.044916
     6  C    0.000384  -0.000330  -0.042464   0.415312
     7  H    0.000001  -0.000000  -0.000215  -0.014343
     8  H    0.000001   0.000002  -0.000171   0.007943
     9  H    0.005927  -0.003350   0.008353  -0.000086
    10  H   -0.000008  -0.000000   0.000003   0.000000
    11  H    0.000001  -0.000000  -0.000018  -0.000000
    12  O    0.002989   0.000011   0.007465  -0.000022
    13  C    0.002232  -0.000008  -0.000231   0.000001
    14  C   -0.000043  -0.000001   0.000725   0.000130
    15  O    0.009564   0.000019  -0.000219   0.000000
    16  O   -0.000068  -0.000000   0.011077   0.002354
    17  C    0.387716   0.382797  -0.016058  -0.000239
    18  H   -0.019449  -0.022968   0.000347   0.000005
    19  H    0.614459  -0.019564   0.005548   0.000009
    20  H   -0.019564   0.633264   0.000357   0.000005
    21  H    0.005548   0.000357   0.662464  -0.012384
    22  H    0.000009   0.000005  -0.012384   0.660097
 Mulliken charges:
               1
     1  C   -0.125030
     2  C   -0.067243
     3  C   -0.096197
     4  C   -0.042989
     5  C   -0.048059
     6  C   -0.050275
     7  H    0.052204
     8  H    0.042121
     9  H    0.023528
    10  H    0.089163
    11  H    0.089178
    12  O   -0.286103
    13  C    0.305663
    14  C    0.290401
    15  O   -0.168410
    16  O   -0.169764
    17  C   -0.015381
    18  H    0.047474
    19  H    0.041113
    20  H    0.047285
    21  H    0.009658
    22  H    0.031664
 Sum of Mulliken charges =  -0.00000
 Mulliken charges with hydrogens summed into heavy atoms:
               1
     1  C   -0.101502
     2  C    0.021920
     3  C   -0.001873
     4  C    0.046189
     5  C   -0.038402
     6  C   -0.018611
    12  O   -0.286103
    13  C    0.305663
    14  C    0.290401
    15  O   -0.168410
    16  O   -0.169764
    17  C    0.120492
 APT charges:
               1
     1  C    0.058400
     2  C   -0.137562
     3  C   -0.201338
     4  C   -0.138188
     5  C   -0.083804
     6  C    0.128940
     7  H    0.035386
     8  H    0.038056
     9  H    0.007273
    10  H    0.117755
    11  H    0.118356
    12  O   -0.966828
    13  C    1.283274
    14  C    1.278414
    15  O   -0.783753
    16  O   -0.796276
    17  C    0.022073
    18  H   -0.026691
    19  H    0.005026
    20  H   -0.026559
    21  H    0.046136
    22  H    0.021909
 Sum of APT charges =  -0.00000
 APT charges with hydrogens summed into heavy atoms:
               1
     1  C    0.065673
     2  C   -0.019807
     3  C   -0.127896
     4  C   -0.019832
     5  C   -0.037668
     6  C    0.150849
    12  O   -0.966828
    13  C    1.283274
    14  C    1.278414
    15  O   -0.783753
    16  O   -0.796276
    17  C   -0.026150
 Electronic spatial extent (au):  <R**2>=           3135.0182
 Charge=             -0.0000 electrons
 Dipole moment (field-independent basis, Debye):
    X=             -5.1954    Y=             -1.1553    Z=              0.0868  Tot=              5.3231
 Quadrupole moment (field-independent basis, Debye-Ang):
   XX=            -50.6078   YY=            -74.0580   ZZ=            -71.6039
   XY=             10.2958   XZ=             -0.1300   YZ=             -0.0397
 Traceless Quadrupole moment (field-independent basis, Debye-Ang):
   XX=             14.8154   YY=             -8.6348   ZZ=             -6.1806
   XY=             10.2958   XZ=             -0.1300   YZ=             -0.0397
 Octapole moment (field-independent basis, Debye-Ang**2):
  XXX=            -96.5243  YYY=             -7.2771  ZZZ=             -0.3312  XYY=              5.3214
  XXY=            -19.7996  XXZ=              1.2159  XZZ=            -16.2946  YZZ=              2.8301
  YYZ=              0.2385  XYZ=              0.1834
 Hexadecapole moment (field-independent basis, Debye-Ang**3):
 XXXX=          -2747.4122 YYYY=           -993.3568 ZZZZ=            -76.8340 XXXY=             71.8321
 XXXZ=             -1.3412 YYYX=             46.2217 YYYZ=             -0.4206 ZZZX=              0.2886
 ZZZY=              0.3686 XXYY=           -645.7419 XXZZ=           -583.9621 YYZZ=           -172.6795
 XXYZ=             -0.3178 YYXZ=             -0.5447 ZZXY=              2.6192
 N-N= 6.239443243743D+02 E-N=-2.585220663081D+03  KE= 5.685429420769D+02
  Exact polarizability:     129.863     -21.806     156.073       0.052       0.133      56.562
 Approx polarizability:     118.574     -18.739     156.708       0.057       0.269      62.265
   1 Symmetry operations used in ECPInt.
 ECPInt:  NShTT=    5253 NPrTT=   19101 LenC2=    4872 LenP2D=   12782.
 LDataN:  DoStor=T MaxTD1= 6 Len=  172
 D2PCM: PCM CHGder 2nd derivatives, FixD1E=F FixD2E=F DoIter=F DoCFld=F I1PDM=0
 Calling FoFJK, ICntrl=    100127 FMM=F ISym2X=0 I1Cent= 0 IOpClX= 0 NMat=1 NMatS=1 NMatT=0.
 Full mass-weighted force constant matrix:
 Low frequencies ---  -85.7955   -0.0011   -0.0009    0.0004    6.0845    7.7436
 Low frequencies ---   11.7551   13.5605   31.3083
 ******    1 imaginary frequencies (negative Signs) ****** 
 Diagonal vibrational polarizability:
       22.2913146      68.4011358    1309.8843723
 Harmonic frequencies (cm**-1), IR intensities (KM/Mole), Raman scattering
 activities (A**4/AMU), depolarization ratios for plane and unpolarized
 incident light, reduced masses (AMU), force constants (mDyne/A),
 and normal coordinates:
                      1                      2                      3
                      A                      A                      A
 Frequencies --    -85.7839                12.3331                30.9895
 Red. masses --      1.6438                 4.6106                 6.4141
 Frc consts  --      0.0071                 0.0004                 0.0036
 IR Inten    --      0.4217                 7.0706                 2.0128
  Atom  AN      X      Y      Z        X      Y      Z        X      Y      Z
     1   6     0.00   0.00  -0.14    -0.01   0.01   0.04    -0.02   0.11  -0.08
     2   6    -0.00  -0.00  -0.01     0.01   0.01   0.28     0.05   0.07  -0.04
     3   6    -0.00  -0.00   0.14    -0.01   0.00   0.21    -0.11   0.04   0.05
     4   6    -0.00  -0.00  -0.02     0.00   0.00   0.21    -0.07   0.03  -0.12
     5   6    -0.00   0.00   0.04    -0.01   0.01  -0.07    -0.07   0.12   0.03
     6   6     0.00   0.00  -0.11    -0.01   0.01   0.01    -0.11   0.09   0.13
     7   1    -0.00  -0.00  -0.05    -0.01   0.00   0.25    -0.15   0.02   0.14
     8   1    -0.01  -0.01   0.56    -0.01   0.00   0.33    -0.08   0.02  -0.11
     9   1     0.01   0.00  -0.47    -0.01   0.00   0.22    -0.01   0.07  -0.11
    10   1    -0.00  -0.00  -0.02     0.02   0.02   0.48     0.09   0.17  -0.06
    11   1     0.00  -0.00  -0.03    -0.00   0.01   0.35    -0.16   0.08  -0.22
    12   8    -0.00   0.00   0.02     0.00  -0.01  -0.21     0.07  -0.15   0.07
    13   6    -0.00  -0.00   0.01     0.01  -0.00   0.01     0.15  -0.04   0.08
    14   6     0.00   0.00  -0.00    -0.00  -0.01  -0.10    -0.06  -0.12  -0.05
    15   8    -0.00  -0.00   0.02     0.02  -0.00  -0.03     0.26  -0.04   0.18
    16   8     0.00   0.00   0.00    -0.01  -0.02  -0.24    -0.14  -0.19  -0.08
    17   6     0.00   0.00   0.03    -0.01   0.01  -0.05     0.02   0.14  -0.18
    18   1    -0.16  -0.00  -0.01     0.11   0.03  -0.01     0.02   0.03  -0.26
    19   1    -0.00   0.00   0.22    -0.00   0.01  -0.19     0.01   0.18  -0.11
    20   1     0.16   0.00  -0.00    -0.12  -0.02  -0.01     0.07   0.23  -0.26
    21   1    -0.00  -0.00   0.29    -0.00   0.01  -0.24    -0.08   0.16   0.06
    22   1     0.01   0.00  -0.46    -0.01   0.01  -0.10    -0.15   0.10   0.28
                      4                      5                      6
                      A                      A                      A
 Frequencies --     31.5866                43.9016                64.4981
 Red. masses --      5.1323                 4.5206                 5.2042
 Frc consts  --      0.0030                 0.0051                 0.0128
 IR Inten    --      1.3032                 0.8027                 0.5928
  Atom  AN      X      Y      Z        X      Y      Z        X      Y      Z
     1   6     0.01  -0.07  -0.10    -0.04  -0.04   0.01     0.24   0.07  -0.02
     2   6    -0.04  -0.04  -0.01    -0.04   0.10   0.00    -0.12  -0.04   0.03
     3   6     0.09  -0.00   0.10     0.24   0.17  -0.01     0.09  -0.04  -0.04
     4   6     0.03  -0.01  -0.12    -0.12   0.07   0.01    -0.12  -0.04   0.02
     5   6     0.05  -0.08   0.03     0.10  -0.08   0.01     0.16   0.10   0.07
     6   6     0.09  -0.05   0.17     0.24   0.02  -0.01     0.09   0.04   0.04
     7   1     0.13   0.02   0.23     0.35   0.23  -0.03     0.03  -0.07  -0.06
     8   1     0.07   0.02  -0.09     0.14   0.24   0.01     0.15  -0.07  -0.09
     9   1    -0.00  -0.03  -0.10    -0.06   0.07  -0.01     0.26   0.01  -0.12
    10   1    -0.06  -0.09  -0.00    -0.02   0.17   0.00    -0.12  -0.04   0.05
    11   1     0.07  -0.04  -0.23    -0.18   0.11   0.02    -0.12  -0.04   0.04
    12   8    -0.04   0.09   0.07    -0.03  -0.05  -0.01    -0.12  -0.04  -0.03
    13   6    -0.09   0.03   0.11     0.02   0.03  -0.01    -0.13  -0.04  -0.01
    14   6     0.02   0.07  -0.07    -0.12  -0.03   0.01    -0.12  -0.04  -0.02
    15   8    -0.15   0.03   0.23     0.10   0.02  -0.02    -0.13  -0.04  -0.02
    16   8     0.07   0.11  -0.14    -0.17  -0.08   0.01    -0.13  -0.04  -0.03
    17   6    -0.03  -0.10  -0.25    -0.15  -0.13   0.03     0.31   0.12   0.01
    18   1    -0.06  -0.22  -0.34    -0.22  -0.10   0.04     0.28   0.09  -0.02
    19   1    -0.02  -0.13  -0.18    -0.12  -0.23   0.03     0.29   0.17   0.09
    20   1    -0.03   0.03  -0.34    -0.20  -0.13   0.04     0.40   0.14  -0.02
    21   1     0.06  -0.12   0.03     0.12  -0.20   0.02     0.14   0.16   0.16
    22   1     0.12  -0.07   0.35     0.35  -0.04  -0.03     0.03   0.07   0.08
                      7                      8                      9
                      A                      A                      A
 Frequencies --     68.7586               170.3358               202.2979
 Red. masses --      2.4249                15.5071                 1.3203
 Frc consts  --      0.0068                 0.2651                 0.0318
 IR Inten    --      0.4836                 3.8273                 2.6253
  Atom  AN      X      Y      Z        X      Y      Z        X      Y      Z
     1   6    -0.03  -0.01  -0.06    -0.00   0.00  -0.00    -0.00  -0.00   0.14
     2   6     0.02   0.00   0.06     0.00   0.00   0.09    -0.00   0.00  -0.01
     3   6    -0.01   0.00  -0.14    -0.00  -0.00  -0.01     0.00   0.00  -0.02
     4   6     0.02   0.00   0.05     0.00   0.00   0.08     0.00   0.00   0.01
     5   6    -0.03  -0.01   0.23    -0.00  -0.00   0.03    -0.00  -0.00   0.03
     6   6    -0.02  -0.01   0.12    -0.00  -0.00   0.01     0.00   0.00  -0.06
     7   1    -0.01   0.01  -0.21    -0.00  -0.00  -0.03     0.00   0.00  -0.12
     8   1    -0.02   0.01  -0.27    -0.00  -0.00  -0.01    -0.00   0.00   0.13
     9   1    -0.03  -0.00  -0.41    -0.00   0.00  -0.03    -0.00  -0.00   0.24
    10   1     0.02   0.00   0.12    -0.00  -0.00  -0.09    -0.00   0.00  -0.01
    11   1     0.03   0.00   0.10    -0.00  -0.00  -0.10     0.00   0.00   0.02
    12   8     0.02   0.01  -0.09     0.01   0.00   0.68     0.00  -0.00  -0.00
    13   6     0.02   0.01  -0.03     0.00   0.00   0.11     0.00   0.00  -0.01
    14   6     0.02   0.01  -0.04     0.00   0.00   0.10     0.00  -0.00   0.00
    15   8     0.02   0.01  -0.04    -0.01  -0.00  -0.48     0.00   0.00  -0.00
    16   8     0.02   0.01  -0.06    -0.01  -0.00  -0.49    -0.00  -0.00  -0.00
    17   6    -0.04  -0.02   0.05    -0.00  -0.00  -0.00     0.00   0.00  -0.05
    18   1    -0.24  -0.10  -0.05    -0.00  -0.00  -0.00    -0.23  -0.39  -0.39
    19   1    -0.04  -0.02   0.30    -0.00  -0.00   0.00    -0.00   0.00   0.34
    20   1     0.15   0.07  -0.05     0.00   0.00  -0.00     0.25   0.39  -0.38
    21   1    -0.03  -0.02   0.54    -0.00  -0.00   0.05     0.00  -0.00  -0.07
    22   1    -0.01  -0.01   0.25    -0.00  -0.00   0.01     0.00   0.00  -0.21
                     10                     11                     12
                      A                      A                      A
 Frequencies --    230.3772               246.4399               262.5694
 Red. masses --      2.8182                 1.6242                 3.9849
 Frc consts  --      0.0881                 0.0581                 0.1619
 IR Inten    --      0.0528                 2.0585                 0.0240
  Atom  AN      X      Y      Z        X      Y      Z        X      Y      Z
     1   6    -0.06  -0.15  -0.01    -0.00  -0.00   0.09     0.00   0.00  -0.01
     2   6     0.00  -0.00  -0.00     0.00  -0.00   0.02     0.01   0.00   0.31
     3   6    -0.02   0.24   0.00     0.00   0.00  -0.04    -0.00  -0.00   0.01
     4   6     0.00  -0.00   0.00    -0.00  -0.00  -0.03    -0.01  -0.00  -0.31
     5   6    -0.15  -0.12  -0.01    -0.00  -0.00   0.17     0.00   0.00  -0.03
     6   6    -0.03  -0.03   0.00     0.00  -0.00  -0.05     0.00   0.00   0.00
     7   1     0.18   0.36   0.02     0.01   0.01  -0.33    -0.00  -0.00   0.06
     8   1    -0.20   0.36  -0.01    -0.01   0.00   0.25     0.00   0.00  -0.04
     9   1    -0.03  -0.30  -0.01    -0.00  -0.00   0.04    -0.00   0.00   0.01
    10   1    -0.00  -0.00  -0.00     0.00  -0.00   0.04     0.01   0.00   0.59
    11   1     0.00  -0.00   0.00    -0.00  -0.00  -0.05    -0.01  -0.00  -0.59
    12   8    -0.00   0.00   0.00    -0.00  -0.00   0.00     0.00  -0.00   0.00
    13   6    -0.00  -0.00  -0.00    -0.00  -0.00   0.01     0.00   0.00   0.11
    14   6     0.00   0.00   0.00    -0.00  -0.00  -0.01    -0.00  -0.00  -0.11
    15   8    -0.00  -0.00   0.00    -0.00  -0.00  -0.00    -0.00  -0.00  -0.14
    16   8     0.00   0.00  -0.00     0.00   0.00   0.01     0.00   0.00   0.14
    17   6     0.19   0.03   0.01     0.01   0.00  -0.12    -0.00  -0.00   0.02
    18   1     0.34  -0.01   0.01     0.37   0.10   0.03    -0.08  -0.04  -0.03
    19   1     0.11   0.28   0.02     0.01   0.01  -0.57    -0.00  -0.00   0.13
    20   1     0.36  -0.01   0.01    -0.36  -0.10   0.02     0.08   0.04  -0.03
    21   1    -0.15  -0.14  -0.01    -0.01  -0.00   0.20     0.00   0.00  -0.04
    22   1     0.14  -0.12   0.01     0.01  -0.00  -0.33    -0.00  -0.00   0.05
                     13                     14                     15
                      A                      A                      A
 Frequencies --    395.4067               418.1275               578.4348
 Red. masses --      2.8782                12.7721                 4.5391
 Frc consts  --      0.2651                 1.3156                 0.8948
 IR Inten    --      2.0748                19.5675                 2.3518
  Atom  AN      X      Y      Z        X      Y      Z        X      Y      Z
     1   6     0.23   0.00   0.00     0.01   0.00   0.00    -0.00   0.00   0.00
     2   6     0.00   0.00  -0.00    -0.23  -0.06   0.00    -0.09  -0.21   0.00
     3   6    -0.14   0.16  -0.00    -0.00   0.00  -0.00    -0.00   0.00   0.00
     4   6     0.00   0.00  -0.00    -0.21  -0.10   0.00     0.21  -0.10  -0.00
     5   6     0.06   0.07   0.00     0.00   0.00  -0.00     0.00  -0.00   0.00
     6   6    -0.13  -0.01  -0.00    -0.00   0.00   0.00    -0.00  -0.00  -0.00
     7   1     0.04   0.26   0.00    -0.00   0.00   0.00     0.00   0.00   0.00
     8   1    -0.31   0.26  -0.00    -0.00   0.00  -0.00    -0.01   0.00   0.00
     9   1     0.22   0.04   0.00     0.01   0.00   0.00    -0.00   0.00  -0.00
    10   1     0.00   0.00  -0.00    -0.26  -0.14   0.00    -0.22  -0.56   0.00
    11   1     0.00   0.00  -0.00    -0.29  -0.06   0.01     0.53  -0.28  -0.01
    12   8     0.00   0.00  -0.00    -0.32  -0.12   0.01    -0.05   0.13   0.00
    13   6     0.00   0.00   0.00    -0.12  -0.06   0.00    -0.15   0.08   0.00
    14   6     0.00  -0.00  -0.00    -0.12  -0.03   0.00     0.06   0.16  -0.00
    15   8    -0.00   0.00   0.00     0.52  -0.08  -0.01     0.21   0.06  -0.00
    16   8    -0.00  -0.00  -0.00     0.34   0.40  -0.01    -0.20  -0.09   0.00
    17   6     0.01  -0.21  -0.00     0.00  -0.01   0.00    -0.00   0.00   0.00
    18   1    -0.21  -0.16  -0.01    -0.01  -0.01  -0.00     0.00   0.00   0.00
    19   1     0.11  -0.55  -0.00     0.00  -0.02   0.00    -0.00   0.00   0.00
    20   1    -0.21  -0.16   0.00    -0.01  -0.01  -0.00     0.00   0.00  -0.00
    21   1     0.02   0.28   0.00     0.00   0.00  -0.00     0.00   0.00   0.00
    22   1    -0.13  -0.01  -0.00    -0.00   0.00   0.00    -0.00  -0.00   0.00
                     16                     17                     18
                      A                      A                      A
 Frequencies --    605.6816               642.4859               653.4647
 Red. masses --      2.5580                 1.3957                 2.3262
 Frc consts  --      0.5529                 0.3395                 0.5852
 IR Inten    --      8.3484                 3.8068                 0.5017
  Atom  AN      X      Y      Z        X      Y      Z        X      Y      Z
     1   6     0.01  -0.07   0.00    -0.00  -0.00   0.07     0.00  -0.00   0.01
     2   6     0.00  -0.00  -0.00     0.00  -0.00  -0.00    -0.00  -0.00   0.01
     3   6     0.04  -0.01   0.00    -0.00  -0.00   0.03    -0.00   0.00   0.00
     4   6     0.00  -0.00  -0.00     0.00  -0.00   0.00    -0.00   0.00   0.02
     5   6    -0.17   0.04  -0.00    -0.00  -0.00   0.03    -0.00   0.00   0.00
     6   6     0.03   0.28   0.00     0.00   0.00  -0.17     0.00   0.00  -0.02
     7   1    -0.42  -0.27  -0.00    -0.01  -0.00   0.72    -0.00  -0.00   0.07
     8   1     0.49  -0.30   0.00     0.00   0.00  -0.35     0.00  -0.00  -0.03
     9   1     0.05  -0.27  -0.00     0.00   0.00  -0.25     0.00  -0.00  -0.03
    10   1    -0.00  -0.01  -0.00     0.00  -0.00   0.03    -0.00   0.02  -0.66
    11   1     0.00  -0.00  -0.00     0.00   0.00   0.04     0.01  -0.02  -0.66
    12   8    -0.00   0.00   0.00     0.00  -0.00   0.01     0.01   0.01  -0.14
    13   6    -0.00   0.00   0.00    -0.00   0.00  -0.01     0.02  -0.02   0.20
    14   6     0.00  -0.00  -0.00    -0.00  -0.00  -0.01    -0.00   0.03   0.20
    15   8     0.00   0.00  -0.00     0.00   0.00   0.00    -0.00  -0.03  -0.05
    16   8     0.00  -0.00   0.00     0.00  -0.00   0.00    -0.02   0.02  -0.05
    17   6     0.07  -0.15   0.00    -0.00   0.00   0.00     0.00  -0.00   0.00
    18   1     0.01  -0.14  -0.01     0.12  -0.11  -0.05     0.01  -0.01  -0.01
    19   1     0.10  -0.24  -0.00     0.00   0.00  -0.12     0.00  -0.00  -0.01
    20   1     0.01  -0.14   0.00    -0.12   0.11  -0.05    -0.01   0.01  -0.01
    21   1    -0.15  -0.02  -0.00    -0.01  -0.00   0.37    -0.00  -0.00   0.03
    22   1     0.10   0.24   0.00    -0.00  -0.00   0.24    -0.00   0.00   0.02
                     19                     20                     21
                      A                      A                      A
 Frequencies --    653.9575               715.1087               774.1081
 Red. masses --      9.6309                 8.7497                 8.0202
 Frc consts  --      2.4267                 2.6363                 2.8316
 IR Inten    --      0.7520                37.3603                 0.0023
  Atom  AN      X      Y      Z        X      Y      Z        X      Y      Z
     1   6    -0.00   0.00   0.00    -0.00  -0.00  -0.00    -0.00   0.00  -0.00
     2   6     0.02   0.04   0.00    -0.35   0.23   0.01     0.00   0.00   0.20
     3   6     0.00  -0.00   0.00     0.00   0.00  -0.00    -0.00   0.00   0.00
     4   6     0.04  -0.02   0.00     0.11   0.40  -0.00    -0.00   0.00  -0.20
     5   6     0.00  -0.00   0.00    -0.00  -0.00   0.00    -0.00  -0.00   0.01
     6   6     0.00  -0.01  -0.00     0.00   0.00  -0.00     0.00   0.00  -0.01
     7   1     0.02   0.01   0.02    -0.01  -0.00   0.00    -0.00  -0.00   0.02
     8   1    -0.01   0.01  -0.01     0.01  -0.00  -0.00     0.00   0.00  -0.01
     9   1    -0.00   0.01  -0.01    -0.00  -0.00  -0.00    -0.00  -0.00  -0.00
    10   1    -0.12  -0.34  -0.21    -0.37   0.16   0.00     0.01   0.00   0.43
    11   1    -0.32   0.18  -0.20     0.18   0.37  -0.01    -0.01   0.00  -0.43
    12   8    -0.23  -0.08  -0.04     0.02  -0.06  -0.00     0.00  -0.00  -0.00
    13   6    -0.14   0.34   0.07    -0.30  -0.14   0.01    -0.01  -0.00  -0.51
    14   6     0.12  -0.34   0.06     0.32   0.09  -0.01     0.01   0.00   0.51
    15   8    -0.02   0.40  -0.02     0.03  -0.22  -0.00     0.00  -0.00   0.13
    16   8     0.24  -0.31  -0.02     0.12  -0.19  -0.00    -0.00  -0.00  -0.13
    17   6    -0.00   0.01   0.00     0.00  -0.00  -0.00     0.00  -0.00  -0.00
    18   1     0.00   0.00  -0.00     0.00  -0.00   0.00     0.00   0.01   0.00
    19   1    -0.00   0.00  -0.00     0.00  -0.00  -0.00    -0.00   0.00   0.00
    20   1    -0.00   0.01  -0.00     0.00  -0.00   0.00    -0.00  -0.01   0.00
    21   1    -0.00   0.01   0.01     0.00  -0.00  -0.00     0.00   0.00  -0.01
    22   1     0.00  -0.01   0.01    -0.00   0.00   0.00     0.00   0.00   0.00
                     22                     23                     24
                      A                      A                      A
 Frequencies --    850.4758               866.2712               903.8410
 Red. masses --      1.5583                 1.9968                 1.7931
 Frc consts  --      0.6641                 0.8829                 0.8630
 IR Inten    --      7.0580                86.9704                 4.7134
  Atom  AN      X      Y      Z        X      Y      Z        X      Y      Z
     1   6     0.00   0.00  -0.10    -0.00  -0.00   0.00    -0.08  -0.00  -0.00
     2   6    -0.00  -0.00  -0.00    -0.00  -0.00  -0.13    -0.05  -0.02   0.00
     3   6     0.00  -0.00  -0.01    -0.00   0.00   0.00    -0.06   0.02  -0.00
     4   6    -0.00  -0.00  -0.00    -0.00  -0.00  -0.13    -0.05  -0.02   0.00
     5   6    -0.00  -0.00   0.17     0.00   0.00  -0.00     0.15  -0.00   0.00
     6   6     0.00   0.00  -0.08    -0.00  -0.00   0.00    -0.02   0.08  -0.00
     7   1    -0.01  -0.00   0.37     0.00   0.00  -0.01    -0.16  -0.03  -0.00
     8   1     0.00   0.00  -0.09     0.00   0.00  -0.00    -0.03   0.00   0.00
     9   1    -0.01  -0.01   0.62     0.00   0.00  -0.02    -0.16   0.35   0.00
    10   1     0.00   0.00   0.01     0.01   0.00   0.67    -0.05   0.00   0.00
    11   1     0.00   0.00   0.01     0.01   0.00   0.68    -0.05  -0.03   0.00
    12   8    -0.00   0.00  -0.00    -0.00  -0.00  -0.06     0.05   0.03  -0.00
    13   6     0.00  -0.00   0.00     0.00   0.00   0.16     0.01   0.01  -0.00
    14   6    -0.00  -0.00  -0.00     0.00   0.00   0.16     0.01  -0.01  -0.00
    15   8     0.00   0.00  -0.00    -0.00   0.00  -0.04     0.00   0.01  -0.00
    16   8     0.00  -0.00   0.00    -0.00  -0.00  -0.04     0.01  -0.01  -0.00
    17   6     0.00   0.00  -0.06    -0.00  -0.00   0.00    -0.01  -0.13  -0.00
    18   1    -0.23   0.28   0.10     0.00  -0.01  -0.00     0.44  -0.19   0.05
    19   1    -0.00  -0.00   0.18     0.00   0.00  -0.01    -0.18   0.42   0.00
    20   1     0.22  -0.28   0.10    -0.00   0.01  -0.00     0.45  -0.19  -0.04
    21   1     0.00   0.00  -0.34     0.00   0.00  -0.00     0.17  -0.04   0.00
    22   1     0.00  -0.00  -0.05     0.00  -0.00   0.00    -0.14   0.14  -0.00
                     25                     26                     27
                      A                      A                      A
 Frequencies --    905.2425               940.1276               970.8969
 Red. masses --      6.8104                 1.3755                 6.1876
 Frc consts  --      3.2882                 0.7163                 3.4365
 IR Inten    --     10.4426                43.6293               125.7232
  Atom  AN      X      Y      Z        X      Y      Z        X      Y      Z
     1   6     0.05  -0.00   0.00     0.00  -0.00   0.01     0.00   0.00   0.00
     2   6    -0.34  -0.11   0.01    -0.00  -0.00  -0.00     0.14   0.02  -0.00
     3   6     0.04  -0.01   0.00     0.00   0.00  -0.17     0.01  -0.00   0.00
     4   6    -0.34  -0.14   0.01    -0.00  -0.00  -0.00    -0.12  -0.07   0.00
     5   6    -0.09   0.00  -0.00     0.00   0.00  -0.02    -0.01   0.00   0.00
     6   6     0.01  -0.04   0.00    -0.00  -0.00   0.06     0.00  -0.01  -0.00
     7   1     0.09   0.02   0.00    -0.01  -0.00   0.59     0.01   0.00   0.00
     8   1     0.02  -0.00  -0.00    -0.01  -0.00   0.78     0.01  -0.00  -0.00
     9   1     0.09  -0.20  -0.00     0.00   0.00  -0.07     0.01  -0.02  -0.00
    10   1    -0.34  -0.02   0.01     0.00   0.00   0.00     0.31   0.46  -0.01
    11   1    -0.27  -0.21   0.01    -0.00   0.00   0.00    -0.55   0.16   0.01
    12   8     0.36   0.14  -0.01    -0.00   0.00  -0.00    -0.17   0.46   0.00
    13   6     0.04   0.07  -0.00     0.00   0.00   0.00    -0.02  -0.13   0.00
    14   6     0.08  -0.03  -0.00     0.00   0.00   0.00     0.09  -0.09  -0.00
    15   8     0.02   0.09  -0.00     0.00   0.00  -0.00     0.07  -0.14  -0.00
    16   8     0.08  -0.06  -0.00     0.00  -0.00  -0.00     0.04  -0.16  -0.00
    17   6     0.01   0.08   0.00    -0.00   0.00   0.01    -0.00   0.00   0.00
    18   1    -0.26   0.11  -0.03     0.02  -0.02  -0.01    -0.00   0.00   0.00
    19   1     0.10  -0.24  -0.00     0.00  -0.00  -0.01    -0.00  -0.00  -0.00
    20   1    -0.26   0.11   0.02    -0.02   0.02  -0.01    -0.01   0.00  -0.00
    21   1    -0.09   0.03  -0.00     0.00   0.00  -0.02    -0.02   0.04  -0.00
    22   1     0.08  -0.08   0.00    -0.00  -0.00   0.07     0.02  -0.02   0.00
                     28                     29                     30
                      A                      A                      A
 Frequencies --   1002.1587              1011.3262              1031.8547
 Red. masses --      1.3003                 1.9559                 1.0910
 Frc consts  --      0.7694                 1.1786                 0.6844
 IR Inten    --      0.0002                10.6926                36.2487
  Atom  AN      X      Y      Z        X      Y      Z        X      Y      Z
     1   6    -0.00   0.00   0.00    -0.06   0.07  -0.00     0.00   0.00  -0.03
     2   6    -0.00  -0.00  -0.12    -0.00   0.00   0.00     0.00   0.00  -0.00
     3   6    -0.00  -0.00   0.00     0.09  -0.13   0.00    -0.00  -0.00  -0.00
     4   6     0.00   0.00   0.11     0.00   0.00  -0.00    -0.00  -0.00  -0.00
     5   6    -0.00   0.00   0.00    -0.14   0.13  -0.00     0.00   0.00  -0.08
     6   6     0.00  -0.00  -0.00     0.03  -0.01   0.00    -0.00   0.00   0.00
     7   1     0.00   0.00  -0.00     0.68   0.20   0.01     0.00   0.00  -0.05
     8   1    -0.00   0.00  -0.00    -0.37   0.19  -0.00    -0.00   0.00   0.09
     9   1     0.00   0.00  -0.00    -0.07   0.12  -0.00    -0.01  -0.00   0.59
    10   1     0.01   0.00   0.70    -0.00  -0.00   0.00     0.00   0.00   0.00
    11   1    -0.01  -0.00  -0.70     0.01  -0.00  -0.00    -0.00   0.00   0.00
    12   8     0.00  -0.00  -0.00     0.00  -0.00  -0.00    -0.00   0.00  -0.00
    13   6     0.00   0.00   0.00    -0.00   0.00   0.00    -0.00  -0.00   0.00
    14   6    -0.00   0.00  -0.00    -0.00  -0.00   0.00     0.00  -0.00   0.00
    15   8    -0.00   0.00  -0.00    -0.00   0.00   0.00     0.00  -0.00  -0.00
    16   8     0.00   0.00   0.00    -0.00   0.00   0.00     0.00  -0.00  -0.00
    17   6     0.00  -0.00   0.00     0.04  -0.11   0.00     0.00  -0.00  -0.01
    18   1     0.00  -0.00  -0.00     0.18  -0.14   0.01    -0.06   0.05   0.01
    19   1    -0.00   0.00  -0.00     0.02  -0.02   0.00     0.00  -0.00   0.00
    20   1    -0.00   0.00  -0.00     0.18  -0.14  -0.01     0.06  -0.05   0.01
    21   1     0.00   0.00  -0.00    -0.16   0.22  -0.00    -0.01  -0.01   0.79
    22   1    -0.00   0.00   0.00    -0.16   0.09  -0.00    -0.00   0.00   0.04
                     31                     32                     33
                      A                      A                      A
 Frequencies --   1054.3672              1067.1085              1067.1455
 Red. masses --      1.1439                 1.1192                 1.6020
 Frc consts  --      0.7492                 0.7509                 1.0749
 IR Inten    --      9.5730                23.0664                 0.1564
  Atom  AN      X      Y      Z        X      Y      Z        X      Y      Z
     1   6     0.00   0.00   0.01     0.00   0.00   0.00    -0.00  -0.00   0.17
     2   6     0.00  -0.00  -0.00    -0.05   0.02   0.00    -0.00   0.00  -0.00
     3   6    -0.00  -0.00   0.02     0.00   0.00   0.00     0.00   0.00  -0.00
     4   6    -0.00  -0.00  -0.00    -0.02  -0.04   0.00     0.00   0.00  -0.00
     5   6    -0.00   0.00   0.02    -0.00   0.00  -0.00     0.00   0.00  -0.06
     6   6     0.00   0.00  -0.11     0.00  -0.00  -0.00    -0.00  -0.00   0.01
     7   1     0.01   0.00  -0.36    -0.00  -0.00  -0.00     0.00  -0.00   0.01
     8   1    -0.00  -0.00   0.37     0.00  -0.00   0.00     0.00  -0.00  -0.02
     9   1     0.00   0.00  -0.00     0.00   0.00   0.00     0.01   0.00  -0.36
    10   1     0.00   0.00   0.00     0.17   0.67  -0.01    -0.00  -0.00   0.00
    11   1    -0.00   0.00   0.00     0.60  -0.40  -0.01     0.00   0.00   0.00
    12   8     0.00  -0.00  -0.00    -0.04  -0.01   0.00     0.00   0.00  -0.00
    13   6    -0.00   0.00   0.00     0.02   0.01  -0.00     0.00  -0.00   0.00
    14   6     0.00   0.00   0.00     0.01  -0.00  -0.00    -0.00  -0.00   0.00
    15   8    -0.00   0.00  -0.00    -0.00   0.03   0.00     0.00  -0.00  -0.00
    16   8     0.00   0.00  -0.00     0.02  -0.02  -0.00    -0.00   0.00  -0.00
    17   6     0.00  -0.00  -0.01    -0.00  -0.00  -0.00     0.00   0.00  -0.15
    18   1    -0.02   0.04   0.01     0.00  -0.00   0.00    -0.29   0.49   0.16
    19   1    -0.00   0.00   0.02    -0.00   0.00   0.00    -0.00  -0.00   0.32
    20   1     0.02  -0.04   0.01     0.00  -0.00  -0.00     0.28  -0.49   0.16
    21   1     0.00   0.00  -0.08    -0.00   0.00   0.00    -0.00   0.00   0.15
    22   1    -0.01  -0.00   0.84     0.00  -0.00   0.00     0.00  -0.00  -0.05
                     34                     35                     36
                      A                      A                      A
 Frequencies --   1081.4231              1093.2520              1156.1160
 Red. masses --      1.5185                 3.2547                 2.1381
 Frc consts  --      1.0463                 2.2919                 1.6838
 IR Inten    --      5.6598               118.2669                 2.3395
  Atom  AN      X      Y      Z        X      Y      Z        X      Y      Z
     1   6     0.08   0.02   0.00    -0.02  -0.01  -0.00     0.19  -0.13   0.00
     2   6    -0.02   0.00   0.00    -0.15   0.03   0.00     0.00  -0.00  -0.00
     3   6     0.05   0.05   0.00    -0.01  -0.01  -0.00     0.00  -0.06  -0.00
     4   6     0.01   0.02  -0.00     0.09   0.13  -0.00     0.00  -0.00   0.00
     5   6    -0.09   0.04  -0.00     0.03  -0.01   0.00    -0.02  -0.04  -0.00
     6   6    -0.01  -0.12  -0.00     0.00   0.03   0.00     0.00   0.12   0.00
     7   1    -0.20  -0.10  -0.00     0.05   0.03   0.00     0.30   0.11   0.01
     8   1     0.35  -0.14   0.00    -0.10   0.04  -0.00    -0.23   0.10  -0.00
     9   1     0.04   0.24   0.01    -0.00  -0.08  -0.00     0.24  -0.32   0.00
    10   1    -0.05  -0.07   0.00    -0.36  -0.54   0.01     0.00   0.01  -0.00
    11   1     0.07  -0.01  -0.00     0.54  -0.12  -0.01    -0.00   0.00   0.00
    12   8    -0.00   0.01   0.00    -0.05   0.13   0.00     0.00  -0.00  -0.00
    13   6     0.03  -0.01  -0.00     0.24  -0.05  -0.00    -0.00  -0.00   0.00
    14   6    -0.02  -0.03   0.00    -0.15  -0.20   0.00     0.00   0.00  -0.00
    15   8    -0.00  -0.00   0.00    -0.02  -0.02   0.00    -0.00   0.00  -0.00
    16   8     0.00   0.00  -0.00     0.03  -0.00  -0.00    -0.00  -0.00  -0.00
    17   6    -0.07  -0.04  -0.00     0.02   0.01   0.00    -0.17   0.04  -0.00
    18   1     0.19  -0.03   0.05    -0.05   0.01  -0.01     0.07   0.11   0.09
    19   1    -0.18   0.33  -0.00     0.04  -0.08   0.00    -0.33   0.56  -0.00
    20   1     0.19  -0.03  -0.05    -0.06   0.01   0.01     0.07   0.11  -0.08
    21   1    -0.19   0.48   0.00     0.05  -0.12  -0.00    -0.03   0.02  -0.00
    22   1     0.33  -0.31   0.00    -0.08   0.08   0.00    -0.21   0.24  -0.00
                     37                     38                     39
                      A                      A                      A
 Frequencies --   1306.7044              1315.4066              1329.4508
 Red. masses --      1.2947                 7.7565                 1.2900
 Frc consts  --      1.3025                 7.9075                 1.3434
 IR Inten    --      3.7639               281.0233                 4.4565
  Atom  AN      X      Y      Z        X      Y      Z        X      Y      Z
     1   6     0.07   0.00   0.00     0.02   0.03   0.00    -0.01  -0.09  -0.00
     2   6     0.00   0.00  -0.00    -0.12  -0.07   0.00    -0.01  -0.01   0.00
     3   6    -0.05  -0.06  -0.00    -0.02  -0.01  -0.00     0.05   0.01   0.00
     4   6     0.00   0.00  -0.00    -0.13  -0.03   0.00     0.00  -0.00  -0.00
     5   6    -0.06  -0.06  -0.00    -0.03   0.02  -0.00    -0.00  -0.09  -0.00
     6   6     0.03   0.08   0.00     0.01  -0.00   0.00    -0.01   0.02  -0.00
     7   1    -0.04  -0.04  -0.00    -0.01  -0.00  -0.00     0.03  -0.00   0.00
     8   1    -0.33   0.12  -0.00    -0.06   0.01  -0.00     0.09  -0.01   0.00
     9   1    -0.07   0.66   0.00     0.04  -0.02   0.00    -0.16   0.57   0.00
    10   1     0.01   0.01  -0.00    -0.21  -0.28   0.01    -0.01   0.01   0.00
    11   1     0.01  -0.00  -0.00    -0.39   0.11   0.01    -0.04   0.02   0.00
    12   8     0.01   0.00  -0.00    -0.27  -0.10   0.01    -0.01  -0.00   0.00
    13   6    -0.02   0.00   0.00     0.47  -0.02  -0.01     0.03  -0.00  -0.00
    14   6    -0.01  -0.01   0.00     0.34   0.32  -0.01     0.02   0.01  -0.00
    15   8     0.00  -0.00  -0.00    -0.07   0.03   0.00    -0.00   0.00   0.00
    16   8     0.00   0.00  -0.00    -0.04  -0.07   0.00    -0.00  -0.00   0.00
    17   6     0.02   0.01   0.00    -0.00  -0.02  -0.00     0.05   0.03   0.00
    18   1    -0.05   0.05   0.01     0.01   0.01   0.02    -0.22   0.06  -0.04
    19   1     0.02   0.00   0.00    -0.03   0.06  -0.00     0.04   0.03   0.00
    20   1    -0.05   0.05  -0.02     0.01   0.01  -0.02    -0.22   0.06   0.03
    21   1    -0.01  -0.33  -0.00     0.04  -0.29   0.00    -0.13   0.52   0.00
    22   1     0.50  -0.18   0.01     0.18  -0.10   0.00    -0.41   0.24  -0.01
                     40                     41                     42
                      A                      A                      A
 Frequencies --   1335.7697              1360.8855              1404.1971
 Red. masses --      1.9347                 1.2855                 1.3236
 Frc consts  --      2.0339                 1.4027                 1.5376
 IR Inten    --      2.9322                 3.7159                 0.7703
  Atom  AN      X      Y      Z        X      Y      Z        X      Y      Z
     1   6    -0.00   0.00  -0.00    -0.07  -0.05  -0.00    -0.04   0.02  -0.00
     2   6    -0.14  -0.12   0.00     0.00   0.00  -0.00     0.00   0.00  -0.00
     3   6    -0.01  -0.00  -0.00    -0.05  -0.05  -0.00    -0.01   0.00  -0.00
     4   6     0.19  -0.00  -0.00    -0.01  -0.00   0.00     0.00   0.00  -0.00
     5   6     0.00   0.00   0.00     0.08   0.00   0.00     0.01   0.03   0.00
     6   6     0.00   0.00   0.00     0.04   0.07   0.00     0.01  -0.01  -0.00
     7   1    -0.00  -0.00  -0.00    -0.05  -0.04  -0.00    -0.02  -0.01  -0.00
     8   1    -0.02   0.01  -0.00    -0.32   0.12  -0.00    -0.01   0.00  -0.00
     9   1     0.01  -0.04  -0.00    -0.02  -0.29  -0.00    -0.01  -0.13  -0.00
    10   1     0.12   0.67  -0.00    -0.01  -0.02   0.00     0.00   0.00  -0.00
    11   1    -0.51   0.42   0.01     0.01  -0.01  -0.00     0.01  -0.00  -0.00
    12   8     0.00   0.00  -0.00    -0.00  -0.00   0.00     0.00   0.00  -0.00
    13   6     0.05  -0.01  -0.00     0.00  -0.00  -0.00    -0.01  -0.00   0.00
    14   6    -0.04  -0.05   0.00     0.01   0.01  -0.00    -0.00  -0.00   0.00
    15   8    -0.00   0.03  -0.00    -0.00   0.00   0.00     0.00   0.00  -0.00
    16   8    -0.02   0.03   0.00    -0.00   0.00   0.00     0.00   0.00  -0.00
    17   6    -0.00  -0.00  -0.00     0.01   0.02   0.00     0.09  -0.13   0.00
    18   1     0.01  -0.00  -0.00    -0.06  -0.06  -0.07    -0.33   0.41   0.30
    19   1    -0.00  -0.00   0.00     0.01  -0.01  -0.00    -0.10   0.46   0.00
    20   1     0.01  -0.00   0.00    -0.06  -0.06   0.07    -0.32   0.41  -0.30
    21   1     0.01  -0.00   0.00    -0.05   0.68   0.00     0.03  -0.03   0.00
    22   1     0.05  -0.02   0.00     0.50  -0.18   0.01     0.06  -0.04   0.00
                     43                     44                     45
                      A                      A                      A
 Frequencies --   1445.1959              1464.8462              1466.1573
 Red. masses --      1.2046                 1.0438                 1.0677
 Frc consts  --      1.4823                 1.3197                 1.3523
 IR Inten    --      6.2068                 8.3266                19.2913
  Atom  AN      X      Y      Z        X      Y      Z        X      Y      Z
     1   6    -0.01  -0.01  -0.00     0.00   0.00  -0.02     0.01   0.01   0.00
     2   6     0.00   0.00  -0.00     0.00   0.00   0.00     0.00   0.00  -0.00
     3   6    -0.05  -0.02  -0.00     0.00   0.00  -0.00     0.01   0.01   0.00
     4   6     0.00  -0.00  -0.00     0.00  -0.00  -0.00     0.00  -0.00  -0.00
     5   6     0.04  -0.02   0.00    -0.00   0.00   0.00    -0.01   0.04   0.00
     6   6    -0.10   0.05  -0.00     0.00  -0.00  -0.00     0.01  -0.02   0.00
     7   1     0.61   0.34   0.01    -0.00  -0.00   0.00    -0.08  -0.04  -0.00
     8   1     0.49  -0.35   0.01    -0.00   0.00  -0.00    -0.04   0.04  -0.00
     9   1    -0.03   0.05   0.00     0.00  -0.00   0.05     0.02  -0.04  -0.00
    10   1     0.00  -0.00  -0.00     0.00  -0.00   0.00     0.00   0.00  -0.00
    11   1     0.00  -0.00  -0.00     0.00  -0.00   0.00     0.00  -0.00  -0.00
    12   8     0.00  -0.00  -0.00     0.00   0.00  -0.00     0.00   0.00  -0.00
    13   6    -0.00  -0.00   0.00    -0.00  -0.00   0.00    -0.00  -0.00   0.00
    14   6    -0.00  -0.00   0.00    -0.00  -0.00   0.00    -0.00  -0.00   0.00
    15   8     0.00   0.00  -0.00     0.00   0.00  -0.00     0.00   0.00   0.00
    16   8    -0.00   0.00   0.00     0.00   0.00  -0.00     0.00  -0.00  -0.00
    17   6     0.02   0.01   0.00     0.00   0.00  -0.05     0.05   0.00   0.00
    18   1    -0.07  -0.05  -0.05     0.47  -0.03   0.04    -0.33  -0.38  -0.34
    19   1    -0.00   0.06  -0.00    -0.01   0.02   0.72    -0.11   0.49  -0.03
    20   1    -0.07  -0.05   0.05    -0.50  -0.01   0.05    -0.29  -0.38   0.33
    21   1     0.04  -0.02   0.00     0.00  -0.01   0.01     0.03  -0.15  -0.00
    22   1     0.28  -0.15   0.00    -0.00  -0.00  -0.00    -0.03  -0.00  -0.00
                     46                     47                     48
                      A                      A                      A
 Frequencies --   1702.9110              1726.0527              1758.7037
 Red. masses --      6.7813                 4.8272                 5.6682
 Frc consts  --     11.5863                 8.4733                10.3295
 IR Inten    --      4.1491                14.1871                12.2767
  Atom  AN      X      Y      Z        X      Y      Z        X      Y      Z
     1   6    -0.00  -0.00   0.00     0.00  -0.07  -0.00     0.04   0.45   0.00
     2   6    -0.13   0.49   0.00    -0.00  -0.00   0.00    -0.00   0.00   0.00
     3   6     0.00  -0.00   0.00    -0.37   0.02  -0.01    -0.08  -0.00  -0.00
     4   6     0.22  -0.46  -0.00     0.00   0.00  -0.00    -0.00  -0.00   0.00
     5   6    -0.00   0.00   0.00    -0.07   0.10  -0.00    -0.05  -0.44  -0.00
     6   6    -0.00   0.00   0.00     0.43  -0.10   0.01     0.08   0.05   0.00
     7   1     0.00  -0.00   0.00     0.16   0.39   0.00     0.06   0.10   0.00
     8   1    -0.00   0.00   0.00     0.26  -0.45   0.00     0.01  -0.08  -0.00
     9   1    -0.00   0.00   0.00    -0.04   0.13   0.00     0.28  -0.36   0.00
    10   1    -0.47  -0.15   0.01    -0.00   0.00  -0.00    -0.00  -0.00   0.00
    11   1    -0.45  -0.19   0.01    -0.00   0.00   0.00     0.00  -0.00  -0.00
    12   8     0.01   0.00  -0.00    -0.00   0.00   0.00    -0.00  -0.00   0.00
    13   6     0.02   0.01  -0.00     0.00   0.00  -0.00    -0.00  -0.00   0.00
    14   6     0.02   0.00  -0.00    -0.00   0.00   0.00     0.01  -0.00  -0.00
    15   8    -0.01  -0.05   0.00    -0.00  -0.00   0.00    -0.00   0.00  -0.00
    16   8    -0.04   0.03   0.00     0.00  -0.00  -0.00    -0.00   0.00   0.00
    17   6    -0.00   0.00   0.00    -0.00   0.01  -0.00     0.02  -0.07  -0.00
    18   1     0.00   0.00   0.00     0.01   0.02   0.01     0.02  -0.13  -0.04
    19   1     0.00  -0.00  -0.00     0.01  -0.04  -0.00    -0.05   0.17   0.00
    20   1     0.00   0.00  -0.00     0.01   0.02  -0.01     0.02  -0.13   0.04
    21   1     0.00   0.00   0.00    -0.07   0.09  -0.00    -0.28   0.38  -0.00
    22   1     0.00  -0.00  -0.00    -0.25   0.33  -0.00    -0.14   0.19  -0.00
                     49                     50                     51
                      A                      A                      A
 Frequencies --   1918.4470              1989.9903              3038.8141
 Red. masses --     12.8830                12.6911                 1.0389
 Frc consts  --     27.9362                29.6108                 5.6523
 IR Inten    --    835.6769                97.2172                34.7805
  Atom  AN      X      Y      Z        X      Y      Z        X      Y      Z
     1   6    -0.00   0.01   0.00     0.00  -0.00  -0.00    -0.00  -0.00  -0.00
     2   6    -0.02  -0.05   0.00    -0.01  -0.06   0.00     0.00   0.00  -0.00
     3   6     0.00  -0.00  -0.00     0.00   0.00   0.00    -0.00   0.00   0.00
     4   6     0.05  -0.03  -0.00    -0.05   0.04   0.00     0.00   0.00  -0.00
     5   6     0.00  -0.01   0.00     0.00   0.00   0.00     0.00  -0.00  -0.00
     6   6    -0.00   0.00   0.00    -0.00  -0.00  -0.00    -0.00   0.00   0.00
     7   1     0.00  -0.00   0.00    -0.00  -0.00  -0.00     0.00  -0.00   0.00
     8   1    -0.00   0.00  -0.00     0.00   0.00   0.00     0.00   0.00   0.00
     9   1     0.01  -0.02  -0.00     0.00   0.00  -0.00     0.02   0.01   0.00
    10   1     0.02   0.11  -0.00     0.03   0.12  -0.00    -0.00   0.00   0.00
    11   1    -0.09   0.07   0.00     0.10  -0.07  -0.00     0.00   0.00  -0.00
    12   8    -0.00   0.00   0.00    -0.03  -0.01   0.00    -0.00  -0.00  -0.00
    13   6     0.08   0.57  -0.00     0.04   0.59  -0.00    -0.00   0.00   0.00
    14   6    -0.44   0.38   0.01     0.41  -0.42  -0.01    -0.00  -0.00   0.00
    15   8    -0.02  -0.38   0.00    -0.02  -0.37   0.00    -0.00  -0.00   0.00
    16   8     0.27  -0.28  -0.00    -0.25   0.26   0.00     0.00   0.00  -0.00
    17   6    -0.00  -0.00  -0.00     0.00  -0.00  -0.00    -0.02   0.05  -0.00
    18   1     0.00  -0.00  -0.00    -0.01  -0.00  -0.00    -0.11  -0.36   0.51
    19   1    -0.01   0.02   0.00    -0.01   0.02   0.00     0.42   0.14   0.01
    20   1     0.00  -0.00   0.00    -0.01  -0.00   0.00    -0.09  -0.35  -0.51
    21   1    -0.01   0.04  -0.00     0.01  -0.03  -0.00    -0.00   0.00  -0.00
    22   1     0.01  -0.00   0.00    -0.00  -0.00  -0.00    -0.00  -0.00  -0.00
                     52                     53                     54
                      A                      A                      A
 Frequencies --   3114.4756              3151.7909              3159.1737
 Red. masses --      1.1013                 1.0924                 1.0615
 Frc consts  --      6.2941                 6.3937                 6.2422
 IR Inten    --     16.6133                 5.3276                10.8590
  Atom  AN      X      Y      Z        X      Y      Z        X      Y      Z
     1   6     0.00   0.00  -0.00    -0.07  -0.02  -0.00    -0.01  -0.00  -0.00
     2   6    -0.00   0.00  -0.00    -0.00  -0.00   0.00    -0.00   0.00   0.00
     3   6     0.00  -0.00   0.00     0.01   0.00   0.00    -0.06  -0.00  -0.00
     4   6    -0.00  -0.00   0.00    -0.00  -0.00   0.00    -0.00   0.00  -0.00
     5   6     0.00   0.00  -0.00     0.00   0.01   0.00     0.00   0.00   0.00
     6   6    -0.00  -0.00  -0.00    -0.00   0.00  -0.00    -0.01  -0.02  -0.00
     7   1     0.00  -0.00  -0.00    -0.05   0.09  -0.00     0.29  -0.53   0.00
     8   1     0.00   0.00   0.00    -0.08  -0.12  -0.00     0.38   0.59   0.01
     9   1    -0.00  -0.00   0.00     0.83   0.19   0.01     0.08   0.02   0.00
    10   1     0.00  -0.00  -0.00     0.00  -0.00  -0.00     0.00  -0.00  -0.00
    11   1    -0.00  -0.00  -0.00    -0.00  -0.00   0.00    -0.00  -0.00   0.00
    12   8     0.00   0.00   0.00     0.00   0.00   0.00     0.00   0.00   0.00
    13   6    -0.00  -0.00  -0.00     0.00   0.00  -0.00     0.00  -0.00  -0.00
    14   6     0.00  -0.00  -0.00     0.00   0.00  -0.00     0.00  -0.00  -0.00
    15   8     0.00   0.00   0.00     0.00   0.00  -0.00     0.00   0.00  -0.00
    16   8    -0.00   0.00   0.00    -0.00  -0.00   0.00    -0.00   0.00   0.00
    17   6     0.00   0.00  -0.09     0.04   0.02   0.00     0.01   0.01   0.00
    18   1    -0.12  -0.41   0.55    -0.02  -0.07   0.11    -0.01  -0.03   0.04
    19   1    -0.01  -0.00  -0.01    -0.42  -0.13  -0.01    -0.14  -0.04  -0.00
    20   1     0.11   0.41   0.56    -0.02  -0.07  -0.11    -0.01  -0.03  -0.04
    21   1     0.00  -0.00  -0.00    -0.03  -0.01  -0.00    -0.03  -0.01  -0.00
    22   1     0.00   0.00   0.00     0.00  -0.00   0.00     0.15   0.27   0.00
                     55                     56                     57
                      A                      A                      A
 Frequencies --   3167.0726              3177.2150              3202.8297
 Red. masses --      1.1002                 1.0928                 1.0908
 Frc consts  --      6.5019                 6.4995                 6.5927
 IR Inten    --     22.6689                14.1516                 1.1467
  Atom  AN      X      Y      Z        X      Y      Z        X      Y      Z
     1   6    -0.04  -0.01  -0.00     0.01   0.00   0.00    -0.00   0.00   0.00
     2   6     0.00  -0.00  -0.00    -0.00   0.00  -0.00     0.00  -0.00  -0.00
     3   6    -0.00   0.00  -0.00     0.03   0.01   0.00     0.00   0.00   0.00
     4   6    -0.00   0.00  -0.00     0.00   0.00  -0.00     0.00   0.00   0.00
     5   6     0.00   0.00   0.00     0.02   0.01   0.00    -0.08  -0.02  -0.00
     6   6    -0.01  -0.01  -0.00    -0.04  -0.07  -0.00    -0.01  -0.02  -0.00
     7   1     0.03  -0.05   0.00    -0.06   0.11  -0.00    -0.00   0.00  -0.00
     8   1     0.02   0.03   0.00    -0.16  -0.25  -0.00    -0.03  -0.04  -0.00
     9   1     0.49   0.11   0.01    -0.10  -0.02  -0.00     0.03   0.01   0.00
    10   1    -0.00   0.00   0.00     0.00  -0.00  -0.00     0.00   0.00  -0.00
    11   1    -0.00   0.00  -0.00     0.00   0.00  -0.00     0.00  -0.00   0.00
    12   8    -0.00  -0.00   0.00     0.00   0.00   0.00    -0.00  -0.00  -0.00
    13   6     0.00  -0.00  -0.00    -0.00  -0.00  -0.00    -0.00   0.00   0.00
    14   6     0.00   0.00  -0.00     0.00  -0.00  -0.00    -0.00  -0.00   0.00
    15   8    -0.00  -0.00   0.00     0.00   0.00  -0.00     0.00  -0.00  -0.00
    16   8    -0.00   0.00   0.00    -0.00   0.00   0.00    -0.00  -0.00  -0.00
    17   6    -0.07  -0.04  -0.00     0.00   0.00   0.00    -0.00  -0.00  -0.00
    18   1     0.04   0.15  -0.22    -0.00  -0.01   0.02     0.00   0.00  -0.00
    19   1     0.73   0.23   0.01    -0.05  -0.01  -0.00     0.01   0.00   0.00
    20   1     0.03   0.15   0.22    -0.00  -0.01  -0.02     0.00   0.00   0.00
    21   1    -0.05  -0.01  -0.00    -0.21  -0.05  -0.00     0.95   0.20   0.02
    22   1     0.06   0.11   0.00     0.44   0.80   0.01     0.10   0.19   0.00
                     58                     59                     60
                      A                      A                      A
[...]
 0,0.00006860,0.01696252,-0.00000103,0.00000195,0.00004095,-0.00107856,
 -0.00084656,0.01707707,0.00002523,0.00000846,0.00058973,-0.00000530,-0
 .00000243,0.00003862,-0.00000112,0.00000033,-0.00001485,-0.00000058,-0
 .00000069,-0.00001998,-0.00000356,-0.00000255,-0.00010084,-0.00009079,
 -0.00013534,0.00176409,-0.00014006,0.00004281,0.00175966,0.00782122,0.
 00118718,0.05458553,0.00049366,-0.00013141,-0.00000611,-0.18536735,-0.
 05425234,-0.00240497,0.00027835,-0.00027404,-0.00000747,0.00480632,-0.
 01338721,0.00000615,-0.00097841,-0.00042289,0.00003567,0.00025133,0.00
 054438,-0.00000031,0.00011192,-0.00005893,-0.00000084,0.00000361,0.000
 05592,0.00000058,0.00030385,0.00010627,-0.00000888,-0.00801476,-0.0152
 5181,-0.00022216,-0.00586568,0.00349446,-0.00035873,-0.21863196,0.0052
 1673,-0.00323733,0.47233844,-0.00078961,0.00129623,0.00001110,-0.03977
 377,-0.11050027,-0.00083743,-0.00005918,0.00002944,0.00000207,-0.01327
 097,-0.04343134,-0.00043150,0.00114883,-0.00004983,-0.00004297,-0.0004
 6194,-0.00007408,0.00000176,-0.00008015,0.00003029,0.00000083,-0.00007
 361,-0.00007521,0.00000166,-0.00000439,-0.00055994,0.00000681,0.012211
 52,0.01190752,0.00027897,0.00387742,-0.00297675,0.00003500,-0.00371379
 ,-0.08144351,-0.00010371,0.07568093,1.15942688,0.00001246,-0.00000409,
 -0.00007414,-0.00235395,-0.00112418,-0.07702428,0.00000434,-0.00000552
 ,-0.00003813,-0.00001235,-0.00043659,0.00151375,-0.00002607,-0.0000094
 2,-0.00007157,0.00000611,0.00001044,-0.00002424,0.00000230,-0.00000098
 ,0.00001150,0.00000047,0.00000123,0.00001831,0.00000587,0.00000292,0.0
 0002347,-0.00014592,-0.00028054,0.00090669,-0.00036316,0.00002127,0.01
 257292,-0.00322717,0.00007765,-0.06070235,0.00579983,0.00396249,0.1990
 0810,0.00116203,-0.00071868,-0.00001045,-0.02890012,0.02587385,-0.0005
 0952,0.00017925,-0.00002018,-0.00000622,-0.19968955,-0.02282009,-0.002
 53862,-0.00160100,0.00069200,0.00004364,0.00013289,0.00009885,0.000007
 76,0.00010135,-0.00005786,-0.00000052,0.00007820,0.00008647,-0.0000015
 2,0.00017244,0.00041878,-0.00001029,-0.00095967,-0.00179627,-0.0002688
 1,-0.00100022,0.00406942,-0.00001985,-0.15993853,-0.07253780,-0.002207
 55,0.04613668,0.02445108,0.00129932,0.84172793,-0.00030027,0.00070428,
 0.00000213,0.02548494,-0.00959088,0.00045674,0.00032629,-0.00087902,-0
 .00000265,-0.03779182,-0.09575408,-0.00105206,-0.00027839,-0.00201122,
 0.00002384,0.00059061,0.00166604,-0.00002491,0.00013599,-0.00000947,-0
 .00000260,-0.00019276,-0.00004757,0.00000456,0.00030199,-0.00020147,-0
 .00000552,-0.00214981,-0.00783673,-0.00010610,-0.02333409,0.00482977,-
 0.00045897,-0.06323847,-0.14212611,-0.00161695,0.09573991,-0.09254174,
 0.00177374,-0.34983937,0.78998741,0.00001011,0.00000009,-0.00009480,-0
 .00052081,0.00049075,0.00164238,0.00000096,-0.00000097,-0.00006374,-0.
 00254753,-0.00077942,-0.07672189,-0.00001657,-0.00000079,-0.00028499,0
 .00000278,-0.00000021,-0.00005305,0.00000123,-0.00000022,0.00001718,0.
 00000114,0.00000075,0.00002841,0.00000288,0.00000410,0.00005744,-0.000
 28464,-0.00010335,0.01253232,-0.00011336,0.00009368,0.00088787,-0.0021
 7677,-0.00177869,-0.06137701,0.00152506,0.00030795,-0.01300983,0.01164
 138,-0.00479578,0.19910249,-0.00016734,-0.00039704,0.00000137,0.013773
 32,-0.03459291,-0.00024855,-0.00013192,0.00012790,0.00000296,-0.005022
 12,-0.00333851,-0.00012534,0.00020288,0.00022746,-0.00000717,-0.000002
 79,-0.00023267,-0.00000045,-0.00003403,0.00002384,0.00000028,0.0000155
 4,-0.00001204,-0.00000056,-0.00018442,0.00013773,0.00000335,0.00129904
 ,0.00216897,0.00004776,0.00201140,-0.00129641,0.00008613,0.01327798,0.
 07042198,0.00015626,-0.10642406,-0.05167691,-0.00085797,-0.01430341,-0
 .01536473,-0.00048721,0.09540721,0.00037074,-0.00071400,-0.00000633,-0
 .01053104,-0.04701693,-0.00038131,-0.00000453,0.00006152,-0.00000072,-
 0.00971457,0.00059135,-0.00018194,-0.00057472,0.00017439,0.00001904,0.
 00017406,-0.00011215,0.00000151,0.00002512,-0.00001244,-0.00000022,0.0
 0005149,0.00004015,-0.00000119,-0.00002978,0.00028625,-0.00000272,-0.0
 0122135,-0.00036674,-0.00002449,0.00058737,-0.00133790,0.00000887,0.04
 438819,-0.09204899,0.00063405,-0.06316502,-0.85345706,-0.00329239,0.01
 050829,0.02830339,0.00026291,0.02580510,0.97915138,-0.00000331,-0.0000
 0168,0.00007863,-0.00020051,-0.00088413,0.02183718,-0.00000007,0.00000
 080,0.00002649,-0.00014790,-0.00006723,0.00096679,0.00000539,0.0000010
 3,0.00008067,-0.00000065,-0.00000105,0.00000482,-0.00000032,0.00000004
 ,-0.00000760,-0.00000019,-0.00000016,-0.00001276,-0.00000162,0.0000007
 3,-0.00002495,0.00004372,0.00004826,-0.00094294,0.00009564,-0.00002130
 ,-0.00264343,0.00008241,0.00116533,0.01506142,-0.00088406,-0.00304865,
 -0.07006021,-0.00040359,-0.00025845,0.00670919,0.00139442,0.00293532,0
 .03071284,-0.00092781,0.00057804,0.00001029,-0.00907169,-0.00499873,-0
 .00022118,-0.00008558,-0.00022912,0.00000481,-0.03466360,0.04535922,-0
 .00097783,0.00092428,-0.00106977,-0.00002524,0.00017801,0.00037618,-0.
 00001235,-0.00004858,0.00004591,-0.00000045,-0.00011282,-0.00007433,0.
 00000218,-0.00008086,-0.00032996,0.00000653,0.00021052,0.00267619,0.00
 005943,0.00102571,-0.00091526,0.00003367,0.02485595,0.03085824,0.00029
 763,0.00162748,-0.00797891,-0.00011776,-0.48204714,0.37106029,-0.00701
 970,0.00040142,0.00379022,0.00004294,0.49835521,-0.00025804,-0.0001948
 7,0.00000504,0.00137727,0.00465370,0.00004172,-0.00016169,0.00045590,0
 .00000123,0.02133505,0.00127407,0.00035753,0.00055742,0.00041827,-0.00
 002744,-0.00023902,-0.00095991,0.00001472,-0.00009296,0.00000485,0.000
 00158,0.00009113,0.00001883,-0.00000214,-0.00014390,-0.00002396,0.0000
 0442,0.00076849,0.00042175,0.00002689,0.00242006,-0.00010561,0.0000443
 5,0.05702810,-0.10354709,0.00077011,-0.03369669,0.01250967,-0.00069827
 ,0.38282467,-0.47606415,0.00631141,0.00809410,-0.01318728,0.00013744,-
 0.43996246,0.57467725,-0.00000508,0.00000202,0.00008978,-0.00019572,-0
 .00008769,0.00096164,0.00000103,-0.00000134,0.00008345,-0.00107578,0.0
 0083444,0.02172746,0.00001422,-0.00000813,0.00044471,0.00000094,0.0000
 0450,0.00009795,-0.00000021,0.00000007,-0.00001548,-0.00000141,-0.0000
 0067,-0.00004059,-0.00000113,-0.00000276,-0.00007810,0.00006094,0.0000
 6398,-0.00262297,0.00005108,-0.00001730,-0.00092909,0.00038565,0.00023
 562,0.01515831,-0.00022094,-0.00015281,0.00666923,-0.00697446,0.006074
 05,-0.07010914,0.00006326,0.00004052,-0.00120716,0.00792381,-0.0069817
 7,0.03089039,-0.15974846,0.08243007,0.00094814,0.00006761,0.00006929,-
 0.00000010,-0.00041520,-0.00045209,-0.00000453,0.00015645,0.00016029,0
 .00000390,0.00934221,-0.00428613,0.00001053,-0.00039172,-0.00232463,0.
 00020611,0.00024863,0.00015689,-0.00001340,0.00039318,0.00014125,-0.00
 000481,-0.01470583,0.02392201,0.00015304,0.00002407,0.00002313,0.00000
 061,0.00003262,-0.00000564,0.00000075,0.00065632,0.00105509,0.00001029
 ,-0.00092897,-0.00017788,-0.00001538,0.00021769,-0.00127247,-0.0000039
 6,0.00049116,0.00000939,0.00001105,-0.00031034,0.00042012,-0.00000139,
 0.57369739,0.07658541,-0.17890727,-0.00060154,-0.00008799,0.00012324,-
 0.00000174,0.00095478,-0.00052127,-0.00001831,0.00000295,0.00001988,-0
 .00000009,0.02063258,-0.03140872,-0.00010844,-0.00437418,0.00133029,0.
 00013305,0.00034617,0.00016077,-0.00000932,0.00036515,0.00011941,-0.00
 000681,-0.00641947,0.00718201,0.00009799,-0.00000270,-0.00000137,-0.00
 000013,-0.00000956,0.00000875,-0.00000053,-0.00030571,0.00033165,0.000
 00037,0.00026729,-0.00124659,0.00000125,0.00013621,-0.00022129,-0.0000
 0042,0.00047661,0.00083900,0.00000721,-0.00015663,0.00015248,-0.000000
 16,0.03792155,0.53587155,0.00092913,-0.00065460,-0.07153137,0.00000062
 ,-0.00000497,-0.00006528,-0.00000421,-0.00000498,-0.00074575,-0.000004
 96,-0.00000411,-0.00000818,-0.00013506,0.00028747,0.00934438,0.0002324
 7,0.00011523,0.01226461,-0.00001463,-0.00000576,-0.00066341,-0.0000037
 7,-0.00000166,0.00023661,0.00030988,-0.00039425,0.00295236,-0.00000066
 ,-0.00000069,-0.00000069,-0.00000057,0.00000003,-0.00000109,-0.0000154
 1,-0.00003584,0.00030340,0.00002870,0.00002877,-0.00016645,-0.00000244
 ,0.00003960,-0.00002757,-0.00002986,-0.00001413,0.00029871,0.00000657,
 -0.00001487,0.00005290,-0.00064294,-0.00066935,0.54264256,0.00508846,0
 .01190479,0.01770017,-0.00003537,-0.00002252,-0.00001503,-0.00019652,0
 .00029693,0.00008610,-0.00003885,-0.00005440,0.00000202,-0.00129425,0.
 00140112,-0.00036297,0.00037168,-0.00028515,-0.00107753,-0.00005529,-0
 .00001419,0.00001006,-0.00004834,-0.00002879,-0.00000348,0.00036591,-0
 .00073018,-0.00044694,-0.00000471,-0.00000692,-0.00000538,-0.00001182,
 0.00000174,-0.00000329,-0.00012317,-0.00036283,0.00010363,0.00032832,0
 .00003307,-0.00010314,-0.00012879,0.00043306,-0.00003280,-0.00018960,0
 .00002051,0.00014505,0.00013437,-0.00012375,0.00002156,-0.05598287,-0.
 02607362,-0.03669597,0.05398411,-0.00520144,-0.01814038,-0.01893785,-0
 .00003340,0.00000629,-0.00000385,-0.00004187,-0.00034596,-0.00009170,-
 0.00003143,-0.00000515,-0.00000033,0.00320130,-0.00057105,-0.00006672,
 0.00020261,-0.00042220,0.00205737,0.00008161,-0.00001791,-0.00016003,0
 .00001679,0.00004487,0.00006624,0.00017658,0.00066416,0.00075242,-0.00
 000424,-0.00000339,-0.00000416,-0.00000458,0.00000043,-0.00000362,-0.0
 0014986,0.00005182,0.00006887,0.00015774,-0.00019555,-0.00005707,0.000
 12546,0.00000483,-0.00003938,-0.00004917,0.00010420,0.00006020,-0.0001
 0864,-0.00000955,0.00003197,-0.02816265,-0.13092888,-0.12643661,0.0259
 3539,0.14424758,0.00055124,0.00185150,0.00370645,-0.00001330,-0.000000
 95,-0.00000377,-0.00003276,-0.00011410,-0.00000722,-0.00002048,0.00000
 086,0.00000117,0.00025910,0.00091429,-0.00040289,0.00010839,0.00005085
 ,-0.00031130,0.00001918,-0.00000457,0.00003102,-0.00000681,0.00001348,
 -0.00002899,0.00032224,-0.00035852,0.00032163,-0.00000156,-0.00000340,
 -0.00000208,-0.00000153,0.00000101,-0.00000122,-0.00009797,0.00002941,
 0.00001727,0.00012204,-0.00010119,-0.00002413,0.00009074,0.00003223,-0
 .00001410,-0.00004708,0.00006391,0.00003468,-0.00005398,-0.00000961,0.
 00000778,-0.03796774,-0.12488247,-0.21677855,0.04041872,0.13541042,0.2
 3089528,-0.01824826,-0.00658179,0.00028239,-0.00013748,0.00006002,-0.0
 0000224,-0.00010298,-0.00007406,0.00000204,-0.00000539,0.00002595,0.00
 000067,0.00165892,-0.00178619,-0.00001962,0.00024434,-0.00009172,-0.00
 000190,0.00006737,0.00004148,-0.00000018,0.00009881,0.00002105,-0.0000
 0322,-0.00097594,0.00306231,0.00002148,0.00000317,-0.00000012,0.,-0.00
 001422,0.00001165,-0.00000060,-0.00096325,-0.00031742,-0.00000804,0.00
 033740,-0.00096021,0.00000214,0.00004229,-0.00002978,0.00000021,-0.000
 35662,0.00014495,-0.00002994,-0.00004707,0.00003617,-0.00000124,-0.300
 58777,-0.08009483,0.00385968,-0.00219149,0.00038805,0.00107511,0.32233
 701,0.02646665,0.00930514,-0.00041825,0.00020831,-0.00016333,0.0000021
 4,0.00012686,-0.00003426,-0.00000158,0.00008329,0.00006454,0.00000300,
 0.00123060,0.00153613,-0.00003303,-0.00010017,0.00024237,-0.00000145,-
 0.00007386,-0.00005843,0.00000112,-0.00012452,-0.00005098,0.00000260,0
 .00310894,-0.00372736,-0.00002002,0.00002009,0.00001387,0.00000047,0.0
 0003898,-0.00001875,0.00000118,0.00019798,-0.00036595,0.00000712,-0.00
 115067,0.00176255,-0.00001610,-0.00010393,-0.00063788,-0.00000495,-0.0
 0038987,-0.00135754,-0.00000768,0.00004985,0.00012925,0.00000031,-0.08
 254640,-0.07440003,0.00126353,-0.01550686,-0.00508645,0.00245488,0.084
 52663,0.07830726,0.00015773,0.00003579,-0.00077195,-0.00000659,0.00000
 594,0.00014501,-0.00000035,0.00000180,-0.00002284,0.00000280,0.0000021
 1,0.00001026,-0.00004734,0.00002412,-0.00074683,-0.00000442,-0.0000034
 8,-0.00018782,0.00000047,-0.00000003,0.00008785,-0.00000219,-0.0000006
 1,-0.00007506,0.00003530,-0.00002160,0.00197363,0.,0.00000030,0.000008
 37,-0.00000018,0.00000005,0.00000118,0.00000219,0.00002777,-0.00053743
 ,-0.00001601,-0.00004799,0.00048310,0.00000389,-0.00002732,0.00002719,
 -0.00000664,0.00001908,-0.00085655,-0.00000729,0.00001134,-0.00006230,
 0.00383718,0.00122283,-0.04855702,-0.02423966,-0.00638388,0.00190518,-
 0.00417688,-0.00127799,0.04574377,0.00456750,0.01170143,-0.01784452,-0
 .00003591,-0.00002023,0.00001297,-0.00019825,0.00029675,-0.00008116,-0
 .00003792,-0.00005366,-0.00000376,-0.00130183,0.00139390,0.00038488,0.
 00040985,-0.00027175,0.00105485,-0.00005598,-0.00001410,-0.00000777,-0
 .00004801,-0.00002935,0.00000512,0.00037670,-0.00071166,0.00044056,-0.
 00000507,-0.00000693,0.00000512,-0.00001190,0.00000171,0.00000274,-0.0
 0012074,-0.00034801,-0.00010634,0.00031687,0.00001335,0.00011195,-0.00
 012823,0.00041777,0.00003375,-0.00017373,0.00003406,-0.00014972,0.0001
 3123,-0.00011795,-0.00001962,-0.05403859,-0.02232500,0.03236090,0.0000
 6929,0.00328849,-0.00479651,-0.00154889,-0.01537191,0.02446683,0.05188
 482,-0.00468765,-0.01798022,0.01928238,-0.00003368,0.00000691,0.000002
 48,-0.00003921,-0.00034076,0.00009408,-0.00003119,-0.00000529,-0.00000
 178,0.00321111,-0.00059199,-0.00002506,0.00012907,-0.00045003,-0.00205
 031,0.00008615,-0.00001650,0.00015745,0.00001478,0.00004448,-0.0000666
 6,0.00014916,0.00066537,-0.00076330,-0.00000454,-0.00000340,0.00000418
 ,-0.00000475,0.00000035,0.00000345,-0.00014662,0.00005543,-0.00007199,
 0.00015195,-0.00019870,0.00006479,0.00012346,-0.00000139,0.00004306,-0
 .00004477,0.00010631,-0.00006441,-0.00010882,-0.00000707,-0.00003323,-
 0.02433130,-0.12894392,0.12651160,0.00290487,0.01075959,-0.01535530,0.
 00055842,-0.00505631,0.00642478,0.02184613,0.14210168,-0.00052085,-0.0
 0201110,0.00406599,0.00001503,0.00000112,-0.00000332,0.00003590,0.0001
 0948,-0.00000613,0.00002198,0.00000081,0.00000178,-0.00026538,-0.00094
 259,-0.00039499,-0.00012605,-0.00004821,-0.00031908,-0.00001758,0.0000
 0532,0.00003000,0.00000712,-0.00001338,-0.00002858,-0.00032577,0.00037
 541,0.00032651,0.00000192,0.00000369,-0.00000197,0.00000201,-0.0000010
 5,-0.00000100,0.00010437,-0.00002126,0.00002144,-0.00013295,0.00010726
 ,-0.00002980,-0.00008883,-0.00004207,-0.00001551,0.00005091,-0.0000689
 0,0.00003829,0.00005230,0.00001208,0.00000865,0.03361211,0.12492660,-0
 .22096951,0.00422574,0.01501906,-0.01950775,-0.00098297,-0.00197136,0.
 00122014,-0.03560054,-0.13542862,0.23540519,-0.00627528,0.00012842,0.0
 0021361,0.00024278,-0.00005976,0.00000565,0.00020879,0.00304032,0.0000
 0949,0.00008218,0.00012258,-0.00000134,-0.32865044,-0.05641941,0.00485
 211,-0.01343185,-0.00543871,0.00028684,-0.00066983,-0.00005426,0.00001
 003,0.00011492,-0.00020161,-0.00000117,0.00072611,-0.00082010,0.000166
 78,0.00003165,0.00003673,0.00000055,0.00003665,-0.00000446,0.00000070,
 -0.00163496,-0.00023558,0.00002147,-0.00098477,0.00136332,-0.00002040,
 -0.00100439,-0.00144107,-0.00001620,0.00009799,-0.00050419,0.00000159,
 -0.00048907,0.00004322,0.00000481,0.00139673,0.00170024,-0.00015936,0.
 00001419,0.00010660,0.00005739,0.00039899,-0.00063829,-0.00000018,0.00
 000663,0.00014770,-0.00005502,0.34917707,-0.03056331,-0.00438893,0.000
 55540,-0.00005647,-0.00005118,-0.00000213,0.00149750,-0.00413171,0.000
 00473,-0.00012377,-0.00044856,-0.00000242,-0.05530768,-0.06710991,0.00
 105132,0.02666200,0.00512857,-0.00044103,0.00107649,-0.00008207,-0.000
 01208,0.00006924,0.00012716,-0.00000276,-0.00127199,-0.00483827,0.0001
 1209,-0.00001752,-0.00005553,-0.00000124,-0.00001960,0.00000559,-0.000
 00047,-0.00055485,-0.00126220,-0.00001017,0.00034677,0.00001057,0.0000
 0860,-0.00176473,0.00311786,-0.00001131,-0.00012854,-0.00020731,-0.000
 00160,0.00145876,-0.00088319,0.00001578,-0.00204599,0.00107155,-0.0000
 2265,0.00013433,0.00009507,0.00003875,0.00102443,-0.00045080,-0.000012
 00,0.00013139,0.00010939,-0.00004204,0.05918140,0.07376418,0.00040706,
 0.00007375,0.00738717,0.00000479,0.00000075,0.00003075,0.00001575,-0.0
 0001899,0.00147180,-0.00000304,-0.00000181,0.00014787,0.00479088,0.001
 04782,-0.04200382,0.00010270,0.00008007,0.00279643,0.00000656,0.000002
 00,0.00008573,-0.00000251,0.00000234,-0.00007048,0.00017527,0.00010906
 ,0.01125956,-0.00000020,0.00000071,0.00001464,0.00000059,-0.00000019,0
 .00001581,0.00005639,-0.00001140,-0.00061132,-0.00001872,0.00002177,-0
 .00002094,-0.00004274,-0.00001748,0.00069610,0.00000458,-0.00001062,-0
 .00007514,0.00002419,0.00001402,-0.00080196,-0.00013134,-0.00008549,-0
 .00824050,0.00024323,-0.00124237,0.00011791,-0.00001730,0.00001519,0.0
 0017313,-0.00024119,0.00123469,0.00011564,-0.00535801,-0.00121255,0.02
 799905,-0.00237153,0.00252995,0.00004769,0.00003887,-0.00000846,0.0000
 0056,-0.01319448,-0.02929498,0.00043733,0.00005338,-0.00011046,0.00000
 357,0.00919682,0.01859886,-0.00016970,-0.12097983,-0.11787690,0.001733
 12,0.00077273,-0.00004797,-0.00013898,-0.00482458,0.00054593,0.0002512
 8,0.00005836,0.00009875,-0.00000204,0.00000080,-0.00000779,-0.00000027
 ,-0.00000248,-0.00000090,0.,0.00010839,-0.00037500,-0.00000101,-0.0001
 3826,0.00024177,-0.00000153,-0.00024971,0.00074219,0.00000004,0.000012
 12,-0.00016428,-0.00000033,0.00004037,-0.00019935,-0.00003032,0.000385
 70,0.00046074,-0.00001811,-0.00005528,0.00010664,0.00001558,-0.0000089
 2,-0.00005169,0.00000134,-0.00005784,0.00010973,-0.00001347,0.00060591
 ,0.00027214,-0.00001696,0.13060946,0.00434642,-0.00179955,-0.00005716,
 -0.00000792,0.00002159,0.00000004,0.00334116,0.00328636,-0.00003041,-0
 .00002241,0.00008190,-0.00000113,-0.01351982,-0.01869438,0.00031129,-0
 .11886134,-0.27158813,0.00281780,0.00016595,0.00115181,-0.00004655,0.0
 0074358,0.00119018,0.00004063,-0.00017010,0.00019347,-0.00000006,0.000
 00010,0.00000652,0.00000023,0.00000547,0.00000101,0.00000006,-0.000017
 83,0.00033759,-0.00000095,0.00002867,-0.00022261,0.00000077,0.00025037
 ,-0.00069059,0.00000079,0.00003988,0.00016043,-0.00000001,-0.00032027,
 0.00026669,-0.00001739,-0.00070389,-0.00063124,0.00001825,0.00014338,-
 0.00025238,-0.00003146,0.00003500,0.00004697,-0.00000101,0.00014559,-0
 .00025392,0.00002974,-0.00005308,0.00047973,-0.00000129,0.12443107,0.2
 8690857,0.00003981,-0.00002529,0.00162862,-0.00000045,0.00000002,-0.00
 000990,0.00028303,0.00045867,0.00721387,-0.00000102,-0.00000055,0.0000
 3342,-0.00001634,-0.00016122,0.00397887,0.00173979,0.00279964,-0.04309
 463,-0.00013924,-0.00004334,-0.00852664,0.00024930,0.00004143,0.012116
 23,-0.00000137,-0.00000362,-0.00008288,-0.00000008,-0.00000007,-0.0000
 0013,-0.00000016,-0.00000004,0.00000682,-0.00000084,-0.00000011,-0.000
 06226,0.00000147,-0.00000019,0.00003902,-0.00000133,0.00000397,0.00007
 106,-0.00000046,-0.00000025,-0.00001897,-0.00002859,-0.00001979,-0.000
 32546,-0.00000814,-0.00000450,-0.00034017,0.00002992,-0.00003896,0.000
 04361,0.00000042,0.00000087,0.00003897,-0.00002857,0.00003772,0.000044
 00,-0.00001935,-0.00001223,-0.00048743,-0.00209779,-0.00303219,0.02773
 398\\0.00000337,0.00000535,0.00000053,0.00000734,-0.00000781,-0.000000
 59,-0.00000122,0.00000407,-0.00000444,0.00000738,-0.00000045,0.0000020
 9,-0.00000423,-0.00000916,0.00000023,0.00000479,0.00000082,0.00000055,
 -0.00000038,0.00000188,0.00000036,-0.00000331,-0.00000236,0.00000382,-
 0.00000259,-0.00000029,-0.00000012,-0.00000521,0.00000077,-0.00000030,
 -0.00000303,0.00000253,-0.00000030,-0.00000488,0.00000031,-0.00000012,
 0.00000529,0.00001023,-0.00000083,-0.00000356,-0.00000117,0.00000297,-
 0.00000245,-0.00001005,-0.00000030,0.00000269,-0.00000074,-0.00000145,
 -0.00000196,0.00000138,-0.00000461,-0.00000047,0.00000149,0.00000275,-
 0.00000052,0.00000031,0.00000002,-0.00000069,-0.00000127,0.00000047,0.
 00000388,0.00000242,-0.00000037,-0.00000023,0.00000174,-0.00000037\\\@
 The archive entry for this job was punched.


 SLITHERY-DITHERY
 FRIEDRICH A. KEKULE
 DREAMT ON A BUS OF THINGS
 FREUD WOULD THINK KEEN.
 MOST OF THE TIME THEY WERE
 HERPETOLOGICAL
 BITING THEIR TAILS IN THE
 SHAPE OF BENZENE.
 Job cpu time:       0 days  0 hours 17 minutes  3.3 seconds.
 Elapsed time:       0 days  0 hours  1 minutes 27.8 seconds.
 File lengths (MBytes):  RWF=    201 Int=      0 D2E=      0 Chk=     10 Scr=      1
 Normal termination of Gaussian 16 at Sat Dec 30 20:54:30 2023.
