Unloading slurm/anatra/current
  ERROR: No such file or directory on
    '/cm/local/modulefiles/slurm/anatra/current'
environment: line 0: unalias: gv: not found
environment: line 0: unalias: sl: not found
 Entering Gaussian System, Link 0=g16
 Initial command:
 /apps/gaussian/g16/C.01/g16/l1.exe "/local/jobs/1153163/Gau-1733320.inp" -scrdir="/local/jobs/1153163/"
 Entering Link 1 = /apps/gaussian/g16/C.01/g16/l1.exe PID=   1733324.
  
 Copyright (c) 1988-2019, Gaussian, Inc.  All Rights Reserved.
  
 This is part of the Gaussian(R) 16 program.  It is based on
 the Gaussian(R) 09 system (copyright 2009, Gaussian, Inc.),
 the Gaussian(R) 03 system (copyright 2003, Gaussian, Inc.),
 the Gaussian(R) 98 system (copyright 1998, Gaussian, Inc.),
 the Gaussian(R) 94 system (copyright 1995, Gaussian, Inc.),
 the Gaussian 92(TM) system (copyright 1992, Gaussian, Inc.),
 the Gaussian 90(TM) system (copyright 1990, Gaussian, Inc.),
 the Gaussian 88(TM) system (copyright 1988, Gaussian, Inc.),
 the Gaussian 86(TM) system (copyright 1986, Carnegie Mellon
 University), and the Gaussian 82(TM) system (copyright 1983,
 Carnegie Mellon University). Gaussian is a federally registered
 trademark of Gaussian, Inc.
  
 This software contains proprietary and confidential information,
 including trade secrets, belonging to Gaussian, Inc.
  
 This software is provided under written license and may be
 used, copied, transmitted, or stored only in accord with that
 written license.
  
 The following legend is applicable only to US Government
 contracts under FAR:
  
                    RESTRICTED RIGHTS LEGEND
  
 Use, reproduction and disclosure by the US Government is
 subject to restrictions as set forth in subparagraphs (a)
 and (c) of the Commercial Computer Software - Restricted
 Rights clause in FAR 52.227-19.
  
 Gaussian, Inc.
 340 Quinnipiac St., Bldg. 40, Wallingford CT 06492
  
  
 ---------------------------------------------------------------
 Warning -- This program may not be used in any manner that
 competes with the business of Gaussian, Inc. or will provide
 assistance to any competitor of Gaussian, Inc.  The licensee
 of this program is prohibited from giving any competitor of
 Gaussian, Inc. access to this program.  By using this program,
 the user acknowledges that Gaussian, Inc. is engaged in the
 business of creating and licensing software in the field of
 computational chemistry and represents and warrants to the
 licensee that it is not a competitor of Gaussian, Inc. and that
 it will not use this program in any manner prohibited above.
 ---------------------------------------------------------------
  

 Cite this work as:
 Gaussian 16, Revision C.01,
 M. J. Frisch, G. W. Trucks, H. B. Schlegel, G. E. Scuseria, 
 M. A. Robb, J. R. Cheeseman, G. Scalmani, V. Barone, 
 G. A. Petersson, H. Nakatsuji, X. Li, M. Caricato, A. V. Marenich, 
 J. Bloino, B. G. Janesko, R. Gomperts, B. Mennucci, H. P. Hratchian, 
 J. V. Ortiz, A. F. Izmaylov, J. L. Sonnenberg, D. Williams-Young, 
 F. Ding, F. Lipparini, F. Egidi, J. Goings, B. Peng, A. Petrone, 
 T. Henderson, D. Ranasinghe, V. G. Zakrzewski, J. Gao, N. Rega, 
 G. Zheng, W. Liang, M. Hada, M. Ehara, K. Toyota, R. Fukuda, 
 J. Hasegawa, M. Ishida, T. Nakajima, Y. Honda, O. Kitao, H. Nakai, 
 T. Vreven, K. Throssell, J. A. Montgomery, Jr., J. E. Peralta, 
 F. Ogliaro, M. J. Bearpark, J. J. Heyd, E. N. Brothers, K. N. Kudin, 
 V. N. Staroverov, T. A. Keith, R. Kobayashi, J. Normand, 
 K. Raghavachari, A. P. Rendell, J. C. Burant, S. S. Iyengar, 
 J. Tomasi, M. Cossi, J. M. Millam, M. Klene, C. Adamo, R. Cammi, 
 J. W. Ochterski, R. L. Martin, K. Morokuma, O. Farkas, 
 J. B. Foresman, and D. J. Fox, Gaussian, Inc., Wallingford CT, 2019.
 
 ******************************************
 Gaussian 16:  ES64L-G16RevC.01  3-Jul-2019
                30-Dec-2023 
 ******************************************
 %chk=da-2_1_opt_dft_reopt_freq.chk
 %nprocshared=12
 Will use up to   12 processors via shared memory.
 %mem=48GB
 -----------------------------------------------------------
 # wb97xd def2svp scrf=(iefpcm,solvent=toluene) freq=noraman
 -----------------------------------------------------------
 1/10=4,30=1,38=1/1,3;
 2/12=2,17=6,18=5,40=1/2;
 3/5=43,7=101,11=2,25=1,30=1,70=2201,71=2,72=13,74=-58,140=1/1,2,3;
 4//1;
 5/5=2,38=5,53=13,98=1/2;
 8/6=4,10=90,11=11/1;
 11/6=1,8=1,9=11,15=111,16=1/1,2,10;
 10/6=1/2;
 6/7=2,8=2,9=2,10=2,28=1/1;
 7/8=1,10=1,25=1/1,2,3,16;
 1/10=4,30=1/3;
 99//99;
 ------------------------
 da-2_1_opt_dft_reopt.out
 ------------------------
 Symbolic Z-matrix:
 Charge =  0 Multiplicity = 1
 C                    -2.17494   0.62691   0.27433 
 C                     0.33153  -1.04271   1.2635 
 C                     0.19968   2.57619   0.3719 
 C                     1.37883  -0.2183    1.32899 
 C                    -1.40858   1.01225  -0.7606 
 C                    -0.31994   1.99422  -0.7194 
 H                     1.02663   3.28445   0.28773 
 H                    -0.18184   2.37943   1.3779 
 H                    -2.02426   1.1074    1.24833 
 H                    -0.36348  -1.3484    2.04298 
 H                     1.77608   0.33646   2.17649 
 O                     1.25627  -0.97182  -0.85318 
 C                     0.24155  -1.55641  -0.13181 
 C                     2.00561  -0.16637  -0.02195 
 O                    -0.51278  -2.34169  -0.61432 
 O                     2.97686   0.40697  -0.39829 
 C                    -3.24601  -0.42261   0.18642 
 H                    -4.03718  -0.1273   -0.52082 
 H                    -2.82801  -1.37743  -0.17114 
 H                    -3.71985  -0.6008    1.16084 
 H                    -1.58186   0.5404   -1.73457 
 H                     0.12451   2.23902  -1.68965 
 

 GradGradGradGradGradGradGradGradGradGradGradGradGradGradGradGradGradGrad
 Berny optimization.
 Initialization pass.
 Trust Radius=3.00D-01 FncErr=1.00D-07 GrdErr=1.00D-07 EigMax=2.50D+02 EigMin=1.00D-04
 Number of steps in this run=      2 maximum allowed number of steps=      2.
 GradGradGradGradGradGradGradGradGradGradGradGradGradGradGradGradGradGrad

                          Input orientation:                          
 ---------------------------------------------------------------------
 Center     Atomic      Atomic             Coordinates (Angstroms)
 Number     Number       Type             X           Y           Z
 ---------------------------------------------------------------------
      1          6           0       -2.174940    0.626910    0.274330
      2          6           0        0.331530   -1.042710    1.263500
      3          6           0        0.199680    2.576190    0.371900
      4          6           0        1.378830   -0.218300    1.328990
      5          6           0       -1.408580    1.012250   -0.760600
      6          6           0       -0.319940    1.994220   -0.719400
      7          1           0        1.026630    3.284450    0.287730
      8          1           0       -0.181840    2.379430    1.377900
      9          1           0       -2.024260    1.107400    1.248330
     10          1           0       -0.363480   -1.348400    2.042980
     11          1           0        1.776080    0.336460    2.176490
     12          8           0        1.256270   -0.971820   -0.853180
     13          6           0        0.241550   -1.556410   -0.131810
     14          6           0        2.005610   -0.166370   -0.021950
     15          8           0       -0.512780   -2.341690   -0.614320
     16          8           0        2.976860    0.406970   -0.398290
     17          6           0       -3.246010   -0.422610    0.186420
     18          1           0       -4.037180   -0.127300   -0.520820
     19          1           0       -2.828010   -1.377430   -0.171140
     20          1           0       -3.719850   -0.600800    1.160840
     21          1           0       -1.581860    0.540400   -1.734570
     22          1           0        0.124510    2.239020   -1.689650
 ---------------------------------------------------------------------
                    Distance matrix (angstroms):
                    1          2          3          4          5
     1  C    0.000000
     2  C    3.169934   0.000000
     3  C    3.073765   3.729447   0.000000
     4  C    3.802101   1.334458   3.180502   0.000000
     5  C    1.344200   3.368653   2.512959   3.694630   0.000000
     6  C    2.509594   3.685003   1.341503   3.460775   1.466663
     7  H    4.160859   4.489945   1.092045   3.671175   3.491724
     8  H    2.874307   3.462323   1.093759   3.030888   2.819088
     9  H    1.096472   3.189506   2.805598   3.653082   2.103311
    10  H    3.211131   1.088152   4.302565   2.196031   3.811163
    11  H    4.394671   2.195993   3.279935   1.088036   4.384661
    12  O    3.949737   2.310953   3.899433   2.311856   3.323632
    13  C    3.281960   1.489589   4.163395   2.284268   3.117101
    14  C    4.265451   2.285366   3.307285   1.490164   3.686657
    15  O    3.516399   2.434423   5.066140   3.444333   3.474589
    16  O    5.200176   3.443964   3.607137   2.434781   4.441815
    17  C    1.502136   3.787270   4.571650   4.768265   2.516311
    18  H    2.160795   4.807016   5.104585   5.723918   2.874997
    19  H    2.154605   3.486104   5.009282   4.614269   2.841270
    20  H    2.163312   4.076703   5.106702   5.115772   3.411133
    21  H    2.096403   3.893035   3.428636   4.327437   1.096032
    22  H    3.426892   4.419695   2.090292   4.089490   2.172202
                    6          7          8          9         10
     6  C    0.000000
     7  H    2.119494   0.000000
     8  H    2.136849   1.862238   0.000000
     9  H    2.750112   3.869138   2.242623   0.000000
    10  H    4.336559   5.145542   3.791047   3.069302   0.000000
    11  H    3.940514   3.580466   2.940225   3.987281   2.726590
    12  O    3.361507   4.412510   4.275132   4.416036   3.339633
    13  C    3.642459   4.922021   4.236664   3.759596   2.266945
    14  C    3.250041   3.600342   3.636704   4.413157   3.357636
    15  O    4.341468   5.902282   5.134923   4.201221   2.840802
    16  O    3.673059   3.543150   4.125874   5.311606   4.494329
    17  C    3.901726   5.657562   4.319744   2.227388   3.551462
    18  H    4.284642   6.159218   4.975186   2.950631   4.643299
    19  H    4.237809   6.066460   4.849303   2.972421   3.313167
    20  H    4.672132   6.195689   4.631026   2.408449   3.549971
    21  H    2.176374   4.292287   3.876797   3.068371   4.395668
    22  H    1.094919   2.411799   3.086005   3.811758   5.200023
                   11         12         13         14         15
    11  H    0.000000
    12  O    3.340763   0.000000
    13  C    3.356484   1.375419   0.000000
    14  C    2.266861   1.378841   2.248597   0.000000
    15  O    4.494440   2.250141   1.191006   3.380119   0.000000
    16  O    2.841890   2.251314   3.377543   1.188982   4.447402
    17  C    5.455085   4.653270   3.681012   5.261995   3.434327
    18  H    6.425305   5.370688   4.527827   6.063473   4.163371
    19  H    5.444854   4.160654   3.075025   4.985259   2.546860
    20  H    5.667032   5.381050   4.275140   5.862475   4.057978
    21  H    5.158851   3.334462   3.207846   4.037639   3.271748
    22  H    4.614592   3.505718   4.104370   3.479319   4.748197
                   16         17         18         19         20
    16  O    0.000000
    17  C    6.305093   0.000000
    18  H    7.035426   1.101520   0.000000
    19  H    6.077187   1.101932   1.774033   0.000000
    20  H    6.949274   1.098076   1.775635   1.781208   0.000000
    21  H    4.752407   2.717901   2.819150   2.770429   3.775810
    22  H    3.627660   4.686610   4.928012   4.909374   5.564978
                   21         22
    21  H    0.000000
    22  H    2.408117   0.000000
 Stoichiometry    C9H10O3
 Framework group  C1[X(C9H10O3)]
 Deg. of freedom    60
 Full point group                 C1      NOp   1
 Largest Abelian subgroup         C1      NOp   1
 Largest concise Abelian subgroup C1      NOp   1
                         Standard orientation:                         
 ---------------------------------------------------------------------
 Center     Atomic      Atomic             Coordinates (Angstroms)
 Number     Number       Type             X           Y           Z
 ---------------------------------------------------------------------
      1          6           0       -2.174940    0.626907    0.274329
      2          6           0        0.331533   -1.042709    1.263499
      3          6           0        0.199677    2.576191    0.371899
      4          6           0        1.378831   -0.218297    1.328989
      5          6           0       -1.408581    1.012248   -0.760601
      6          6           0       -0.319942    1.994220   -0.719401
      7          1           0        1.026625    3.284453    0.287729
      8          1           0       -0.181843    2.379430    1.377899
      9          1           0       -2.024261    1.107397    1.248329
     10          1           0       -0.363477   -1.348400    2.042979
     11          1           0        1.776080    0.336464    2.176489
     12          8           0        1.256273   -0.971817   -0.853181
     13          6           0        0.241554   -1.556409   -0.131811
     14          6           0        2.005611   -0.166366   -0.021951
     15          8           0       -0.512775   -2.341690   -0.614321
     16          8           0        2.976860    0.406976   -0.398291
     17          6           0       -3.246008   -0.422615    0.186419
     18          1           0       -4.037179   -0.127306   -0.520821
     19          1           0       -2.828007   -1.377434   -0.171141
     20          1           0       -3.719848   -0.600806    1.160839
     21          1           0       -1.581860    0.540398   -1.734571
     22          1           0        0.124507    2.239021   -1.689651
 ---------------------------------------------------------------------
 Rotational constants (GHZ):           1.2067752           0.8438173           0.6134242
 Standard basis: def2SVP (5D, 7F)
 There are   230 symmetry adapted cartesian basis functions of A   symmetry.
 There are   218 symmetry adapted basis functions of A   symmetry.
   218 basis functions,   370 primitive gaussians,   230 cartesian basis functions
    44 alpha electrons       44 beta electrons
       nuclear repulsion energy       688.3321971077 Hartrees.
 NAtoms=   22 NActive=   22 NUniq=   22 SFac= 1.00D+00 NAtFMM=   60 NAOKFM=F Big=F
 Integral buffers will be    131072 words long.
 Raffenetti 2 integral format.
 Two-electron integral symmetry is turned on.
 Nuclear repulsion after empirical dispersion term =      688.3166909284 Hartrees.
 Force inversion solution in PCM.
 ------------------------------------------------------------------------------
 Polarizable Continuum Model (PCM)
 =================================
 Model                : PCM.
 Atomic radii         : UFF (Universal Force Field).
 Polarization charges : Total charges.
 Charge compensation  : None.
 Solution method      : Matrix inversion.
 Cavity type          : Scaled VdW (van der Waals Surface) (Alpha=1.100).
 Cavity algorithm     : GePol (No added spheres)
                        Default sphere list used, NSphG=   22.
                        Lebedev-Laikov grids with approx.  5.0 points / Ang**2.
                        Smoothing algorithm: York/Karplus (Gamma=1.0000).
                        Polarization charges: spherical gaussians, with
                                              point-specific exponents (IZeta= 3).
                        Self-potential: point-specific (ISelfS= 7).
                        Self-field    : sphere-specific E.n sum rule (ISelfD= 2).
 1st derivatives      : Analytical E(r).r(x)/FMM algorithm (CHGder, D1EAlg=3).
                        Cavity 1st derivative terms included.
 2nd derivatives      : Analytical E(r).r(xy)/FMM algorithm (CHGder, D2EAlg=3).
                        Cavity 2nd derivative terms included.
 Solvent              : Toluene, Eps=   2.374100 Eps(inf)=   2.238315
 ------------------------------------------------------------------------------
 One-electron integrals computed using PRISM.
   1 Symmetry operations used in ECPInt.
 ECPInt:  NShTT=    5253 NPrTT=   19101 LenC2=    5151 LenP2D=   14298.
 LDataN:  DoStor=T MaxTD1= 4 Len=   56
 NBasis=   218 RedAO= T EigKep=  5.02D-04  NBF=   218
 NBsUse=   218 1.00D-06 EigRej= -1.00D+00 NBFU=   218
 ExpMin= 1.22D-01 ExpMax= 2.27D+03 ExpMxC= 3.41D+02 IAcc=3 IRadAn=         5 AccDes= 0.00D+00
 Harris functional with IExCor= 4639 and IRadAn=       5 diagonalized for initial guess.
 HarFok:  IExCor= 4639 AccDes= 0.00D+00 IRadAn=         5 IDoV= 1 UseB2=F ITyADJ=14
 ICtDFT=  3500011 ScaDFX=  1.000000  1.000000  1.000000  1.000000
 FoFCou: FMM=F IPFlag=           0 FMFlag=      100000 FMFlg1=           0
         NFxFlg=           0 DoJE=T BraDBF=F KetDBF=T FulRan=T
         wScrn=  0.000000 ICntrl=       500 IOpCl=  0 I1Cent=   200000004 NGrid=           0
         NMat0=    1 NMatS0=      1 NMatT0=    0 NMatD0=    1 NMtDS0=    0 NMtDT0=    0
 Petite list used in FoFCou.
 Requested convergence on RMS density matrix=1.00D-08 within 128 cycles.
 Requested convergence on MAX density matrix=1.00D-06.
 Requested convergence on             energy=1.00D-06.
 No special actions if energy rises.
 Inv3:  Mode=1 IEnd=     9817443.
 Iteration    1 A*A^-1 deviation from unit magnitude is 3.77D-15 for    375.
 Iteration    1 A*A^-1 deviation from orthogonality  is 2.01D-15 for   1500    360.
 Iteration    1 A^-1*A deviation from unit magnitude is 3.77D-15 for    375.
 Iteration    1 A^-1*A deviation from orthogonality  is 2.21D-15 for   1444   1270.
 Error on total polarization charges =  0.00603
 SCF Done:  E(RwB97XD) =  -573.998631347     A.U. after   14 cycles
            NFock= 14  Conv=0.71D-08     -V/T= 2.0097
 DoSCS=F DFT=T ScalE2(SS,OS)=  1.000000  1.000000
 Range of M.O.s used for correlation:     1   218
 NBasis=   218 NAE=    44 NBE=    44 NFC=     0 NFV=     0
 NROrb=    218 NOA=    44 NOB=    44 NVA=   174 NVB=   174
   1 Symmetry operations used in ECPInt.
 ECPInt:  NShTT=    5253 NPrTT=   19101 LenC2=    5151 LenP2D=   14298.
 LDataN:  DoStor=T MaxTD1= 5 Len=  102
 Symmetrizing basis deriv contribution to polar:
 IMax=3 JMax=2 DiffMx= 0.00D+00
 G2DrvN: will do    23 centers at a time, making    1 passes.
 Calling FoFCou, ICntrl=  3107 FMM=F I1Cent=   0 AccDes= 0.00D+00.
 NEqPCM:  Using equilibrium solvation (IEInf=0, Eps=   2.3741, EpsInf=   2.2383)
 G2PCM: DoFxE=T DoFxN=T DoGrad=T DoDP/DQ/DG/TGxP=FFFF NFrqRd=   0 IEInf=0 SqF1=F DoCFld=F IF1Alg=4.
 End of G2Drv F.D. properties file   721 does not exist.
 End of G2Drv F.D. properties file   722 does not exist.
 End of G2Drv F.D. properties file   788 does not exist.
          IDoAtm=1111111111111111111111
 NEqPCM:  Using equilibrium solvation (IEInf=0, Eps=   2.3741, EpsInf=   2.2383)
          Differentiating once with respect to electric field.
                with respect to dipole field.
          Differentiating once with respect to nuclear coordinates.
 Keep R1 ints in memory in canonical form, NReq=587803661.
          There are    69 degrees of freedom in the 1st order CPHF.  IDoFFX=6 NUNeed=     3.
     66 vectors produced by pass  0 Test12= 1.11D-14 1.45D-09 XBig12= 6.29D+01 3.77D+00.
 AX will form    66 AO Fock derivatives at one time.
     66 vectors produced by pass  1 Test12= 1.11D-14 1.45D-09 XBig12= 7.95D+00 4.92D-01.
     66 vectors produced by pass  2 Test12= 1.11D-14 1.45D-09 XBig12= 3.26D-01 1.15D-01.
     66 vectors produced by pass  3 Test12= 1.11D-14 1.45D-09 XBig12= 5.26D-03 1.43D-02.
     66 vectors produced by pass  4 Test12= 1.11D-14 1.45D-09 XBig12= 4.50D-05 9.06D-04.
     66 vectors produced by pass  5 Test12= 1.11D-14 1.45D-09 XBig12= 2.79D-07 7.17D-05.
     56 vectors produced by pass  6 Test12= 1.11D-14 1.45D-09 XBig12= 1.65D-09 5.49D-06.
     22 vectors produced by pass  7 Test12= 1.11D-14 1.45D-09 XBig12= 8.23D-12 3.05D-07.
      3 vectors produced by pass  8 Test12= 1.11D-14 1.45D-09 XBig12= 3.52D-14 2.59D-08.
 InvSVY:  IOpt=1 It=  1 EMax= 2.66D-15
 Solved reduced A of dimension   477 with    69 vectors.
 Isotropic polarizability for W=    0.000000      114.81 Bohr**3.
 End of Minotr F.D. properties file   721 does not exist.
 End of Minotr F.D. properties file   722 does not exist.
 End of Minotr F.D. properties file   788 does not exist.

 **********************************************************************

            Population analysis using the SCF Density.

 **********************************************************************

 Orbital symmetries:
       Occupied  (A) (A) (A) (A) (A) (A) (A) (A) (A) (A) (A) (A)
                 (A) (A) (A) (A) (A) (A) (A) (A) (A) (A) (A) (A)
                 (A) (A) (A) (A) (A) (A) (A) (A) (A) (A) (A) (A)
                 (A) (A) (A) (A) (A) (A) (A) (A)
       Virtual   (A) (A) (A) (A) (A) (A) (A) (A) (A) (A) (A) (A)
                 (A) (A) (A) (A) (A) (A) (A) (A) (A) (A) (A) (A)
                 (A) (A) (A) (A) (A) (A) (A) (A) (A) (A) (A) (A)
                 (A) (A) (A) (A) (A) (A) (A) (A) (A) (A) (A) (A)
                 (A) (A) (A) (A) (A) (A) (A) (A) (A) (A) (A) (A)
                 (A) (A) (A) (A) (A) (A) (A) (A) (A) (A) (A) (A)
                 (A) (A) (A) (A) (A) (A) (A) (A) (A) (A) (A) (A)
                 (A) (A) (A) (A) (A) (A) (A) (A) (A) (A) (A) (A)
                 (A) (A) (A) (A) (A) (A) (A) (A) (A) (A) (A) (A)
                 (A) (A) (A) (A) (A) (A) (A) (A) (A) (A) (A) (A)
                 (A) (A) (A) (A) (A) (A) (A) (A) (A) (A) (A) (A)
                 (A) (A) (A) (A) (A) (A) (A) (A) (A) (A) (A) (A)
                 (A) (A) (A) (A) (A) (A) (A) (A) (A) (A) (A) (A)
                 (A) (A) (A) (A) (A) (A) (A) (A) (A) (A) (A) (A)
                 (A) (A) (A) (A) (A) (A)
 The electronic state is 1-A.
 Alpha  occ. eigenvalues --  -19.33314 -19.28007 -19.27860 -10.46132 -10.46013
 Alpha  occ. eigenvalues --  -10.35481 -10.35402 -10.31562 -10.31365 -10.30625
 Alpha  occ. eigenvalues --  -10.30594 -10.29894  -1.25212  -1.17961  -1.14138
 Alpha  occ. eigenvalues --   -0.94334  -0.91226  -0.85508  -0.79637  -0.77621
 Alpha  occ. eigenvalues --   -0.73531  -0.69444  -0.68739  -0.62073  -0.60672
 Alpha  occ. eigenvalues --   -0.60452  -0.57624  -0.56917  -0.55626  -0.54403
 Alpha  occ. eigenvalues --   -0.53381  -0.51998  -0.50503  -0.49793  -0.49496
 Alpha  occ. eigenvalues --   -0.47774  -0.43648  -0.43487  -0.42989  -0.42038
 Alpha  occ. eigenvalues --   -0.41094  -0.39126  -0.38144  -0.31111
 Alpha virt. eigenvalues --   -0.03733   0.02282   0.10936   0.12123   0.13695
 Alpha virt. eigenvalues --    0.15356   0.15895   0.16192   0.17118   0.19449
 Alpha virt. eigenvalues --    0.21090   0.21496   0.22497   0.24150   0.25024
 Alpha virt. eigenvalues --    0.27230   0.27874   0.29608   0.31891   0.33583
 Alpha virt. eigenvalues --    0.35277   0.36531   0.39145   0.40202   0.44037
 Alpha virt. eigenvalues --    0.45039   0.45456   0.48049   0.49127   0.49983
 Alpha virt. eigenvalues --    0.50614   0.52719   0.54040   0.54960   0.55685
 Alpha virt. eigenvalues --    0.57858   0.58865   0.60791   0.62539   0.63909
 Alpha virt. eigenvalues --    0.66110   0.69810   0.70384   0.70820   0.71556
 Alpha virt. eigenvalues --    0.72331   0.72709   0.73872   0.74682   0.74940
 Alpha virt. eigenvalues --    0.75396   0.76398   0.76631   0.77596   0.77998
 Alpha virt. eigenvalues --    0.78486   0.80248   0.80541   0.81765   0.86163
 Alpha virt. eigenvalues --    0.87550   0.88486   0.90254   0.91472   0.92917
 Alpha virt. eigenvalues --    0.99144   1.02307   1.05612   1.06255   1.09681
 Alpha virt. eigenvalues --    1.10871   1.12901   1.13297   1.16620   1.18666
 Alpha virt. eigenvalues --    1.19740   1.23250   1.24526   1.25521   1.27537
 Alpha virt. eigenvalues --    1.29691   1.30882   1.33978   1.35185   1.38815
 Alpha virt. eigenvalues --    1.39776   1.44535   1.45624   1.51505   1.56375
 Alpha virt. eigenvalues --    1.58426   1.60870   1.61770   1.62715   1.66453
 Alpha virt. eigenvalues --    1.67294   1.68651   1.70207   1.71808   1.74250
 Alpha virt. eigenvalues --    1.78085   1.78774   1.79819   1.81184   1.83386
 Alpha virt. eigenvalues --    1.86334   1.86957   1.87475   1.88299   1.89208
 Alpha virt. eigenvalues --    1.90362   1.90888   1.93468   1.94503   1.96779
 Alpha virt. eigenvalues --    1.97845   1.98562   2.03277   2.04160   2.06726
 Alpha virt. eigenvalues --    2.09854   2.11204   2.12819   2.13710   2.16499
 Alpha virt. eigenvalues --    2.17195   2.19329   2.21786   2.25975   2.28235
 Alpha virt. eigenvalues --    2.29726   2.31697   2.35234   2.38739   2.42065
 Alpha virt. eigenvalues --    2.42863   2.46484   2.47015   2.48724   2.53501
 Alpha virt. eigenvalues --    2.55893   2.60935   2.64426   2.65586   2.68087
 Alpha virt. eigenvalues --    2.69814   2.71098   2.71303   2.74555   2.77328
 Alpha virt. eigenvalues --    2.80305   2.81333   2.81833   2.86174   2.87114
 Alpha virt. eigenvalues --    2.91488   2.94892   3.01004   3.02261   3.03241
 Alpha virt. eigenvalues --    3.04143   3.10098   3.18363   3.25012   3.27167
 Alpha virt. eigenvalues --    3.28728   3.29121   3.34585   3.42949   3.51197
 Alpha virt. eigenvalues --    3.52468   3.73429   3.76615   3.79185
          Condensed to atoms (all electrons):
               1          2          3          4          5          6
     1  C    4.946990   0.005846  -0.023577  -0.004975   0.559012  -0.035183
     2  C    0.005846   5.394524  -0.006394   0.219752   0.006436  -0.008740
     3  C   -0.023577  -0.006394   4.785182   0.006338  -0.052204   0.626606
     4  C   -0.004975   0.219752   0.006338   5.414237  -0.010892   0.007066
     5  C    0.559012   0.006436  -0.052204  -0.010892   4.942623   0.341254
     6  C   -0.035183  -0.008740   0.626606   0.007066   0.341254   4.791883
     7  H   -0.000275   0.000253   0.392592  -0.001118   0.009876  -0.015303
     8  H    0.011309  -0.002686   0.377631   0.005966  -0.030923  -0.001449
     9  H    0.389557   0.003361   0.010023  -0.001583  -0.013373  -0.025131
    10  H    0.000764   0.429565  -0.000141  -0.046010  -0.000147   0.000006
    11  H   -0.000134  -0.047220   0.000560   0.429470  -0.000020   0.000120
    12  O   -0.001394  -0.107899  -0.001910  -0.109530   0.002431   0.003608
    13  C    0.002833   0.223038   0.000049   0.032790   0.001728   0.000379
    14  C   -0.000169   0.033256   0.003465   0.211510   0.001049  -0.000670
    15  O   -0.000531  -0.077114   0.000036   0.004213  -0.004133   0.000059
    16  O    0.000017   0.004410  -0.000078  -0.077770   0.000064  -0.003071
    17  C    0.391440  -0.001212   0.000038   0.000472  -0.058833   0.008152
    18  H   -0.019231   0.000085   0.000023  -0.000012  -0.009799  -0.000061
    19  H   -0.017660  -0.003187   0.000037   0.000247  -0.014961   0.000298
    20  H   -0.018036  -0.000056   0.000026  -0.000001   0.009301  -0.000376
    21  H   -0.064128   0.000494   0.010782  -0.000188   0.422340  -0.039270
    22  H    0.011453  -0.000107  -0.052024   0.000370  -0.046297   0.420172
               7          8          9         10         11         12
     1  C   -0.000275   0.011309   0.389557   0.000764  -0.000134  -0.001394
     2  C    0.000253  -0.002686   0.003361   0.429565  -0.047220  -0.107899
     3  C    0.392592   0.377631   0.010023  -0.000141   0.000560  -0.001910
     4  C   -0.001118   0.005966  -0.001583  -0.046010   0.429470  -0.109530
     5  C    0.009876  -0.030923  -0.013373  -0.000147  -0.000020   0.002431
     6  C   -0.015303  -0.001449  -0.025131   0.000006   0.000120   0.003608
     7  H    0.599606  -0.041215  -0.000082  -0.000000   0.000128   0.000009
     8  H   -0.041215   0.628016   0.001968  -0.000038   0.000209   0.000024
     9  H   -0.000082   0.001968   0.639352  -0.000069  -0.000051   0.000006
    10  H   -0.000000  -0.000038  -0.000069   0.567090  -0.005320   0.002825
    11  H    0.000128   0.000209  -0.000051  -0.005320   0.564867   0.002950
    12  O    0.000009   0.000024   0.000006   0.002825   0.002950   8.021037
    13  C   -0.000028   0.000328  -0.001174  -0.033852   0.009194   0.306117
    14  C    0.000971  -0.002061   0.000186   0.009039  -0.033513   0.299662
    15  O    0.000000  -0.000001   0.000011   0.001418  -0.000045  -0.063313
    16  O    0.000441  -0.000003   0.000001  -0.000046   0.001819  -0.065824
    17  C   -0.000005   0.000053  -0.044327  -0.000169  -0.000001   0.000009
    18  H    0.000001   0.000005   0.003834  -0.000002  -0.000000   0.000000
    19  H   -0.000000  -0.000001   0.003943   0.000331   0.000000   0.000147
    20  H   -0.000000   0.000009  -0.010404   0.000235   0.000000  -0.000000
    21  H   -0.000190  -0.000066   0.007903  -0.000041   0.000002  -0.000586
    22  H   -0.013551   0.007684  -0.000072   0.000003  -0.000025  -0.000181
              13         14         15         16         17         18
     1  C    0.002833  -0.000169  -0.000531   0.000017   0.391440  -0.019231
     2  C    0.223038   0.033256  -0.077114   0.004410  -0.001212   0.000085
     3  C    0.000049   0.003465   0.000036  -0.000078   0.000038   0.000023
     4  C    0.032790   0.211510   0.004213  -0.077770   0.000472  -0.000012
     5  C    0.001728   0.001049  -0.004133   0.000064  -0.058833  -0.009799
     6  C    0.000379  -0.000670   0.000059  -0.003071   0.008152  -0.000061
     7  H   -0.000028   0.000971   0.000000   0.000441  -0.000005   0.000001
     8  H    0.000328  -0.002061  -0.000001  -0.000003   0.000053   0.000005
     9  H   -0.001174   0.000186   0.000011   0.000001  -0.044327   0.003834
    10  H   -0.033852   0.009039   0.001418  -0.000046  -0.000169  -0.000002
    11  H    0.009194  -0.033513  -0.000045   0.001819  -0.000001  -0.000000
    12  O    0.306117   0.299662  -0.063313  -0.065824   0.000009   0.000000
    13  C    4.514810  -0.082979   0.730034   0.000420  -0.000576   0.000016
    14  C   -0.082979   4.506640   0.000720   0.758831  -0.000042   0.000001
    15  O    0.730034   0.000720   7.573388  -0.000013  -0.005250   0.000027
    16  O    0.000420   0.758831  -0.000013   7.551450  -0.000000   0.000000
    17  C   -0.000576  -0.000042  -0.005250  -0.000000   4.570959   0.395690
    18  H    0.000016   0.000001   0.000027   0.000000   0.395690   0.598976
    19  H    0.000414   0.000009   0.017667   0.000000   0.390661  -0.015330
    20  H    0.000039   0.000000   0.000009  -0.000000   0.388462  -0.020882
    21  H    0.001718  -0.000037   0.000782   0.000004  -0.008926   0.001821
    22  H   -0.000029   0.000361  -0.000002   0.000303  -0.000201   0.000005
              19         20         21         22
     1  C   -0.017660  -0.018036  -0.064128   0.011453
     2  C   -0.003187  -0.000056   0.000494  -0.000107
     3  C    0.000037   0.000026   0.010782  -0.052024
     4  C    0.000247  -0.000001  -0.000188   0.000370
     5  C   -0.014961   0.009301   0.422340  -0.046297
     6  C    0.000298  -0.000376  -0.039270   0.420172
     7  H   -0.000000  -0.000000  -0.000190  -0.013551
     8  H   -0.000001   0.000009  -0.000066   0.007684
     9  H    0.003943  -0.010404   0.007903  -0.000072
    10  H    0.000331   0.000235  -0.000041   0.000003
    11  H    0.000000   0.000000   0.000002  -0.000025
    12  O    0.000147  -0.000000  -0.000586  -0.000181
    13  C    0.000414   0.000039   0.001718  -0.000029
    14  C    0.000009   0.000000  -0.000037   0.000361
    15  O    0.017667   0.000009   0.000782  -0.000002
    16  O    0.000000  -0.000000   0.000004   0.000303
    17  C    0.390661   0.388462  -0.008926  -0.000201
    18  H   -0.015330  -0.020882   0.001821   0.000005
    19  H    0.590605  -0.020282   0.002157  -0.000001
    20  H   -0.020282   0.629230   0.000080   0.000006
    21  H    0.002157   0.000080   0.639399  -0.010670
    22  H   -0.000001   0.000006  -0.010670   0.635003
 Mulliken charges:
               1
     1  C   -0.133927
     2  C   -0.066406
     3  C   -0.077060
     4  C   -0.080353
     5  C   -0.054535
     6  C   -0.070349
     7  H    0.067891
     8  H    0.045241
     9  H    0.036120
    10  H    0.074559
    11  H    0.077011
    12  O   -0.288189
    13  C    0.294731
    14  C    0.293769
    15  O   -0.177959
    16  O   -0.170954
    17  C   -0.026393
    18  H    0.064833
    19  H    0.064906
    20  H    0.042642
    21  H    0.036619
    22  H    0.047802
 Sum of Mulliken charges =  -0.00000
 Mulliken charges with hydrogens summed into heavy atoms:
               1
     1  C   -0.097807
     2  C    0.008154
     3  C    0.036073
     4  C   -0.003342
     5  C   -0.017916
     6  C   -0.022547
    12  O   -0.288189
    13  C    0.294731
    14  C    0.293769
    15  O   -0.177959
    16  O   -0.170954
    17  C    0.145988
 APT charges:
               1
     1  C    0.042732
     2  C   -0.100074
     3  C   -0.212118
     4  C   -0.104644
     5  C   -0.142819
     6  C    0.079522
     7  H    0.057093
     8  H    0.049260
     9  H    0.031176
    10  H    0.109781
    11  H    0.109568
    12  O   -0.924173
    13  C    1.270268
    14  C    1.267407
    15  O   -0.805074
    16  O   -0.799677
    17  C   -0.006429
    18  H   -0.009400
    19  H    0.025985
    20  H   -0.006745
    21  H    0.037002
    22  H    0.031361
 Sum of APT charges =  -0.00000
 APT charges with hydrogens summed into heavy atoms:
               1
     1  C    0.073908
     2  C    0.009707
     3  C   -0.105766
     4  C    0.004924
     5  C   -0.105817
     6  C    0.110883
    12  O   -0.924173
    13  C    1.270268
    14  C    1.267407
    15  O   -0.805074
    16  O   -0.799677
    17  C    0.003410
 Electronic spatial extent (au):  <R**2>=           1976.8791
 Charge=             -0.0000 electrons
 Dipole moment (field-independent basis, Debye):
    X=             -1.8589    Y=              1.0038    Z=              4.0813  Tot=              4.5957
 Quadrupole moment (field-independent basis, Debye-Ang):
   XX=            -75.5118   YY=            -75.0186   ZZ=            -64.6433
   XY=             -0.9644   XZ=              3.5240   YZ=             -3.3619
 Traceless Quadrupole moment (field-independent basis, Debye-Ang):
   XX=             -3.7872   YY=             -3.2940   ZZ=              7.0812
   XY=             -0.9644   XZ=              3.5240   YZ=             -3.3619
 Octapole moment (field-independent basis, Debye-Ang**2):
  XXX=            -27.3238  YYY=              0.4081  ZZZ=              3.7489  XYY=             18.2241
  XXY=            -13.4342  XXZ=             10.6448  XZZ=              1.7053  YZZ=              1.6595
  YYZ=              7.0683  XYZ=              1.7273
 Hexadecapole moment (field-independent basis, Debye-Ang**3):
 XXXX=          -1417.1820 YYYY=           -934.7324 ZZZZ=           -304.7705 XXXY=             -3.9104
 XXXZ=             19.2508 YYYX=             22.5758 YYYZ=             -3.9476 ZZZX=             -0.2685
 ZZZY=              1.4492 XXYY=           -382.6770 XXZZ=           -269.1942 YYZZ=           -199.6145
 XXYZ=              7.7467 YYXZ=            -10.3346 ZZXY=              9.8904
 N-N= 6.883166909284D+02 E-N=-2.713739503296D+03  KE= 5.684968478976D+02
  Exact polarizability:     134.689      35.957     110.204      -0.679       3.698      99.535
 Approx polarizability:     132.077      41.237     110.957      -1.497       6.126     107.664
   1 Symmetry operations used in ECPInt.
 ECPInt:  NShTT=    5253 NPrTT=   19101 LenC2=    5151 LenP2D=   14298.
 LDataN:  DoStor=T MaxTD1= 6 Len=  172
 D2PCM: PCM CHGder 2nd derivatives, FixD1E=F FixD2E=F DoIter=F DoCFld=F I1PDM=0
 Calling FoFJK, ICntrl=    100127 FMM=F ISym2X=0 I1Cent= 0 IOpClX= 0 NMat=1 NMatS=1 NMatT=0.
 Full mass-weighted force constant matrix:
 Low frequencies --- -179.4267   -7.5702   -0.0008    0.0005    0.0007    5.9781
 Low frequencies ---   11.8700   34.9260   69.5797
 ******    1 imaginary frequencies (negative Signs) ****** 
 Diagonal vibrational polarizability:
       62.2847329      56.6983484       9.3801196
 Harmonic frequencies (cm**-1), IR intensities (KM/Mole), Raman scattering
 activities (A**4/AMU), depolarization ratios for plane and unpolarized
 incident light, reduced masses (AMU), force constants (mDyne/A),
 and normal coordinates:
                      1                      2                      3
                      A                      A                      A
 Frequencies --   -179.4219                33.4038                69.5419
 Red. masses --      1.0988                 5.1197                 3.1449
 Frc consts  --      0.0208                 0.0034                 0.0090
 IR Inten    --      0.9370                 1.2691                 0.0890
  Atom  AN      X      Y      Z        X      Y      Z        X      Y      Z
     1   6     0.04  -0.04   0.02    -0.02   0.02   0.10     0.19  -0.07   0.04
     2   6     0.00  -0.00  -0.00    -0.07  -0.03  -0.07    -0.07  -0.07  -0.01
     3   6     0.01  -0.00   0.00     0.05  -0.05  -0.22     0.06   0.07  -0.06
     4   6    -0.00   0.00  -0.00    -0.06  -0.05   0.05    -0.12   0.00   0.01
     5   6    -0.05   0.05  -0.01    -0.10  -0.06   0.01     0.03   0.08  -0.02
     6   6     0.01  -0.01   0.00    -0.06  -0.10  -0.14     0.10  -0.01  -0.03
     7   1     0.05  -0.05   0.00     0.07  -0.08  -0.32     0.15  -0.03  -0.08
     8   1    -0.04   0.06  -0.00     0.11   0.03  -0.17    -0.05   0.26  -0.07
     9   1     0.18  -0.20   0.07     0.07   0.09   0.05     0.40  -0.29   0.12
    10   1     0.01  -0.01   0.00    -0.13  -0.05  -0.13    -0.05  -0.12  -0.01
    11   1    -0.00   0.00  -0.00    -0.11  -0.10   0.10    -0.16   0.02   0.02
    12   8    -0.00   0.00  -0.00     0.09   0.06   0.00    -0.05   0.00   0.00
    13   6    -0.00   0.00  -0.00     0.02   0.05  -0.11    -0.02  -0.06  -0.01
    14   6    -0.00   0.00  -0.00     0.04   0.00   0.10    -0.11   0.05   0.02
    15   8    -0.00  -0.00   0.00     0.03   0.10  -0.20     0.03  -0.11  -0.02
    16   8    -0.00   0.00  -0.00     0.09  -0.01   0.20    -0.14   0.11   0.03
    17   6    -0.00  -0.00  -0.00    -0.04   0.03   0.26     0.11   0.01   0.04
    18   1     0.28  -0.22  -0.41    -0.09  -0.02   0.29    -0.01   0.20   0.25
    19   1     0.08  -0.15   0.49    -0.07  -0.00   0.30    -0.02   0.05  -0.22
    20   1    -0.36   0.36  -0.11     0.03   0.11   0.30     0.28  -0.15   0.09
    21   1    -0.17   0.18  -0.05    -0.18  -0.13   0.06    -0.16   0.25  -0.07
    22   1     0.04  -0.05   0.01    -0.13  -0.17  -0.19     0.20  -0.15  -0.02
                      4                      5                      6
                      A                      A                      A
 Frequencies --     89.4473                97.0769               106.1287
 Red. masses --      4.8652                 2.2286                 4.4685
 Frc consts  --      0.0229                 0.0124                 0.0297
 IR Inten    --      5.3299                 3.1011                 5.2268
  Atom  AN      X      Y      Z        X      Y      Z        X      Y      Z
     1   6    -0.06   0.00  -0.04    -0.04   0.14  -0.03     0.10  -0.09  -0.05
     2   6     0.14  -0.12   0.09     0.01  -0.11   0.01     0.03  -0.04   0.08
     3   6     0.12  -0.20  -0.03     0.01   0.06  -0.02     0.04  -0.01  -0.07
     4   6     0.12  -0.09   0.07    -0.01  -0.08   0.02     0.08  -0.11   0.08
     5   6    -0.00  -0.08  -0.03     0.10  -0.04   0.01     0.02   0.01  -0.07
     6   6     0.10  -0.20  -0.03    -0.01   0.08  -0.02    -0.06   0.10  -0.08
     7   1     0.21  -0.31  -0.03    -0.10   0.19  -0.04    -0.04   0.08  -0.08
     8   1     0.05  -0.11  -0.04     0.13  -0.09  -0.01     0.20  -0.21  -0.05
     9   1    -0.03  -0.01  -0.04    -0.26   0.41  -0.13     0.08  -0.08  -0.05
    10   1     0.23  -0.23   0.13     0.02  -0.15   0.00     0.08  -0.08   0.10
    11   1     0.19  -0.17   0.09    -0.02  -0.10   0.03     0.18  -0.21   0.11
    12   8    -0.08   0.15   0.00    -0.02  -0.01  -0.00    -0.14   0.13   0.01
    13   6     0.01   0.03   0.04     0.01  -0.07  -0.01    -0.10   0.10   0.04
    14   6    -0.03   0.09   0.01    -0.04   0.00   0.01    -0.02  -0.01   0.04
    15   8    -0.02   0.06   0.03     0.03  -0.08  -0.02    -0.16   0.16   0.02
    16   8    -0.10   0.18  -0.03    -0.09   0.08   0.01     0.00  -0.05   0.03
    17   6    -0.16   0.11  -0.07     0.06   0.02   0.06     0.21  -0.20  -0.02
    18   1    -0.13   0.20  -0.07     0.16  -0.22  -0.15     0.16  -0.28  -0.00
    19   1    -0.25   0.08  -0.09     0.19  -0.03   0.36     0.29  -0.15  -0.04
    20   1    -0.18   0.13  -0.08    -0.09   0.23   0.02     0.25  -0.25  -0.01
    21   1    -0.03  -0.08  -0.03     0.29  -0.27   0.08     0.03   0.02  -0.08
    22   1     0.18  -0.30  -0.02    -0.11   0.19  -0.04    -0.22   0.29  -0.11
                      7                      8                      9
                      A                      A                      A
 Frequencies --    118.0368               124.9103               186.3756
 Red. masses --      4.0361                 2.6601                14.4047
 Frc consts  --      0.0331                 0.0245                 0.2948
 IR Inten    --      6.3912                 1.9400                 7.4314
  Atom  AN      X      Y      Z        X      Y      Z        X      Y      Z
     1   6     0.02  -0.02   0.01     0.02  -0.03   0.01    -0.03   0.04   0.00
     2   6    -0.14   0.17  -0.06     0.03  -0.03   0.01    -0.03   0.02  -0.02
     3   6     0.10  -0.15   0.08    -0.17   0.22  -0.02    -0.02   0.03   0.00
     4   6    -0.13   0.15  -0.06     0.04  -0.05   0.01    -0.05   0.05  -0.02
     5   6     0.16  -0.16   0.05     0.09  -0.10   0.04     0.02  -0.02   0.01
     6   6     0.13  -0.14   0.06     0.10  -0.11   0.03     0.02  -0.02   0.01
     7   1     0.10  -0.14   0.11    -0.15   0.19  -0.03    -0.03   0.04  -0.00
     8   1     0.08  -0.16   0.07    -0.42   0.53  -0.05    -0.05   0.07  -0.00
     9   1    -0.14   0.17  -0.06    -0.00  -0.01   0.00    -0.08   0.10  -0.02
    10   1    -0.18   0.22  -0.08     0.04  -0.04   0.01     0.09  -0.14   0.02
    11   1    -0.16   0.19  -0.07     0.07  -0.08   0.02     0.05  -0.09   0.02
    12   8    -0.03   0.02  -0.02    -0.02   0.02  -0.01    -0.39   0.51  -0.16
    13   6    -0.07   0.08  -0.03    -0.02   0.02  -0.01    -0.04   0.06  -0.03
    14   6    -0.06   0.06  -0.03     0.01  -0.02  -0.00    -0.07   0.08  -0.03
    15   8    -0.05   0.05  -0.02    -0.07   0.08  -0.03     0.32  -0.37   0.10
    16   8    -0.03   0.03  -0.02     0.02  -0.03  -0.01     0.24  -0.35   0.10
    17   6     0.09  -0.09   0.04    -0.01   0.00   0.00    -0.03   0.04   0.01
    18   1     0.15  -0.24  -0.09     0.04   0.00  -0.04    -0.01   0.02  -0.02
    19   1     0.18  -0.12   0.23    -0.02  -0.02   0.06    -0.04   0.02   0.05
    20   1    -0.01   0.03   0.02    -0.05   0.05  -0.01    -0.06   0.08   0.00
    21   1     0.31  -0.32   0.10     0.15  -0.17   0.06     0.06  -0.07   0.03
    22   1     0.16  -0.14   0.07     0.33  -0.39   0.07     0.04  -0.05   0.01
                     10                     11                     12
                      A                      A                      A
 Frequencies --    220.7149               264.9767               288.7580
 Red. masses --      2.8036                 2.1813                 4.0306
 Frc consts  --      0.0805                 0.0902                 0.1980
 IR Inten    --      0.0378                10.1934                 0.1727
  Atom  AN      X      Y      Z        X      Y      Z        X      Y      Z
     1   6    -0.08  -0.03   0.14    -0.14   0.14  -0.03     0.01  -0.00   0.00
     2   6    -0.01   0.01  -0.00     0.02  -0.03   0.01     0.19  -0.24   0.08
     3   6     0.18   0.12  -0.13     0.02  -0.01   0.01     0.01  -0.01   0.00
     4   6    -0.01   0.00  -0.00    -0.00   0.00  -0.00    -0.18   0.24  -0.08
     5   6    -0.01  -0.01   0.20    -0.12   0.14  -0.02     0.02  -0.02   0.01
     6   6    -0.02   0.00   0.03     0.06  -0.06   0.01    -0.01   0.02   0.00
     7   1     0.17   0.10  -0.36     0.25  -0.27   0.04    -0.03   0.04  -0.00
     8   1     0.36   0.23  -0.04    -0.23   0.28  -0.03     0.05  -0.05   0.01
     9   1    -0.24  -0.07   0.18    -0.19   0.16  -0.03    -0.01   0.01  -0.00
    10   1    -0.02   0.01  -0.01     0.04  -0.04   0.02     0.36  -0.45   0.15
    11   1    -0.01   0.00  -0.00    -0.01   0.02  -0.01    -0.34   0.47  -0.15
    12   8    -0.00  -0.00  -0.00     0.00  -0.00   0.00    -0.00  -0.01   0.00
    13   6    -0.00  -0.00  -0.00     0.01  -0.01   0.01     0.07  -0.10   0.03
    14   6    -0.01   0.00   0.00    -0.00  -0.00  -0.00    -0.07   0.09  -0.03
    15   8     0.00  -0.01  -0.00     0.00   0.00  -0.00    -0.08   0.10  -0.04
    16   8    -0.01   0.00   0.00     0.00  -0.01  -0.00     0.06  -0.10   0.03
    17   6    -0.04  -0.07  -0.16     0.10  -0.10   0.01    -0.00   0.01  -0.01
    18   1     0.08  -0.01  -0.26    -0.02  -0.33   0.05     0.01   0.03  -0.02
    19   1     0.07  -0.00  -0.22     0.34   0.01   0.01    -0.02   0.01  -0.00
    20   1    -0.21  -0.23  -0.27     0.19  -0.23   0.04    -0.02   0.03  -0.01
    21   1     0.01  -0.07   0.22    -0.08   0.10  -0.00     0.04  -0.04   0.01
    22   1    -0.17  -0.08  -0.06     0.32  -0.35   0.06    -0.06   0.07  -0.01
                     13                     14                     15
                      A                      A                      A
 Frequencies --    387.4157               417.5881               582.2554
 Red. masses --      2.9002                12.7223                 4.5114
 Frc consts  --      0.2565                 1.3071                 0.9011
 IR Inten    --      1.3588                13.3167                 1.5420
  Atom  AN      X      Y      Z        X      Y      Z        X      Y      Z
     1   6     0.08   0.12   0.19    -0.00   0.01   0.01    -0.00  -0.00   0.00
     2   6    -0.00  -0.00   0.00     0.07  -0.03  -0.22     0.09   0.13   0.16
     3   6    -0.16  -0.13  -0.03    -0.01  -0.00   0.00    -0.00  -0.00  -0.00
     4   6     0.00  -0.00   0.00     0.03  -0.05  -0.23     0.16   0.07  -0.15
     5   6    -0.02  -0.01   0.09     0.00  -0.00   0.01     0.00   0.01   0.01
     6   6    -0.04  -0.05  -0.11     0.00  -0.01  -0.00     0.01   0.01  -0.01
     7   1    -0.18  -0.09   0.18    -0.00  -0.01   0.01     0.01  -0.02   0.03
     8   1    -0.29  -0.27  -0.11    -0.01  -0.01  -0.00    -0.02  -0.01  -0.01
     9   1     0.02   0.11   0.20    -0.01   0.00   0.01    -0.02   0.00   0.00
    10   1     0.00  -0.00   0.00     0.05  -0.10  -0.28     0.25   0.36   0.40
    11   1     0.00  -0.01   0.00     0.11  -0.05  -0.27     0.43   0.21  -0.37
    12   8    -0.00  -0.00   0.00     0.05  -0.04  -0.34    -0.11  -0.08  -0.01
    13   6     0.00  -0.00   0.00     0.01  -0.02  -0.13    -0.12  -0.06   0.11
    14   6    -0.00  -0.00   0.00     0.03  -0.01  -0.13    -0.07  -0.10  -0.12
    15   8     0.00  -0.00  -0.00    -0.28  -0.08   0.44     0.06  -0.03  -0.21
    16   8    -0.00  -0.00  -0.01     0.12   0.22   0.46    -0.03   0.05   0.21
    17   6     0.16   0.10  -0.11     0.01  -0.00  -0.01    -0.01  -0.00   0.00
    18   1     0.30   0.21  -0.23     0.01  -0.01  -0.01    -0.00  -0.00   0.00
    19   1     0.28   0.20  -0.22     0.03   0.01  -0.01    -0.02  -0.01   0.00
    20   1    -0.05  -0.12  -0.25     0.01  -0.02  -0.01    -0.01   0.00   0.00
    21   1    -0.18  -0.15   0.18    -0.01  -0.01   0.01     0.01  -0.00   0.01
    22   1    -0.04  -0.06  -0.11     0.01  -0.01  -0.00     0.01  -0.00  -0.01
                     16                     17                     18
                      A                      A                      A
 Frequencies --    602.3710               643.7366               651.1093
 Red. masses --      2.4873                 1.4578                 7.3091
 Frc consts  --      0.5317                 0.3559                 1.8257
 IR Inten    --      3.7560                 4.8297                 0.1969
  Atom  AN      X      Y      Z        X      Y      Z        X      Y      Z
     1   6     0.03   0.06  -0.03    -0.06   0.05  -0.01    -0.01   0.01  -0.00
     2   6    -0.00   0.01   0.00     0.00   0.00   0.00    -0.01  -0.02  -0.03
     3   6     0.02   0.03   0.03    -0.01   0.02  -0.01    -0.00   0.00  -0.00
     4   6     0.00  -0.00  -0.00    -0.00   0.00   0.00     0.03   0.01  -0.02
     5   6    -0.08  -0.10  -0.12    -0.00   0.02   0.01    -0.00   0.01   0.00
     6   6    -0.14  -0.14   0.18     0.14  -0.11  -0.00     0.02  -0.03   0.00
     7   1    -0.08   0.08  -0.49    -0.46   0.55   0.01    -0.11   0.13  -0.01
     8   1     0.43   0.29   0.24     0.19  -0.33   0.00     0.04  -0.06   0.00
     9   1     0.23   0.09  -0.09     0.13  -0.18   0.08     0.02  -0.03   0.01
    10   1     0.01   0.01   0.01     0.01  -0.03   0.00    -0.08   0.47   0.11
    11   1     0.02  -0.00  -0.01     0.02  -0.01  -0.00    -0.44   0.19   0.08
    12   8    -0.00  -0.00  -0.00     0.00  -0.01  -0.00    -0.10   0.10   0.17
    13   6    -0.00   0.00   0.00     0.00   0.02  -0.00    -0.16  -0.27   0.02
    14   6    -0.00  -0.00  -0.01    -0.02   0.00  -0.00     0.30   0.09   0.06
    15   8     0.00  -0.00  -0.01     0.01   0.01   0.00    -0.24  -0.20  -0.12
    16   8    -0.00   0.00   0.01    -0.01  -0.01   0.00     0.25   0.19  -0.08
    17   6     0.12   0.10  -0.03    -0.02  -0.02   0.00     0.00  -0.00  -0.00
    18   1     0.14   0.08  -0.06    -0.09  -0.15   0.03    -0.01  -0.04   0.00
    19   1     0.20   0.15  -0.07     0.11   0.04   0.01     0.02   0.00   0.00
    20   1     0.09   0.01  -0.06     0.06  -0.09   0.03     0.01  -0.02   0.00
    21   1    -0.11   0.00  -0.15    -0.24   0.25  -0.05    -0.05   0.05  -0.01
    22   1    -0.16  -0.02   0.20    -0.14   0.19  -0.06    -0.04   0.04  -0.01
                     19                     20                     21
                      A                      A                      A
 Frequencies --    661.8663               716.3133               773.7876
 Red. masses --      2.4421                 8.6937                 7.9416
 Frc consts  --      0.6303                 2.6282                 2.8016
 IR Inten    --     10.4909                33.2971                 0.1716
  Atom  AN      X      Y      Z        X      Y      Z        X      Y      Z
     1   6    -0.00  -0.00   0.00    -0.00   0.00  -0.00     0.01  -0.01   0.00
     2   6    -0.01   0.01  -0.01     0.30   0.19  -0.22    -0.14   0.14  -0.03
     3   6    -0.00   0.00   0.00     0.00  -0.00   0.00    -0.00   0.00   0.00
     4   6    -0.00   0.02  -0.01     0.24   0.23   0.25     0.10  -0.17   0.03
     5   6     0.00  -0.00   0.00    -0.00   0.00  -0.00    -0.01   0.01  -0.00
     6   6    -0.01   0.01  -0.00    -0.00  -0.00   0.00     0.01  -0.01  -0.00
     7   1     0.02  -0.03   0.00     0.00  -0.01  -0.00    -0.01   0.01   0.01
     8   1    -0.01   0.02  -0.00     0.00   0.00   0.00     0.00  -0.01   0.00
     9   1    -0.02   0.01  -0.00    -0.00   0.00  -0.00    -0.02   0.02  -0.01
    10   1     0.43  -0.46   0.20     0.25   0.18  -0.27    -0.28   0.34  -0.08
    11   1     0.35  -0.54   0.19     0.21   0.19   0.30     0.24  -0.34   0.07
    12   8     0.07  -0.10   0.07    -0.05  -0.04  -0.01    -0.00  -0.00  -0.00
    13   6    -0.17   0.11  -0.04     0.06  -0.10  -0.30     0.31  -0.37   0.15
    14   6    -0.07   0.19  -0.04    -0.11   0.06   0.30    -0.28   0.39  -0.14
    15   8    -0.01  -0.08  -0.01    -0.16  -0.14  -0.06    -0.07   0.11  -0.03
    16   8     0.08  -0.01  -0.00    -0.18  -0.13   0.04     0.08  -0.09   0.03
    17   6    -0.00  -0.00   0.00    -0.00   0.00  -0.00    -0.00  -0.00   0.00
    18   1     0.00   0.00  -0.00    -0.00  -0.00  -0.00     0.00   0.02   0.00
    19   1    -0.00  -0.00   0.00     0.01   0.01   0.00    -0.01  -0.00  -0.00
    20   1    -0.00   0.00  -0.00     0.00  -0.00   0.00    -0.01   0.00  -0.00
    21   1     0.01  -0.01   0.00    -0.00   0.00  -0.00     0.02  -0.02   0.01
    22   1     0.01  -0.01   0.00     0.00  -0.00   0.00     0.01  -0.01  -0.00
                     22                     23                     24
                      A                      A                      A
 Frequencies --    837.5799               858.3886               908.1154
 Red. masses --      1.5988                 2.0182                 9.1011
 Frc consts  --      0.6608                 0.8762                 4.4221
 IR Inten    --      6.4503               108.9434                 7.0315
  Atom  AN      X      Y      Z        X      Y      Z        X      Y      Z
     1   6     0.07  -0.08   0.03     0.01  -0.01   0.00    -0.00  -0.00   0.00
     2   6    -0.00   0.00  -0.00     0.07  -0.09   0.04     0.10  -0.07  -0.42
     3   6     0.01  -0.00   0.01     0.00   0.00   0.00     0.00   0.00   0.00
     4   6    -0.01   0.01  -0.00     0.07  -0.10   0.04     0.08  -0.09  -0.42
     5   6    -0.12   0.13  -0.04    -0.01   0.01  -0.00    -0.00  -0.00  -0.01
     6   6     0.05  -0.06   0.01     0.01  -0.00   0.00     0.00   0.00  -0.00
     7   1    -0.22   0.26  -0.06    -0.00   0.00   0.00     0.00   0.00   0.01
     8   1     0.10  -0.07   0.02     0.00  -0.01   0.00     0.01  -0.01   0.00
     9   1    -0.43   0.45  -0.15    -0.03   0.04  -0.01     0.00   0.01  -0.00
    10   1     0.03  -0.05   0.01    -0.40   0.52  -0.14     0.12   0.08  -0.39
    11   1     0.02  -0.02   0.01    -0.39   0.52  -0.15    -0.06  -0.06  -0.42
    12   8    -0.00   0.00  -0.00     0.04  -0.04   0.00    -0.07   0.08   0.46
    13   6     0.00  -0.00  -0.00    -0.10   0.12  -0.04     0.02   0.06   0.07
    14   6     0.01  -0.01   0.01    -0.09   0.13  -0.04    -0.08  -0.02   0.06
    15   8    -0.00   0.00   0.00     0.02  -0.03   0.01     0.06   0.07   0.07
    16   8    -0.00   0.00  -0.00     0.02  -0.03   0.01    -0.10  -0.05   0.06
    17   6     0.03  -0.05   0.01     0.01  -0.00   0.00    -0.00  -0.00   0.00
    18   1     0.18   0.34   0.00     0.03   0.04  -0.00     0.01   0.01  -0.01
    19   1    -0.32  -0.17  -0.06    -0.03  -0.02  -0.01     0.01   0.01  -0.01
    20   1    -0.15   0.12  -0.04    -0.02   0.01  -0.01    -0.02  -0.02  -0.01
    21   1     0.18  -0.21   0.06     0.01  -0.02   0.00    -0.00  -0.01  -0.00
    22   1     0.05  -0.02   0.02     0.01   0.00   0.00     0.01   0.01   0.00
                     25                     26                     27
                      A                      A                      A
 Frequencies --    934.4112               950.4999               965.6320
 Red. masses --      1.7977                 1.3727                 6.1875
 Frc consts  --      0.9248                 0.7307                 3.3993
 IR Inten    --      2.8804                51.7689               137.4832
  Atom  AN      X      Y      Z        X      Y      Z        X      Y      Z
     1   6    -0.01  -0.04  -0.07    -0.00   0.01   0.01    -0.00   0.01   0.01
     2   6     0.00  -0.00  -0.00     0.00  -0.00  -0.01    -0.04   0.00   0.13
     3   6    -0.04  -0.07  -0.04     0.11  -0.12   0.02     0.02  -0.02   0.01
     4   6     0.00  -0.00  -0.00     0.00  -0.00   0.00     0.00  -0.02  -0.12
     5   6     0.07   0.10   0.13     0.00  -0.01  -0.01     0.01  -0.01  -0.00
     6   6    -0.06  -0.06   0.03    -0.03   0.05  -0.01    -0.01   0.01  -0.00
     7   1    -0.13   0.00  -0.24    -0.39   0.46  -0.05    -0.08   0.09  -0.03
     8   1    -0.04   0.07  -0.02    -0.49   0.58  -0.07    -0.08   0.11  -0.00
     9   1    -0.26  -0.19   0.04     0.05  -0.01   0.01    -0.01   0.04  -0.01
    10   1    -0.00   0.01  -0.00    -0.01  -0.01  -0.02     0.13   0.31   0.42
    11   1    -0.00   0.01  -0.01    -0.01  -0.00   0.01     0.39   0.08  -0.38
    12   8     0.00   0.00   0.00    -0.02  -0.01  -0.00     0.39   0.30   0.02
    13   6    -0.00   0.00  -0.00     0.00   0.01   0.00    -0.08  -0.09  -0.05
    14   6    -0.00   0.00  -0.00     0.00   0.00  -0.00    -0.10  -0.06   0.03
    15   8     0.00   0.00   0.00     0.01   0.00  -0.00    -0.13  -0.10   0.01
    16   8    -0.00  -0.00   0.00     0.00   0.00   0.00    -0.12  -0.10  -0.03
    17   6     0.08   0.05  -0.08    -0.01  -0.00   0.01     0.00  -0.01   0.01
    18   1    -0.20  -0.08   0.19     0.01  -0.01  -0.02     0.03   0.01  -0.01
    19   1    -0.16  -0.16   0.20     0.04   0.03  -0.02    -0.03  -0.01  -0.02
    20   1     0.44   0.50   0.18    -0.04  -0.06  -0.01    -0.04  -0.03  -0.02
    21   1     0.12   0.17   0.10     0.03  -0.04  -0.00    -0.06   0.06  -0.03
    22   1    -0.15  -0.15  -0.03    -0.01   0.04  -0.00     0.02   0.00   0.01
                     28                     29                     30
                      A                      A                      A
 Frequencies --    993.4947              1011.6727              1017.2070
 Red. masses --      1.3001                 1.1248                 1.8077
 Frc consts  --      0.7561                 0.6783                 1.1020
 IR Inten    --      1.0195                58.2797                 4.6668
  Atom  AN      X      Y      Z        X      Y      Z        X      Y      Z
     1   6    -0.00  -0.00   0.00    -0.00  -0.01  -0.00    -0.08  -0.07  -0.03
     2   6    -0.07   0.09  -0.02     0.00  -0.00  -0.00     0.00   0.00   0.00
     3   6     0.00  -0.00  -0.00     0.01   0.01  -0.00     0.11   0.09  -0.01
     4   6     0.07  -0.09   0.02     0.00   0.00   0.00    -0.00   0.00  -0.00
     5   6    -0.00  -0.00  -0.00     0.06  -0.07   0.02    -0.12  -0.09  -0.01
     6   6    -0.00   0.00   0.00    -0.01   0.00   0.00    -0.00  -0.00   0.04
     7   1     0.00   0.00   0.01     0.05  -0.04   0.06     0.12   0.17   0.64
     8   1    -0.01  -0.00  -0.00    -0.10   0.06  -0.03    -0.32  -0.25  -0.24
     9   1    -0.01   0.00  -0.00    -0.34   0.37  -0.13    -0.05  -0.15  -0.01
    10   1     0.41  -0.53   0.17    -0.01  -0.01  -0.02     0.01   0.02   0.02
    11   1    -0.37   0.56  -0.19     0.00  -0.01   0.01     0.00  -0.02   0.01
    12   8     0.00   0.00   0.00    -0.01  -0.00   0.00     0.00   0.00  -0.00
    13   6     0.00  -0.00  -0.01     0.00  -0.00   0.00     0.00  -0.00  -0.00
    14   6    -0.00   0.01   0.00     0.00   0.00  -0.00     0.00  -0.00   0.00
    15   8    -0.01  -0.00  -0.00     0.00   0.00  -0.00    -0.00  -0.00   0.00
    16   8     0.00  -0.00  -0.00     0.00   0.00   0.00    -0.00  -0.00  -0.00
    17   6    -0.00   0.00  -0.00     0.03  -0.02   0.01     0.10   0.08  -0.02
    18   1    -0.00  -0.01  -0.00     0.08   0.13   0.01     0.06   0.12   0.05
    19   1     0.01   0.01   0.00    -0.09  -0.05  -0.04     0.03   0.03   0.04
    20   1     0.01  -0.00   0.00    -0.06   0.04  -0.02     0.19   0.23   0.05
    21   1    -0.00   0.00  -0.00    -0.53   0.58  -0.19    -0.06  -0.17   0.02
    22   1     0.00  -0.00   0.00    -0.06   0.01  -0.02    -0.22  -0.14  -0.10
                     31                     32                     33
                      A                      A                      A
 Frequencies --   1044.2389              1055.0928              1064.1855
 Red. masses --      1.1512                 1.5182                 1.1184
 Frc consts  --      0.7396                 0.9958                 0.7463
 IR Inten    --     14.2005                 1.9940                19.1620
  Atom  AN      X      Y      Z        X      Y      Z        X      Y      Z
     1   6     0.01  -0.00   0.01    -0.10   0.11  -0.04    -0.00   0.00  -0.00
     2   6    -0.00   0.00   0.00     0.00   0.01  -0.01    -0.03  -0.02   0.03
     3   6    -0.02   0.01   0.00    -0.01  -0.01  -0.00     0.00   0.00   0.00
     4   6     0.00  -0.00   0.00     0.00   0.00   0.01     0.02   0.03   0.04
     5   6    -0.02   0.02  -0.01     0.03  -0.02   0.01    -0.00  -0.00  -0.00
     6   6     0.08  -0.08   0.01     0.00   0.00  -0.00    -0.00   0.00   0.00
     7   1     0.22  -0.26  -0.00     0.02  -0.05  -0.05     0.00   0.00   0.01
     8   1    -0.23   0.32  -0.02    -0.01   0.06   0.01     0.00  -0.01  -0.00
     9   1    -0.04   0.03  -0.00     0.29  -0.32   0.11     0.01  -0.01   0.00
    10   1    -0.00  -0.00  -0.00     0.01  -0.02  -0.01    -0.39  -0.41  -0.43
    11   1     0.01   0.00  -0.00    -0.03  -0.00   0.03     0.54   0.28  -0.36
    12   8     0.00   0.00   0.00     0.00   0.00   0.00    -0.01   0.01   0.04
    13   6    -0.00  -0.00   0.00    -0.00  -0.00   0.01     0.00  -0.00  -0.02
    14   6    -0.00  -0.00  -0.00    -0.00  -0.00  -0.01     0.00  -0.00  -0.02
    15   8    -0.00  -0.00  -0.00     0.00   0.00  -0.00    -0.02  -0.02  -0.01
    16   8    -0.00  -0.00  -0.00     0.00   0.00   0.00     0.02   0.01  -0.01
    17   6    -0.01   0.00  -0.01     0.09  -0.10   0.04     0.00  -0.00  -0.00
    18   1    -0.03  -0.03   0.01     0.28   0.52   0.08     0.00   0.00   0.00
    19   1     0.01  -0.00   0.02    -0.44  -0.26  -0.15    -0.01  -0.00  -0.00
    20   1     0.02   0.01   0.01    -0.24   0.20  -0.07     0.00   0.01   0.00
    21   1     0.04  -0.09   0.03     0.04  -0.01   0.01     0.01  -0.01   0.00
    22   1    -0.53   0.64  -0.09    -0.04   0.07  -0.00    -0.00  -0.01  -0.00
                     34                     35                     36
                      A                      A                      A
 Frequencies --   1079.3314              1092.6967              1140.5205
 Red. masses --      1.5177                 3.1473                 2.0483
 Frc consts  --      1.0417                 2.2140                 1.5698
 IR Inten    --      3.9147               107.7749                 2.7275
  Atom  AN      X      Y      Z        X      Y      Z        X      Y      Z
     1   6    -0.02  -0.04  -0.08    -0.01   0.01  -0.00     0.13   0.15   0.06
     2   6    -0.00  -0.00   0.00    -0.09  -0.04   0.12    -0.00  -0.00   0.00
     3   6    -0.01  -0.01  -0.06    -0.00  -0.00   0.01     0.04   0.03  -0.04
     4   6    -0.00  -0.00  -0.01    -0.05  -0.07  -0.14     0.00  -0.00  -0.00
     5   6     0.06   0.09   0.05     0.00  -0.01  -0.00     0.02   0.02  -0.03
     6   6    -0.05  -0.06   0.06     0.01   0.01  -0.01    -0.08  -0.06   0.08
     7   1     0.01  -0.01   0.09     0.01  -0.02  -0.02     0.05   0.06   0.31
     8   1    -0.18  -0.15  -0.16     0.01   0.03   0.02    -0.20  -0.16  -0.17
     9   1     0.12   0.04  -0.14     0.01  -0.03   0.02     0.39   0.32  -0.05
    10   1     0.00   0.01   0.02     0.16   0.32   0.50     0.01   0.00   0.01
    11   1     0.02   0.01  -0.02     0.42   0.11  -0.48     0.00   0.00  -0.01
    12   8    -0.00  -0.00  -0.00    -0.10  -0.08  -0.01    -0.00  -0.00  -0.00
    13   6     0.00   0.00  -0.01     0.14   0.05  -0.19    -0.00   0.00  -0.00
    14   6     0.00   0.00   0.01     0.06   0.11   0.22     0.00   0.00   0.00
    15   8    -0.00  -0.00   0.00     0.00   0.01   0.03     0.00   0.00   0.00
    16   8    -0.00  -0.00  -0.00     0.01  -0.00  -0.03    -0.00  -0.00  -0.00
    17   6    -0.02   0.02   0.10     0.01  -0.01  -0.00    -0.08  -0.11  -0.09
    18   1     0.25   0.09  -0.16     0.01   0.05   0.02    -0.30  -0.18   0.12
    19   1     0.20   0.22  -0.18    -0.03  -0.03  -0.00    -0.27  -0.28   0.12
    20   1    -0.25  -0.30  -0.08    -0.00   0.04   0.00     0.03   0.07   0.01
    21   1     0.45   0.31  -0.12    -0.04  -0.01   0.01     0.09   0.04  -0.04
    22   1    -0.31  -0.20  -0.09     0.02   0.03   0.01    -0.28  -0.24  -0.05
                     37                     38                     39
                      A                      A                      A
 Frequencies --   1304.3618              1316.0615              1320.3783
 Red. masses --      1.3240                 6.8476                 1.3144
 Frc consts  --      1.3272                 6.9879                 1.3501
 IR Inten    --      4.2000               176.5548                 8.2389
  Atom  AN      X      Y      Z        X      Y      Z        X      Y      Z
     1   6    -0.04  -0.05  -0.05     0.02   0.01  -0.02    -0.06  -0.04   0.07
     2   6    -0.00   0.00   0.00     0.01  -0.03  -0.11     0.00  -0.00  -0.01
     3   6    -0.02  -0.01   0.06    -0.00   0.01   0.05    -0.01  -0.01  -0.06
     4   6    -0.00   0.00   0.00     0.05  -0.01  -0.13     0.00  -0.00  -0.01
     5   6    -0.03   0.00   0.09     0.02   0.01  -0.01    -0.06  -0.04   0.03
     6   6     0.04   0.03  -0.07     0.00  -0.00  -0.03     0.02   0.01   0.01
     7   1    -0.02  -0.00   0.03     0.01   0.01   0.05    -0.01  -0.02  -0.06
     8   1     0.19   0.18   0.19     0.11   0.09   0.11    -0.09  -0.09  -0.12
     9   1     0.56   0.41  -0.37    -0.10  -0.09   0.04     0.32   0.26  -0.13
    10   1     0.00  -0.00   0.01    -0.13  -0.19  -0.32    -0.02  -0.02  -0.03
    11   1    -0.01  -0.00   0.01     0.16   0.06  -0.24     0.01   0.00  -0.02
    12   8    -0.00   0.00   0.01     0.05  -0.04  -0.26     0.00  -0.00  -0.02
    13   6     0.01   0.00  -0.01    -0.21  -0.04   0.38    -0.02  -0.00   0.03
    14   6    -0.00  -0.00  -0.01     0.06   0.16   0.40     0.01   0.01   0.04
    15   8    -0.00  -0.00   0.00     0.05   0.02  -0.05     0.00   0.00  -0.00
    16   8     0.00   0.00   0.00    -0.04  -0.04  -0.05    -0.00  -0.00  -0.00
    17   6    -0.00  -0.01  -0.02     0.00   0.00   0.02     0.01  -0.01  -0.05
    18   1     0.02   0.08  -0.00     0.01  -0.06  -0.03    -0.04   0.11   0.06
    19   1     0.08   0.02   0.01    -0.04   0.01  -0.05     0.09  -0.02   0.10
    20   1     0.08   0.09   0.03    -0.05  -0.04  -0.01     0.13   0.15   0.04
    21   1    -0.12  -0.07   0.14    -0.15  -0.10   0.07     0.41   0.32  -0.22
    22   1    -0.22  -0.23  -0.26    -0.24  -0.23  -0.20     0.38   0.37   0.27
                     40                     41                     42
                      A                      A                      A
 Frequencies --   1337.6370              1356.8153              1398.0101
 Red. masses --      1.9908                 1.3151                 1.2674
 Frc consts  --      2.0987                 1.4264                 1.4594
 IR Inten    --      1.4241                 1.7160                 6.6749
  Atom  AN      X      Y      Z        X      Y      Z        X      Y      Z
     1   6     0.00   0.00  -0.00    -0.02   0.01   0.09     0.02   0.02   0.01
     2   6     0.02   0.07   0.19    -0.00   0.00   0.00    -0.00  -0.00  -0.00
     3   6     0.00  -0.00  -0.00    -0.01  -0.00   0.07     0.00   0.00   0.01
     4   6     0.09   0.01  -0.17    -0.00   0.00   0.00     0.00   0.00   0.00
     5   6     0.00   0.00  -0.00    -0.03  -0.04  -0.06     0.02   0.01  -0.03
     6   6    -0.00  -0.00   0.00     0.03   0.01  -0.07    -0.01  -0.01   0.01
     7   1     0.00  -0.00   0.00    -0.01   0.01   0.10     0.01   0.00  -0.01
     8   1    -0.00   0.00  -0.00     0.21   0.20   0.20    -0.01  -0.02  -0.00
     9   1    -0.01  -0.01   0.01    -0.18  -0.11   0.19    -0.12  -0.09   0.09
    10   1    -0.40  -0.41  -0.35     0.00   0.01   0.01    -0.00   0.00   0.00
    11   1    -0.52  -0.31   0.30    -0.01  -0.00   0.01     0.00   0.00  -0.00
    12   8    -0.00  -0.00   0.01    -0.00   0.00   0.01     0.00   0.00  -0.00
    13   6     0.04   0.01  -0.06     0.01   0.00  -0.01    -0.00   0.00   0.00
    14   6     0.01   0.02   0.05    -0.00  -0.00  -0.01     0.00  -0.00  -0.00
    15   8    -0.03  -0.02  -0.01    -0.00  -0.00   0.00    -0.00  -0.00  -0.00
    16   8    -0.03  -0.02   0.01     0.00   0.00   0.00    -0.00  -0.00   0.00
    17   6    -0.00  -0.00   0.00     0.02   0.01  -0.02    -0.10  -0.10  -0.02
    18   1    -0.00   0.00   0.00    -0.07   0.00   0.07     0.16   0.58  -0.01
    19   1     0.01   0.00  -0.01    -0.02  -0.04   0.08     0.59   0.16   0.14
    20   1    -0.01   0.01   0.00     0.01   0.02  -0.02     0.25   0.27   0.21
    21   1    -0.00  -0.01   0.00     0.50   0.35  -0.35    -0.05  -0.05   0.01
    22   1    -0.00  -0.00   0.00    -0.27  -0.28  -0.29    -0.05  -0.05  -0.02
                     43                     44                     45
                      A                      A                      A
 Frequencies --   1441.8005              1464.8071              1470.1302
 Red. masses --      1.2183                 1.0488                 1.0615
 Frc consts  --      1.4921                 1.3259                 1.3517
 IR Inten    --      5.4305                10.5299                11.6049
  Atom  AN      X      Y      Z        X      Y      Z        X      Y      Z
     1   6     0.01   0.00  -0.01    -0.01   0.02   0.01    -0.01  -0.00  -0.03
     2   6    -0.00  -0.00  -0.00     0.00   0.00   0.00     0.00   0.00   0.00
     3   6    -0.00  -0.01  -0.05     0.00   0.00   0.01    -0.00  -0.00  -0.01
     4   6     0.00   0.00   0.00     0.00  -0.00  -0.00     0.00   0.00  -0.00
     5   6     0.03   0.03   0.02    -0.01  -0.01  -0.00     0.01   0.01   0.01
     6   6    -0.07  -0.07  -0.05     0.01   0.01   0.00    -0.01  -0.01  -0.00
     7   1     0.00   0.09   0.69     0.00  -0.01  -0.08    -0.00   0.01   0.10
     8   1     0.40   0.37   0.19    -0.04  -0.04  -0.02     0.05   0.05   0.02
     9   1    -0.03  -0.02   0.00     0.02   0.01   0.02    -0.01  -0.02  -0.02
    10   1     0.00   0.00   0.00    -0.00  -0.00  -0.00    -0.00  -0.00  -0.01
    11   1     0.00   0.00   0.00    -0.00  -0.00   0.00    -0.00  -0.00  -0.00
    12   8     0.00   0.00   0.00    -0.00  -0.00   0.00     0.00  -0.00  -0.00
    13   6     0.00   0.00  -0.00     0.00  -0.00  -0.00    -0.00  -0.00   0.00
    14   6    -0.00  -0.00  -0.00    -0.00   0.00   0.00     0.00   0.00   0.00
    15   8    -0.00  -0.00   0.00     0.00   0.00   0.00     0.00   0.00  -0.00
    16   8    -0.00   0.00   0.00     0.00   0.00  -0.00    -0.00  -0.00  -0.00
    17   6    -0.01  -0.01   0.02    -0.05   0.02   0.01     0.01   0.04  -0.04
    18   1     0.08  -0.05  -0.11     0.40  -0.04  -0.50    -0.04   0.34   0.17
    19   1    -0.03   0.03  -0.11    -0.33  -0.13   0.02    -0.00  -0.23   0.65
    20   1     0.07   0.05   0.06     0.57  -0.24   0.25    -0.00  -0.58  -0.14
    21   1     0.01   0.02   0.03     0.03   0.03  -0.03    -0.04  -0.02   0.04
    22   1     0.21   0.21   0.15    -0.02  -0.02  -0.02     0.02   0.03   0.03
                     46                     47                     48
                      A                      A                      A
 Frequencies --   1694.3823              1712.1464              1739.1785
 Red. masses --      6.5876                 5.1433                 5.3233
 Frc consts  --     11.1430                 8.8833                 9.4868
 IR Inten    --     12.4449                16.9337                20.2934
  Atom  AN      X      Y      Z        X      Y      Z        X      Y      Z
     1   6    -0.05  -0.03   0.04     0.09   0.06  -0.07     0.27   0.17  -0.26
     2   6    -0.36  -0.30  -0.07    -0.10  -0.08  -0.02    -0.02  -0.02  -0.00
     3   6     0.05   0.05   0.08    -0.15  -0.16  -0.27     0.05   0.06   0.12
     4   6     0.39   0.28  -0.02     0.10   0.08  -0.01     0.02   0.02  -0.00
     5   6     0.06   0.04  -0.03    -0.13  -0.10   0.04    -0.26  -0.16   0.28
     6   6    -0.07  -0.07  -0.08     0.22   0.23   0.27    -0.03  -0.05  -0.15
     7   1     0.06   0.03  -0.11    -0.19  -0.11   0.34     0.07   0.05  -0.17
     8   1    -0.12  -0.11   0.00     0.38   0.32  -0.02    -0.12  -0.11   0.05
     9   1     0.08   0.05  -0.01    -0.16  -0.11   0.04    -0.29  -0.27  -0.02
    10   1    -0.11   0.07   0.44    -0.03   0.01   0.12    -0.01  -0.00   0.02
    11   1    -0.08   0.09   0.45    -0.01   0.02   0.12    -0.00   0.01   0.02
    12   8     0.00  -0.00  -0.01     0.00  -0.00  -0.00     0.00  -0.00  -0.00
    13   6     0.00  -0.01  -0.02    -0.01  -0.01  -0.01    -0.01  -0.00  -0.00
    14   6     0.01  -0.00  -0.02     0.00   0.00  -0.00     0.01   0.00  -0.00
    15   8     0.02   0.03   0.03     0.01   0.01   0.01     0.00   0.00   0.00
    16   8    -0.04  -0.02   0.03    -0.01  -0.01   0.01    -0.00  -0.00   0.00
    17   6     0.01   0.01  -0.00    -0.01  -0.01   0.01    -0.04  -0.04   0.02
    18   1    -0.00  -0.01   0.00     0.01   0.01  -0.01     0.00   0.04   0.00
    19   1    -0.02  -0.01   0.00     0.02   0.01  -0.01     0.06   0.02   0.01
    20   1     0.02   0.01  -0.00    -0.02  -0.02   0.00    -0.12  -0.11  -0.02
    21   1    -0.02  -0.02   0.01    -0.02  -0.01  -0.02     0.36   0.34  -0.01
    22   1     0.08   0.08   0.01    -0.27  -0.26  -0.03     0.24   0.20   0.01
                     49                     50                     51
                      A                      A                      A
 Frequencies --   1911.4512              1984.5429              3049.6277
 Red. masses --     12.8375                12.6707                 1.0386
 Frc consts  --     27.6348                29.4015                 5.6909
 IR Inten    --    851.4030               117.0340                20.2594
  Atom  AN      X      Y      Z        X      Y      Z        X      Y      Z
     1   6     0.00   0.00  -0.00    -0.01  -0.01   0.01     0.00   0.00  -0.00
     2   6    -0.03  -0.04  -0.04     0.03   0.04   0.03    -0.00  -0.00  -0.00
     3   6    -0.01  -0.00  -0.01     0.00   0.00   0.00    -0.00  -0.00   0.00
     4   6    -0.04  -0.02   0.03    -0.05  -0.03   0.03     0.00   0.00  -0.00
     5   6    -0.00  -0.00   0.00     0.01   0.00  -0.01     0.00   0.00  -0.00
     6   6     0.00   0.01   0.01    -0.00  -0.00  -0.00    -0.00  -0.00   0.00
     7   1     0.00  -0.01   0.00     0.01  -0.00  -0.00     0.00   0.00  -0.00
     8   1     0.01  -0.00  -0.00    -0.01   0.00  -0.00    -0.00  -0.00   0.00
     9   1    -0.00   0.00   0.00     0.00   0.01  -0.00     0.00   0.01   0.01
    10   1     0.07   0.08   0.07    -0.06  -0.08  -0.07     0.00   0.00  -0.00
    11   1     0.08   0.05  -0.05     0.11   0.05  -0.07    -0.00  -0.00   0.00
    12   8     0.00   0.00  -0.00    -0.01   0.01   0.03    -0.00  -0.00  -0.00
    13   6     0.36   0.40   0.31    -0.34  -0.35  -0.23     0.00   0.00   0.00
    14   6     0.42   0.23  -0.23     0.51   0.30  -0.22     0.00  -0.00   0.00
    15   8    -0.25  -0.27  -0.17     0.21   0.22   0.14    -0.00  -0.00  -0.00
    16   8    -0.29  -0.17   0.12    -0.32  -0.19   0.13    -0.00   0.00  -0.00
    17   6     0.00   0.00   0.00     0.00  -0.00  -0.00    -0.03  -0.04  -0.02
    18   1     0.00  -0.01  -0.01     0.00   0.01   0.00     0.44  -0.18   0.40
    19   1    -0.05  -0.03  -0.01     0.02   0.02   0.00    -0.25   0.54   0.20
    20   1     0.00  -0.01   0.00     0.00   0.01   0.00     0.19   0.07  -0.41
    21   1    -0.00   0.01  -0.00    -0.01  -0.01  -0.00    -0.00  -0.00  -0.00
    22   1     0.00  -0.01  -0.00     0.00   0.00   0.00     0.00  -0.00  -0.00
                     52                     53                     54
                      A                      A                      A
 Frequencies --   3134.9987              3160.3369              3163.8356
 Red. masses --      1.1026                 1.0960                 1.0625
 Frc consts  --      6.3848                 6.4496                 6.2664
 IR Inten    --      5.1545                10.0039                 3.5680
  Atom  AN      X      Y      Z        X      Y      Z        X      Y      Z
     1   6    -0.00  -0.00   0.00    -0.00  -0.02  -0.05    -0.00  -0.00  -0.01
     2   6    -0.00  -0.00  -0.00    -0.00  -0.00   0.00    -0.00   0.00   0.00
     3   6    -0.00  -0.00  -0.00     0.00   0.01   0.02    -0.02  -0.02  -0.06
     4   6     0.00   0.00  -0.00    -0.00  -0.00  -0.00     0.00   0.00   0.00
     5   6    -0.00   0.00  -0.00    -0.00   0.00   0.01     0.00   0.00   0.01
     6   6    -0.00   0.00  -0.00    -0.00  -0.00  -0.00     0.01   0.01  -0.01
     7   1     0.00   0.00  -0.00    -0.11  -0.09   0.01     0.45   0.39  -0.06
     8   1    -0.00  -0.00   0.00     0.07   0.04  -0.18    -0.26  -0.14   0.66
     9   1     0.00  -0.01  -0.00     0.09   0.29   0.58     0.01   0.05   0.09
    10   1    -0.00  -0.00   0.00     0.00   0.00  -0.00    -0.00  -0.00   0.00
    11   1     0.00   0.00   0.00     0.00   0.00   0.00    -0.00  -0.00  -0.00
    12   8     0.00  -0.00  -0.00     0.00   0.00   0.00    -0.00  -0.00   0.00
    13   6     0.00   0.00   0.00    -0.00  -0.00  -0.00     0.00  -0.00  -0.00
    14   6    -0.00  -0.00   0.00     0.00   0.00  -0.00    -0.00   0.00  -0.00
    15   8    -0.00  -0.00  -0.00     0.00   0.00   0.00    -0.00   0.00   0.00
    16   8     0.00   0.00  -0.00    -0.00  -0.00   0.00     0.00  -0.00   0.00
    17   6     0.06  -0.07   0.02    -0.02   0.01   0.06    -0.01   0.00   0.02
    18   1    -0.51   0.19  -0.47    -0.16   0.06  -0.13    -0.04   0.02  -0.04
    19   1    -0.26   0.59   0.23     0.10  -0.22  -0.07     0.03  -0.07  -0.02
    20   1     0.02  -0.00  -0.03     0.27   0.10  -0.56     0.08   0.03  -0.16
    21   1     0.00  -0.00   0.00    -0.01  -0.03  -0.06    -0.02  -0.04  -0.08
    22   1    -0.00  -0.00   0.00     0.01   0.00  -0.01    -0.09  -0.05   0.20
                     55                     56                     57
                      A                      A                      A
 Frequencies --   3168.3022              3174.1861              3189.2353
 Red. masses --      1.0934                 1.0928                 1.0946
 Frc consts  --      6.4665                 6.4873                 6.5594
 IR Inten    --      8.2428                21.1400                 7.8122
  Atom  AN      X      Y      Z        X      Y      Z        X      Y      Z
     1   6    -0.00   0.01   0.02    -0.01  -0.03  -0.05    -0.00  -0.00   0.00
     2   6     0.00   0.00   0.00    -0.00  -0.00   0.00    -0.00  -0.00   0.00
     3   6    -0.00  -0.00  -0.01    -0.00  -0.00  -0.01    -0.00   0.00   0.02
     4   6     0.00   0.00   0.00     0.00   0.00   0.00    -0.00  -0.00   0.00
     5   6    -0.01  -0.03  -0.07    -0.01  -0.01  -0.03    -0.01  -0.01  -0.03
     6   6    -0.01  -0.00   0.02    -0.00  -0.00   0.01     0.03   0.02  -0.07
     7   1     0.04   0.03  -0.01     0.05   0.04  -0.01    -0.03  -0.03   0.00
     8   1    -0.04  -0.02   0.10    -0.03  -0.02   0.08     0.07   0.04  -0.18
     9   1    -0.03  -0.09  -0.19     0.10   0.31   0.63    -0.00  -0.01  -0.02
    10   1    -0.00  -0.00   0.00     0.00   0.00  -0.00     0.00   0.00  -0.00
    11   1    -0.00  -0.00  -0.00     0.00   0.00   0.00     0.00   0.00   0.00
    12   8     0.00   0.00   0.00     0.00   0.00   0.00    -0.00  -0.00   0.00
    13   6    -0.00  -0.00  -0.00    -0.00  -0.00  -0.00     0.00  -0.00  -0.00
    14   6    -0.00  -0.00  -0.00    -0.00  -0.00  -0.00     0.00   0.00  -0.00
    15   8     0.00   0.00   0.00     0.00  -0.00   0.00     0.00   0.00   0.00
    16   8     0.00   0.00  -0.00     0.00   0.00  -0.00    -0.00  -0.00   0.00
    17   6    -0.01   0.00   0.03     0.02  -0.00  -0.05    -0.00  -0.00  -0.00
    18   1    -0.06   0.03  -0.05     0.12  -0.05   0.10     0.00   0.00   0.00
    19   1     0.04  -0.10  -0.03    -0.08   0.18   0.06    -0.00   0.00   0.00
    20   1     0.12   0.05  -0.25    -0.23  -0.08   0.47     0.00   0.00  -0.00
    21   1     0.13   0.37   0.77     0.05   0.15   0.31     0.06   0.15   0.30
    22   1     0.12   0.06  -0.27     0.04   0.02  -0.08    -0.37  -0.20   0.81
                     58                     59                     60
                      A                      A                      A
 Frequencies --   3268.3451              3272.8129              3293.7947
[...]
 34138,0.17061122,0.20847980,0.00050639,0.00005078,-0.00009431,0.028798
 98,0.00458941,-0.04531552,0.00027257,-0.00031434,-0.00015825,-0.007833
 42,-0.02479981,-0.04927941,-0.00019619,0.00004263,0.00010345,-0.000219
 75,-0.00006372,-0.00000918,-0.00004630,0.00010180,0.00003569,-0.000204
 58,0.00012781,0.00026125,-0.00012455,0.00018803,0.00024522,-0.00214230
 ,-0.00370218,-0.00438172,0.00466111,0.00162746,-0.00420556,-0.05382835
 ,0.06531624,0.41786908,-0.00068784,0.00093090,0.00153142,-0.08478071,-
 0.00156324,0.02039616,-0.00164984,-0.00083616,-0.00076221,-0.00995404,
 -0.01436581,-0.01887443,0.00142225,0.00027701,-0.00038138,0.00104058,0
 .00163957,0.00006189,0.00003103,-0.00034074,-0.00012903,0.00008350,-0.
 00007754,0.00012821,-0.00004587,-0.00028031,-0.00036074,0.00417605,0.0
 0825244,0.01630127,-0.00056275,-0.00815985,0.00511240,-0.10071895,-0.0
 1498156,0.05527443,0.61715517,0.00513270,0.00125384,-0.00163472,-0.005
 40633,-0.08828753,-0.02557302,-0.00133640,0.00017902,-0.00123776,-0.01
 458699,-0.01544076,-0.01749639,-0.00173913,-0.00131934,0.00298076,0.00
 060936,0.00061370,0.00081639,0.00006749,-0.00005534,-0.00004740,0.0001
 8890,-0.00029901,-0.00011550,-0.00021525,-0.00011577,-0.00021324,0.001
 53280,0.00555578,0.01104029,-0.00816569,0.00553603,-0.00041600,-0.0146
 3784,-0.07177519,0.00383609,0.39151109,0.60542212,0.00036190,0.0008619
 1,-0.00097961,0.01107036,-0.03318432,-0.20341317,-0.00210694,0.0009546
 2,-0.00248364,-0.01879794,-0.02250462,-0.01066348,-0.00099228,-0.00005
 103,0.00141665,0.00147433,0.00253816,0.00112133,-0.00002947,0.00010676
 ,-0.00011941,0.00069466,-0.00056514,-0.00048545,0.00011880,-0.00016626
 ,-0.00037989,-0.00513566,-0.00575884,-0.00573445,0.00436385,-0.0002305
 5,-0.00197603,0.06173241,0.00915089,-0.19051633,0.15559215,0.25885179,
 0.60669684,-0.00093917,-0.00153308,0.00138328,-0.02489777,-0.01410359,
 0.01945193,-0.00091670,0.00150288,0.00036521,-0.09418873,-0.00481398,0
 .02813721,0.00138191,-0.00025333,-0.00062920,-0.00103923,0.00138205,-0
 .00138093,0.00013777,-0.00111732,-0.00004904,-0.00018646,0.00009426,0.
 00025550,-0.00023808,0.00020145,0.00001022,0.00161363,-0.00824310,-0.0
 0097408,0.00829013,0.00127006,-0.01344653,-0.07504102,-0.01176351,-0.0
 0697841,-0.07377102,-0.04375817,0.00977875,0.83137419,-0.00070740,-0.0
 0034637,0.00011247,-0.01407727,-0.00540975,0.01346885,-0.00155126,-0.0
 0066390,-0.00205331,-0.00077868,-0.08093487,-0.01824142,0.00080051,-0.
 00047253,0.00063297,0.00213088,0.00179988,0.00191191,0.00017403,-0.000
 83002,0.00004600,-0.00003329,-0.00011036,0.00015302,0.00001211,0.00004
 405,-0.00016096,-0.00825934,0.00408623,-0.00532166,0.00788966,0.002628
 93,-0.01213161,-0.01270005,-0.08359175,-0.04548039,-0.06107321,-0.0501
 7419,0.02935444,0.37526790,0.44504630,-0.00007897,0.00196664,-0.002691
 54,0.02368805,0.01153601,-0.00525915,-0.00005241,0.00023280,-0.0004643
 4,0.03848372,-0.01053289,-0.20049115,-0.00243390,-0.00014708,0.0006871
 0,-0.00023876,0.00035408,0.00061198,0.00006235,0.00007518,0.00002814,0
 .00024672,-0.00025008,-0.00033529,0.00040115,-0.00061444,-0.00023820,-
 0.00096820,-0.00466052,-0.00267122,0.00843289,0.00410526,-0.00665366,-
 0.01380964,-0.05051178,-0.19668353,-0.04489122,-0.01217892,0.06415650,
 -0.25559820,-0.07627674,0.55405436,-0.00211507,-0.00130705,0.00040149,
 0.00303069,-0.01930422,-0.01484100,0.00127883,0.00001170,0.00121472,0.
 00365918,0.00160452,-0.00269405,0.00058338,0.00095339,-0.00108471,-0.0
 0118808,-0.00157178,-0.00062030,0.00001188,0.00012435,0.00006464,-0.00
 020033,0.00019506,-0.00001253,0.00020797,0.00007738,0.00024658,-0.0003
 2247,-0.00019812,-0.00181876,-0.00080694,0.00093326,-0.00100821,-0.064
 61365,-0.06786126,-0.01185402,-0.36898791,-0.31255328,-0.19993802,0.01
 400070,0.01231093,0.02251698,0.42402320,-0.00138953,-0.00231747,0.0014
 0513,-0.02496666,-0.00607120,-0.02183294,0.00081153,-0.00048947,0.0012
 4594,0.00290565,0.00225061,-0.00582999,0.00301111,-0.00066733,-0.00188
 738,-0.00078982,-0.00105954,-0.00089323,-0.00003571,0.00005145,0.00001
 463,-0.00020333,0.00026615,0.00004090,0.00000577,0.00009494,0.00009520
 ,0.00066058,-0.00075295,-0.00081358,0.00047222,-0.00206998,0.00032708,
 -0.06108163,-0.03574043,-0.00255317,-0.31190579,-0.39973577,-0.2229361
 9,0.00661488,0.01555114,0.01411767,0.39064630,0.43704582,-0.00042924,-
 0.00056601,0.00064340,-0.03292747,-0.03689951,-0.01024622,0.00104687,-
 0.00025896,0.00113986,0.00207099,-0.00022581,-0.00832113,0.00055362,0.
 00047185,-0.00107732,-0.00089275,-0.00122766,-0.00058186,0.00000879,0.
 00002429,0.00005029,-0.00027728,0.00024729,0.00014020,-0.00003066,0.00
 011793,0.00020269,0.00077361,0.00129276,0.00127570,-0.00234454,-0.0007
 8734,0.00091632,0.00815240,0.01354629,0.03658455,-0.19226083,-0.216553
 35,-0.24466397,0.00297819,-0.00189564,-0.00847819,0.21136652,0.2414936
 4,0.22967152,0.00046721,0.00127401,-0.00165687,0.00270502,0.00266918,0
 .00732661,-0.00097896,0.00006471,-0.00089592,-0.02068429,-0.02363615,0
 .02253847,-0.00197071,-0.00045892,0.00079818,0.00036178,0.00136810,0.0
 0151619,-0.00000949,0.00032146,0.00001345,0.00008026,-0.00009679,-0.00
 010679,0.00020023,-0.00019211,0.00003371,-0.00175168,0.00051710,-0.000
 27641,-0.00061457,0.00064816,0.00116670,-0.06488009,-0.06028312,-0.006
 27319,0.02082594,0.00632703,-0.01631364,-0.58544956,-0.29864075,0.2247
 5639,-0.00954055,-0.00623724,0.00087071,0.66116245,0.00035564,0.000508
 91,-0.00052270,0.00114645,0.00246520,0.00188564,0.00163802,-0.00050864
 ,0.00074002,-0.01755198,0.01109783,0.00890751,-0.00082938,0.00012229,-
 0.00008732,0.00002827,-0.00141329,-0.00060760,-0.00016668,0.00079496,0
 .00000468,0.00006975,0.00002918,-0.00013439,0.00005964,-0.00010666,0.0
 0004949,0.00102731,-0.00139403,0.00099645,-0.00017659,-0.00056280,0.00
 150577,-0.06620195,-0.03323577,0.00141508,0.01192270,0.01081450,-0.016
 26806,-0.30108806,-0.24591221,0.12229899,-0.00716472,-0.00635995,0.001
 33380,0.37677990,0.26326986,-0.00018950,-0.00088628,0.00114118,0.00059
 659,-0.00112635,-0.00785138,0.00014978,-0.00016302,0.00044005,0.041850
 40,0.02254882,-0.00336669,0.00135109,0.00022586,-0.00041642,-0.0004412
 7,0.00003931,-0.00051257,-0.00000469,-0.00010131,-0.00007780,-0.000132
 03,0.00010575,0.00014199,-0.00016111,0.00022427,0.00004612,0.00116606,
 0.00201146,0.00118649,-0.00159260,-0.00047137,0.00130500,-0.02703088,-
 0.01352191,0.03501569,0.00418639,-0.00164445,-0.01091726,0.21665942,0.
 11601423,-0.19474050,-0.00299545,-0.00166694,0.00231225,-0.23361900,-0
 .12141899,0.17602855,-0.15645243,-0.08842259,-0.00623810,-0.00015623,0
 .00003510,-0.00009243,-0.00046043,0.00013416,-0.00077197,-0.00009752,-
 0.00001159,0.00005707,-0.01536119,-0.01768857,0.00209324,0.00571600,-0
 .00200280,0.00343646,0.00004917,-0.00011342,-0.00008322,-0.00015816,0.
 00025581,-0.00014919,0.00122876,-0.00484685,0.00279283,-0.00018005,-0.
 00003665,-0.00020262,0.00000583,-0.00000864,-0.00000148,-0.00028792,-0
 .00024789,-0.00011094,-0.00004203,0.00002846,0.00029552,0.00012893,0.0
 0016171,0.00016742,-0.00072454,0.00016801,-0.00012758,-0.00011530,-0.0
 0008629,0.00000983,0.53452271,-0.08675225,-0.15237460,-0.01388512,0.00
 010966,0.00050222,0.00046239,-0.00033683,-0.00080367,-0.00070246,-0.00
 024354,-0.00036677,0.00003684,-0.01330715,-0.00571753,0.00325965,-0.00
 152907,0.00660120,-0.00115332,-0.00004112,0.00006600,-0.00006455,0.000
 15437,-0.00036181,0.00012597,-0.01130075,-0.00297973,0.00127830,0.0000
 2683,0.00000087,0.00001702,-0.00000909,-0.00000413,0.00001040,-0.00064
 028,-0.00034426,0.00001646,0.00058093,-0.00115371,-0.00062484,0.000461
 09,0.00020248,0.00005038,0.00103747,0.00042634,-0.00003068,-0.00041379
 ,-0.00012772,0.00011010,-0.02086844,0.52358534,-0.00048246,-0.00766289
 ,-0.08911078,0.00010711,0.00000793,0.00023698,-0.00084603,-0.00039454,
 -0.00078439,-0.00015432,-0.00003865,0.00000722,0.01781514,0.01764273,0
 .00878597,0.00412091,0.00000592,-0.00316948,0.00002657,0.00005292,0.00
 028008,0.00010842,0.00009660,0.00033760,-0.01590635,-0.01599510,0.0020
 9462,-0.00020047,-0.00003583,-0.00000925,0.00001660,-0.00003669,0.0000
 3416,-0.00034766,-0.00008839,-0.00001329,0.00022903,-0.00056496,-0.000
 28202,0.00036006,0.00002411,-0.00001131,0.00023955,0.00021096,0.000463
 08,-0.00025607,-0.00005597,0.00009760,-0.01971748,-0.00542460,0.585772
 21,-0.01537642,0.00426765,-0.01181874,0.00010265,-0.00000992,0.0001228
 8,-0.00033059,-0.00001210,-0.00002287,-0.00008539,-0.00005472,0.000045
 87,0.00150736,-0.00105808,-0.00066564,0.00090054,-0.00059093,0.0001317
 6,0.00000899,-0.00002593,0.00002162,0.00001400,0.00007165,0.00002765,-
 0.00170647,-0.00076102,0.00013932,-0.00001204,-0.00001704,0.00002101,0
 .00000619,-0.00001465,0.00002455,-0.00012733,-0.00001935,-0.00000931,0
 .00026560,-0.00030648,-0.00008252,0.00023896,-0.00004118,-0.00008165,-
 0.00006264,0.00018914,0.00009399,-0.00017083,-0.00001342,0.00007141,-0
 .18320420,0.05615113,-0.12662385,0.19570306,-0.01866731,0.00473620,-0.
 01571507,0.00005798,-0.00012294,0.00010821,-0.00029185,-0.00005151,-0.
 00011644,-0.00000580,-0.00004311,-0.00003105,0.00034099,0.00037355,-0.
 00082037,0.00086655,-0.00049228,0.00009089,0.00004192,-0.00008482,0.00
 003846,-0.00002605,0.00012178,0.00002549,-0.00109993,-0.00234843,-0.00
 009223,-0.00004641,0.00000183,-0.00007129,0.00000740,0.00000235,0.0000
 1111,0.00025023,0.00030498,-0.00011081,-0.00059296,-0.00048231,0.00004
 714,-0.00006244,-0.00015100,-0.00002114,0.00052507,0.00011550,-0.00005
 704,0.00006356,0.00007984,-0.00002344,0.05416462,-0.06277588,0.0508896
 7,-0.05579343,0.06842325,-0.00035283,-0.00284371,-0.00016359,-0.000022
 03,-0.00004467,-0.00012067,0.00022651,0.00014829,0.00022831,0.00005640
 ,0.00008163,0.00002312,0.00208839,0.00143598,-0.00010727,-0.00043328,-
 0.00089914,-0.00008406,-0.00005053,0.00004168,0.00001954,0.00000369,0.
 00004865,0.00002541,-0.00057667,-0.00056040,0.00032232,0.00004689,-0.0
 0001768,0.00001623,0.00000936,0.00000171,-0.00000498,0.00006272,0.0000
 3634,0.00002663,-0.00005705,0.00013231,0.00006297,-0.00003690,0.000002
 98,-0.00001630,-0.00003511,-0.00008528,-0.00005538,0.00004355,0.000006
 36,-0.00000963,-0.12513245,0.05250962,-0.15911863,0.13690209,-0.054771
 62,0.16663459,0.00875507,-0.02181952,-0.00863233,0.00047370,0.00026455
 ,0.00041389,-0.00040927,-0.00016472,-0.00029211,-0.00015405,-0.0002254
 2,0.00012035,-0.00037853,-0.00028775,-0.00042371,-0.00005199,0.0011026
 4,-0.00029742,-0.00005900,0.00005436,0.00001106,0.00011472,-0.00012870
 ,0.00006781,-0.00239785,-0.00121346,-0.00046736,-0.00003273,-0.0000009
 4,-0.00009806,0.00000861,0.00003986,0.00000702,0.00088685,0.00109871,0
 .00008255,-0.00372903,-0.00317144,-0.00141861,-0.00044901,-0.00066059,
 -0.00027036,0.00182492,0.00141058,0.00126689,0.00022844,0.00031218,-0.
 00002417,-0.08521998,0.09181599,0.03716937,-0.00798350,0.01773537,0.00
 860205,0.09308455,0.00430128,-0.01830309,-0.00591319,0.00003420,-0.000
 27147,0.00000931,-0.00013886,-0.00013543,0.00019144,0.00007942,0.00002
 444,-0.00007428,0.00034644,0.00186541,-0.00154617,-0.00087991,0.000605
 42,-0.00056497,0.00001413,-0.00002878,0.00001846,0.00006643,-0.0000339
 9,0.00003951,-0.00112161,-0.00168665,0.00060655,-0.00005420,0.00004979
 ,-0.00005451,0.00000072,0.00001219,0.00000991,0.00024533,0.00031749,-0
 .00007559,-0.00070572,0.00026309,0.00018988,-0.00018342,-0.00033795,-0
 .00000438,0.00107299,-0.00080633,-0.00016627,0.00015868,0.00016061,-0.
 00006308,0.09413308,-0.24823376,-0.07642062,0.00198882,-0.00622405,-0.
 00332428,-0.09624018,0.26677339,-0.00242395,-0.00251379,-0.00134142,-0
 .00018387,-0.00020721,0.00001906,0.00020872,0.00011975,0.00027783,0.00
 021409,0.00013820,-0.00016238,0.00227421,0.00145899,-0.00009722,-0.000
 96215,-0.00043957,-0.00028271,0.00000385,-0.00003303,0.00002366,0.0000
 2867,0.00001032,0.00001712,-0.00091449,-0.00040892,0.00010507,-0.00010
 384,-0.00004862,-0.00017863,0.00001377,-0.00000158,-0.00001291,0.00026
 694,0.00014147,-0.00011610,-0.00039983,0.00036185,0.00047569,-0.000230
 84,-0.00002716,0.00019989,0.00014059,-0.00027043,-0.00066790,0.0002326
 8,0.00007592,-0.00013727,0.03806190,-0.07556527,-0.07438833,-0.0082671
 2,0.01885650,0.00777072,-0.03825833,0.08359528,0.07514024,-0.01006377,
 -0.00118619,0.02119291,0.00001617,-0.00003362,0.00022019,-0.00017571,-
 0.00006077,-0.00008188,-0.00001952,-0.00007872,-0.00009648,-0.00265438
 ,-0.00379232,-0.00123559,0.00018434,-0.00006357,0.00094460,-0.00004803
 ,0.00001096,-0.00006176,0.00004574,-0.00004551,-0.00002564,0.00081998,
 0.00048103,-0.00011672,-0.00010354,0.00002460,-0.00004751,-0.00000491,
 -0.00000925,0.00001582,-0.00007563,-0.00005072,-0.00013242,0.00027486,
 -0.00003731,0.00016580,0.00013426,0.00000444,0.00009291,-0.00019911,0.
 00014332,-0.00016267,-0.00007453,0.00000242,-0.00001711,-0.09660386,-0
 .01860656,0.10447138,0.01117049,0.00281593,-0.02081799,-0.00504322,-0.
 00357040,0.00986148,0.10276846,-0.00869703,-0.00431832,0.02253049,0.00
 008634,0.00000731,-0.00001317,-0.00012232,-0.00008791,-0.00007863,-0.0
 0005199,-0.00002416,0.00007084,-0.00369578,-0.00271717,-0.00133361,-0.
 00035798,0.00058202,0.00076133,0.00003902,-0.00008355,-0.00004821,-0.0
 0004647,0.00006298,-0.00004848,0.00049855,0.00071222,0.00013137,0.0000
 1181,0.00002857,0.00003511,-0.00000048,0.00000067,0.00001231,0.0001424
 2,0.00021679,0.00001243,-0.00034430,-0.00048018,-0.00021056,-0.0000273
 5,-0.00013411,-0.00012965,0.00047743,0.00006908,0.00028477,-0.00000136
 ,0.00004842,0.00002838,-0.01753985,-0.05355267,0.03548246,-0.00458471,
 -0.00208189,0.00764177,0.01012607,0.00675960,-0.02483010,0.02411534,0.
 05541428,-0.00497028,-0.00288773,0.00485103,0.00000131,0.00000847,-0.0
 0006329,0.00013964,0.00009943,0.00003697,0.00002171,0.00001953,0.00002
 810,-0.00007342,-0.00019369,0.00036553,-0.00018894,-0.00025920,0.00017
 920,0.00000139,0.00002515,0.00001460,-0.00001091,-0.00002599,-0.000005
 73,-0.00013817,0.00002502,0.00110014,0.00006254,0.00001891,0.00001016,
 -0.00000243,0.00000749,-0.00000720,0.00011090,0.00008877,0.00004566,-0
 .00027236,-0.00010454,-0.00012569,-0.00014015,-0.00004781,-0.00003728,
 0.00027515,-0.00007472,0.00012370,0.00008512,0.00002564,-0.00000960,0.
 10769843,0.03918814,-0.27216963,0.00968036,0.00155763,-0.01524329,0.00
 190073,0.00283424,-0.00669627,-0.11399462,-0.04032921,0.28733531,0.006
 93137,0.00601727,0.01836394,-0.00001861,0.00004828,0.00014408,-0.00199
 746,-0.00314838,0.00174401,0.00001161,0.00003770,0.00003441,-0.0559744
 6,-0.02592633,-0.03716362,-0.00234449,-0.01085895,-0.02079471,-0.00053
 349,-0.00022832,-0.00079028,0.00012773,0.00006502,-0.00006999,0.003285
 35,-0.00603881,0.00440476,0.00000309,0.00001858,0.00000247,-0.00000645
 ,-0.00000578,0.00002523,0.00038648,-0.00002381,0.00043050,-0.00029332,
 0.00037909,-0.00089470,-0.00043437,-0.00055541,-0.00037087,0.00014671,
 -0.00032173,0.00032144,0.00020608,0.00020410,0.00002027,-0.00212525,0.
 00353732,-0.00085703,-0.00074167,-0.00022374,-0.00053334,0.00048645,0.
 00043870,0.00044056,-0.00007654,0.00014901,-0.00018772,0.05301783,-0.0
 0078362,0.00891716,0.00781136,0.00003791,0.00007965,0.00000713,-0.0036
 1353,-0.00132598,0.00100447,0.00000109,-0.00016443,0.00010355,-0.02681
 216,-0.10115337,-0.10825224,-0.00285884,-0.00520440,-0.01882967,-0.000
 40689,-0.00019676,-0.00075220,0.00020617,-0.00000356,-0.00006876,-0.00
 628812,0.00545887,-0.00025393,-0.00002300,0.00001699,0.00001719,-0.000
 00601,-0.00000940,0.00002075,-0.00025128,-0.00010818,0.00009853,0.0007
 3314,-0.00008968,0.00019101,0.00017035,-0.00005486,-0.00008685,-0.0002
 2888,0.00010615,-0.00013806,-0.00016988,0.00000158,0.00007983,0.002994
 38,-0.00275004,0.00152367,0.00066527,0.00069831,0.00050256,-0.00004618
 ,-0.00071351,-0.00038472,0.00011748,-0.00020672,0.00001666,0.03588729,
 0.09675529,-0.00464556,-0.01278957,-0.01918486,0.00005749,0.00005575,0
 .00012172,0.00051438,-0.00020137,0.00108579,-0.00000794,0.00005314,0.0
 0009802,-0.03704124,-0.10778493,-0.27574848,0.00255428,0.00230409,0.00
 198681,0.00005303,0.00001219,-0.00004860,0.00016174,0.00011007,0.00005
 496,0.00403581,-0.00017696,-0.00162061,0.00001330,-0.00003473,0.000018
 95,0.00002006,-0.00000081,0.00001910,0.00049923,0.00018155,0.00034723,
 -0.00083582,-0.00037276,-0.00092071,-0.00035240,-0.00047826,-0.0003739
 4,0.00057880,-0.00006564,0.00054958,0.00017332,0.00018590,0.00001384,-
 0.00187525,0.00042840,0.00091422,0.00026282,0.00017852,-0.00020884,0.0
 0050211,0.00067746,0.00005206,-0.00018018,0.00001293,0.00027441,0.0358
 4897,0.11738972,0.29182812,-0.00150931,-0.00382837,-0.00173674,0.00000
 978,-0.00000371,-0.00006111,0.00883984,0.00011773,-0.01323295,0.000029
 21,-0.00005310,0.00001871,-0.00670001,-0.00577014,0.02132939,-0.096782
 26,-0.03284041,0.10460116,-0.00289970,0.00436108,-0.00084240,0.0043443
 0,-0.00645524,-0.00159814,0.00016895,0.00011031,0.00002094,-0.00001649
 ,0.00001033,-0.00002447,0.00000796,-0.00001644,-0.00001770,-0.00008470
 ,-0.00012570,-0.00007281,-0.00005167,0.00013740,0.00006125,0.00025066,
 0.00032626,-0.00005441,-0.00000617,-0.00010764,-0.00005100,0.00000313,
 -0.00026732,0.00014654,-0.00046232,0.00017410,0.00072757,-0.00011675,-
 0.00005969,0.00000656,0.00004487,0.00001409,-0.00000304,-0.00027157,-0
 .00017639,0.00000173,-0.00005658,0.00067530,-0.00033695,0.09525883,-0.
 00330680,-0.00183694,-0.00125476,-0.00016965,0.00004442,-0.00005020,0.
 00367900,0.00799577,-0.01402753,0.00007884,0.00014538,-0.00019516,-0.0
 0882983,-0.00127949,0.01778035,-0.03313274,-0.06381012,0.05486432,0.00
 449001,-0.00424125,0.00042695,-0.00646363,0.00583688,-0.00304824,0.000
 07912,-0.00000616,0.00009501,0.00000608,-0.00002208,-0.00002014,0.0000
 3280,-0.00001119,0.00001309,0.00010528,0.00037394,-0.00032273,-0.00062
 061,-0.00022929,0.00025380,-0.00001756,-0.00023515,0.00067746,0.000219
 46,0.00009321,-0.00000627,-0.00006177,0.00022788,-0.00030086,-0.000201
 73,0.00016183,0.00078127,-0.00003071,0.00000064,-0.00004311,-0.0000013
 9,-0.00005640,-0.00002789,-0.00018058,-0.00021527,0.00000782,0.0005488
 9,-0.00005310,0.00031531,0.04377753,0.05711652,-0.00054418,-0.00032835
 ,0.00080154,-0.00001554,-0.00001048,0.00009616,0.01174572,0.00635305,-
 0.01984684,-0.00007796,-0.00002205,0.00006185,-0.00305953,-0.00291730,
 0.00327209,0.10269199,0.05526599,-0.27742605,-0.00068088,0.00080090,0.
 00078787,-0.00120200,-0.00299885,-0.00211554,-0.00017606,-0.00007588,0
 .00005747,-0.00000289,-0.00002119,0.00001793,0.00003304,-0.00002647,0.
 00002410,-0.00022013,-0.00028726,0.00023873,0.00041153,0.00013353,-0.0
 0026886,0.00043693,0.00039399,-0.00059236,-0.00014287,-0.00004166,0.00
 001883,-0.00015718,-0.00033624,0.00031036,-0.00010998,-0.00004283,0.00
 003336,0.00002636,0.00002687,0.00000281,0.00003864,0.00003530,-0.00000
 022,0.00000548,0.00001744,-0.00000682,-0.00011835,0.,0.00074121,-0.108
 88213,-0.05591847,0.29379238\\0.00000224,0.00000443,0.00000113,-0.0000
 0356,-0.00000326,0.00000649,-0.00000280,-0.00000044,-0.00000239,0.0000
 0492,0.00000715,-0.00000811,0.00000024,-0.00000444,-0.00000760,-0.0000
 0363,-0.00000169,0.00000264,0.00000135,-0.00000215,-0.00000758,0.00000
 561,0.00000348,-0.00000576,0.00000133,0.00000365,-0.00000133,0.0000008
 2,0.00000460,0.00000121,0.00000136,0.00000243,0.00000109,-0.00000061,-
 0.00000278,-0.00000122,0.00000212,0.00000195,0.00000664,-0.00001164,-0
 .00000774,0.00000702,-0.00000579,-0.00000580,0.00000360,0.00000734,0.0
 0000084,-0.00000489,-0.00000446,0.00000513,0.00001115,-0.00000275,0.00
 000100,0.00000114,0.00000244,-0.00000394,0.00000298,0.00000280,0.00000
 249,-0.00000132,0.00000044,-0.00000148,0.00000448,0.00000225,-0.000003
 43,-0.00000936\\\@
 The archive entry for this job was punched.


 BE LIKE A POSTAGE STAMP.  STICK TO ONE THING UNTIL
 YOU GET THERE -- JOSH BILLINGS
 Job cpu time:       0 days  0 hours 22 minutes 25.3 seconds.
 Elapsed time:       0 days  0 hours  1 minutes 53.4 seconds.
 File lengths (MBytes):  RWF=    186 Int=      0 D2E=      0 Chk=     10 Scr=      1
 Normal termination of Gaussian 16 at Sat Dec 30 20:54:37 2023.
