Unloading slurm/anatra/current
  ERROR: No such file or directory on
    '/cm/local/modulefiles/slurm/anatra/current'
environment: line 0: unalias: gv: not found
environment: line 0: unalias: sl: not found
 Entering Gaussian System, Link 0=g16
 Initial command:
 /apps/gaussian/g16/C.01/g16/l1.exe "/local/jobs/1152784/Gau-3954937.inp" -scrdir="/local/jobs/1152784/"
 Entering Link 1 = /apps/gaussian/g16/C.01/g16/l1.exe PID=   3954938.
  
 Copyright (c) 1988-2019, Gaussian, Inc.  All Rights Reserved.
  
 This is part of the Gaussian(R) 16 program.  It is based on
 the Gaussian(R) 09 system (copyright 2009, Gaussian, Inc.),
 the Gaussian(R) 03 system (copyright 2003, Gaussian, Inc.),
 the Gaussian(R) 98 system (copyright 1998, Gaussian, Inc.),
 the Gaussian(R) 94 system (copyright 1995, Gaussian, Inc.),
 the Gaussian 92(TM) system (copyright 1992, Gaussian, Inc.),
 the Gaussian 90(TM) system (copyright 1990, Gaussian, Inc.),
 the Gaussian 88(TM) system (copyright 1988, Gaussian, Inc.),
 the Gaussian 86(TM) system (copyright 1986, Carnegie Mellon
 University), and the Gaussian 82(TM) system (copyright 1983,
 Carnegie Mellon University). Gaussian is a federally registered
 trademark of Gaussian, Inc.
  
 This software contains proprietary and confidential information,
 including trade secrets, belonging to Gaussian, Inc.
  
 This software is provided under written license and may be
 used, copied, transmitted, or stored only in accord with that
 written license.
  
 The following legend is applicable only to US Government
 contracts under FAR:
  
                    RESTRICTED RIGHTS LEGEND
  
 Use, reproduction and disclosure by the US Government is
 subject to restrictions as set forth in subparagraphs (a)
 and (c) of the Commercial Computer Software - Restricted
 Rights clause in FAR 52.227-19.
  
 Gaussian, Inc.
 340 Quinnipiac St., Bldg. 40, Wallingford CT 06492
  
  
 ---------------------------------------------------------------
 Warning -- This program may not be used in any manner that
 competes with the business of Gaussian, Inc. or will provide
 assistance to any competitor of Gaussian, Inc.  The licensee
 of this program is prohibited from giving any competitor of
 Gaussian, Inc. access to this program.  By using this program,
 the user acknowledges that Gaussian, Inc. is engaged in the
 business of creating and licensing software in the field of
 computational chemistry and represents and warrants to the
 licensee that it is not a competitor of Gaussian, Inc. and that
 it will not use this program in any manner prohibited above.
 ---------------------------------------------------------------
  

 Cite this work as:
 Gaussian 16, Revision C.01,
 M. J. Frisch, G. W. Trucks, H. B. Schlegel, G. E. Scuseria, 
 M. A. Robb, J. R. Cheeseman, G. Scalmani, V. Barone, 
 G. A. Petersson, H. Nakatsuji, X. Li, M. Caricato, A. V. Marenich, 
 J. Bloino, B. G. Janesko, R. Gomperts, B. Mennucci, H. P. Hratchian, 
 J. V. Ortiz, A. F. Izmaylov, J. L. Sonnenberg, D. Williams-Young, 
 F. Ding, F. Lipparini, F. Egidi, J. Goings, B. Peng, A. Petrone, 
 T. Henderson, D. Ranasinghe, V. G. Zakrzewski, J. Gao, N. Rega, 
 G. Zheng, W. Liang, M. Hada, M. Ehara, K. Toyota, R. Fukuda, 
 J. Hasegawa, M. Ishida, T. Nakajima, Y. Honda, O. Kitao, H. Nakai, 
 T. Vreven, K. Throssell, J. A. Montgomery, Jr., J. E. Peralta, 
 F. Ogliaro, M. J. Bearpark, J. J. Heyd, E. N. Brothers, K. N. Kudin, 
 V. N. Staroverov, T. A. Keith, R. Kobayashi, J. Normand, 
 K. Raghavachari, A. P. Rendell, J. C. Burant, S. S. Iyengar, 
 J. Tomasi, M. Cossi, J. M. Millam, M. Klene, C. Adamo, R. Cammi, 
 J. W. Ochterski, R. L. Martin, K. Morokuma, O. Farkas, 
 J. B. Foresman, and D. J. Fox, Gaussian, Inc., Wallingford CT, 2019.
 
 ******************************************
 Gaussian 16:  ES64L-G16RevC.01  3-Jul-2019
                22-Dec-2023 
 ******************************************
 %chk=da-2_1_opt_sqm.chk
 %nprocshared=12
 Will use up to   12 processors via shared memory.
 %mem=48GB
 ----------------------------------------------------------------------
 # wb97xd chkbasis guess=read geom=allchk scrf=(iefpcm,solvent=toluene)
  opt=(readfc,ts,noeigen,maxcycles=50,maxstep=10)
 ----------------------------------------------------------------------
 1/5=1,6=50,8=10,10=3,11=1,18=20,26=3,29=7,38=1/1,3;
 2/9=110,12=2,40=1/2;
 3/5=7,6=2,11=2,14=-4,25=1,30=1,67=1,70=2201,71=1,72=13,74=-58,116=-2/1,2,3;
 4/5=1/1;
 5/5=2,38=6,53=13/2;
 6/7=2,8=2,9=2,10=2,28=1/1;
 7//1,2,3,16;
 1/5=1,6=50,8=10,11=1,18=20,26=3/3(2);
 2/9=110/2;
 99//99;
 2/9=110/2;
 3/5=7,6=1,11=2,14=-2,25=1,30=1,70=2205,71=1,72=13,74=-58,82=7/1,2,3;
 4/5=5,16=3,69=1/1;
 5/5=2,38=5,53=13/2;
 7//1,2,3,16;
 1/5=1,6=50,8=10,11=1,18=20,26=3/3(-5);
 2/9=110/2;
 6/7=2,8=2,9=2,10=2,19=2,28=1/1;
 99/9=1/99;
 Structure from the checkpoint file:  "da-2_1_opt_sqm.chk"
 -----------------------
 1d_2b_endo_2_reopt3.out
 -----------------------
 Charge =  0 Multiplicity = 1
 Redundant internal coordinates found in file.  (old form).
 C,0,-2.2864189255,0.4661422693,-0.1183045539
 C,0,0.0726159666,-0.4206221204,1.9233841319
 C,0,-0.2199257488,2.7401779209,-0.1252790651
 C,0,0.9483535783,0.5834285354,1.9941438192
 C,0,-1.2754782344,0.6331406286,-0.987078682
 C,0,-0.3765829293,1.7906166581,-1.0590695985
 H,0,0.4907252838,3.5564575511,-0.2695706807
 H,0,-0.7963569875,2.7429818575,0.8043951062
 H,0,-2.5175928561,1.276285091,0.5841797552
 H,0,-0.7759748117,-0.65084518,2.5646459353
 H,0,1.0183035768,1.3946659684,2.7162093652
 O,0,1.5510853579,-0.7023084379,0.1692452508
 C,0,0.4531541478,-1.2787690166,0.7656398704
 C,0,1.9257856184,0.4179045741,0.8806481592
 O,0,-0.0247415882,-2.2960740292,0.3732939394
 O,0,2.8866701208,1.0588999016,0.5989743357
 C,0,-3.1599828407,-0.7490334907,-0.0545578706
 H,0,-4.0603322596,-0.6165488984,-0.6776762372
 H,0,-2.6292854937,-1.6447486013,-0.4086960592
 H,0,-3.5085149678,-0.9357993694,0.9716504593
 H,0,-1.0698929708,-0.1715198473,-1.7023474785
 H,0,0.2470869636,1.8453680351,-1.957329902
 Recover connectivity data from disk.

 GradGradGradGradGradGradGradGradGradGradGradGradGradGradGradGradGradGrad
 Berny optimization.
 Initialization pass.
 Force constant matrix read from checkpoint file:
 "da-2_1_opt_sqm.chk"
                           ----------------------------
                           !    Initial Parameters    !
                           ! (Angstroms and Degrees)  !
 --------------------------                            --------------------------
 ! Name  Definition              Value          Derivative Info.                !
 --------------------------------------------------------------------------------
 ! R1    R(1,5)                  1.3434         D2E/DX2 =    0.7162             !
 ! R2    R(1,9)                  1.0969         D2E/DX2 =    0.2827             !
 ! R3    R(1,17)                 1.4979         D2E/DX2 =    0.3651             !
 ! R4    R(2,4)                  1.3342         D2E/DX2 =    0.6232             !
 ! R5    R(2,10)                 1.0883         D2E/DX2 =    0.2748             !
 ! R6    R(2,13)                 1.4905         D2E/DX2 =    0.3981             !
 ! R7    R(3,6)                  1.341          D2E/DX2 =    0.727              !
 ! R8    R(3,7)                  1.0919         D2E/DX2 =    0.2746             !
 ! R9    R(3,8)                  1.0939         D2E/DX2 =    0.2783             !
 ! R10   R(4,11)                 1.0883         D2E/DX2 =    0.2783             !
 ! R11   R(4,14)                 1.4909         D2E/DX2 =    0.3996             !
 ! R12   R(5,6)                  1.4673         D2E/DX2 =    0.4496             !
 ! R13   R(5,21)                 1.0961         D2E/DX2 =    0.2831             !
 ! R14   R(6,22)                 1.0949         D2E/DX2 =    0.2839             !
 ! R15   R(8,11)                 2.9607         D2E/DX2 =    0.021              !
 ! R16   R(12,13)                1.376          D2E/DX2 =    0.418              !
 ! R17   R(12,14)                1.3789         D2E/DX2 =    0.4164             !
 ! R18   R(13,15)                1.1905         D2E/DX2 =    0.8013             !
 ! R19   R(14,16)                1.1889         D2E/DX2 =    0.8035             !
 ! R20   R(17,18)                1.1029         D2E/DX2 =    0.2724             !
 ! R21   R(17,19)                1.0997         D2E/DX2 =    0.2712             !
 ! R22   R(17,20)                1.0998         D2E/DX2 =    0.273              !
 ! A1    A(5,1,9)              118.7469         D2E/DX2 =    0.0876             !
 ! A2    A(5,1,17)             124.5573         D2E/DX2 =    0.1047             !
 ! A3    A(9,1,17)             116.6784         D2E/DX2 =    0.0841             !
 ! A4    A(4,2,10)             129.7752         D2E/DX2 =    0.0678             !
 ! A5    A(4,2,13)             107.8722         D2E/DX2 =    0.0853             !
 ! A6    A(10,2,13)            122.3426         D2E/DX2 =    0.0707             !
 ! A7    A(6,3,7)              120.891          D2E/DX2 =    0.0823             !
 ! A8    A(6,3,8)              122.1461         D2E/DX2 =    0.1005             !
 ! A9    A(7,3,8)              116.9605         D2E/DX2 =    0.0656             !
 ! A10   A(2,4,11)             129.6691         D2E/DX2 =    0.0737             !
 ! A11   A(2,4,14)             107.889          D2E/DX2 =    0.0853             !
 ! A12   A(11,4,14)            122.4232         D2E/DX2 =    0.0758             !
 ! A13   A(1,5,6)              126.2149         D2E/DX2 =    0.1174             !
 ! A14   A(1,5,21)             118.1589         D2E/DX2 =    0.0934             !
 ! A15   A(6,5,21)             115.6072         D2E/DX2 =    0.0888             !
 ! A16   A(3,6,5)              126.5843         D2E/DX2 =    0.1346             !
 ! A17   A(3,6,22)             117.9912         D2E/DX2 =    0.0968             !
 ! A18   A(5,6,22)             115.3821         D2E/DX2 =    0.093              !
 ! A19   A(3,8,11)             102.982          D2E/DX2 =    0.0893             !
 ! A20   A(4,11,8)              82.6253         D2E/DX2 =    0.4182             !
 ! A21   A(13,12,14)           109.4843         D2E/DX2 =    0.1249             !
 ! A22   A(2,13,12)            107.4078         D2E/DX2 =    0.0991             !
 ! A23   A(2,13,15)            130.2031         D2E/DX2 =    0.1083             !
 ! A24   A(12,13,15)           122.3747         D2E/DX2 =    0.1246             !
 ! A25   A(4,14,12)            107.2999         D2E/DX2 =    0.0991             !
 ! A26   A(4,14,16)            130.3131         D2E/DX2 =    0.1087             !
 ! A27   A(12,14,16)           122.3702         D2E/DX2 =    0.125              !
 ! A28   A(1,17,18)            110.7673         D2E/DX2 =    0.0892             !
 ! A29   A(1,17,19)            111.4455         D2E/DX2 =    0.0999             !
 ! A30   A(1,17,20)            111.2413         D2E/DX2 =    0.0908             !
 ! A31   A(18,17,19)           108.0499         D2E/DX2 =    0.0443             !
 ! A32   A(18,17,20)           106.7906         D2E/DX2 =    0.0434             !
 ! A33   A(19,17,20)           108.3674         D2E/DX2 =    0.0445             !
 ! D1    D(9,1,5,6)              3.255          D2E/DX2 =    0.0137             !
 ! D2    D(9,1,5,21)          -178.4042         D2E/DX2 =    0.0139             !
 ! D3    D(17,1,5,6)          -178.317          D2E/DX2 =    0.0173             !
 ! D4    D(17,1,5,21)            0.0238         D2E/DX2 =    0.0118             !
 ! D5    D(5,1,17,18)          -92.4479         D2E/DX2 =    0.012              !
 ! D6    D(5,1,17,19)           27.8823         D2E/DX2 =    0.0125             !
 ! D7    D(5,1,17,20)          148.9407         D2E/DX2 =    0.0123             !
 ! D8    D(9,1,17,18)           86.0096         D2E/DX2 =    0.0122             !
 ! D9    D(9,1,17,19)         -153.6602         D2E/DX2 =    0.0123             !
 ! D10   D(9,1,17,20)          -32.6018         D2E/DX2 =    0.0126             !
 ! D11   D(10,2,4,11)            0.707          D2E/DX2 =    0.0117             !
 ! D12   D(10,2,4,14)          179.1346         D2E/DX2 =    0.01               !
 ! D13   D(13,2,4,11)         -178.1476         D2E/DX2 =    0.0193             !
 ! D14   D(13,2,4,14)            0.28           D2E/DX2 =    0.0121             !
 ! D15   D(4,2,13,12)           -1.5322         D2E/DX2 =    0.0128             !
 ! D16   D(4,2,13,15)          177.0836         D2E/DX2 =    0.0137             !
 ! D17   D(10,2,13,12)         179.5097         D2E/DX2 =    0.0096             !
 ! D18   D(10,2,13,15)          -1.8744         D2E/DX2 =    0.0146             !
 ! D19   D(7,3,6,5)            179.0204         D2E/DX2 =    0.0459             !
 ! D20   D(7,3,6,22)             1.5084         D2E/DX2 =    0.0236             !
 ! D21   D(8,3,6,5)             -1.5611         D2E/DX2 =    0.0333             !
 ! D22   D(8,3,6,22)          -179.0731         D2E/DX2 =    0.0238             !
 ! D23   D(6,3,8,11)            95.5121         D2E/DX2 =    0.1221             !
 ! D24   D(7,3,8,11)           -85.0478         D2E/DX2 =    0.0919             !
 ! D25   D(2,4,11,8)           -89.1069         D2E/DX2 =    0.0328             !
 ! D26   D(14,4,11,8)           92.6659         D2E/DX2 =    0.0228             !
 ! D27   D(2,4,14,12)            1.0573         D2E/DX2 =    0.0118             !
 ! D28   D(2,4,14,16)         -177.4493         D2E/DX2 =    0.0115             !
 ! D29   D(11,4,14,12)         179.6235         D2E/DX2 =    0.0169             !
 ! D30   D(11,4,14,16)           1.1169         D2E/DX2 =    0.0151             !
 ! D31   D(1,5,6,3)             14.7403         D2E/DX2 =    0.009              !
 ! D32   D(1,5,6,22)          -167.6913         D2E/DX2 =    0.0176             !
 ! D33   D(21,5,6,3)          -163.6376         D2E/DX2 =    0.0089             !
 ! D34   D(21,5,6,22)           13.9308         D2E/DX2 =    0.0102             !
 ! D35   D(3,8,11,4)           -58.6278         D2E/DX2 =    0.0484             !
 ! D36   D(14,12,13,2)           2.2184         D2E/DX2 =    0.0123             !
 ! D37   D(14,12,13,15)       -176.5299         D2E/DX2 =    0.0117             !
 ! D38   D(13,12,14,4)          -2.0513         D2E/DX2 =    0.0116             !
 ! D39   D(13,12,14,16)        176.6005         D2E/DX2 =    0.0121             !
 --------------------------------------------------------------------------------
 Trust Radius=1.00D-01 FncErr=1.00D-07 GrdErr=1.00D-06 EigMax=2.50D+02 EigMin=1.00D-04
 Number of steps in this run=     50 maximum allowed number of steps=    132.
 Search for a saddle point of order  1.
 GradGradGradGradGradGradGradGradGradGradGradGradGradGradGradGradGradGrad

                          Input orientation:                          
 ---------------------------------------------------------------------
 Center     Atomic      Atomic             Coordinates (Angstroms)
 Number     Number       Type             X           Y           Z
 ---------------------------------------------------------------------
      1          6           0       -2.286419    0.466142   -0.118305
      2          6           0        0.072616   -0.420622    1.923384
      3          6           0       -0.219926    2.740178   -0.125279
      4          6           0        0.948354    0.583429    1.994144
      5          6           0       -1.275478    0.633141   -0.987079
      6          6           0       -0.376583    1.790617   -1.059070
      7          1           0        0.490725    3.556458   -0.269571
      8          1           0       -0.796357    2.742982    0.804395
      9          1           0       -2.517593    1.276285    0.584180
     10          1           0       -0.775975   -0.650845    2.564646
     11          1           0        1.018304    1.394666    2.716209
     12          8           0        1.551085   -0.702308    0.169245
     13          6           0        0.453154   -1.278769    0.765640
     14          6           0        1.925786    0.417905    0.880648
     15          8           0       -0.024742   -2.296074    0.373294
     16          8           0        2.886670    1.058900    0.598974
     17          6           0       -3.159983   -0.749033   -0.054558
     18          1           0       -4.060332   -0.616549   -0.677676
     19          1           0       -2.629285   -1.644749   -0.408696
     20          1           0       -3.508515   -0.935799    0.971650
     21          1           0       -1.069893   -0.171520   -1.702347
     22          1           0        0.247087    1.845368   -1.957330
 ---------------------------------------------------------------------
                    Distance matrix (angstroms):
                    1          2          3          4          5
     1  C    0.000000
     2  C    3.243438   0.000000
     3  C    3.072732   3.777997   0.000000
     4  C    3.865223   1.334182   3.241666   0.000000
     5  C    1.343376   3.376176   2.509282   3.719622   0.000000
     6  C    2.507338   3.739838   1.340960   3.540462   1.467292
     7  H    4.157579   4.560815   1.091860   3.764668   3.489996
     8  H    2.873266   3.466358   1.093881   3.020461   2.808979
     9  H    1.096931   3.373743   2.815242   3.805369   2.103648
    10  H    3.275260   1.088267   4.363935   2.195954   3.809576
    11  H    4.451721   2.195033   3.379004   1.088291   4.422183
    12  O    4.021741   2.311325   3.882517   2.312285   3.333162
    13  C    3.366205   1.490502   4.171176   2.285219   3.116984
    14  C    4.329307   2.285752   3.317969   1.490854   3.712522
    15  O    3.603705   2.435072   5.064633   3.444649   3.463417
    16  O    5.256111   3.444118   3.605853   2.435086   4.474407
    17  C    1.497942   3.803920   4.563281   4.780278   2.516219
    18  H    2.152182   4.887245   5.130446   5.802198   3.068039
    19  H    2.158181   3.773242   5.011279   4.851589   2.712213
    20  H    2.155681   3.741083   5.052809   4.818425   3.359263
    21  H    2.096602   3.809634   3.418709   4.278705   1.096063
    22  H    3.420955   4.497232   2.091697   4.206948   2.174647
                    6          7          8          9         10
     6  C    0.000000
     7  H    2.119841   0.000000
     8  H    2.134411   1.863257   0.000000
     9  H    2.747495   3.870149   2.272080   0.000000
    10  H    4.387660   5.228643   3.823213   3.266391   0.000000
    11  H    4.044158   3.723784   2.960740   4.130633   2.725165
    12  O    3.382209   4.410670   4.217099   4.543253   3.340030
    13  C    3.665946   4.944946   4.211563   3.922571   2.267481
    14  C    3.308738   3.637708   3.580762   4.535231   3.358211
    15  O    4.344709   5.910254   5.115987   4.361253   2.841329
    16  O    3.732739   3.568293   4.054999   5.408654   4.494670
    17  C    3.899510   5.648996   4.303336   2.218686   3.543073
    18  H    4.417003   6.188106   4.912893   2.748663   4.615283
    19  H    4.159253   6.066825   4.907484   3.087186   3.641891
    20  H    4.622355   6.141248   4.573533   2.454665   3.175785
    21  H    2.178179   4.287913   3.853946   3.069231   4.303879
    22  H    1.094913   2.415723   3.085711   3.798234   5.265549
                   11         12         13         14         15
    11  H    0.000000
    12  O    3.341883   0.000000
    13  C    3.357286   1.376026   0.000000
    14  C    2.268672   1.378902   2.249571   0.000000
    15  O    4.494303   2.250546   1.190474   3.380480   0.000000
    16  O    2.843627   2.251735   3.378531   1.188913   4.447820
    17  C    5.452584   4.716613   3.742740   5.301075   3.522234
    18  H    6.430862   5.675618   4.784690   6.271529   4.495702
    19  H    5.684011   4.324085   3.318801   5.163876   2.796316
    20  H    5.382067   5.128151   3.981820   5.601109   3.787487
    21  H    5.131973   3.264065   3.104293   3.999172   3.148708
    22  H    4.758138   3.565584   4.149369   3.593021   4.759962
                   16         17         18         19         20
    16  O    0.000000
    17  C    6.344899   0.000000
    18  H    7.259326   1.102931   0.000000
    19  H    6.225021   1.099709   1.782537   0.000000
    20  H    6.709404   1.099754   1.768248   1.783539   0.000000
    21  H    4.739663   2.723455   3.192292   2.505123   3.698819
    22  H    3.757742   4.686106   5.123710   4.780450   5.515285
                   21         22
    21  H    0.000000
    22  H    2.422249   0.000000
 Stoichiometry    C9H10O3
 Framework group  C1[X(C9H10O3)]
 Deg. of freedom    60
 Full point group                 C1      NOp   1
 Largest Abelian subgroup         C1      NOp   1
 Largest concise Abelian subgroup C1      NOp   1
                         Standard orientation:                         
 ---------------------------------------------------------------------
 Center     Atomic      Atomic             Coordinates (Angstroms)
 Number     Number       Type             X           Y           Z
 ---------------------------------------------------------------------
      1          6           0       -2.237538    0.592366    0.278090
      2          6           0        0.370092   -1.078117    1.242269
      3          6           0        0.103636    2.581450    0.342367
      4          6           0        1.386464   -0.220376    1.348606
      5          6           0       -1.452338    0.945750   -0.753045
      6          6           0       -0.423573    1.991901   -0.740525
      7          1           0        0.880063    3.342795    0.244027
      8          1           0       -0.223740    2.335082    1.356617
      9          1           0       -2.159646    1.153909    1.217164
     10          1           0       -0.324650   -1.432001    2.001496
     11          1           0        1.757487    0.312294    2.222095
     12          8           0        1.317572   -0.905297   -0.858835
     13          6           0        0.317809   -1.552628   -0.169717
     14          6           0        2.027299   -0.101179    0.007798
     15          8           0       -0.397336   -2.352383   -0.685653
     16          8           0        2.982041    0.518281   -0.336078
     17          6           0       -3.253298   -0.507709    0.234557
     18          1           0       -4.243961   -0.114273   -0.048731
     19          1           0       -2.974303   -1.284031   -0.492660
     20          1           0       -3.369685   -0.981782    1.220036
     21          1           0       -1.556924    0.395453   -1.695163
     22          1           0       -0.034180    2.279007   -1.722756
 ---------------------------------------------------------------------
 Rotational constants (GHZ):           1.2002681           0.8289172           0.6056160
 Basis read from chk: "da-2_1_opt_sqm.chk" (5D, 7F)
 Pseudo-potential data read from chk file.
 There are   230 symmetry adapted cartesian basis functions of A   symmetry.
 There are   218 symmetry adapted basis functions of A   symmetry.
   218 basis functions,   370 primitive gaussians,   230 cartesian basis functions
    44 alpha electrons       44 beta electrons
       nuclear repulsion energy       685.7735461814 Hartrees.
 NAtoms=   22 NActive=   22 NUniq=   22 SFac= 1.00D+00 NAtFMM=   60 NAOKFM=F Big=F
 Integral buffers will be    131072 words long.
 Raffenetti 2 integral format.
 Two-electron integral symmetry is turned on.
 Nuclear repulsion after empirical dispersion term =      685.7582817485 Hartrees.
 ------------------------------------------------------------------------------
 Polarizable Continuum Model (PCM)
 =================================
 Model                : PCM.
 Atomic radii         : UFF (Universal Force Field).
 Polarization charges : Total charges.
 Charge compensation  : None.
 Solution method      : On-the-fly selection.
 Cavity type          : Scaled VdW (van der Waals Surface) (Alpha=1.100).
 Cavity algorithm     : GePol (No added spheres)
                        Default sphere list used, NSphG=   22.
                        Lebedev-Laikov grids with approx.  5.0 points / Ang**2.
                        Smoothing algorithm: York/Karplus (Gamma=1.0000).
                        Polarization charges: spherical gaussians, with
                                              point-specific exponents (IZeta= 3).
                        Self-potential: point-specific (ISelfS= 7).
                        Self-field    : sphere-specific E.n sum rule (ISelfD= 2).
 1st derivatives      : Analytical E(r).r(x)/FMM algorithm (CHGder, D1EAlg=3).
                        Cavity 1st derivative terms included.
 Solvent              : Toluene, Eps=   2.374100 Eps(inf)=   2.238315
 ------------------------------------------------------------------------------
 One-electron integrals computed using PRISM.
   1 Symmetry operations used in ECPInt.
 ECPInt:  NShTT=    5253 NPrTT=   19101 LenC2=    5147 LenP2D=   14264.
 LDataN:  DoStor=T MaxTD1= 4 Len=   56
 NBasis=   218 RedAO= T EigKep=  5.26D-04  NBF=   218
 NBsUse=   218 1.00D-06 EigRej= -1.00D+00 NBFU=   218
 Initial guess from the checkpoint file:  "da-2_1_opt_sqm.chk"
 B after Tr=    -0.000000   -0.000000    0.000000
         Rot=    1.000000   -0.000000   -0.000000   -0.000000 Ang=   0.00 deg.
 Requested convergence on RMS density matrix=1.00D-08 within 128 cycles.
 Requested convergence on MAX density matrix=1.00D-06.
 Requested convergence on             energy=1.00D-06.
 No special actions if energy rises.
 Inv3:  Mode=1 IEnd=     9784908.
 Iteration    1 A*A^-1 deviation from unit magnitude is 3.55D-15 for    209.
 Iteration    1 A*A^-1 deviation from orthogonality  is 1.78D-15 for   1682    573.
 Iteration    1 A^-1*A deviation from unit magnitude is 3.33D-15 for    209.
 Iteration    1 A^-1*A deviation from orthogonality  is 1.82D-15 for   1418   1266.
 Error on total polarization charges =  0.00620
 SCF Done:  E(RwB97XD) =  -573.999682015     A.U. after    1 cycles
            NFock=  1  Conv=0.30D-08     -V/T= 2.0097

 **********************************************************************

            Population analysis using the SCF Density.

 **********************************************************************

 Orbital symmetries:
       Occupied  (A) (A) (A) (A) (A) (A) (A) (A) (A) (A) (A) (A)
                 (A) (A) (A) (A) (A) (A) (A) (A) (A) (A) (A) (A)
                 (A) (A) (A) (A) (A) (A) (A) (A) (A) (A) (A) (A)
                 (A) (A) (A) (A) (A) (A) (A) (A)
       Virtual   (A) (A) (A) (A) (A) (A) (A) (A) (A) (A) (A) (A)
                 (A) (A) (A) (A) (A) (A) (A) (A) (A) (A) (A) (A)
                 (A) (A) (A) (A) (A) (A) (A) (A) (A) (A) (A) (A)
                 (A) (A) (A) (A) (A) (A) (A) (A) (A) (A) (A) (A)
                 (A) (A) (A) (A) (A) (A) (A) (A) (A) (A) (A) (A)
                 (A) (A) (A) (A) (A) (A) (A) (A) (A) (A) (A) (A)
                 (A) (A) (A) (A) (A) (A) (A) (A) (A) (A) (A) (A)
                 (A) (A) (A) (A) (A) (A) (A) (A) (A) (A) (A) (A)
                 (A) (A) (A) (A) (A) (A) (A) (A) (A) (A) (A) (A)
                 (A) (A) (A) (A) (A) (A) (A) (A) (A) (A) (A) (A)
                 (A) (A) (A) (A) (A) (A) (A) (A) (A) (A) (A) (A)
                 (A) (A) (A) (A) (A) (A) (A) (A) (A) (A) (A) (A)
                 (A) (A) (A) (A) (A) (A) (A) (A) (A) (A) (A) (A)
                 (A) (A) (A) (A) (A) (A) (A) (A) (A) (A) (A) (A)
                 (A) (A) (A) (A) (A) (A)
 The electronic state is 1-A.
 Alpha  occ. eigenvalues --  -19.33296 -19.28002 -19.27889 -10.46127 -10.46031
 Alpha  occ. eigenvalues --  -10.35525 -10.35434 -10.31479 -10.31272 -10.30585
 Alpha  occ. eigenvalues --  -10.30460 -10.30023  -1.25190  -1.17972  -1.14143
 Alpha  occ. eigenvalues --   -0.94339  -0.91196  -0.85505  -0.79628  -0.77626
 Alpha  occ. eigenvalues --   -0.73517  -0.69319  -0.68765  -0.62124  -0.60589
 Alpha  occ. eigenvalues --   -0.60446  -0.57568  -0.56916  -0.55601  -0.54280
 Alpha  occ. eigenvalues --   -0.53376  -0.51853  -0.50475  -0.50142  -0.49572
 Alpha  occ. eigenvalues --   -0.47700  -0.43633  -0.43544  -0.43050  -0.41754
 Alpha  occ. eigenvalues --   -0.41100  -0.39177  -0.38146  -0.31153
 Alpha virt. eigenvalues --   -0.03779   0.02629   0.10905   0.12240   0.13583
 Alpha virt. eigenvalues --    0.14953   0.16126   0.16387   0.17319   0.19166
 Alpha virt. eigenvalues --    0.21110   0.22024   0.22868   0.23339   0.25007
 Alpha virt. eigenvalues --    0.26248   0.26930   0.29219   0.32096   0.33442
 Alpha virt. eigenvalues --    0.34481   0.37187   0.39314   0.39990   0.44115
 Alpha virt. eigenvalues --    0.45110   0.46680   0.47717   0.49181   0.49604
 Alpha virt. eigenvalues --    0.50376   0.52313   0.53269   0.54875   0.56905
 Alpha virt. eigenvalues --    0.57658   0.59764   0.60552   0.62779   0.63655
 Alpha virt. eigenvalues --    0.65601   0.69647   0.70341   0.71297   0.71383
 Alpha virt. eigenvalues --    0.72010   0.72691   0.73336   0.73841   0.74543
 Alpha virt. eigenvalues --    0.75874   0.75906   0.76905   0.77493   0.78013
 Alpha virt. eigenvalues --    0.78972   0.80237   0.80944   0.81163   0.85698
 Alpha virt. eigenvalues --    0.86986   0.88062   0.90031   0.90995   0.91721
 Alpha virt. eigenvalues --    0.98480   1.01865   1.04155   1.05564   1.08424
 Alpha virt. eigenvalues --    1.11336   1.11656   1.12913   1.16213   1.18611
 Alpha virt. eigenvalues --    1.20801   1.22520   1.23675   1.24462   1.27701
 Alpha virt. eigenvalues --    1.29586   1.30978   1.31718   1.35583   1.38506
 Alpha virt. eigenvalues --    1.40012   1.44437   1.45538   1.48007   1.55803
 Alpha virt. eigenvalues --    1.58842   1.60928   1.61675   1.62956   1.66101
 Alpha virt. eigenvalues --    1.67646   1.68612   1.69739   1.71522   1.74274
 Alpha virt. eigenvalues --    1.77734   1.78494   1.80065   1.81046   1.84196
 Alpha virt. eigenvalues --    1.85897   1.86718   1.87739   1.88335   1.89485
 Alpha virt. eigenvalues --    1.90299   1.91545   1.92756   1.94854   1.96783
 Alpha virt. eigenvalues --    1.97000   1.98052   2.00791   2.02845   2.03939
 Alpha virt. eigenvalues --    2.10190   2.10524   2.12783   2.13415   2.17325
 Alpha virt. eigenvalues --    2.18846   2.19679   2.22125   2.26579   2.28659
 Alpha virt. eigenvalues --    2.31424   2.32383   2.35073   2.38369   2.38667
 Alpha virt. eigenvalues --    2.44462   2.46456   2.47123   2.48794   2.53480
 Alpha virt. eigenvalues --    2.55428   2.61608   2.62712   2.65147   2.67329
 Alpha virt. eigenvalues --    2.69689   2.70972   2.72174   2.74580   2.77286
 Alpha virt. eigenvalues --    2.80231   2.80330   2.82046   2.85734   2.86929
 Alpha virt. eigenvalues --    2.91414   2.95181   3.00242   3.02113   3.03686
 Alpha virt. eigenvalues --    3.05781   3.10043   3.18274   3.25006   3.27055
 Alpha virt. eigenvalues --    3.28430   3.29106   3.34579   3.42721   3.50668
 Alpha virt. eigenvalues --    3.52317   3.73272   3.76525   3.78996
          Condensed to atoms (all electrons):
               1          2          3          4          5          6
     1  C    4.925404   0.006694  -0.021235  -0.004836   0.583187  -0.044459
     2  C    0.006694   5.360529  -0.005656   0.240772   0.004193  -0.006204
     3  C   -0.021235  -0.005656   4.778841   0.005680  -0.056245   0.638727
     4  C   -0.004836   0.240772   0.005680   5.396790  -0.008636   0.004893
     5  C    0.583187   0.004193  -0.056245  -0.008636   4.926306   0.345421
     6  C   -0.044459  -0.006204   0.638727   0.004893   0.345421   4.779504
     7  H   -0.000228   0.000211   0.391703  -0.000950   0.009856  -0.014893
     8  H    0.011489  -0.002459   0.380217   0.006145  -0.030081  -0.004614
     9  H    0.393688   0.001433   0.008494  -0.000846  -0.020594  -0.022277
    10  H    0.000891   0.428556  -0.000098  -0.045995  -0.000234  -0.000032
    11  H   -0.000096  -0.047849   0.000126   0.430314  -0.000047   0.000206
    12  O   -0.001011  -0.106026  -0.002245  -0.110563   0.001942   0.003930
    13  C    0.001316   0.232703   0.000263   0.026797   0.001921  -0.000144
    14  C   -0.000117   0.028659   0.003624   0.215160   0.001018   0.000104
    15  O   -0.000689  -0.074666   0.000040   0.003828  -0.004286   0.000067
    16  O    0.000013   0.004414   0.000093  -0.077688   0.000051  -0.002751
    17  C    0.388199  -0.002379   0.000118   0.000421  -0.054350   0.008613
    18  H   -0.016104   0.000049   0.000038  -0.000012  -0.006133  -0.000400
    19  H   -0.020980  -0.001031   0.000022   0.000021  -0.013464   0.000521
    20  H   -0.018343  -0.000279   0.000016   0.000110   0.007006  -0.000288
    21  H   -0.055645   0.000127   0.009901  -0.000110   0.413303  -0.036925
    22  H    0.011445  -0.000066  -0.050275   0.000316  -0.045477   0.417437
               7          8          9         10         11         12
     1  C   -0.000228   0.011489   0.393688   0.000891  -0.000096  -0.001011
     2  C    0.000211  -0.002459   0.001433   0.428556  -0.047849  -0.106026
     3  C    0.391703   0.380217   0.008494  -0.000098   0.000126  -0.002245
     4  C   -0.000950   0.006145  -0.000846  -0.045995   0.430314  -0.110563
     5  C    0.009856  -0.030081  -0.020594  -0.000234  -0.000047   0.001942
     6  C   -0.014893  -0.004614  -0.022277  -0.000032   0.000206   0.003930
     7  H    0.601150  -0.041216  -0.000079   0.000000   0.000088   0.000004
     8  H   -0.041216   0.627116   0.002149  -0.000027   0.000353   0.000036
     9  H   -0.000079   0.002149   0.638285  -0.000042  -0.000032  -0.000005
    10  H    0.000000  -0.000027  -0.000042   0.566138  -0.005354   0.002879
    11  H    0.000088   0.000353  -0.000032  -0.005354   0.564470   0.002929
    12  O    0.000004   0.000036  -0.000005   0.002879   0.002929   8.024131
    13  C   -0.000027   0.000314  -0.000398  -0.033343   0.009258   0.303355
    14  C    0.000907  -0.002288   0.000094   0.009082  -0.033649   0.300773
    15  O    0.000000  -0.000002  -0.000005   0.001575  -0.000045  -0.064728
    16  O    0.000353  -0.000012   0.000001  -0.000046   0.001798  -0.065822
    17  C   -0.000004   0.000012  -0.042927  -0.000007  -0.000004   0.000048
    18  H    0.000001   0.000010   0.000847  -0.000005  -0.000000  -0.000000
    19  H    0.000000   0.000001   0.005401   0.000091   0.000001   0.000004
    20  H   -0.000001  -0.000002  -0.008083   0.000722   0.000001   0.000002
    21  H   -0.000201  -0.000044   0.007779  -0.000055   0.000003  -0.000783
    22  H   -0.013434   0.007698  -0.000027   0.000003  -0.000016  -0.000085
              13         14         15         16         17         18
     1  C    0.001316  -0.000117  -0.000689   0.000013   0.388199  -0.016104
     2  C    0.232703   0.028659  -0.074666   0.004414  -0.002379   0.000049
     3  C    0.000263   0.003624   0.000040   0.000093   0.000118   0.000038
     4  C    0.026797   0.215160   0.003828  -0.077688   0.000421  -0.000012
     5  C    0.001921   0.001018  -0.004286   0.000051  -0.054350  -0.006133
     6  C   -0.000144   0.000104   0.000067  -0.002751   0.008613  -0.000400
     7  H   -0.000027   0.000907   0.000000   0.000353  -0.000004   0.000001
     8  H    0.000314  -0.002288  -0.000002  -0.000012   0.000012   0.000010
     9  H   -0.000398   0.000094  -0.000005   0.000001  -0.042927   0.000847
    10  H   -0.033343   0.009082   0.001575  -0.000046  -0.000007  -0.000005
    11  H    0.009258  -0.033649  -0.000045   0.001798  -0.000004  -0.000000
    12  O    0.303355   0.300773  -0.064728  -0.065822   0.000048  -0.000000
    13  C    4.507204  -0.082832   0.739721   0.000239  -0.000060   0.000068
    14  C   -0.082832   4.505980   0.000576   0.758127  -0.000029   0.000001
    15  O    0.739721   0.000576   7.566240  -0.000014  -0.001332   0.000036
    16  O    0.000239   0.758127  -0.000014   7.551537  -0.000000   0.000000
    17  C   -0.000060  -0.000029  -0.001332  -0.000000   4.560321   0.389038
    18  H    0.000068   0.000001   0.000036   0.000000   0.389038   0.602520
    19  H    0.000659   0.000009   0.008550   0.000000   0.399039  -0.016937
    20  H   -0.000051  -0.000003  -0.000019  -0.000000   0.386352  -0.020009
    21  H    0.003227  -0.000146   0.000988   0.000004  -0.011405   0.000362
    22  H   -0.000041   0.000063  -0.000005   0.000187  -0.000226   0.000013
              19         20         21         22
     1  C   -0.020980  -0.018343  -0.055645   0.011445
     2  C   -0.001031  -0.000279   0.000127  -0.000066
     3  C    0.000022   0.000016   0.009901  -0.050275
     4  C    0.000021   0.000110  -0.000110   0.000316
     5  C   -0.013464   0.007006   0.413303  -0.045477
     6  C    0.000521  -0.000288  -0.036925   0.417437
     7  H    0.000000  -0.000001  -0.000201  -0.013434
     8  H    0.000001  -0.000002  -0.000044   0.007698
     9  H    0.005401  -0.008083   0.007779  -0.000027
    10  H    0.000091   0.000722  -0.000055   0.000003
    11  H    0.000001   0.000001   0.000003  -0.000016
    12  O    0.000004   0.000002  -0.000783  -0.000085
    13  C    0.000659  -0.000051   0.003227  -0.000041
    14  C    0.000009  -0.000003  -0.000146   0.000063
    15  O    0.008550  -0.000019   0.000988  -0.000005
    16  O    0.000000  -0.000000   0.000004   0.000187
    17  C    0.399039   0.386352  -0.011405  -0.000226
    18  H   -0.016937  -0.020009   0.000362   0.000013
    19  H    0.597543  -0.022237   0.004899  -0.000003
    20  H   -0.022237   0.631751   0.000162   0.000004
    21  H    0.004899   0.000162   0.636138  -0.009961
    22  H   -0.000003   0.000004  -0.009961   0.635546
 Mulliken charges:
               1
     1  C   -0.138582
     2  C   -0.061725
     3  C   -0.082149
     4  C   -0.081612
     5  C   -0.054657
     6  C   -0.066436
     7  H    0.066761
     8  H    0.045207
     9  H    0.037142
    10  H    0.075302
    11  H    0.077546
    12  O   -0.288767
    13  C    0.289851
    14  C    0.294886
    15  O   -0.175830
    16  O   -0.170484
    17  C   -0.019437
    18  H    0.066618
    19  H    0.057892
    20  H    0.043189
    21  H    0.038382
    22  H    0.046904
 Sum of Mulliken charges =  -0.00000
 Mulliken charges with hydrogens summed into heavy atoms:
               1
     1  C   -0.101440
     2  C    0.013577
     3  C    0.029819
     4  C   -0.004066
     5  C   -0.016275
     6  C   -0.019532
    12  O   -0.288767
    13  C    0.289851
    14  C    0.294886
    15  O   -0.175830
    16  O   -0.170484
    17  C    0.148261
 Electronic spatial extent (au):  <R**2>=           1999.6154
 Charge=             -0.0000 electrons
 Dipole moment (field-independent basis, Debye):
    X=             -2.0002    Y=              0.7916    Z=              4.1624  Tot=              4.6855
 Quadrupole moment (field-independent basis, Debye-Ang):
   XX=            -75.1968   YY=            -74.8306   ZZ=            -64.7692
   XY=             -1.2252   XZ=              3.2035   YZ=             -3.5859
 Traceless Quadrupole moment (field-independent basis, Debye-Ang):
   XX=             -3.5980   YY=             -3.2317   ZZ=              6.8297
   XY=             -1.2252   XZ=              3.2035   YZ=             -3.5859
 Octapole moment (field-independent basis, Debye-Ang**2):
  XXX=            -28.4116  YYY=              2.3506  ZZZ=              4.1551  XYY=             16.4936
  XXY=            -15.6461  XXZ=             11.3382  XZZ=              2.9744  YZZ=              1.3335
  YYZ=              7.3380  XYZ=              1.4578
 Hexadecapole moment (field-independent basis, Debye-Ang**3):
 XXXX=          -1429.2657 YYYY=           -934.1612 ZZZZ=           -307.0357 XXXY=             -9.9726
 XXXZ=             12.1848 YYYX=             23.9014 YYYZ=             -7.3499 ZZZX=              1.0695
 ZZZY=              0.9277 XXYY=           -388.4924 XXZZ=           -277.2436 YYZZ=           -199.9341
 XXYZ=              9.5684 YYXZ=            -10.4648 ZZXY=             11.1375
 N-N= 6.857582817485D+02 E-N=-2.708640570367D+03  KE= 5.684989222129D+02
   1 Symmetry operations used in ECPInt.
 ECPInt:  NShTT=    5253 NPrTT=   19101 LenC2=    5147 LenP2D=   14264.
 LDataN:  DoStor=T MaxTD1= 5 Len=  102
 D1PCM: PCM CHGder 1st derivatives, ID1Alg=3 FixD1E=F DoIter=F DoCFld=F I1PDM=0.
 Calling FoFJK, ICntrl=      2127 FMM=F ISym2X=0 I1Cent= 0 IOpClX= 0 NMat=1 NMatS=1 NMatT=0.
 ***** Axes restored to original set *****
 -------------------------------------------------------------------
 Center     Atomic                   Forces (Hartrees/Bohr)
 Number     Number              X              Y              Z
 -------------------------------------------------------------------
      1        6           0.000381076   -0.000123537    0.000118789
      2        6           0.000028830    0.000165723   -0.000159927
      3        6          -0.000299325   -0.000001032   -0.000252989
      4        6           0.000189918   -0.000480158    0.000215077
      5        6           0.000528654   -0.000633061    0.000759900
      6        6           0.000156181    0.000195879    0.000296800
      7        1           0.000012825    0.000144844   -0.000009742
      8        1           0.000234116   -0.000107706    0.000228450
      9        1          -0.000590172    0.000327619   -0.000532652
     10        1           0.000077444   -0.000023595   -0.000001416
     11        1          -0.000239037    0.000269165   -0.000485177
     12        8          -0.000006766   -0.000008907    0.000232574
     13        6          -0.000117797    0.000288561   -0.000394104
     14        6          -0.000177509   -0.000204654   -0.000025900
     15        8          -0.000165769    0.000473861    0.000075944
     16        8          -0.000187880   -0.000018023    0.000002140
     17        6           0.000326827   -0.000154738   -0.000123101
     18        1          -0.000378375    0.000186080    0.000458696
     19        1          -0.000227464    0.000136371   -0.000507502
     20        1           0.000316831   -0.000319091    0.000161365
     21        1          -0.000045568    0.000016003   -0.000083925
     22        1           0.000182961   -0.000129604    0.000026701
 -------------------------------------------------------------------
 Cartesian Forces:  Max     0.000759900 RMS     0.000280124

 GradGradGradGradGradGradGradGradGradGradGradGradGradGradGradGradGradGrad
 Berny optimization.
 FormGI is forming the generalized inverse of G from B-inverse, IUseBI=4.
 Internal  Forces:  Max     0.004356336 RMS     0.000650300
 Search for a saddle point.
 Step number   1 out of a maximum of   50
 All quantities printed in internal units (Hartrees-Bohrs-Radians)
 Swapping is turned off.
 Second derivative matrix not updated -- first step.
 ITU=  0
     Eigenvalues ---   -0.00003   0.00022   0.00282   0.00982   0.01280
     Eigenvalues ---    0.01322   0.01717   0.01964   0.02052   0.02335
     Eigenvalues ---    0.02503   0.02749   0.03043   0.03344   0.04031
     Eigenvalues ---    0.04534   0.04605   0.05138   0.05375   0.05646
     Eigenvalues ---    0.08668   0.09010   0.09157   0.10475   0.11137
     Eigenvalues ---    0.11409   0.11576   0.11820   0.11884   0.12065
     Eigenvalues ---    0.12864   0.13548   0.14149   0.14416   0.18407
     Eigenvalues ---    0.19300   0.21983   0.25008   0.26439   0.26473
     Eigenvalues ---    0.26921   0.27407   0.27857   0.27922   0.28364
     Eigenvalues ---    0.28549   0.29299   0.31505   0.36534   0.39767
     Eigenvalues ---    0.40217   0.44892   0.45942   0.48961   0.70639
     Eigenvalues ---    0.71405   0.73965   0.78454   0.83215   0.90973
 Eigenvectors required to have negative eigenvalues:
                          D32       D31       R15       D34       D33
   1                    0.41969   0.41821  -0.38349   0.38104   0.37956
                          A19       D8        D5        D9        D6
   1                    0.26596  -0.14531  -0.14402  -0.14322  -0.14193
 RFO step:  Lambda0=3.237376229D-04 Lambda=-1.32422835D-03.
 Linear search not attempted -- option 19 set.
 Maximum step size (   0.100) exceeded in Quadratic search.
    -- Step size scaled by   0.240
 Iteration  1 RMS(Cart)=  0.06385636 RMS(Int)=  0.00249011
 Iteration  2 RMS(Cart)=  0.00283010 RMS(Int)=  0.00000537
 Iteration  3 RMS(Cart)=  0.00000733 RMS(Int)=  0.00000100
 Iteration  4 RMS(Cart)=  0.00000000 RMS(Int)=  0.00000100
 Variable       Old X    -DE/DX   Delta X   Delta X   Delta X     New X
                                 (Linear)    (Quad)   (Total)
    R1        2.53861  -0.00015   0.00000   0.00045   0.00045   2.53906
    R2        2.07290   0.00003   0.00000   0.00009   0.00009   2.07299
    R3        2.83070   0.00010   0.00000  -0.00186  -0.00186   2.82884
    R4        2.52124  -0.00036   0.00000   0.00026   0.00026   2.52150
    R5        2.05653  -0.00006   0.00000  -0.00008  -0.00008   2.05645
    R6        2.81664  -0.00033   0.00000  -0.00033  -0.00033   2.81631
    R7        2.53405  -0.00012   0.00000   0.00046   0.00046   2.53450
    R8        2.06332   0.00012   0.00000  -0.00005  -0.00005   2.06327
    R9        2.06713  -0.00007   0.00000   0.00006   0.00006   2.06719
   R10        2.05657  -0.00009   0.00000  -0.00001  -0.00001   2.05656
   R11        2.81730  -0.00020   0.00000  -0.00049  -0.00049   2.81681
   R12        2.77278   0.00027   0.00000  -0.00019  -0.00019   2.77259
   R13        2.07126   0.00003   0.00000  -0.00058  -0.00058   2.07068
   R14        2.06908   0.00008   0.00000  -0.00038  -0.00038   2.06871
   R15        5.59499  -0.00093   0.00000   0.06365   0.06365   5.65864
   R16        2.60031  -0.00022   0.00000   0.00066   0.00066   2.60097
   R17        2.60575  -0.00018   0.00000  -0.00082  -0.00082   2.60492
   R18        2.24967  -0.00036   0.00000  -0.00038  -0.00038   2.24929
   R19        2.24672  -0.00016   0.00000   0.00018   0.00018   2.24690
   R20        2.08424   0.00007   0.00000  -0.00004  -0.00004   2.08420
   R21        2.07815  -0.00006   0.00000  -0.00053  -0.00053   2.07761
   R22        2.07823   0.00011   0.00000   0.00077   0.00077   2.07901
    A1        2.07252   0.00017   0.00000   0.00233   0.00233   2.07485
    A2        2.17393  -0.00018   0.00000   0.00056   0.00056   2.17450
    A3        2.03642   0.00001   0.00000  -0.00288  -0.00288   2.03354
    A4        2.26501  -0.00001   0.00000  -0.00050  -0.00050   2.26450
    A5        1.88273   0.00003   0.00000   0.00028   0.00028   1.88300
    A6        2.13528  -0.00001   0.00000   0.00016   0.00016   2.13544
    A7        2.10995  -0.00009   0.00000  -0.00174  -0.00174   2.10820
    A8        2.13185   0.00030   0.00000   0.00299   0.00299   2.13484
    A9        2.04135  -0.00020   0.00000  -0.00127  -0.00128   2.04007
   A10        2.26315  -0.00038   0.00000   0.00044   0.00044   2.26359
   A11        1.88302  -0.00002   0.00000  -0.00023  -0.00023   1.88278
   A12        2.13669   0.00042   0.00000  -0.00016  -0.00016   2.13653
   A13        2.20287   0.00047   0.00000   0.00310   0.00309   2.20596
   A14        2.06226  -0.00023   0.00000  -0.00191  -0.00191   2.06035
   A15        2.01773  -0.00024   0.00000  -0.00132  -0.00133   2.01640
   A16        2.20931   0.00043   0.00000   0.00497   0.00497   2.21429
   A17        2.05933  -0.00018   0.00000  -0.00234  -0.00234   2.05700
   A18        2.01380  -0.00026   0.00000  -0.00258  -0.00258   2.01122
   A19        1.79737  -0.00123   0.00000  -0.07023  -0.07023   1.72714
   A20        1.44208  -0.00436   0.00000   0.01851   0.01851   1.46060
   A21        1.91086  -0.00010   0.00000   0.00018   0.00018   1.91104
   A22        1.87462   0.00007   0.00000  -0.00051  -0.00051   1.87411
   A23        2.27247  -0.00024   0.00000   0.00018   0.00018   2.27265
   A24        2.13584   0.00018   0.00000   0.00029   0.00029   2.13613
   A25        1.87274   0.00003   0.00000   0.00029   0.00029   1.87302
   A26        2.27439  -0.00004   0.00000   0.00013   0.00013   2.27453
   A27        2.13576   0.00002   0.00000  -0.00039  -0.00039   2.13538
   A28        1.93325   0.00007   0.00000  -0.00131  -0.00131   1.93194
   A29        1.94509   0.00003   0.00000   0.00112   0.00112   1.94621
   A30        1.94153   0.00004   0.00000  -0.00013  -0.00013   1.94139
   A31        1.88583  -0.00003   0.00000   0.00252   0.00252   1.88835
   A32        1.86385  -0.00011   0.00000  -0.00048  -0.00048   1.86337
   A33        1.89137  -0.00000   0.00000  -0.00172  -0.00172   1.88965
    D1        0.05681   0.00006   0.00000  -0.00455  -0.00455   0.05226
    D2       -3.11374  -0.00008   0.00000  -0.01045  -0.01045  -3.12419
    D3       -3.11222   0.00005   0.00000  -0.00430  -0.00430  -3.11652
    D4        0.00042  -0.00008   0.00000  -0.01019  -0.01019  -0.00977
    D5       -1.61352  -0.00056   0.00000  -0.06177  -0.06177  -1.67529
    D6        0.48664  -0.00053   0.00000  -0.05872  -0.05872   0.42792
    D7        2.59951  -0.00049   0.00000  -0.06023  -0.06023   2.53927
    D8        1.50115  -0.00057   0.00000  -0.06145  -0.06145   1.43971
    D9       -2.68188  -0.00054   0.00000  -0.05839  -0.05839  -2.74027
   D10       -0.56901  -0.00050   0.00000  -0.05991  -0.05991  -0.62892
   D11        0.01234  -0.00046   0.00000  -0.00372  -0.00372   0.00862
   D12        3.12649   0.00021   0.00000  -0.00188  -0.00188   3.12461
   D13       -3.10926  -0.00086   0.00000   0.00006   0.00006  -3.10921
   D14        0.00489  -0.00019   0.00000   0.00190   0.00190   0.00679
   D15       -0.02674   0.00025   0.00000  -0.00146  -0.00146  -0.02820
   D16        3.09069   0.00032   0.00000  -0.00364  -0.00364   3.08706
   D17        3.13304  -0.00012   0.00000   0.00199   0.00199   3.13503
   D18       -0.03272  -0.00005   0.00000  -0.00019  -0.00019  -0.03290
   D19        3.12450  -0.00103   0.00000  -0.00494  -0.00494   3.11955
   D20        0.02633  -0.00054   0.00000  -0.00663  -0.00663   0.01970
   D21       -0.02725  -0.00049   0.00000  -0.00838  -0.00838  -0.03563
   D22       -3.12542   0.00000   0.00000  -0.01007  -0.01007  -3.13548
   D23        1.66700  -0.00230   0.00000   0.00792   0.00792   1.67492
   D24       -1.48436  -0.00177   0.00000   0.00461   0.00461  -1.47976
   D25       -1.55521   0.00083   0.00000   0.01981   0.01981  -1.53540
   D26        1.61733   0.00009   0.00000   0.01773   0.01773   1.63506
   D27        0.01845   0.00008   0.00000  -0.00172  -0.00172   0.01673
   D28       -3.09707  -0.00022   0.00000  -0.00316  -0.00316  -3.10023
   D29        3.13502   0.00067   0.00000  -0.00003  -0.00003   3.13499
   D30        0.01949   0.00038   0.00000  -0.00146  -0.00146   0.01803
   D31        0.25727  -0.00006   0.00000  -0.09524  -0.09524   0.16203
   D32       -2.92677  -0.00054   0.00000  -0.09359  -0.09359  -3.02036
   D33       -2.85601   0.00007   0.00000  -0.08947  -0.08947  -2.94548
   D34        0.24314  -0.00041   0.00000  -0.08782  -0.08782   0.15532
   D35       -1.02325  -0.00120   0.00000  -0.02812  -0.02812  -1.05137
   D36        0.03872  -0.00021   0.00000   0.00034   0.00034   0.03906
   D37       -3.08103  -0.00026   0.00000   0.00231   0.00231  -3.07872
   D38       -0.03580   0.00009   0.00000   0.00077   0.00077  -0.03503
   D39        3.08226   0.00036   0.00000   0.00207   0.00207   3.08433
         Item               Value     Threshold  Converged?
 Maximum Force            0.004356     0.000450     NO 
 RMS     Force            0.000650     0.000300     NO 
 Maximum Displacement     0.264927     0.001800     NO 
 RMS     Displacement     0.064434     0.001200     NO 
 Predicted change in Energy=-2.620118D-04
 GradGradGradGradGradGradGradGradGradGradGradGradGradGradGradGradGradGrad

                          Input orientation:                          
 ---------------------------------------------------------------------
 Center     Atomic      Atomic             Coordinates (Angstroms)
 Number     Number       Type             X           Y           Z
 ---------------------------------------------------------------------
      1          6           0       -2.252899    0.441255   -0.107256
      2          6           0        0.057837   -0.392949    1.941757
      3          6           0       -0.235885    2.760998   -0.119834
      4          6           0        0.945344    0.602794    1.976966
      5          6           0       -1.268030    0.645332   -0.998146
      6          6           0       -0.361774    1.798222   -1.045055
      7          1           0        0.489161    3.567322   -0.247331
      8          1           0       -0.852533    2.788409    0.783290
      9          1           0       -2.455611    1.213826    0.644676
     10          1           0       -0.785307   -0.597075    2.598775
     11          1           0        1.031301    1.432899    2.675463
     12          8           0        1.515703   -0.738321    0.182168
     13          6           0        0.417850   -1.287054    0.805079
     14          6           0        1.908712    0.396811    0.858325
     15          8           0       -0.072805   -2.310799    0.447372
     16          8           0        2.872084    1.020746    0.547903
     17          6           0       -3.135740   -0.767318   -0.078414
     18          1           0       -4.081233   -0.572076   -0.611646
     19          1           0       -2.648832   -1.633523   -0.548889
     20          1           0       -3.403731   -1.040466    0.953055
     21          1           0       -1.088195   -0.127795   -1.753540
     22          1           0        0.297283    1.838563   -1.918217
 ---------------------------------------------------------------------
                    Distance matrix (angstroms):
                    1          2          3          4          5
     1  C    0.000000
     2  C    3.199039   0.000000
     3  C    3.074039   3.779394   0.000000
     4  C    3.820841   1.334321   3.232603   0.000000
     5  C    1.343614   3.388065   2.512529   3.708386   0.000000
     6  C    2.509418   3.728050   1.341201   3.502887   1.467193
     7  H    4.160626   4.545536   1.091836   3.734171   3.491343
     8  H    2.874583   3.505975   1.093910   3.071504   2.817611
     9  H    1.096977   3.252932   2.811655   3.703357   2.105326
    10  H    3.248777   1.088224   4.355382   2.195788   3.835940
    11  H    4.417335   2.195376   3.344143   1.088283   4.404837
    12  O    3.959485   2.311019   3.924857   2.311969   3.325178
    13  C    3.309426   1.490325   4.203518   2.285409   3.134953
    14  C    4.272391   2.285450   3.338484   1.490592   3.687810
    15  O    3.554464   2.434831   5.106020   3.444606   3.500971
    16  O    5.199085   3.444031   3.624061   2.435002   4.435285
    17  C    1.496960   3.797391   4.567263   4.770434   2.515915
    18  H    2.150361   4.866606   5.112530   5.774747   3.089591
    19  H    2.157894   3.881804   5.031721   4.929418   2.702152
    20  H    2.155034   3.657767   5.063346   4.760583   3.348181
    21  H    2.095377   3.878004   3.426449   4.311116   1.095758
    22  H    3.425708   4.465017   2.090295   4.137579   2.172679
                    6          7          8          9         10
     6  C    0.000000
     7  H    2.119002   0.000000
     8  H    2.136389   1.862532   0.000000
     9  H    2.753337   3.873798   2.251308   0.000000
    10  H    4.381133   5.202575   3.842136   3.144484   0.000000
    11  H    3.989533   3.659563   2.994421   4.041119   2.725205
    12  O    3.386008   4.447114   4.290421   4.449284   3.339849
    13  C    3.680997   4.967658   4.268928   3.812729   2.267378
    14  C    3.277486   3.645510   3.653744   4.445276   3.357784
    15  O    4.381198   5.945648   5.169404   4.259069   2.841310
    16  O    3.687794   3.577118   4.129505   5.332071   4.494433
    17  C    3.900164   5.653101   4.312628   2.215934   3.566631
    18  H    4.431764   6.177041   4.864484   2.722211   4.601147
    19  H    4.153756   6.081672   4.955287   3.093433   3.801939
    20  H    4.615636   6.150386   4.604098   2.464926   3.124281
    21  H    2.176966   4.290759   3.872375   3.069400   4.388007
    22  H    1.094712   2.411905   3.085842   3.812760   5.244764
                   11         12         13         14         15
    11  H    0.000000
    12  O    3.341461   0.000000
    13  C    3.357500   1.376375   0.000000
    14  C    2.268330   1.378466   2.249646   0.000000
    15  O    4.494298   2.250862   1.190273   3.380302   0.000000
    16  O    2.843389   2.251188   3.378660   1.189009   4.447659
    17  C    5.457932   4.658827   3.698471   5.261100   3.469921
    18  H    6.400235   5.655393   4.770749   6.243316   4.495794
    19  H    5.774320   4.321942   3.370135   5.183986   2.843792
    20  H    5.362251   4.988626   3.832385   5.504252   3.600628
    21  H    5.152096   3.301514   3.187254   4.009801   3.261984
    22  H    4.669608   3.540691   4.147332   3.519167   4.790635
                   16         17         18         19         20
    16  O    0.000000
    17  C    6.299476   0.000000
    18  H    7.227050   1.102910   0.000000
    19  H    6.223231   1.099426   1.783923   0.000000
    20  H    6.618050   1.100162   1.768244   1.782533   0.000000
    21  H    4.722245   2.721668   3.234128   2.480723   3.677000
    22  H    3.657892   4.686271   5.166208   4.755000   5.498228
                   21         22
    21  H    0.000000
    22  H    2.411064   0.000000
 Stoichiometry    C9H10O3
 Framework group  C1[X(C9H10O3)]
 Deg. of freedom    60
 Full point group                 C1      NOp   1
 Largest Abelian subgroup         C1      NOp   1
 Largest concise Abelian subgroup C1      NOp   1
                         Standard orientation:                         
 ---------------------------------------------------------------------
 Center     Atomic      Atomic             Coordinates (Angstroms)
 Number     Number       Type             X           Y           Z
 ---------------------------------------------------------------------
      1          6           0       -2.191095    0.596598    0.271790
      2          6           0        0.358008   -1.065089    1.259067
      3          6           0        0.135962    2.602588    0.374391
      4          6           0        1.387240   -0.219249    1.334213
      5          6           0       -1.424521    0.991891   -0.758457
      6          6           0       -0.369565    2.010750   -0.717849
      7          1           0        0.938642    3.337985    0.290720
      8          1           0       -0.235584    2.388129    1.380672
      9          1           0       -2.073614    1.095576    1.241624
     10          1           0       -0.328306   -1.396606    2.035792
     11          1           0        1.778071    0.325511    2.191446
     12          8           0        1.276568   -0.944857   -0.858149
     13          6           0        0.279020   -1.566623   -0.142109
     14          6           0        2.008499   -0.133302   -0.018014
     15          8           0       -0.451780   -2.368818   -0.631154
     16          8           0        2.964288    0.469027   -0.388701
     17          6           0       -3.237566   -0.470829    0.191883
     18          1           0       -4.233787   -0.028165    0.024540
     19          1           0       -3.033026   -1.175376   -0.626966
     20          1           0       -3.297429   -1.041207    1.130735
     21          1           0       -1.564790    0.495569   -1.725243
     22          1           0        0.061331    2.275352   -1.688781
 ---------------------------------------------------------------------
 Rotational constants (GHZ):           1.1893107           0.8429041           0.6089809
 Basis read from rwf:  (5D, 7F)
 Pseudo-potential data read from rwf file.
 There are   230 symmetry adapted cartesian basis functions of A   symmetry.
 There are   218 symmetry adapted basis functions of A   symmetry.
   218 basis functions,   370 primitive gaussians,   230 cartesian basis functions
    44 alpha electrons       44 beta electrons
       nuclear repulsion energy       686.6665616509 Hartrees.
 NAtoms=   22 NActive=   22 NUniq=   22 SFac= 1.00D+00 NAtFMM=   60 NAOKFM=F Big=F
 Integral buffers will be    131072 words long.
 Raffenetti 2 integral format.
 Two-electron integral symmetry is turned on.
 Nuclear repulsion after empirical dispersion term =      686.6512238192 Hartrees.
 ------------------------------------------------------------------------------
 Polarizable Continuum Model (PCM)
 =================================
 Model                : PCM.
 Atomic radii         : UFF (Universal Force Field).
 Polarization charges : Total charges.
 Charge compensation  : None.
 Solution method      : On-the-fly selection.
 Cavity type          : Scaled VdW (van der Waals Surface) (Alpha=1.100).
 Cavity algorithm     : GePol (No added spheres)
                        Default sphere list used, NSphG=   22.
                        Lebedev-Laikov grids with approx.  5.0 points / Ang**2.
                        Smoothing algorithm: York/Karplus (Gamma=1.0000).
                        Polarization charges: spherical gaussians, with
                                              point-specific exponents (IZeta= 3).
                        Self-potential: point-specific (ISelfS= 7).
                        Self-field    : sphere-specific E.n sum rule (ISelfD= 2).
 1st derivatives      : Analytical E(r).r(x)/FMM algorithm (CHGder, D1EAlg=3).
                        Cavity 1st derivative terms included.
 Solvent              : Toluene, Eps=   2.374100 Eps(inf)=   2.238315
 ------------------------------------------------------------------------------
 One-electron integrals computed using PRISM.
   1 Symmetry operations used in ECPInt.
 ECPInt:  NShTT=    5253 NPrTT=   19101 LenC2=    5148 LenP2D=   14266.
 LDataN:  DoStor=T MaxTD1= 4 Len=   56
 NBasis=   218 RedAO= T EigKep=  5.08D-04  NBF=   218
 NBsUse=   218 1.00D-06 EigRej= -1.00D+00 NBFU=   218
 Initial guess from the checkpoint file:  "da-2_1_opt_sqm.chk"
 B after Tr=    -0.000000    0.000000    0.000000
         Rot=    0.999967    0.000991   -0.001448    0.007992 Ang=   0.94 deg.
 ExpMin= 1.22D-01 ExpMax= 2.27D+03 ExpMxC= 3.41D+02 IAcc=3 IRadAn=         5 AccDes= 0.00D+00
 Harris functional with IExCor= 4639 and IRadAn=       5 diagonalized for initial guess.
 HarFok:  IExCor= 4639 AccDes= 0.00D+00 IRadAn=         5 IDoV= 1 UseB2=F ITyADJ=14
 ICtDFT=  3500011 ScaDFX=  1.000000  1.000000  1.000000  1.000000
 FoFCou: FMM=F IPFlag=           0 FMFlag=      100000 FMFlg1=           0
         NFxFlg=           0 DoJE=T BraDBF=F KetDBF=T FulRan=T
         wScrn=  0.000000 ICntrl=       500 IOpCl=  0 I1Cent=   200000004 NGrid=           0
         NMat0=    1 NMatS0=      1 NMatT0=    0 NMatD0=    1 NMtDS0=    0 NMtDT0=    0
 Petite list used in FoFCou.
 Requested convergence on RMS density matrix=1.00D-08 within 128 cycles.
 Requested convergence on MAX density matrix=1.00D-06.
 Requested convergence on             energy=1.00D-06.
 No special actions if energy rises.
 Inv3:  Mode=1 IEnd=     9893568.
 Iteration    1 A*A^-1 deviation from unit magnitude is 3.33D-15 for    367.
 Iteration    1 A*A^-1 deviation from orthogonality  is 2.19D-15 for   1538    185.
 Iteration    1 A^-1*A deviation from unit magnitude is 2.89D-15 for    367.
 Iteration    1 A^-1*A deviation from orthogonality  is 1.04D-14 for   1543   1508.
 Error on total polarization charges =  0.00630
 SCF Done:  E(RwB97XD) =  -573.999936202     A.U. after   12 cycles
            NFock= 12  Conv=0.77D-08     -V/T= 2.0097
   1 Symmetry operations used in ECPInt.
 ECPInt:  NShTT=    5253 NPrTT=   19101 LenC2=    5148 LenP2D=   14266.
 LDataN:  DoStor=T MaxTD1= 5 Len=  102
 D1PCM: PCM CHGder 1st derivatives, ID1Alg=3 FixD1E=F DoIter=F DoCFld=F I1PDM=0.
 Calling FoFJK, ICntrl=      2127 FMM=F ISym2X=0 I1Cent= 0 IOpClX= 0 NMat=1 NMatS=1 NMatT=0.
 ***** Axes restored to original set *****
 -------------------------------------------------------------------
 Center     Atomic                   Forces (Hartrees/Bohr)
 Number     Number              X              Y              Z
 -------------------------------------------------------------------
      1        6           0.000319324    0.000026217    0.000048368
      2        6           0.000075066    0.000134071    0.000010183
      3        6          -0.000271296   -0.000067489   -0.000159866
      4        6           0.000102644   -0.000280446    0.000202282
      5        6           0.000496491   -0.000607069    0.000777972
      6        6           0.000093977    0.000181571    0.000339784
      7        1           0.000050223    0.000155622    0.000004940
      8        1           0.000250130   -0.000171379    0.000160637
      9        1          -0.000547225    0.000327833   -0.000517345
     10        1           0.000023326   -0.000027512    0.000013904
     11        1          -0.000226847    0.000212302   -0.000452439
     12        8          -0.000003752    0.000018720    0.000088547
     13        6          -0.000114836    0.000176538   -0.000313275
     14        6          -0.000191030   -0.000191478   -0.000086703
     15        8          -0.000132263    0.000372196    0.000036249
     16        8          -0.000086269    0.000045354    0.000036677
     17        6           0.000283149   -0.000234249    0.000054088
     18        1          -0.000370225    0.000117477    0.000440312
     19        1          -0.000284322    0.000206605   -0.000521648
     20        1           0.000378745   -0.000260327   -0.000003668
     21        1          -0.000015635   -0.000051938   -0.000108570
     22        1           0.000170625   -0.000082619   -0.000050428
 -------------------------------------------------------------------
 Cartesian Forces:  Max     0.000777972 RMS     0.000258322

 GradGradGradGradGradGradGradGradGradGradGradGradGradGradGradGradGradGrad
 Berny optimization.
 FormGI is forming the generalized inverse of G from B-inverse, IUseBI=4.
 Internal  Forces:  Max     0.003749151 RMS     0.000546854
 Search for a saddle point.
 Step number   2 out of a maximum of   50
 All quantities printed in internal units (Hartrees-Bohrs-Radians)
 Swapping is turned off.
 Update second derivatives using D2CorX and points    1    2
 ITU=  0  0
     Eigenvalues ---   -0.00008   0.00040   0.00281   0.00987   0.01280
     Eigenvalues ---    0.01323   0.01718   0.01964   0.02052   0.02335
     Eigenvalues ---    0.02503   0.02749   0.03043   0.03344   0.04032
     Eigenvalues ---    0.04534   0.04605   0.05138   0.05375   0.05646
     Eigenvalues ---    0.08668   0.09010   0.09158   0.10475   0.11137
     Eigenvalues ---    0.11409   0.11578   0.11820   0.11886   0.12067
     Eigenvalues ---    0.12864   0.13548   0.14150   0.14416   0.18408
     Eigenvalues ---    0.19301   0.21984   0.25008   0.26439   0.26474
     Eigenvalues ---    0.26921   0.27407   0.27858   0.27922   0.28365
     Eigenvalues ---    0.28549   0.29299   0.31505   0.36534   0.39767
     Eigenvalues ---    0.40217   0.44892   0.45942   0.48961   0.70641
     Eigenvalues ---    0.71405   0.73965   0.78456   0.83215   0.90973
 Eigenvectors required to have negative eigenvalues:
                          D5        D8        D7        D6        D10
   1                    0.41428   0.41031   0.40179   0.40135   0.39781
                          D9        R15       D35       D23       D24
   1                    0.39737   0.09394   0.07528  -0.03457  -0.03413
 RFO step:  Lambda0=1.362676217D-03 Lambda=-1.29987630D-04.
 Linear search not attempted -- option 19 set.
 Maximum step size (   0.100) exceeded in Quadratic search.
    -- Step size scaled by   0.607
 Iteration  1 RMS(Cart)=  0.03892723 RMS(Int)=  0.00072113
 Iteration  2 RMS(Cart)=  0.00123984 RMS(Int)=  0.00000327
 Iteration  3 RMS(Cart)=  0.00000105 RMS(Int)=  0.00000325
 Iteration  4 RMS(Cart)=  0.00000000 RMS(Int)=  0.00000325
 Variable       Old X    -DE/DX   Delta X   Delta X   Delta X     New X
                                 (Linear)    (Quad)   (Total)
    R1        2.53906  -0.00019   0.00000   0.00062   0.00062   2.53968
    R2        2.07299  -0.00002   0.00000   0.00007   0.00007   2.07306
    R3        2.82884   0.00013   0.00000   0.00081   0.00081   2.82965
    R4        2.52150  -0.00029   0.00000   0.00007   0.00007   2.52157
    R5        2.05645  -0.00000   0.00000  -0.00026  -0.00026   2.05619
    R6        2.81631  -0.00019   0.00000  -0.00140  -0.00140   2.81490
    R7        2.53450  -0.00010   0.00000   0.00066   0.00066   2.53517
    R8        2.06327   0.00015   0.00000  -0.00030  -0.00030   2.06297
    R9        2.06719  -0.00007   0.00000   0.00061   0.00061   2.06780
   R10        2.05656  -0.00015   0.00000  -0.00001  -0.00001   2.05654
   R11        2.81681  -0.00012   0.00000  -0.00168  -0.00168   2.81513
   R12        2.77259   0.00022   0.00000  -0.00039  -0.00039   2.77220
   R13        2.07068   0.00011   0.00000  -0.00040  -0.00040   2.07028
   R14        2.06871   0.00014   0.00000  -0.00057  -0.00057   2.06813
   R15        5.65864  -0.00085   0.00000   0.06244   0.06244   5.72107
   R16        2.60097  -0.00011   0.00000  -0.00047  -0.00047   2.60050
   R17        2.60492  -0.00011   0.00000  -0.00091  -0.00091   2.60401
   R18        2.24929  -0.00028   0.00000  -0.00005  -0.00005   2.24924
   R19        2.24690  -0.00006   0.00000  -0.00002  -0.00002   2.24688
   R20        2.08420   0.00013   0.00000  -0.00021  -0.00021   2.08399
   R21        2.07761  -0.00007   0.00000   0.00045   0.00045   2.07806
   R22        2.07901  -0.00003   0.00000  -0.00024  -0.00024   2.07876
    A1        2.07485   0.00011   0.00000   0.00039   0.00039   2.07524
    A2        2.17450  -0.00014   0.00000  -0.00111  -0.00111   2.17339
    A3        2.03354   0.00003   0.00000   0.00069   0.00069   2.03424
    A4        2.26450   0.00000   0.00000   0.00011   0.00011   2.26461
    A5        1.88300   0.00001   0.00000   0.00006   0.00006   1.88307
    A6        2.13544  -0.00001   0.00000  -0.00020  -0.00021   2.13523
    A7        2.10820  -0.00013   0.00000  -0.00106  -0.00106   2.10714
    A8        2.13484   0.00039   0.00000   0.00111   0.00111   2.13595
    A9        2.04007  -0.00025   0.00000  -0.00007  -0.00007   2.04000
   A10        2.26359  -0.00037   0.00000   0.00209   0.00207   2.26566
   A11        1.88278   0.00001   0.00000  -0.00014  -0.00015   1.88264
   A12        2.13653   0.00037   0.00000  -0.00177  -0.00178   2.13475
   A13        2.20596   0.00031   0.00000   0.00223   0.00222   2.20818
   A14        2.06035  -0.00016   0.00000  -0.00120  -0.00121   2.05914
   A15        2.01640  -0.00015   0.00000  -0.00126  -0.00127   2.01513
   A16        2.21429   0.00040   0.00000   0.00350   0.00350   2.21779
   A17        2.05700  -0.00018   0.00000  -0.00177  -0.00177   2.05523
   A18        2.01122  -0.00024   0.00000  -0.00173  -0.00173   2.00950
   A19        1.72714  -0.00117   0.00000  -0.06831  -0.06831   1.65883
   A20        1.46060  -0.00375   0.00000   0.02519   0.02519   1.48579
   A21        1.91104  -0.00010   0.00000   0.00003   0.00003   1.91107
   A22        1.87411   0.00006   0.00000  -0.00010  -0.00010   1.87400
   A23        2.27265  -0.00019   0.00000   0.00013   0.00013   2.27279
   A24        2.13613   0.00013   0.00000  -0.00002  -0.00001   2.13611
   A25        1.87302   0.00003   0.00000   0.00026   0.00026   1.87329
   A26        2.27453  -0.00009   0.00000   0.00057   0.00057   2.27510
   A27        2.13538   0.00007   0.00000  -0.00080  -0.00080   2.13457
   A28        1.93194   0.00011   0.00000  -0.00030  -0.00030   1.93164
   A29        1.94621   0.00002   0.00000  -0.00070  -0.00070   1.94551
   A30        1.94139  -0.00003   0.00000   0.00192   0.00192   1.94331
   A31        1.88835  -0.00007   0.00000  -0.00166  -0.00166   1.88669
   A32        1.86337  -0.00009   0.00000   0.00121   0.00121   1.86458
   A33        1.88965   0.00005   0.00000  -0.00049  -0.00049   1.88916
    D1        0.05226   0.00001   0.00000  -0.00150  -0.00150   0.05076
    D2       -3.12419  -0.00007   0.00000  -0.00982  -0.00982  -3.13401
    D3       -3.11652   0.00002   0.00000  -0.00278  -0.00278  -3.11930
    D4       -0.00977  -0.00007   0.00000  -0.01110  -0.01110  -0.02087
    D5       -1.67529  -0.00055   0.00000   0.08123   0.08123  -1.59406
    D6        0.42792  -0.00056   0.00000   0.07845   0.07845   0.50637
    D7        2.53927  -0.00050   0.00000   0.07867   0.07867   2.61794
    D8        1.43971  -0.00055   0.00000   0.07997   0.07997   1.51968
    D9       -2.74027  -0.00055   0.00000   0.07720   0.07720  -2.66307
   D10       -0.62892  -0.00049   0.00000   0.07742   0.07742  -0.55150
   D11        0.00862  -0.00038   0.00000  -0.00895  -0.00896  -0.00034
   D12        3.12461   0.00018   0.00000  -0.00088  -0.00088   3.12373
   D13       -3.10921  -0.00073   0.00000  -0.00752  -0.00753  -3.11674
   D14        0.00679  -0.00017   0.00000   0.00055   0.00055   0.00733
   D15       -0.02820   0.00020   0.00000   0.00125   0.00125  -0.02695
   D16        3.08706   0.00028   0.00000   0.00193   0.00193   3.08899
   D17        3.13503  -0.00012   0.00000   0.00255   0.00254   3.13757
   D18       -0.03290  -0.00004   0.00000   0.00323   0.00323  -0.02967
   D19        3.11955  -0.00078   0.00000  -0.00468  -0.00468   3.11487
   D20        0.01970  -0.00043   0.00000  -0.00478  -0.00478   0.01491
   D21       -0.03563  -0.00034   0.00000  -0.00624  -0.00624  -0.04187
   D22       -3.13548   0.00001   0.00000  -0.00635  -0.00635   3.14135
   D23        1.67492  -0.00176   0.00000   0.00035   0.00035   1.67527
   D24       -1.47976  -0.00134   0.00000  -0.00117  -0.00117  -1.48092
   D25       -1.53540   0.00052   0.00000   0.02133   0.02133  -1.51406
   D26        1.63506  -0.00010   0.00000   0.01221   0.01221   1.64726
   D27        0.01673   0.00009   0.00000  -0.00216  -0.00216   0.01457
   D28       -3.10023  -0.00017   0.00000  -0.00370  -0.00369  -3.10392
   D29        3.13499   0.00058   0.00000   0.00526   0.00525   3.14024
   D30        0.01803   0.00033   0.00000   0.00372   0.00371   0.02175
   D31        0.16203  -0.00004   0.00000  -0.09852  -0.09852   0.06350
   D32       -3.02036  -0.00038   0.00000  -0.09843  -0.09843  -3.11879
   D33       -2.94548   0.00005   0.00000  -0.09039  -0.09039  -3.03587
   D34        0.15532  -0.00030   0.00000  -0.09029  -0.09029   0.06503
   D35       -1.05137  -0.00097   0.00000  -0.01036  -0.01036  -1.06173
   D36        0.03906  -0.00015   0.00000  -0.00265  -0.00265   0.03641
   D37       -3.07872  -0.00021   0.00000  -0.00327  -0.00327  -3.08199
   D38       -0.03503   0.00005   0.00000   0.00297   0.00297  -0.03206
   D39        3.08433   0.00027   0.00000   0.00438   0.00437   3.08871
         Item               Value     Threshold  Converged?
 Maximum Force            0.003749     0.000450     NO 
 RMS     Force            0.000547     0.000300     NO 
 Maximum Displacement     0.125500     0.001800     NO 
 RMS     Displacement     0.039072     0.001200     NO 
 Predicted change in Energy= 2.272979D-04
 GradGradGradGradGradGradGradGradGradGradGradGradGradGradGradGradGradGrad

                          Input orientation:                          
 ---------------------------------------------------------------------
 Center     Atomic      Atomic             Coordinates (Angstroms)
 Number     Number       Type             X           Y           Z
 ---------------------------------------------------------------------
      1          6           0       -2.226988    0.422307   -0.082339
      2          6           0        0.049010   -0.380408    1.934636
      3          6           0       -0.251161    2.779878   -0.113959
      4          6           0        0.941287    0.611546    1.954081
      5          6           0       -1.269900    0.656639   -0.996261
      6          6           0       -0.351034    1.799849   -1.024636
      7          1           0        0.491059    3.572468   -0.226522
      8          1           0       -0.906724    2.836449    0.760331
      9          1           0       -2.394743    1.161074    0.711088
     10          1           0       -0.794257   -0.570813    2.595380
     11          1           0        1.029348    1.456327    2.634474
     12          8           0        1.505584   -0.761027    0.182440
     13          6           0        0.404397   -1.293688    0.812817
     14          6           0        1.902429    0.383671    0.838959
     15          8           0       -0.092198   -2.319709    0.470237
     16          8           0        2.866851    0.999487    0.515880
     17          6           0       -3.124230   -0.776494   -0.081324
     18          1           0       -4.049877   -0.570509   -0.644279
     19          1           0       -2.632812   -1.647411   -0.538784
     20          1           0       -3.426855   -1.049216    0.940495
     21          1           0       -1.120140   -0.087641   -1.786094
     22          1           0        0.343655    1.817020   -1.870120
 ---------------------------------------------------------------------
                    Distance matrix (angstroms):
                    1          2          3          4          5
     1  C    0.000000
     2  C    3.145268   0.000000
     3  C    3.076204   3.778128   0.000000
     4  C    3.771046   1.334357   3.224962   0.000000
     5  C    1.343942   3.377151   2.514842   3.687262   0.000000
     6  C    2.510925   3.697410   1.341552   3.457587   1.466986
     7  H    4.163182   4.526726   1.091678   3.704699   3.492211
     8  H    2.877719   3.555360   1.094234   3.128958   2.822956
     9  H    1.097016   3.137701   2.810013   3.602237   2.105888
    10  H    3.195181   1.088088   4.343109   2.195758   3.825279
    11  H    4.365088   2.196458   3.308379   1.088276   4.371302
    12  O    3.924600   2.310124   3.963838   2.311082   3.332031
    13  C    3.266516   1.489584   4.228783   2.284875   3.143216
    14  C    4.231119   2.284620   3.359733   1.489704   3.675080
    15  O    3.518710   2.434193   5.135400   3.444146   3.520830
    16  O    5.161221   3.443429   3.645337   2.434484   4.417785
    17  C    1.497388   3.780269   4.572021   4.753731   2.515854
    18  H    2.150438   4.846423   5.092796   5.749821   3.059093
    19  H    2.157955   3.862030   5.045159   4.908304   2.715780
    20  H    2.156676   3.676582   5.085161   4.781856   3.363542
    21  H    2.094742   3.911069   3.431301   4.327500   1.095545
    22  H    3.427768   4.403598   2.089259   4.053991   2.171101
                    6          7          8          9         10
     6  C    0.000000
     7  H    2.118558   0.000000
     8  H    2.137624   1.862633   0.000000
     9  H    2.756359   3.875795   2.241318   0.000000
    10  H    4.349827   5.175128   3.871625   3.018533   0.000000
    11  H    3.925882   3.599043   3.027461   3.938399   2.726969
    12  O    3.385580   4.469418   4.369786   4.380240   3.338822
    13  C    3.676530   4.976667   4.333569   3.724431   2.266462
    14  C    3.249098   3.646319   3.730099   4.368798   3.356810
    15  O    4.390033   5.961830   5.228152   4.180380   2.840380
    16  O    3.656303   3.579914   4.204052   5.267693   4.493759
    17  C    3.901025   5.657285   4.321929   2.216808   3.554690
    18  H    4.409615   6.161078   4.843521   2.752247   4.592869
    19  H    4.162471   6.091241   4.977155   3.083252   3.789766
    20  H    4.630289   6.170246   4.634858   2.450156   3.146122
    21  H    2.175767   4.292392   3.883314   3.069173   4.420065
    22  H    1.094410   2.409302   3.085767   3.819912   5.190114
                   11         12         13         14         15
    11  H    0.000000
    12  O    3.340050   0.000000
[...]
    14  C    3.250255   3.600208   3.636490   4.413581   3.357628
    15  O    4.341112   5.901961   5.134710   4.201758   2.840776
    16  O    3.673318   3.542912   4.125566   5.311923   4.494316
    17  C    3.901736   5.657557   4.319589   2.227381   3.551326
    18  H    4.284731   6.159267   4.975059   2.950506   4.643164
    19  H    4.237748   6.066429   4.849129   2.972525   3.312948
    20  H    4.672148   6.195662   4.630864   2.408432   3.549807
    21  H    2.176380   4.292318   3.876635   3.068376   4.395256
    22  H    1.094919   2.411892   3.085974   3.811788   5.200067
                   11         12         13         14         15
    11  H    0.000000
    12  O    3.340759   0.000000
    13  C    3.356475   1.375408   0.000000
    14  C    2.266864   1.378842   2.248594   0.000000
    15  O    4.494417   2.250144   1.191003   3.380120   0.000000
    16  O    2.841889   2.251315   3.377535   1.188975   4.447404
    17  C    5.455169   4.653820   3.681446   5.262397   3.434836
    18  H    6.425488   5.371352   4.528288   6.064006   4.163871
    19  H    5.444938   4.161290   3.075513   4.985724   2.547460
    20  H    5.666902   5.381511   4.275565   5.862723   4.058581
    21  H    5.159087   3.334542   3.207525   4.037924   3.271159
    22  H    4.615339   3.505602   4.104119   3.479678   4.747705
                   16         17         18         19         20
    16  O    0.000000
    17  C    6.305503   0.000000
    18  H    7.036004   1.101514   0.000000
    19  H    6.077683   1.101919   1.774017   0.000000
    20  H    6.949501   1.098098   1.775629   1.781234   0.000000
    21  H    4.752852   2.717874   2.819355   2.770187   3.775796
    22  H    3.628170   4.686609   4.928095   4.909299   5.564987
                   21         22
    21  H    0.000000
    22  H    2.408139   0.000000
 Stoichiometry    C9H10O3
 Framework group  C1[X(C9H10O3)]
 Deg. of freedom    60
 Full point group                 C1      NOp   1
 Largest Abelian subgroup         C1      NOp   1
 Largest concise Abelian subgroup C1      NOp   1
                         Standard orientation:                         
 ---------------------------------------------------------------------
 Center     Atomic      Atomic             Coordinates (Angstroms)
 Number     Number       Type             X           Y           Z
 ---------------------------------------------------------------------
      1          6           0       -2.175257    0.626735    0.274465
      2          6           0        0.331655   -1.042857    1.263326
      3          6           0        0.199315    2.576087    0.371621
      4          6           0        1.378868   -0.218375    1.329132
      5          6           0       -1.408915    1.011921   -0.760530
      6          6           0       -0.320385    1.994028   -0.719587
      7          1           0        1.026155    3.284474    0.287380
      8          1           0       -0.182151    2.379273    1.377624
      9          1           0       -2.024671    1.107471    1.248361
     10          1           0       -0.363414   -1.348787    2.042659
     11          1           0        1.775992    0.336184    2.176820
     12          8           0        1.256656   -0.971446   -0.853208
     13          6           0        0.241916   -1.556291   -0.132092
     14          6           0        2.005797   -0.166069   -0.021726
     15          8           0       -0.512261   -2.341576   -0.614825
     16          8           0        2.976990    0.407505   -0.397836
     17          6           0       -3.246190   -0.422937    0.186772
     18          1           0       -4.037558   -0.127721   -0.520276
     19          1           0       -2.828162   -1.377691   -0.170891
     20          1           0       -3.719815   -0.601171    1.161313
     21          1           0       -1.582143    0.539810   -1.734400
     22          1           0        0.123863    2.238839   -1.689927
 ---------------------------------------------------------------------
 Rotational constants (GHZ):           1.2068618           0.8436942           0.6133917

 **********************************************************************

            Population analysis using the SCF Density.

 **********************************************************************

 Orbital symmetries:
       Occupied  (A) (A) (A) (A) (A) (A) (A) (A) (A) (A) (A) (A)
                 (A) (A) (A) (A) (A) (A) (A) (A) (A) (A) (A) (A)
                 (A) (A) (A) (A) (A) (A) (A) (A) (A) (A) (A) (A)
                 (A) (A) (A) (A) (A) (A) (A) (A)
       Virtual   (A) (A) (A) (A) (A) (A) (A) (A) (A) (A) (A) (A)
                 (A) (A) (A) (A) (A) (A) (A) (A) (A) (A) (A) (A)
                 (A) (A) (A) (A) (A) (A) (A) (A) (A) (A) (A) (A)
                 (A) (A) (A) (A) (A) (A) (A) (A) (A) (A) (A) (A)
                 (A) (A) (A) (A) (A) (A) (A) (A) (A) (A) (A) (A)
                 (A) (A) (A) (A) (A) (A) (A) (A) (A) (A) (A) (A)
                 (A) (A) (A) (A) (A) (A) (A) (A) (A) (A) (A) (A)
                 (A) (A) (A) (A) (A) (A) (A) (A) (A) (A) (A) (A)
                 (A) (A) (A) (A) (A) (A) (A) (A) (A) (A) (A) (A)
                 (A) (A) (A) (A) (A) (A) (A) (A) (A) (A) (A) (A)
                 (A) (A) (A) (A) (A) (A) (A) (A) (A) (A) (A) (A)
                 (A) (A) (A) (A) (A) (A) (A) (A) (A) (A) (A) (A)
                 (A) (A) (A) (A) (A) (A) (A) (A) (A) (A) (A) (A)
                 (A) (A) (A) (A) (A) (A) (A) (A) (A) (A) (A) (A)
                 (A) (A) (A) (A) (A) (A)
 The electronic state is 1-A.
 Alpha  occ. eigenvalues --  -19.33314 -19.28007 -19.27860 -10.46132 -10.46013
 Alpha  occ. eigenvalues --  -10.35481 -10.35402 -10.31562 -10.31364 -10.30625
 Alpha  occ. eigenvalues --  -10.30593 -10.29895  -1.25212  -1.17961  -1.14138
 Alpha  occ. eigenvalues --   -0.94334  -0.91226  -0.85508  -0.79638  -0.77620
 Alpha  occ. eigenvalues --   -0.73531  -0.69444  -0.68740  -0.62073  -0.60672
 Alpha  occ. eigenvalues --   -0.60453  -0.57623  -0.56917  -0.55626  -0.54403
 Alpha  occ. eigenvalues --   -0.53381  -0.51997  -0.50503  -0.49794  -0.49496
 Alpha  occ. eigenvalues --   -0.47774  -0.43648  -0.43487  -0.42989  -0.42037
 Alpha  occ. eigenvalues --   -0.41094  -0.39126  -0.38144  -0.31111
 Alpha virt. eigenvalues --   -0.03733   0.02283   0.10936   0.12123   0.13696
 Alpha virt. eigenvalues --    0.15356   0.15896   0.16192   0.17118   0.19449
 Alpha virt. eigenvalues --    0.21090   0.21496   0.22498   0.24150   0.25022
 Alpha virt. eigenvalues --    0.27230   0.27874   0.29607   0.31892   0.33582
 Alpha virt. eigenvalues --    0.35276   0.36532   0.39145   0.40201   0.44037
 Alpha virt. eigenvalues --    0.45039   0.45456   0.48049   0.49128   0.49983
 Alpha virt. eigenvalues --    0.50613   0.52718   0.54040   0.54959   0.55686
 Alpha virt. eigenvalues --    0.57858   0.58865   0.60790   0.62539   0.63909
 Alpha virt. eigenvalues --    0.66110   0.69811   0.70385   0.70820   0.71557
 Alpha virt. eigenvalues --    0.72332   0.72709   0.73871   0.74681   0.74940
 Alpha virt. eigenvalues --    0.75394   0.76397   0.76629   0.77596   0.77998
 Alpha virt. eigenvalues --    0.78486   0.80247   0.80542   0.81761   0.86159
 Alpha virt. eigenvalues --    0.87550   0.88485   0.90254   0.91471   0.92913
 Alpha virt. eigenvalues --    0.99146   1.02308   1.05612   1.06254   1.09676
 Alpha virt. eigenvalues --    1.10874   1.12899   1.13296   1.16620   1.18666
 Alpha virt. eigenvalues --    1.19740   1.23249   1.24523   1.25516   1.27536
 Alpha virt. eigenvalues --    1.29698   1.30880   1.33973   1.35187   1.38817
 Alpha virt. eigenvalues --    1.39775   1.44532   1.45625   1.51505   1.56374
 Alpha virt. eigenvalues --    1.58429   1.60870   1.61769   1.62709   1.66451
 Alpha virt. eigenvalues --    1.67295   1.68650   1.70205   1.71807   1.74251
 Alpha virt. eigenvalues --    1.78083   1.78773   1.79820   1.81184   1.83386
 Alpha virt. eigenvalues --    1.86333   1.86957   1.87475   1.88298   1.89206
 Alpha virt. eigenvalues --    1.90360   1.90888   1.93471   1.94501   1.96779
 Alpha virt. eigenvalues --    1.97845   1.98562   2.03277   2.04156   2.06726
 Alpha virt. eigenvalues --    2.09854   2.11204   2.12819   2.13710   2.16499
 Alpha virt. eigenvalues --    2.17193   2.19329   2.21786   2.25974   2.28235
 Alpha virt. eigenvalues --    2.29728   2.31696   2.35236   2.38740   2.42063
 Alpha virt. eigenvalues --    2.42863   2.46484   2.47016   2.48725   2.53501
 Alpha virt. eigenvalues --    2.55893   2.60935   2.64425   2.65585   2.68086
 Alpha virt. eigenvalues --    2.69813   2.71098   2.71304   2.74555   2.77329
 Alpha virt. eigenvalues --    2.80306   2.81332   2.81833   2.86172   2.87113
 Alpha virt. eigenvalues --    2.91488   2.94891   3.01004   3.02263   3.03243
 Alpha virt. eigenvalues --    3.04142   3.10099   3.18362   3.25013   3.27167
 Alpha virt. eigenvalues --    3.28728   3.29121   3.34587   3.42949   3.51196
 Alpha virt. eigenvalues --    3.52468   3.73429   3.76615   3.79186
          Condensed to atoms (all electrons):
               1          2          3          4          5          6
     1  C    4.946951   0.005844  -0.023577  -0.004971   0.559057  -0.035194
     2  C    0.005844   5.394458  -0.006390   0.219784   0.006431  -0.008733
     3  C   -0.023577  -0.006390   4.785191   0.006332  -0.052195   0.626601
     4  C   -0.004971   0.219784   0.006332   5.414216  -0.010885   0.007060
     5  C    0.559057   0.006431  -0.052195  -0.010885   4.942612   0.341248
     6  C   -0.035194  -0.008733   0.626601   0.007060   0.341248   4.791885
     7  H   -0.000275   0.000252   0.392595  -0.001118   0.009876  -0.015308
     8  H    0.011312  -0.002685   0.377631   0.005967  -0.030929  -0.001450
     9  H    0.389570   0.003354   0.010019  -0.001580  -0.013384  -0.025124
    10  H    0.000765   0.429561  -0.000141  -0.046009  -0.000148   0.000006
    11  H   -0.000134  -0.047226   0.000557   0.429480  -0.000020   0.000121
    12  O   -0.001390  -0.107904  -0.001914  -0.109527   0.002421   0.003618
    13  C    0.002825   0.223074   0.000049   0.032771   0.001733   0.000376
    14  C   -0.000169   0.033254   0.003470   0.211511   0.001051  -0.000671
    15  O   -0.000531  -0.077116   0.000036   0.004213  -0.004132   0.000059
    16  O    0.000017   0.004410  -0.000078  -0.077770   0.000065  -0.003072
    17  C    0.391433  -0.001208   0.000038   0.000471  -0.058828   0.008151
    18  H   -0.019227   0.000085   0.000023  -0.000012  -0.009799  -0.000061
    19  H   -0.017662  -0.003187   0.000037   0.000247  -0.014961   0.000298
    20  H   -0.018038  -0.000056   0.000026  -0.000001   0.009300  -0.000376
    21  H   -0.064118   0.000494   0.010781  -0.000188   0.422321  -0.039267
    22  H    0.011453  -0.000107  -0.052027   0.000371  -0.046298   0.420176
               7          8          9         10         11         12
     1  C   -0.000275   0.011312   0.389570   0.000765  -0.000134  -0.001390
     2  C    0.000252  -0.002685   0.003354   0.429561  -0.047226  -0.107904
     3  C    0.392595   0.377631   0.010019  -0.000141   0.000557  -0.001914
     4  C   -0.001118   0.005967  -0.001580  -0.046009   0.429480  -0.109527
     5  C    0.009876  -0.030929  -0.013384  -0.000148  -0.000020   0.002421
     6  C   -0.015308  -0.001450  -0.025124   0.000006   0.000121   0.003618
     7  H    0.599602  -0.041213  -0.000082  -0.000000   0.000128   0.000009
     8  H   -0.041213   0.628021   0.001969  -0.000038   0.000210   0.000024
     9  H   -0.000082   0.001969   0.639346  -0.000068  -0.000051   0.000006
    10  H   -0.000000  -0.000038  -0.000068   0.567090  -0.005320   0.002825
    11  H    0.000128   0.000210  -0.000051  -0.005320   0.564869   0.002950
    12  O    0.000009   0.000024   0.000006   0.002825   0.002950   8.021024
    13  C   -0.000028   0.000328  -0.001171  -0.033850   0.009194   0.306142
    14  C    0.000972  -0.002062   0.000186   0.009039  -0.033516   0.299648
    15  O    0.000000  -0.000001   0.000011   0.001417  -0.000045  -0.063311
    16  O    0.000441  -0.000003   0.000001  -0.000046   0.001819  -0.065824
    17  C   -0.000005   0.000053  -0.044327  -0.000169  -0.000001   0.000009
    18  H    0.000001   0.000005   0.003832  -0.000002  -0.000000   0.000000
    19  H   -0.000000  -0.000001   0.003944   0.000331   0.000000   0.000147
    20  H   -0.000000   0.000009  -0.010404   0.000235   0.000000  -0.000000
    21  H   -0.000190  -0.000066   0.007903  -0.000041   0.000002  -0.000587
    22  H   -0.013549   0.007685  -0.000073   0.000003  -0.000025  -0.000180
              13         14         15         16         17         18
     1  C    0.002825  -0.000169  -0.000531   0.000017   0.391433  -0.019227
     2  C    0.223074   0.033254  -0.077116   0.004410  -0.001208   0.000085
     3  C    0.000049   0.003470   0.000036  -0.000078   0.000038   0.000023
     4  C    0.032771   0.211511   0.004213  -0.077770   0.000471  -0.000012
     5  C    0.001733   0.001051  -0.004132   0.000065  -0.058828  -0.009799
     6  C    0.000376  -0.000671   0.000059  -0.003072   0.008151  -0.000061
     7  H   -0.000028   0.000972   0.000000   0.000441  -0.000005   0.000001
     8  H    0.000328  -0.002062  -0.000001  -0.000003   0.000053   0.000005
     9  H   -0.001171   0.000186   0.000011   0.000001  -0.044327   0.003832
    10  H   -0.033850   0.009039   0.001417  -0.000046  -0.000169  -0.000002
    11  H    0.009194  -0.033516  -0.000045   0.001819  -0.000001  -0.000000
    12  O    0.306142   0.299648  -0.063311  -0.065824   0.000009   0.000000
    13  C    4.514754  -0.082980   0.730047   0.000420  -0.000577   0.000016
    14  C   -0.082980   4.506654   0.000720   0.758834  -0.000042   0.000001
    15  O    0.730047   0.000720   7.573376  -0.000013  -0.005244   0.000027
    16  O    0.000420   0.758834  -0.000013   7.551436  -0.000000   0.000000
    17  C   -0.000577  -0.000042  -0.005244  -0.000000   4.570957   0.395689
    18  H    0.000016   0.000001   0.000027   0.000000   0.395689   0.598973
    19  H    0.000418   0.000009   0.017653   0.000000   0.390666  -0.015333
    20  H    0.000039   0.000000   0.000009  -0.000000   0.388461  -0.020880
    21  H    0.001722  -0.000037   0.000784   0.000004  -0.008926   0.001820
    22  H   -0.000029   0.000359  -0.000002   0.000302  -0.000201   0.000005
              19         20         21         22
     1  C   -0.017662  -0.018038  -0.064118   0.011453
     2  C   -0.003187  -0.000056   0.000494  -0.000107
     3  C    0.000037   0.000026   0.010781  -0.052027
     4  C    0.000247  -0.000001  -0.000188   0.000371
     5  C   -0.014961   0.009300   0.422321  -0.046298
     6  C    0.000298  -0.000376  -0.039267   0.420176
     7  H   -0.000000  -0.000000  -0.000190  -0.013549
     8  H   -0.000001   0.000009  -0.000066   0.007685
     9  H    0.003944  -0.010404   0.007903  -0.000073
    10  H    0.000331   0.000235  -0.000041   0.000003
    11  H    0.000000   0.000000   0.000002  -0.000025
    12  O    0.000147  -0.000000  -0.000587  -0.000180
    13  C    0.000418   0.000039   0.001722  -0.000029
    14  C    0.000009   0.000000  -0.000037   0.000359
    15  O    0.017653   0.000009   0.000784  -0.000002
    16  O    0.000000  -0.000000   0.000004   0.000302
    17  C    0.390666   0.388461  -0.008926  -0.000201
    18  H   -0.015333  -0.020880   0.001820   0.000005
    19  H    0.590630  -0.020285   0.002158  -0.000001
    20  H   -0.020285   0.629230   0.000080   0.000006
    21  H    0.002158   0.000080   0.639397  -0.010669
    22  H   -0.000001   0.000006  -0.010669   0.635005
 Mulliken charges:
               1
     1  C   -0.133940
     2  C   -0.066387
     3  C   -0.077066
     4  C   -0.080360
     5  C   -0.054538
     6  C   -0.070341
     7  H    0.067892
     8  H    0.045236
     9  H    0.036124
    10  H    0.074559
    11  H    0.077009
    12  O   -0.288184
    13  C    0.294727
    14  C    0.293769
    15  O   -0.177956
    16  O   -0.170942
    17  C   -0.026398
    18  H    0.064838
    19  H    0.064892
    20  H    0.042647
    21  H    0.036624
    22  H    0.047798
 Sum of Mulliken charges =  -0.00000
 Mulliken charges with hydrogens summed into heavy atoms:
               1
     1  C   -0.097815
     2  C    0.008172
     3  C    0.036062
     4  C   -0.003352
     5  C   -0.017914
     6  C   -0.022544
    12  O   -0.288184
    13  C    0.294727
    14  C    0.293769
    15  O   -0.177956
    16  O   -0.170942
    17  C    0.145978
 Electronic spatial extent (au):  <R**2>=           1976.9779
 Charge=              0.0000 electrons
 Dipole moment (field-independent basis, Debye):
    X=             -1.8594    Y=              1.0025    Z=              4.0815  Tot=              4.5957
 Quadrupole moment (field-independent basis, Debye-Ang):
   XX=            -75.5113   YY=            -75.0174   ZZ=            -64.6438
   XY=             -0.9655   XZ=              3.5227   YZ=             -3.3631
 Traceless Quadrupole moment (field-independent basis, Debye-Ang):
   XX=             -3.7872   YY=             -3.2932   ZZ=              7.0804
   XY=             -0.9655   XZ=              3.5227   YZ=             -3.3631
 Octapole moment (field-independent basis, Debye-Ang**2):
  XXX=            -27.3254  YYY=              0.4113  ZZZ=              3.7506  XYY=             18.2172
  XXY=            -13.4464  XXZ=             10.6428  XZZ=              1.7101  YZZ=              1.6607
  YYZ=              7.0704  XYZ=              1.7260
 Hexadecapole moment (field-independent basis, Debye-Ang**3):
 XXXX=          -1417.3836 YYYY=           -934.6171 ZZZZ=           -304.7824 XXXY=             -3.9277
 XXXZ=             19.2342 YYYX=             22.5841 YYYZ=             -3.9559 ZZZX=             -0.2597
 ZZZY=              1.4486 XXYY=           -382.7042 XXZZ=           -269.2263 YYZZ=           -199.6075
 XXYZ=              7.7506 YYXZ=            -10.3373 ZZXY=              9.8891
 N-N= 6.883078780651D+02 E-N=-2.713721965528D+03  KE= 5.684969350490D+02
 Unable to Open any file for archive entry.
 1\1\GINC-NODE-003\FTS\RwB97XD\Gen\C9H10O3\JP2658\22-Dec-2023\0\\# wb97
 xd chkbasis guess=read geom=allchk scrf=(iefpcm,solvent=toluene) opt=(
 readfc,ts,noeigen,maxcycles=50,maxstep=10)\\1d_2b_endo_2_reopt3.out\\0
 ,1\C,-2.2594257572,0.4429312539,-0.066831607\C,0.0749993231,-0.3949683
 464,1.9075988464\C,-0.2310836422,2.7524389033,-0.069659724\C,0.9675292
 849,0.5965912548,1.9385330923\C,-1.2981624901,0.6670874635,-0.97929547
 81\C,-0.377494392,1.8083359611,-1.0113861376\H,0.5026989253,3.55235039
 14,-0.189147707\H,-0.8373489557,2.7699964763,0.8405206025\H,-2.4245672
 514,1.1904947522,0.7181098883\H,-0.7601267005,-0.6007833065,2.57414069
 02\H,1.0632735935,1.4254088019,2.6368973435\O,1.5069212663,-0.73244909
 ,0.1254242947\C,0.4124173498,-1.2770544627,0.7556739852\C,1.9157100594
 ,0.3943708443,0.806874592\O,-0.0946883019,-2.2906887608,0.3897828073\O
 ,2.8795383317,1.0143541858,0.4901440269\C,-3.1433024037,-0.7715548452,
 -0.0532580307\H,-3.7505332424,-0.8336009122,-0.9701845129\H,-2.5403040
 536,-1.6921818632,0.0020905022\H,-3.8317877378,-0.7622503841,0.8021484
 111\H,-1.1557117425,-0.0765558443,-1.771773762\H,0.2741485369,1.857527
 527,-1.8899021233\\Version=ES64L-G16RevC.01\State=1-A\HF=-573.9986314\
 RMSD=9.827e-09\RMSF=4.425e-06\Dipole=-1.1660309,0.6738567,1.2064486\Qu
 adrupole=-3.5634533,-3.1608903,6.7243436,0.0018867,0.5251223,0.4628911
 \PG=C01 [X(C9H10O3)]\\@
 The archive entry for this job was punched.


 HICKORY, DICKORY, DOCK
 TWO MICE RAN UP THE CLOCK
 THE CLOCK STRUCK ONE...
 THE OTHER ESCAPED WITH MINOR INJURIES.
 Job cpu time:       0 days  1 hours 30 minutes 59.0 seconds.
 Elapsed time:       0 days  0 hours  7 minutes 46.7 seconds.
 File lengths (MBytes):  RWF=    142 Int=      0 D2E=      0 Chk=     10 Scr=      1
 Normal termination of Gaussian 16 at Fri Dec 22 23:43:03 2023.
