Unloading slurm/anatra/current
  ERROR: No such file or directory on
    '/cm/local/modulefiles/slurm/anatra/current'
environment: line 0: unalias: gv: not found
environment: line 0: unalias: sl: not found
 Entering Gaussian System, Link 0=g16
 Initial command:
 /apps/gaussian/g16/C.01/g16/l1.exe "/local/jobs/1152770/Gau-1529284.inp" -scrdir="/local/jobs/1152770/"
 Entering Link 1 = /apps/gaussian/g16/C.01/g16/l1.exe PID=   1529287.
  
 Copyright (c) 1988-2019, Gaussian, Inc.  All Rights Reserved.
  
 This is part of the Gaussian(R) 16 program.  It is based on
 the Gaussian(R) 09 system (copyright 2009, Gaussian, Inc.),
 the Gaussian(R) 03 system (copyright 2003, Gaussian, Inc.),
 the Gaussian(R) 98 system (copyright 1998, Gaussian, Inc.),
 the Gaussian(R) 94 system (copyright 1995, Gaussian, Inc.),
 the Gaussian 92(TM) system (copyright 1992, Gaussian, Inc.),
 the Gaussian 90(TM) system (copyright 1990, Gaussian, Inc.),
 the Gaussian 88(TM) system (copyright 1988, Gaussian, Inc.),
 the Gaussian 86(TM) system (copyright 1986, Carnegie Mellon
 University), and the Gaussian 82(TM) system (copyright 1983,
 Carnegie Mellon University). Gaussian is a federally registered
 trademark of Gaussian, Inc.
  
 This software contains proprietary and confidential information,
 including trade secrets, belonging to Gaussian, Inc.
  
 This software is provided under written license and may be
 used, copied, transmitted, or stored only in accord with that
 written license.
  
 The following legend is applicable only to US Government
 contracts under FAR:
  
                    RESTRICTED RIGHTS LEGEND
  
 Use, reproduction and disclosure by the US Government is
 subject to restrictions as set forth in subparagraphs (a)
 and (c) of the Commercial Computer Software - Restricted
 Rights clause in FAR 52.227-19.
  
 Gaussian, Inc.
 340 Quinnipiac St., Bldg. 40, Wallingford CT 06492
  
  
 ---------------------------------------------------------------
 Warning -- This program may not be used in any manner that
 competes with the business of Gaussian, Inc. or will provide
 assistance to any competitor of Gaussian, Inc.  The licensee
 of this program is prohibited from giving any competitor of
 Gaussian, Inc. access to this program.  By using this program,
 the user acknowledges that Gaussian, Inc. is engaged in the
 business of creating and licensing software in the field of
 computational chemistry and represents and warrants to the
 licensee that it is not a competitor of Gaussian, Inc. and that
 it will not use this program in any manner prohibited above.
 ---------------------------------------------------------------
  

 Cite this work as:
 Gaussian 16, Revision C.01,
 M. J. Frisch, G. W. Trucks, H. B. Schlegel, G. E. Scuseria, 
 M. A. Robb, J. R. Cheeseman, G. Scalmani, V. Barone, 
 G. A. Petersson, H. Nakatsuji, X. Li, M. Caricato, A. V. Marenich, 
 J. Bloino, B. G. Janesko, R. Gomperts, B. Mennucci, H. P. Hratchian, 
 J. V. Ortiz, A. F. Izmaylov, J. L. Sonnenberg, D. Williams-Young, 
 F. Ding, F. Lipparini, F. Egidi, J. Goings, B. Peng, A. Petrone, 
 T. Henderson, D. Ranasinghe, V. G. Zakrzewski, J. Gao, N. Rega, 
 G. Zheng, W. Liang, M. Hada, M. Ehara, K. Toyota, R. Fukuda, 
 J. Hasegawa, M. Ishida, T. Nakajima, Y. Honda, O. Kitao, H. Nakai, 
 T. Vreven, K. Throssell, J. A. Montgomery, Jr., J. E. Peralta, 
 F. Ogliaro, M. J. Bearpark, J. J. Heyd, E. N. Brothers, K. N. Kudin, 
 V. N. Staroverov, T. A. Keith, R. Kobayashi, J. Normand, 
 K. Raghavachari, A. P. Rendell, J. C. Burant, S. S. Iyengar, 
 J. Tomasi, M. Cossi, J. M. Millam, M. Klene, C. Adamo, R. Cammi, 
 J. W. Ochterski, R. L. Martin, K. Morokuma, O. Farkas, 
 J. B. Foresman, and D. J. Fox, Gaussian, Inc., Wallingford CT, 2019.
 
 ******************************************
 Gaussian 16:  ES64L-G16RevC.01  3-Jul-2019
                22-Dec-2023 
 ******************************************
 %chk=da-2_1_opt_dft.chk
 %nprocshared=12
 Will use up to   12 processors via shared memory.
 %mem=48GB
 ----------------------------------------------------------------------
 # wb97xd chkbasis guess=read geom=allchk scrf=(iefpcm,solvent=toluene)
  opt=(readfc,ts,noeigen,maxcycles=50,maxstep=10)
 ----------------------------------------------------------------------
 1/5=1,6=50,8=10,10=3,11=1,18=20,26=3,29=7,38=1/1,3;
 2/9=110,12=2,40=1/2;
 3/5=7,6=2,11=2,14=-4,25=1,30=1,67=1,70=2201,71=1,72=13,74=-58,116=-2/1,2,3;
 4/5=1/1;
 5/5=2,38=6,53=13/2;
 6/7=2,8=2,9=2,10=2,28=1/1;
 7//1,2,3,16;
 1/5=1,6=50,8=10,11=1,18=20,26=3/3(2);
 2/9=110/2;
 99//99;
 2/9=110/2;
 3/5=7,6=1,11=2,14=-2,25=1,30=1,70=2205,71=1,72=13,74=-58,82=7/1,2,3;
 4/5=5,16=3,69=1/1;
 5/5=2,38=5,53=13/2;
 7//1,2,3,16;
 1/5=1,6=50,8=10,11=1,18=20,26=3/3(-5);
 2/9=110/2;
 6/7=2,8=2,9=2,10=2,19=2,28=1/1;
 99/9=1/99;
 Structure from the checkpoint file:  "da-2_1_opt_dft.chk"
 -----------------------
 1d_2b_endo_2_reopt3.out
 -----------------------
 Charge =  0 Multiplicity = 1
 Redundant internal coordinates found in file.  (old form).
 C,0,-2.2592237775,0.4383570203,-0.0738690544
 C,0,0.0700401929,-0.3830149705,1.9147556702
 C,0,-0.2313992749,2.7484288766,-0.084532737
 C,0,0.9605101854,0.6104691113,1.9434907369
 C,0,-1.2936619283,0.655948501,-0.9833935532
 C,0,-0.3744866172,1.7982282026,-1.0206401686
 H,0,0.501496722,3.5486125001,-0.2075733097
 H,0,-0.8393668366,2.7708127446,0.8244283361
 H,0,-2.429508986,1.1926096833,0.7035405183
 H,0,-0.7679491258,-0.5860938082,2.578532193
 H,0,1.0512915154,1.4442776478,2.6365613812
 O,0,1.5112556761,-0.7293309619,0.141747365
 C,0,0.4145850815,-1.2717834296,0.7700969921
 C,0,1.9147508422,0.4025448738,0.8179610951
 O,0,-0.0891200213,-2.2884908694,0.4080053867
 O,0,2.8792044187,1.0220276967,0.5021513211
 C,0,-3.1416864259,-0.7770732379,-0.0541819134
 H,0,-3.7455687726,-0.8467510652,-0.9727798771
 H,0,-2.5379371744,-1.6965892684,0.0103848759
 H,0,-3.8333364715,-0.7619435432,0.7985740045
 H,0,-1.1463159659,-0.0941813124,-1.7688259669
 H,0,0.2791267439,1.8427356084,-1.8979332956
 Recover connectivity data from disk.

 GradGradGradGradGradGradGradGradGradGradGradGradGradGradGradGradGradGrad
 Berny optimization.
 Initialization pass.
 Force constant matrix read from checkpoint file:
 "da-2_1_opt_dft.chk"
                           ----------------------------
                           !    Initial Parameters    !
                           ! (Angstroms and Degrees)  !
 --------------------------                            --------------------------
 ! Name  Definition              Value          Derivative Info.                !
 --------------------------------------------------------------------------------
 ! R1    R(1,5)                  1.3442         D2E/DX2 =    0.6049             !
 ! R2    R(1,9)                  1.0965         D2E/DX2 =    0.3883             !
 ! R3    R(1,17)                 1.5021         D2E/DX2 =    0.2953             !
 ! R4    R(2,4)                  1.3345         D2E/DX2 =    0.5288             !
 ! R5    R(2,10)                 1.0881         D2E/DX2 =    0.3979             !
 ! R6    R(2,13)                 1.4896         D2E/DX2 =    0.332              !
 ! R7    R(3,6)                  1.3415         D2E/DX2 =    0.6136             !
 ! R8    R(3,7)                  1.092          D2E/DX2 =    0.3906             !
 ! R9    R(3,8)                  1.0938         D2E/DX2 =    0.3998             !
 ! R10   R(4,11)                 1.088          D2E/DX2 =    0.4023             !
 ! R11   R(4,14)                 1.4902         D2E/DX2 =    0.3325             !
 ! R12   R(5,6)                  1.4667         D2E/DX2 =    0.382              !
 ! R13   R(5,21)                 1.096          D2E/DX2 =    0.3844             !
 ! R14   R(6,22)                 1.0949         D2E/DX2 =    0.3848             !
 ! R15   R(8,11)                 2.9357         D2E/DX2 =    0.0175             !
 ! R16   R(12,13)                1.3754         D2E/DX2 =    0.3711             !
 ! R17   R(12,14)                1.3788         D2E/DX2 =    0.3706             !
 ! R18   R(13,15)                1.191          D2E/DX2 =    0.7854             !
 ! R19   R(14,16)                1.189          D2E/DX2 =    0.7842             !
 ! R20   R(17,18)                1.1015         D2E/DX2 =    0.3647             !
 ! R21   R(17,19)                1.1019         D2E/DX2 =    0.3644             !
 ! R22   R(17,20)                1.0981         D2E/DX2 =    0.365              !
 ! A1    A(5,1,9)              118.6813         D2E/DX2 =    0.0919             !
 ! A2    A(5,1,17)             124.1829         D2E/DX2 =    0.1201             !
 ! A3    A(9,1,17)             117.1336         D2E/DX2 =    0.0909             !
 ! A4    A(4,2,10)             129.7688         D2E/DX2 =    0.0711             !
 ! A5    A(4,2,13)             107.8426         D2E/DX2 =    0.094              !
 ! A6    A(10,2,13)            122.3798         D2E/DX2 =    0.0746             !
 ! A7    A(6,3,7)              120.7947         D2E/DX2 =    0.0932             !
 ! A8    A(6,3,8)              122.351          D2E/DX2 =    0.1265             !
 ! A9    A(7,3,8)              116.8513         D2E/DX2 =    0.0828             !
 ! A10   A(2,4,11)             129.7861         D2E/DX2 =    0.0802             !
 ! A11   A(2,4,14)             107.8882         D2E/DX2 =    0.0939             !
 ! A12   A(11,4,14)            122.3181         D2E/DX2 =    0.0806             !
 ! A13   A(1,5,6)              126.4011         D2E/DX2 =    0.1475             !
 ! A14   A(1,5,21)             118.0768         D2E/DX2 =    0.1025             !
 ! A15   A(6,5,21)             115.5045         D2E/DX2 =    0.1011             !
 ! A16   A(3,6,5)              126.9256         D2E/DX2 =    0.176              !
 ! A17   A(3,6,22)             117.8167         D2E/DX2 =    0.1097             !
 ! A18   A(5,6,22)             115.2221         D2E/DX2 =    0.1077             !
 ! A19   A(3,8,11)              98.3809         D2E/DX2 =    0.0933             !
 ! A20   A(4,11,8)              84.2232         D2E/DX2 =    0.4615             !
 ! A21   A(13,12,14)           109.453          D2E/DX2 =    0.1413             !
 ! A22   A(2,13,12)            107.4677         D2E/DX2 =    0.1102             !
 ! A23   A(2,13,15)            130.1754         D2E/DX2 =    0.1372             !
 ! A24   A(12,13,15)           122.3434         D2E/DX2 =    0.1527             !
 ! A25   A(4,14,12)            107.3113         D2E/DX2 =    0.1101             !
 ! A26   A(4,14,16)            130.3423         D2E/DX2 =    0.1361             !
 ! A27   A(12,14,16)           122.331          D2E/DX2 =    0.1508             !
 ! A28   A(1,17,18)            111.2428         D2E/DX2 =    0.0994             !
 ! A29   A(1,17,19)            110.7377         D2E/DX2 =    0.107              !
 ! A30   A(1,17,20)            111.6576         D2E/DX2 =    0.1022             !
 ! A31   A(18,17,19)           107.2451         D2E/DX2 =    0.0545             !
 ! A32   A(18,17,20)           107.6488         D2E/DX2 =    0.0535             !
 ! A33   A(19,17,20)           108.1259         D2E/DX2 =    0.0547             !
 ! D1    D(9,1,5,6)              2.8923         D2E/DX2 =    0.0156             !
 ! D2    D(9,1,5,21)          -178.7072         D2E/DX2 =    0.0158             !
 ! D3    D(17,1,5,6)          -177.6599         D2E/DX2 =    0.0207             !
 ! D4    D(17,1,5,21)            0.7407         D2E/DX2 =    0.0147             !
 ! D5    D(5,1,17,18)          -61.8477         D2E/DX2 =    0.0121             !
 ! D6    D(5,1,17,19)           57.3149         D2E/DX2 =    0.0129             !
 ! D7    D(5,1,17,20)          177.8639         D2E/DX2 =    0.0127             !
 ! D8    D(9,1,17,18)          117.608          D2E/DX2 =    0.0125             !
 ! D9    D(9,1,17,19)         -123.2294         D2E/DX2 =    0.0121             !
 ! D10   D(9,1,17,20)           -2.6805         D2E/DX2 =    0.0132             !
 ! D11   D(10,2,4,11)           -0.0525         D2E/DX2 =    0.0108             !
 ! D12   D(10,2,4,14)          178.9412         D2E/DX2 =    0.0113             !
 ! D13   D(13,2,4,11)         -178.9669         D2E/DX2 =    0.018              !
 ! D14   D(13,2,4,14)            0.0267         D2E/DX2 =    0.0136             !
 ! D15   D(4,2,13,12)           -1.1894         D2E/DX2 =    0.0143             !
 ! D16   D(4,2,13,15)          177.473          D2E/DX2 =    0.0161             !
 ! D17   D(10,2,13,12)         179.7986         D2E/DX2 =    0.0121             !
 ! D18   D(10,2,13,15)          -1.539          D2E/DX2 =    0.0168             !
 ! D19   D(7,3,6,5)            178.8548         D2E/DX2 =    0.0427             !
 ! D20   D(7,3,6,22)             1.1375         D2E/DX2 =    0.0237             !
 ! D21   D(8,3,6,5)             -1.8009         D2E/DX2 =    0.0338             !
 ! D22   D(8,3,6,22)          -179.5182         D2E/DX2 =    0.0257             !
 ! D23   D(6,3,8,11)            96.9671         D2E/DX2 =    0.1187             !
 ! D24   D(7,3,8,11)           -83.6642         D2E/DX2 =    0.0943             !
 ! D25   D(2,4,11,8)           -86.8338         D2E/DX2 =    0.0396             !
 ! D26   D(14,4,11,8)           94.2995         D2E/DX2 =    0.0284             !
 ! D27   D(2,4,14,12)            1.1405         D2E/DX2 =    0.0139             !
 ! D28   D(2,4,14,16)         -177.4281         D2E/DX2 =    0.0153             !
 ! D29   D(11,4,14,12)        -179.7746         D2E/DX2 =    0.0172             !
 ! D30   D(11,4,14,16)           1.6568         D2E/DX2 =    0.0167             !
 ! D31   D(1,5,6,3)              7.8539         D2E/DX2 =    0.0092             !
 ! D32   D(1,5,6,22)          -174.3778         D2E/DX2 =    0.0168             !
 ! D33   D(21,5,6,3)          -170.5825         D2E/DX2 =    0.0094             !
 ! D34   D(21,5,6,22)            7.1858         D2E/DX2 =    0.0099             !
 ! D35   D(3,8,11,4)           -60.5464         D2E/DX2 =    0.0639             !
 ! D36   D(14,12,13,2)           1.9293         D2E/DX2 =    0.0143             !
 ! D37   D(14,12,13,15)       -176.8611         D2E/DX2 =    0.0137             !
 ! D38   D(13,12,14,4)          -1.9112         D2E/DX2 =    0.0141             !
 ! D39   D(13,12,14,16)        176.7977         D2E/DX2 =    0.0146             !
 --------------------------------------------------------------------------------
 Trust Radius=1.00D-01 FncErr=1.00D-07 GrdErr=1.00D-06 EigMax=2.50D+02 EigMin=1.00D-04
 Number of steps in this run=     50 maximum allowed number of steps=    132.
 Search for a saddle point of order  1.
 GradGradGradGradGradGradGradGradGradGradGradGradGradGradGradGradGradGrad

                          Input orientation:                          
 ---------------------------------------------------------------------
 Center     Atomic      Atomic             Coordinates (Angstroms)
 Number     Number       Type             X           Y           Z
 ---------------------------------------------------------------------
      1          6           0       -2.259224    0.438357   -0.073869
      2          6           0        0.070040   -0.383015    1.914756
      3          6           0       -0.231399    2.748429   -0.084533
      4          6           0        0.960510    0.610469    1.943491
      5          6           0       -1.293662    0.655949   -0.983394
      6          6           0       -0.374487    1.798228   -1.020640
      7          1           0        0.501497    3.548613   -0.207573
      8          1           0       -0.839367    2.770813    0.824428
      9          1           0       -2.429509    1.192610    0.703541
     10          1           0       -0.767949   -0.586094    2.578532
     11          1           0        1.051292    1.444278    2.636561
     12          8           0        1.511256   -0.729331    0.141747
     13          6           0        0.414585   -1.271783    0.770097
     14          6           0        1.914751    0.402545    0.817961
     15          8           0       -0.089120   -2.288491    0.408005
     16          8           0        2.879204    1.022028    0.502151
     17          6           0       -3.141686   -0.777073   -0.054182
     18          1           0       -3.745569   -0.846751   -0.972780
     19          1           0       -2.537937   -1.696589    0.010385
     20          1           0       -3.833336   -0.761944    0.798574
     21          1           0       -1.146316   -0.094181   -1.768826
     22          1           0        0.279127    1.842736   -1.897933
 ---------------------------------------------------------------------
                    Distance matrix (angstroms):
                    1          2          3          4          5
     1  C    0.000000
     2  C    3.170923   0.000000
     3  C    3.073860   3.727460   0.000000
     4  C    3.803426   1.334456   3.178742   0.000000
     5  C    1.344206   3.367254   2.512932   3.694592   0.000000
     6  C    2.509554   3.684016   1.341511   3.461078   1.466654
     7  H    4.160907   4.488667   1.092048   3.670212   3.491704
     8  H    2.874592   3.458680   1.093771   3.026374   2.819088
     9  H    1.096476   3.193334   2.805944   3.656309   2.103307
    10  H    3.210706   1.088148   4.301028   2.196045   3.808721
    11  H    4.395204   2.196100   3.278789   1.088037   4.384557
    12  O    3.953037   2.310973   3.896519   2.311853   3.324531
    13  C    3.284222   1.489585   4.160504   2.284242   3.115925
    14  C    4.268338   2.285393   3.305091   1.490176   3.688225
    15  O    3.518132   2.434434   5.062944   3.444330   3.472267
    16  O    5.203452   3.443980   3.605623   2.434795   4.444510
    17  C    1.502131   3.787768   4.571636   4.769066   2.516382
    18  H    2.160732   4.807472   5.105261   5.724972   2.875772
    19  H    2.154710   3.486209   5.008724   4.615035   2.840819
    20  H    2.163264   4.077474   5.106520   5.116182   3.411125
    21  H    2.096435   3.889951   3.428462   4.326262   1.096043
    22  H    3.426764   4.419760   2.090296   4.091369   2.172213
                    6          7          8          9         10
     6  C    0.000000
     7  H    2.119498   0.000000
     8  H    2.136893   1.862234   0.000000
     9  H    2.750035   3.869325   2.243633   0.000000
    10  H    4.335187   5.144869   3.788245   3.072485   0.000000
    11  H    3.941224   3.580447   2.935662   3.989471   2.726795
    12  O    3.360911   4.409358   4.271122   4.420305   3.339642
    13  C    3.640652   4.919310   4.232958   3.763846   2.266935
    14  C    3.250999   3.598159   3.632341   4.417000   3.357662
    15  O    4.338633   5.899114   5.131553   4.205095   2.840801
    16  O    3.675308   3.541304   4.121879   5.315270   4.494345
    17  C    3.901745   5.657550   4.319737   2.227328   3.549970
    18  H    4.285137   6.159734   4.976217   2.949755   4.641765
    19  H    4.237603   6.066119   4.848246   2.973162   3.310806
    20  H    4.672008   6.195483   4.630863   2.408327   3.549053
    21  H    2.176400   4.292172   3.876516   3.068389   4.391431
    22  H    1.094913   2.411800   3.086034   3.811435   5.199454
                   11         12         13         14         15
    11  H    0.000000
    12  O    3.340694   0.000000
    13  C    3.356497   1.375414   0.000000
    14  C    2.266732   1.378846   2.248591   0.000000
    15  O    4.494503   2.250128   1.191018   3.380124   0.000000
    16  O    2.841701   2.251318   3.377531   1.188977   4.447398
    17  C    5.454866   4.657310   3.683917   5.264949   3.437464
    18  H    6.425420   5.374957   4.530469   6.066854   4.165909
    19  H    5.444668   4.165190   3.078150   4.988484   2.550521
    20  H    5.666145   5.384900   4.278503   5.864888   4.062271
    21  H    5.157884   3.334125   3.204573   4.038358   3.266688
    22  H    4.616996   3.506275   4.103287   3.482169   4.745523
                   16         17         18         19         20
    16  O    0.000000
    17  C    6.308518   0.000000
    18  H    7.039558   1.101522   0.000000
    19  H    6.080965   1.101904   1.774038   0.000000
    20  H    6.951879   1.098090   1.775553   1.781254   0.000000
    21  H    4.754795   2.718060   2.820668   2.769461   3.775914
    22  H    3.632406   4.686660   4.928227   4.909618   5.564877
                   21         22
    21  H    0.000000
    22  H    2.408361   0.000000
 Stoichiometry    C9H10O3
 Framework group  C1[X(C9H10O3)]
 Deg. of freedom    60
 Full point group                 C1      NOp   1
 Largest Abelian subgroup         C1      NOp   1
 Largest concise Abelian subgroup C1      NOp   1
                         Standard orientation:                         
 ---------------------------------------------------------------------
 Center     Atomic      Atomic             Coordinates (Angstroms)
 Number     Number       Type             X           Y           Z
 ---------------------------------------------------------------------
      1          6           0       -2.177116    0.626652    0.274539
      2          6           0        0.331450   -1.042273    1.262737
      3          6           0        0.199106    2.574241    0.369839
      4          6           0        1.378244   -0.217334    1.329599
      5          6           0       -1.410074    1.009861   -0.760684
      6          6           0       -0.322041    1.992549   -0.720891
      7          1           0        1.025333    3.283222    0.284602
      8          1           0       -0.180296    2.376447    1.376451
      9          1           0       -2.027704    1.109828    1.247409
     10          1           0       -0.364353   -1.348454    2.041311
     11          1           0        1.774238    0.337755    2.177474
     12          8           0        1.258663   -0.970505   -0.852853
     13          6           0        0.243248   -1.555548   -0.132839
     14          6           0        2.006768   -0.165028   -0.020529
     15          8           0       -0.510432   -2.340736   -0.616543
     16          8           0        2.978403    0.408540   -0.395510
     17          6           0       -3.247679   -0.423527    0.188413
     18          1           0       -4.039507   -0.129216   -0.518510
     19          1           0       -2.829603   -1.378539   -0.168458
     20          1           0       -3.720836   -0.600809    1.163346
     21          1           0       -1.582418    0.535723   -1.733720
     22          1           0        0.120633    2.238091   -1.691759
 ---------------------------------------------------------------------
 Rotational constants (GHZ):           1.2079405           0.8429596           0.6132918
 Basis read from chk: "da-2_1_opt_dft.chk" (5D, 7F)
 Pseudo-potential data read from chk file.
 There are   230 symmetry adapted cartesian basis functions of A   symmetry.
 There are   218 symmetry adapted basis functions of A   symmetry.
   218 basis functions,   370 primitive gaussians,   230 cartesian basis functions
    44 alpha electrons       44 beta electrons
       nuclear repulsion energy       688.3123336670 Hartrees.
 NAtoms=   22 NActive=   22 NUniq=   22 SFac= 1.00D+00 NAtFMM=   60 NAOKFM=F Big=F
 Integral buffers will be    131072 words long.
 Raffenetti 2 integral format.
 Two-electron integral symmetry is turned on.
 Nuclear repulsion after empirical dispersion term =      688.2968265961 Hartrees.
 ------------------------------------------------------------------------------
 Polarizable Continuum Model (PCM)
 =================================
 Model                : PCM.
 Atomic radii         : UFF (Universal Force Field).
 Polarization charges : Total charges.
 Charge compensation  : None.
 Solution method      : On-the-fly selection.
 Cavity type          : Scaled VdW (van der Waals Surface) (Alpha=1.100).
 Cavity algorithm     : GePol (No added spheres)
                        Default sphere list used, NSphG=   22.
                        Lebedev-Laikov grids with approx.  5.0 points / Ang**2.
                        Smoothing algorithm: York/Karplus (Gamma=1.0000).
                        Polarization charges: spherical gaussians, with
                                              point-specific exponents (IZeta= 3).
                        Self-potential: point-specific (ISelfS= 7).
                        Self-field    : sphere-specific E.n sum rule (ISelfD= 2).
 1st derivatives      : Analytical E(r).r(x)/FMM algorithm (CHGder, D1EAlg=3).
                        Cavity 1st derivative terms included.
 Solvent              : Toluene, Eps=   2.374100 Eps(inf)=   2.238315
 ------------------------------------------------------------------------------
 One-electron integrals computed using PRISM.
   1 Symmetry operations used in ECPInt.
 ECPInt:  NShTT=    5253 NPrTT=   19101 LenC2=    5151 LenP2D=   14297.
 LDataN:  DoStor=T MaxTD1= 4 Len=   56
 NBasis=   218 RedAO= T EigKep=  5.02D-04  NBF=   218
 NBsUse=   218 1.00D-06 EigRej= -1.00D+00 NBFU=   218
 Initial guess from the checkpoint file:  "da-2_1_opt_dft.chk"
 B after Tr=    -0.000000    0.000000    0.000000
         Rot=    1.000000   -0.000000    0.000000   -0.000000 Ang=   0.00 deg.
 Requested convergence on RMS density matrix=1.00D-08 within 128 cycles.
 Requested convergence on MAX density matrix=1.00D-06.
 Requested convergence on             energy=1.00D-06.
 No special actions if energy rises.
 Inv3:  Mode=1 IEnd=     9806592.
 Iteration    1 A*A^-1 deviation from unit magnitude is 2.66D-15 for     53.
 Iteration    1 A*A^-1 deviation from orthogonality  is 3.22D-15 for   1626    727.
 Iteration    1 A^-1*A deviation from unit magnitude is 3.00D-15 for    248.
 Iteration    1 A^-1*A deviation from orthogonality  is 1.94D-15 for   1729   1645.
 Error on total polarization charges =  0.00604
 SCF Done:  E(RwB97XD) =  -573.998631054     A.U. after    1 cycles
            NFock=  1  Conv=0.15D-08     -V/T= 2.0097

 **********************************************************************

            Population analysis using the SCF Density.

 **********************************************************************

 Orbital symmetries:
       Occupied  (A) (A) (A) (A) (A) (A) (A) (A) (A) (A) (A) (A)
                 (A) (A) (A) (A) (A) (A) (A) (A) (A) (A) (A) (A)
                 (A) (A) (A) (A) (A) (A) (A) (A) (A) (A) (A) (A)
                 (A) (A) (A) (A) (A) (A) (A) (A)
       Virtual   (A) (A) (A) (A) (A) (A) (A) (A) (A) (A) (A) (A)
                 (A) (A) (A) (A) (A) (A) (A) (A) (A) (A) (A) (A)
                 (A) (A) (A) (A) (A) (A) (A) (A) (A) (A) (A) (A)
                 (A) (A) (A) (A) (A) (A) (A) (A) (A) (A) (A) (A)
                 (A) (A) (A) (A) (A) (A) (A) (A) (A) (A) (A) (A)
                 (A) (A) (A) (A) (A) (A) (A) (A) (A) (A) (A) (A)
                 (A) (A) (A) (A) (A) (A) (A) (A) (A) (A) (A) (A)
                 (A) (A) (A) (A) (A) (A) (A) (A) (A) (A) (A) (A)
                 (A) (A) (A) (A) (A) (A) (A) (A) (A) (A) (A) (A)
                 (A) (A) (A) (A) (A) (A) (A) (A) (A) (A) (A) (A)
                 (A) (A) (A) (A) (A) (A) (A) (A) (A) (A) (A) (A)
                 (A) (A) (A) (A) (A) (A) (A) (A) (A) (A) (A) (A)
                 (A) (A) (A) (A) (A) (A) (A) (A) (A) (A) (A) (A)
                 (A) (A) (A) (A) (A) (A) (A) (A) (A) (A) (A) (A)
                 (A) (A) (A) (A) (A) (A)
 The electronic state is 1-A.
 Alpha  occ. eigenvalues --  -19.33313 -19.28006 -19.27859 -10.46131 -10.46013
 Alpha  occ. eigenvalues --  -10.35480 -10.35402 -10.31563 -10.31365 -10.30626
 Alpha  occ. eigenvalues --  -10.30593 -10.29897  -1.25211  -1.17959  -1.14137
 Alpha  occ. eigenvalues --   -0.94333  -0.91226  -0.85509  -0.79637  -0.77622
 Alpha  occ. eigenvalues --   -0.73531  -0.69444  -0.68738  -0.62075  -0.60670
 Alpha  occ. eigenvalues --   -0.60452  -0.57624  -0.56916  -0.55625  -0.54403
 Alpha  occ. eigenvalues --   -0.53380  -0.51994  -0.50502  -0.49800  -0.49498
 Alpha  occ. eigenvalues --   -0.47777  -0.43649  -0.43489  -0.42990  -0.42034
 Alpha  occ. eigenvalues --   -0.41093  -0.39122  -0.38143  -0.31113
 Alpha virt. eigenvalues --   -0.03732   0.02284   0.10936   0.12123   0.13696
 Alpha virt. eigenvalues --    0.15349   0.15898   0.16191   0.17118   0.19451
 Alpha virt. eigenvalues --    0.21089   0.21492   0.22504   0.24145   0.25010
 Alpha virt. eigenvalues --    0.27229   0.27865   0.29609   0.31893   0.33584
 Alpha virt. eigenvalues --    0.35274   0.36534   0.39147   0.40206   0.44035
 Alpha virt. eigenvalues --    0.45029   0.45468   0.48046   0.49128   0.49982
 Alpha virt. eigenvalues --    0.50608   0.52712   0.54049   0.54959   0.55697
 Alpha virt. eigenvalues --    0.57862   0.58871   0.60789   0.62538   0.63918
 Alpha virt. eigenvalues --    0.66107   0.69813   0.70384   0.70819   0.71564
 Alpha virt. eigenvalues --    0.72335   0.72707   0.73867   0.74684   0.74933
 Alpha virt. eigenvalues --    0.75380   0.76393   0.76620   0.77594   0.77999
 Alpha virt. eigenvalues --    0.78491   0.80245   0.80542   0.81732   0.86157
 Alpha virt. eigenvalues --    0.87553   0.88475   0.90251   0.91476   0.92907
 Alpha virt. eigenvalues --    0.99161   1.02315   1.05608   1.06254   1.09660
 Alpha virt. eigenvalues --    1.10901   1.12880   1.13286   1.16614   1.18667
 Alpha virt. eigenvalues --    1.19755   1.23238   1.24496   1.25466   1.27526
 Alpha virt. eigenvalues --    1.29750   1.30862   1.33917   1.35198   1.38859
 Alpha virt. eigenvalues --    1.39779   1.44551   1.45641   1.51507   1.56360
 Alpha virt. eigenvalues --    1.58457   1.60877   1.61765   1.62677   1.66436
 Alpha virt. eigenvalues --    1.67310   1.68652   1.70203   1.71814   1.74253
 Alpha virt. eigenvalues --    1.78080   1.78789   1.79822   1.81192   1.83377
 Alpha virt. eigenvalues --    1.86319   1.86957   1.87474   1.88296   1.89197
 Alpha virt. eigenvalues --    1.90341   1.90891   1.93499   1.94494   1.96783
 Alpha virt. eigenvalues --    1.97851   1.98556   2.03281   2.04134   2.06725
 Alpha virt. eigenvalues --    2.09862   2.11210   2.12816   2.13717   2.16504
 Alpha virt. eigenvalues --    2.17194   2.19331   2.21779   2.25966   2.28244
 Alpha virt. eigenvalues --    2.29745   2.31685   2.35239   2.38738   2.42061
 Alpha virt. eigenvalues --    2.42871   2.46486   2.47016   2.48716   2.53507
 Alpha virt. eigenvalues --    2.55893   2.60935   2.64416   2.65576   2.68079
 Alpha virt. eigenvalues --    2.69814   2.71103   2.71303   2.74556   2.77332
 Alpha virt. eigenvalues --    2.80306   2.81330   2.81845   2.86175   2.87113
 Alpha virt. eigenvalues --    2.91492   2.94886   3.00998   3.02263   3.03240
 Alpha virt. eigenvalues --    3.04145   3.10097   3.18367   3.25012   3.27156
 Alpha virt. eigenvalues --    3.28720   3.29117   3.34584   3.42955   3.51186
 Alpha virt. eigenvalues --    3.52468   3.73426   3.76614   3.79185
          Condensed to atoms (all electrons):
               1          2          3          4          5          6
     1  C    4.946472   0.005906  -0.023531  -0.004981   0.559412  -0.035297
     2  C    0.005906   5.394183  -0.006430   0.219789   0.006408  -0.008721
     3  C   -0.023531  -0.006430   4.785232   0.006320  -0.052209   0.626611
     4  C   -0.004981   0.219789   0.006320   5.414476  -0.010900   0.007055
     5  C    0.559412   0.006408  -0.052209  -0.010900   4.942427   0.341326
     6  C   -0.035297  -0.008721   0.626611   0.007055   0.341326   4.791857
     7  H   -0.000275   0.000254   0.392574  -0.001127   0.009877  -0.015292
     8  H    0.011312  -0.002706   0.377651   0.006026  -0.030892  -0.001520
     9  H    0.389689   0.003306   0.009996  -0.001564  -0.013497  -0.025074
    10  H    0.000786   0.429529  -0.000142  -0.045991  -0.000159   0.000007
    11  H   -0.000134  -0.047231   0.000543   0.429469  -0.000019   0.000122
    12  O   -0.001358  -0.107941  -0.001946  -0.109499   0.002352   0.003685
    13  C    0.002749   0.223298   0.000056   0.032672   0.001767   0.000350
    14  C   -0.000167   0.033293   0.003506   0.211386   0.001063  -0.000681
    15  O   -0.000539  -0.077109   0.000036   0.004210  -0.004126   0.000056
    16  O    0.000016   0.004413  -0.000071  -0.077779   0.000066  -0.003075
    17  C    0.391401  -0.001190   0.000039   0.000468  -0.058811   0.008146
    18  H   -0.019204   0.000085   0.000023  -0.000012  -0.009798  -0.000063
    19  H   -0.017667  -0.003196   0.000037   0.000248  -0.014954   0.000299
    20  H   -0.018043  -0.000057   0.000026  -0.000001   0.009299  -0.000375
    21  H   -0.063996   0.000488   0.010767  -0.000189   0.422164  -0.039223
    22  H    0.011442  -0.000105  -0.051968   0.000370  -0.046293   0.420132
               7          8          9         10         11         12
     1  C   -0.000275   0.011312   0.389689   0.000786  -0.000134  -0.001358
     2  C    0.000254  -0.002706   0.003306   0.429529  -0.047231  -0.107941
     3  C    0.392574   0.377651   0.009996  -0.000142   0.000543  -0.001946
     4  C   -0.001127   0.006026  -0.001564  -0.045991   0.429469  -0.109499
     5  C    0.009877  -0.030892  -0.013497  -0.000159  -0.000019   0.002352
     6  C   -0.015292  -0.001520  -0.025074   0.000007   0.000122   0.003685
     7  H    0.599608  -0.041218  -0.000082  -0.000000   0.000129   0.000008
     8  H   -0.041218   0.627999   0.001978  -0.000038   0.000210   0.000024
     9  H   -0.000082   0.001978   0.639228  -0.000069  -0.000051   0.000006
    10  H   -0.000000  -0.000038  -0.000069   0.567089  -0.005317   0.002824
    11  H    0.000129   0.000210  -0.000051  -0.005317   0.564869   0.002952
    12  O    0.000008   0.000024   0.000006   0.002824   0.002952   8.021005
    13  C   -0.000028   0.000329  -0.001149  -0.033827   0.009193   0.306269
    14  C    0.000982  -0.002089   0.000184   0.009035  -0.033510   0.299546
    15  O    0.000000  -0.000001   0.000011   0.001413  -0.000045  -0.063313
    16  O    0.000443  -0.000003   0.000001  -0.000046   0.001822  -0.065828
    17  C   -0.000005   0.000051  -0.044312  -0.000170  -0.000001   0.000008
    18  H    0.000001   0.000006   0.003825  -0.000002  -0.000000   0.000000
    19  H   -0.000000  -0.000001   0.003949   0.000334   0.000000   0.000147
    20  H   -0.000000   0.000009  -0.010403   0.000236   0.000000  -0.000000
    21  H   -0.000190  -0.000065   0.007899  -0.000042   0.000002  -0.000594
    22  H   -0.013550   0.007685  -0.000072   0.000003  -0.000025  -0.000176
              13         14         15         16         17         18
     1  C    0.002749  -0.000167  -0.000539   0.000016   0.391401  -0.019204
     2  C    0.223298   0.033293  -0.077109   0.004413  -0.001190   0.000085
     3  C    0.000056   0.003506   0.000036  -0.000071   0.000039   0.000023
     4  C    0.032672   0.211386   0.004210  -0.077779   0.000468  -0.000012
     5  C    0.001767   0.001063  -0.004126   0.000066  -0.058811  -0.009798
     6  C    0.000350  -0.000681   0.000056  -0.003075   0.008146  -0.000063
     7  H   -0.000028   0.000982   0.000000   0.000443  -0.000005   0.000001
     8  H    0.000329  -0.002089  -0.000001  -0.000003   0.000051   0.000006
     9  H   -0.001149   0.000184   0.000011   0.000001  -0.044312   0.003825
    10  H   -0.033827   0.009035   0.001413  -0.000046  -0.000170  -0.000002
    11  H    0.009193  -0.033510  -0.000045   0.001822  -0.000001  -0.000000
    12  O    0.306269   0.299546  -0.063313  -0.065828   0.000008   0.000000
    13  C    4.514444  -0.082951   0.730097   0.000416  -0.000581   0.000016
    14  C   -0.082951   4.506844   0.000725   0.758858  -0.000042   0.000001
    15  O    0.730097   0.000725   7.573372  -0.000013  -0.005217   0.000026
    16  O    0.000416   0.758858  -0.000013   7.551409  -0.000000   0.000000
    17  C   -0.000581  -0.000042  -0.005217  -0.000000   4.570939   0.395685
    18  H    0.000016   0.000001   0.000026   0.000000   0.395685   0.598915
    19  H    0.000442   0.000009   0.017590   0.000000   0.390661  -0.015342
    20  H    0.000038   0.000000   0.000009  -0.000000   0.388466  -0.020867
    21  H    0.001755  -0.000038   0.000796   0.000004  -0.008922   0.001811
    22  H   -0.000031   0.000349  -0.000002   0.000298  -0.000202   0.000006
              19         20         21         22
     1  C   -0.017667  -0.018043  -0.063996   0.011442
     2  C   -0.003196  -0.000057   0.000488  -0.000105
     3  C    0.000037   0.000026   0.010767  -0.051968
     4  C    0.000248  -0.000001  -0.000189   0.000370
     5  C   -0.014954   0.009299   0.422164  -0.046293
     6  C    0.000299  -0.000375  -0.039223   0.420132
     7  H   -0.000000  -0.000000  -0.000190  -0.013550
     8  H   -0.000001   0.000009  -0.000065   0.007685
     9  H    0.003949  -0.010403   0.007899  -0.000072
    10  H    0.000334   0.000236  -0.000042   0.000003
    11  H    0.000000   0.000000   0.000002  -0.000025
    12  O    0.000147  -0.000000  -0.000594  -0.000176
    13  C    0.000442   0.000038   0.001755  -0.000031
    14  C    0.000009   0.000000  -0.000038   0.000349
    15  O    0.017590   0.000009   0.000796  -0.000002
    16  O    0.000000  -0.000000   0.000004   0.000298
    17  C    0.390661   0.388466  -0.008922  -0.000202
    18  H   -0.015342  -0.020867   0.001811   0.000006
    19  H    0.590756  -0.020301   0.002163  -0.000001
    20  H   -0.020301   0.629220   0.000080   0.000006
    21  H    0.002163   0.000080   0.639300  -0.010653
    22  H   -0.000001   0.000006  -0.010653   0.634987
 Mulliken charges:
               1
     1  C   -0.133996
     2  C   -0.066265
     3  C   -0.077121
     4  C   -0.080447
     5  C   -0.054505
     6  C   -0.070326
     7  H    0.067893
     8  H    0.045253
     9  H    0.036201
    10  H    0.074546
    11  H    0.077022
    12  O   -0.288172
    13  C    0.294675
    14  C    0.293697
    15  O   -0.177975
    16  O   -0.170931
    17  C   -0.026411
    18  H    0.064890
    19  H    0.064827
    20  H    0.042660
    21  H    0.036681
    22  H    0.047802
 Sum of Mulliken charges =   0.00000
 Mulliken charges with hydrogens summed into heavy atoms:
               1
     1  C   -0.097795
     2  C    0.008280
     3  C    0.036026
     4  C   -0.003425
     5  C   -0.017824
     6  C   -0.022523
    12  O   -0.288172
    13  C    0.294675
    14  C    0.293697
    15  O   -0.177975
    16  O   -0.170931
    17  C    0.145967
 Electronic spatial extent (au):  <R**2>=           1977.2534
 Charge=              0.0000 electrons
 Dipole moment (field-independent basis, Debye):
    X=             -1.8666    Y=              1.0026    Z=              4.0804  Tot=              4.5977
 Quadrupole moment (field-independent basis, Debye-Ang):
   XX=            -75.5184   YY=            -75.0120   ZZ=            -64.6462
   XY=             -0.9625   XZ=              3.5133   YZ=             -3.3647
 Traceless Quadrupole moment (field-independent basis, Debye-Ang):
   XX=             -3.7929   YY=             -3.2865   ZZ=              7.0793
   XY=             -0.9625   XZ=              3.5133   YZ=             -3.3647
 Octapole moment (field-independent basis, Debye-Ang**2):
  XXX=            -27.4164  YYY=              0.4198  ZZZ=              3.7423  XYY=             18.1920
  XXY=            -13.4704  XXZ=             10.6372  XZZ=              1.7217  YZZ=              1.6797
  YYZ=              7.0696  XYZ=              1.7178
 Hexadecapole moment (field-independent basis, Debye-Ang**3):
 XXXX=          -1418.7654 YYYY=           -933.5207 ZZZZ=           -304.8129 XXXY=             -3.9890
 XXXZ=             19.1272 YYYX=             22.5852 YYYZ=             -4.0171 ZZZX=             -0.2601
 ZZZY=              1.4870 XXYY=           -382.7571 XXZZ=           -269.4424 YYZZ=           -199.4696
 XXYZ=              7.7670 YYXZ=            -10.3347 ZZXY=              9.9019
 N-N= 6.882968265961D+02 E-N=-2.713699555403D+03  KE= 5.684967436661D+02
   1 Symmetry operations used in ECPInt.
 ECPInt:  NShTT=    5253 NPrTT=   19101 LenC2=    5151 LenP2D=   14297.
 LDataN:  DoStor=T MaxTD1= 5 Len=  102
 D1PCM: PCM CHGder 1st derivatives, ID1Alg=3 FixD1E=F DoIter=F DoCFld=F I1PDM=0.
 Calling FoFJK, ICntrl=      2127 FMM=F ISym2X=0 I1Cent= 0 IOpClX= 0 NMat=1 NMatS=1 NMatT=0.
 ***** Axes restored to original set *****
 -------------------------------------------------------------------
 Center     Atomic                   Forces (Hartrees/Bohr)
 Number     Number              X              Y              Z
 -------------------------------------------------------------------
      1        6           0.000009903    0.000009083    0.000002462
      2        6           0.000007073    0.000016017    0.000005714
      3        6          -0.000006078    0.000008173   -0.000001638
      4        6           0.000022676    0.000000383   -0.000008366
      5        6          -0.000015832    0.000001440    0.000010681
      6        6           0.000005473    0.000007684    0.000008055
      7        1          -0.000005355    0.000003832    0.000005113
      8        1          -0.000012898   -0.000007675   -0.000011608
      9        1           0.000004732    0.000005924   -0.000002325
     10        1          -0.000003537   -0.000001395   -0.000002088
     11        1          -0.000008184   -0.000019345    0.000019011
     12        8           0.000000556    0.000000691    0.000001924
     13        6          -0.000014257   -0.000037463   -0.000021090
     14        6          -0.000009628   -0.000005147   -0.000006875
     15        8           0.000004918    0.000025464    0.000008844
     16        8          -0.000005311    0.000003940    0.000003579
     17        6          -0.000000638    0.000001625    0.000005016
     18        1           0.000001450   -0.000004287   -0.000004314
     19        1           0.000017785   -0.000008759   -0.000012732
     20        1           0.000006815   -0.000009200   -0.000000700
     21        1           0.000000979    0.000004030   -0.000001288
     22        1          -0.000000643    0.000004984    0.000002626
 -------------------------------------------------------------------
 Cartesian Forces:  Max     0.000037463 RMS     0.000010214

 GradGradGradGradGradGradGradGradGradGradGradGradGradGradGradGradGradGrad
 Berny optimization.
 FormGI is forming the generalized inverse of G from B-inverse, IUseBI=4.
 Internal  Forces:  Max     0.000138641 RMS     0.000026072
 Search for a saddle point.
 Step number   1 out of a maximum of   50
 All quantities printed in internal units (Hartrees-Bohrs-Radians)
 Swapping is turned off.
 Second derivative matrix not updated -- first step.
 ITU=  0
     Eigenvalues ---   -0.00404   0.00055   0.00357   0.00604   0.01358
     Eigenvalues ---    0.01525   0.01814   0.01836   0.02012   0.02303
     Eigenvalues ---    0.02402   0.02896   0.03066   0.03685   0.04551
     Eigenvalues ---    0.05534   0.05647   0.05956   0.06405   0.07371
     Eigenvalues ---    0.09274   0.10182   0.10883   0.10991   0.12036
     Eigenvalues ---    0.12276   0.12936   0.13768   0.14227   0.14706
     Eigenvalues ---    0.17136   0.17818   0.18056   0.18701   0.23529
     Eigenvalues ---    0.24547   0.28565   0.29241   0.31090   0.31929
     Eigenvalues ---    0.36508   0.36528   0.36669   0.38414   0.38548
     Eigenvalues ---    0.38674   0.39091   0.39201   0.39353   0.39761
     Eigenvalues ---    0.40637   0.40857   0.42236   0.44121   0.59475
     Eigenvalues ---    0.61285   0.62607   0.78419   0.78720   0.83936
 Eigenvectors required to have negative eigenvalues:
                          D8        D9        D10       D5        D6
   1                    0.41916   0.41584   0.40281   0.39580   0.39247
                          D7        D35       D33       D34       D31
   1                    0.37944   0.07881  -0.07188  -0.06925  -0.06564
 RFO step:  Lambda0=1.790403347D-07 Lambda=-5.35588591D-07.
 Linear search not attempted -- option 19 set.
 Iteration  1 RMS(Cart)=  0.00248199 RMS(Int)=  0.00000204
 Iteration  2 RMS(Cart)=  0.00000405 RMS(Int)=  0.00000001
 Iteration  3 RMS(Cart)=  0.00000000 RMS(Int)=  0.00000001
 Variable       Old X    -DE/DX   Delta X   Delta X   Delta X     New X
                                 (Linear)    (Quad)   (Total)
    R1        2.54018  -0.00003   0.00000  -0.00001  -0.00001   2.54017
    R2        2.07204   0.00000   0.00000  -0.00001  -0.00001   2.07203
    R3        2.83862  -0.00000   0.00000  -0.00000  -0.00000   2.83861
    R4        2.52176  -0.00001   0.00000  -0.00000  -0.00000   2.52175
    R5        2.05630   0.00000   0.00000   0.00001   0.00001   2.05632
    R6        2.81491  -0.00000   0.00000   0.00001   0.00001   2.81492
    R7        2.53509  -0.00002   0.00000  -0.00002  -0.00002   2.53507
    R8        2.06367  -0.00000   0.00000  -0.00000  -0.00000   2.06367
    R9        2.06693   0.00001   0.00000  -0.00002  -0.00002   2.06691
   R10        2.05609   0.00000   0.00000  -0.00000  -0.00000   2.05609
   R11        2.81602  -0.00000   0.00000  -0.00000  -0.00000   2.81602
   R12        2.77157  -0.00002   0.00000   0.00002   0.00002   2.77160
   R13        2.07122  -0.00000   0.00000  -0.00001  -0.00001   2.07121
   R14        2.06909   0.00000   0.00000  -0.00000  -0.00000   2.06908
   R15        5.54760   0.00001   0.00000   0.01008   0.01008   5.55768
   R16        2.59916   0.00000   0.00000   0.00003   0.00003   2.59918
   R17        2.60564   0.00001   0.00000  -0.00002  -0.00002   2.60562
   R18        2.25070  -0.00003   0.00000  -0.00003  -0.00003   2.25067
   R19        2.24684  -0.00000   0.00000   0.00000   0.00000   2.24684
   R20        2.08158   0.00000   0.00000  -0.00001  -0.00001   2.08157
   R21        2.08230   0.00001   0.00000   0.00003   0.00003   2.08233
   R22        2.07509  -0.00000   0.00000  -0.00001  -0.00001   2.07508
    A1        2.07138   0.00001   0.00000   0.00005   0.00005   2.07143
    A2        2.16740  -0.00004   0.00000  -0.00009  -0.00009   2.16731
    A3        2.04437   0.00003   0.00000   0.00005   0.00005   2.04441
    A4        2.26489  -0.00001   0.00000  -0.00004  -0.00004   2.26485
    A5        1.88221   0.00001   0.00000   0.00003   0.00003   1.88224
    A6        2.13593  -0.00001   0.00000   0.00000   0.00000   2.13593
    A7        2.10827  -0.00002   0.00000   0.00000   0.00000   2.10827
    A8        2.13543   0.00003   0.00000  -0.00002  -0.00002   2.13540
    A9        2.03944  -0.00002   0.00000   0.00002   0.00002   2.03946
   A10        2.26519  -0.00007   0.00000  -0.00016  -0.00016   2.26503
   A11        1.88300  -0.00000   0.00000  -0.00002  -0.00002   1.88298
   A12        2.13485   0.00007   0.00000   0.00018   0.00018   2.13504
   A13        2.20612   0.00001   0.00000   0.00009   0.00009   2.20620
   A14        2.06083  -0.00000   0.00000  -0.00005  -0.00005   2.06078
   A15        2.01593  -0.00000   0.00000  -0.00005  -0.00005   2.01589
   A16        2.21527  -0.00000   0.00000   0.00009   0.00009   2.21537
   A17        2.05629   0.00000   0.00000  -0.00003  -0.00003   2.05626
   A18        2.01100   0.00000   0.00000  -0.00006  -0.00006   2.01094
   A19        1.71707   0.00005   0.00000  -0.00394  -0.00394   1.71314
   A20        1.46997  -0.00005   0.00000   0.00027   0.00027   1.47024
   A21        1.91031   0.00000   0.00000   0.00001   0.00001   1.91033
   A22        1.87567  -0.00001   0.00000  -0.00004  -0.00004   1.87563
   A23        2.27199  -0.00001   0.00000   0.00000   0.00000   2.27199
   A24        2.13530   0.00002   0.00000   0.00003   0.00003   2.13532
   A25        1.87294  -0.00000   0.00000   0.00001   0.00001   1.87295
   A26        2.27490  -0.00000   0.00000  -0.00001  -0.00001   2.27489
   A27        2.13508   0.00000   0.00000  -0.00000  -0.00000   2.13508
   A28        1.94155   0.00000   0.00000   0.00008   0.00008   1.94163
   A29        1.93274  -0.00002   0.00000  -0.00016  -0.00016   1.93258
   A30        1.94879   0.00001   0.00000   0.00006   0.00006   1.94885
   A31        1.87178  -0.00000   0.00000  -0.00002  -0.00002   1.87176
   A32        1.87883   0.00000   0.00000   0.00013   0.00013   1.87896
   A33        1.88715   0.00000   0.00000  -0.00010  -0.00010   1.88706
    D1        0.05048   0.00002   0.00000  -0.00035  -0.00035   0.05013
    D2       -3.11903  -0.00001   0.00000  -0.00075  -0.00075  -3.11978
    D3       -3.10075   0.00003   0.00000   0.00008   0.00008  -3.10067
    D4        0.01293   0.00001   0.00000  -0.00032  -0.00032   0.01261
    D5       -1.07945  -0.00000   0.00000   0.00189   0.00189  -1.07756
    D6        1.00033  -0.00001   0.00000   0.00181   0.00181   1.00214
    D7        3.10431  -0.00001   0.00000   0.00162   0.00162   3.10593
    D8        2.05265   0.00001   0.00000   0.00231   0.00231   2.05496
    D9       -2.15076  -0.00000   0.00000   0.00223   0.00223  -2.14853
   D10       -0.04678  -0.00000   0.00000   0.00204   0.00204  -0.04474
   D11       -0.00092  -0.00000   0.00000   0.00022   0.00022  -0.00070
   D12        3.12311   0.00001   0.00000   0.00017   0.00017   3.12328
   D13       -3.12356  -0.00001   0.00000   0.00042   0.00042  -3.12315
   D14        0.00047   0.00000   0.00000   0.00037   0.00037   0.00084
   D15       -0.02076   0.00000   0.00000  -0.00032  -0.00032  -0.02108
   D16        3.09749   0.00000   0.00000  -0.00050  -0.00050   3.09699
   D17        3.13808  -0.00000   0.00000  -0.00014  -0.00014   3.13794
   D18       -0.02686  -0.00000   0.00000  -0.00032  -0.00032  -0.02718
   D19        3.12161  -0.00005   0.00000  -0.00021  -0.00021   3.12140
   D20        0.01985  -0.00002   0.00000  -0.00043  -0.00043   0.01943
   D21       -0.03143  -0.00005   0.00000  -0.00046  -0.00046  -0.03189
   D22       -3.13318  -0.00003   0.00000  -0.00068  -0.00068  -3.13386
   D23        1.69240  -0.00007   0.00000  -0.00017  -0.00017   1.69223
   D24       -1.46022  -0.00008   0.00000  -0.00041  -0.00041  -1.46063
   D25       -1.51554   0.00001   0.00000   0.00018   0.00018  -1.51535
   D26        1.64584   0.00000   0.00000   0.00024   0.00024   1.64608
   D27        0.01991  -0.00000   0.00000  -0.00031  -0.00031   0.01960
   D28       -3.09671  -0.00000   0.00000  -0.00037  -0.00037  -3.09708
   D29       -3.13766   0.00000   0.00000  -0.00035  -0.00035  -3.13801
   D30        0.02892   0.00000   0.00000  -0.00042  -0.00042   0.02850
   D31        0.13708  -0.00002   0.00000  -0.00517  -0.00517   0.13191
   D32       -3.04347  -0.00004   0.00000  -0.00495  -0.00495  -3.04842
   D33       -2.97723   0.00001   0.00000  -0.00477  -0.00477  -2.98200
   D34        0.12542  -0.00001   0.00000  -0.00456  -0.00456   0.12086
   D35       -1.05673  -0.00014   0.00000  -0.00108  -0.00108  -1.05781
   D36        0.03367  -0.00000   0.00000   0.00012   0.00012   0.03379
   D37       -3.08681  -0.00000   0.00000   0.00028   0.00028  -3.08652
   D38       -0.03336   0.00000   0.00000   0.00010   0.00010  -0.03326
   D39        3.08570   0.00000   0.00000   0.00016   0.00016   3.08586
         Item               Value     Threshold  Converged?
 Maximum Force            0.000139     0.000450     YES
 RMS     Force            0.000026     0.000300     YES
 Maximum Displacement     0.007045     0.001800     NO 
 RMS     Displacement     0.002481     0.001200     NO 
 Predicted change in Energy=-1.782701D-07
 GradGradGradGradGradGradGradGradGradGradGradGradGradGradGradGradGradGrad

                          Input orientation:                          
 ---------------------------------------------------------------------
 Center     Atomic      Atomic             Coordinates (Angstroms)
 Number     Number       Type             X           Y           Z
 ---------------------------------------------------------------------
      1          6           0       -2.257662    0.437625   -0.073298
      2          6           0        0.069841   -0.382629    1.915930
      3          6           0       -0.232732    2.750150   -0.084726
      4          6           0        0.960875    0.610390    1.943123
      5          6           0       -1.293492    0.656954   -0.983875
      6          6           0       -0.373931    1.798972   -1.020116
      7          1           0        0.500817    3.549874   -0.206850
      8          1           0       -0.843095    2.773929    0.822581
      9          1           0       -2.426260    1.189985    0.706304
     10          1           0       -0.767583   -0.584792    2.580710
     11          1           0        1.052775    1.444437    2.635755
     12          8           0        1.509063   -0.730909    0.141710
     13          6           0        0.412879   -1.272507    0.771676
     14          6           0        1.913707    0.401328    0.816611
     15          8           0       -0.091425   -2.289439    0.411107
     16          8           0        2.877945    1.020314    0.499168
     17          6           0       -3.140369   -0.777647   -0.054997
     18          1           0       -3.744322   -0.846212   -0.973626
     19          1           0       -2.536648   -1.697283    0.008415
     20          1           0       -3.831834   -0.763555    0.797920
     21          1           0       -1.147446   -0.091655   -1.770993
     22          1           0        0.281596    1.842469   -1.896028
 ---------------------------------------------------------------------
                    Distance matrix (angstroms):
                    1          2          3          4          5
     1  C    0.000000
     2  C    3.169718   0.000000
     3  C    3.073799   3.729407   0.000000
     4  C    3.801944   1.334454   3.180478   0.000000
     5  C    1.344202   3.368721   2.512996   3.694815   0.000000
     6  C    2.509616   3.684655   1.341503   3.460523   1.466667
     7  H    4.160905   4.489600   1.092047   3.670776   3.491747
     8  H    2.874355   3.463050   1.093762   3.031637   2.819171
     9  H    1.096472   3.188546   2.805603   3.652169   2.103329
    10  H    3.210830   1.088155   4.302610   2.196029   3.811139
    11  H    4.394500   2.196014   3.280005   1.088035   4.384840
    12  O    3.949673   2.310955   3.899088   2.311856   3.323766
    13  C    3.281817   1.489589   4.163172   2.284269   3.117127
    14  C    4.265393   2.285374   3.307049   1.490176   3.686899
    15  O    3.516264   2.434425   5.065893   3.444331   3.474504
    16  O    5.200164   3.443967   3.606879   2.434790   4.442109
    17  C    1.502130   3.787617   4.571716   4.768578   2.516317
    18  H    2.160783   4.807523   5.104431   5.724333   2.875096
    19  H    2.154610   3.487222   5.009627   4.615313   2.841216
    20  H    2.163301   4.076532   5.106732   5.115591   3.411131
    21  H    2.096398   3.893565   3.428710   4.328110   1.096038
    22  H    3.426917   4.418928   2.090271   4.088828   2.172181
                    6          7          8          9         10
     6  C    0.000000
     7  H    2.119491   0.000000
     8  H    2.136864   1.862234   0.000000
     9  H    2.750172   3.869199   2.242501   0.000000
    10  H    4.336271   5.145366   3.791797   3.068296   0.000000
    11  H    3.940378   3.580213   2.940998   3.986378   2.726628
    12  O    3.360923   4.411706   4.275525   4.415356   3.339639
    13  C    3.641919   4.921443   4.237181   3.758836   2.266946
    14  C    3.249656   3.599593   3.637201   4.412421   3.357647
    15  O    4.340889   5.901711   5.135369   4.200594   2.840808
    16  O    3.672769   3.542297   4.126245   5.310959   4.494336
    17  C    3.901744   5.657626   4.319873   2.227355   3.551656
    18  H    4.284705   6.159116   4.974826   2.950517   4.643556
    19  H    4.237809   6.066728   4.850023   2.972466   3.314201
    20  H    4.672140   6.195732   4.631086   2.408392   3.549638
    21  H    2.176376   4.292324   3.876961   3.068382   4.395998
    22  H    1.094911   2.411765   3.085998   3.811870   5.199380
                   11         12         13         14         15
    11  H    0.000000
    12  O    3.340746   0.000000
    13  C    3.356492   1.375429   0.000000
    14  C    2.266841   1.378836   2.248606   0.000000
    15  O    4.494450   2.250145   1.191001   3.380121   0.000000
    16  O    2.841854   2.251309   3.377549   1.188978   4.447401
    17  C    5.455296   4.653826   3.681555   5.262449   3.434943
    18  H    6.425483   5.371715   4.528810   6.064206   4.164619
    19  H    5.445849   4.161661   3.076152   4.986282   2.547926
    20  H    5.666769   5.381157   4.275196   5.862469   4.058153
    21  H    5.159455   3.335284   3.208456   4.038488   3.272155
    22  H    4.614131   3.504472   4.103285   3.478374   4.747071
                   16         17         18         19         20
    16  O    0.000000
    17  C    6.305543   0.000000
    18  H    7.036154   1.101517   0.000000
    19  H    6.078157   1.101922   1.774036   0.000000
    20  H    6.949286   1.098084   1.775631   1.781200   0.000000
    21  H    4.753302   2.717898   2.819381   2.770237   3.775804
    22  H    3.626834   4.686604   4.928270   4.909098   5.564982
                   21         22
    21  H    0.000000
    22  H    2.408035   0.000000
 Stoichiometry    C9H10O3
 Framework group  C1[X(C9H10O3)]
 Deg. of freedom    60
 Full point group                 C1      NOp   1
 Largest Abelian subgroup         C1      NOp   1
 Largest concise Abelian subgroup C1      NOp   1
                         Standard orientation:                         
 ---------------------------------------------------------------------
 Center     Atomic      Atomic             Coordinates (Angstroms)
 Number     Number       Type             X           Y           Z
 ---------------------------------------------------------------------
      1          6           0       -2.174862    0.626737    0.274472
      2          6           0        0.331494   -1.042767    1.263434
      3          6           0        0.199787    2.576054    0.371658
      4          6           0        1.378783   -0.218361    1.329079
      5          6           0       -1.408782    1.012211   -0.760617
      6          6           0       -0.319755    1.993761   -0.719508
      7          1           0        1.027091    3.283890    0.287376
      8          1           0       -0.182185    2.380069    1.377640
      9          1           0       -2.023577    1.106710    1.248634
     10          1           0       -0.363588   -1.348515    2.042832
     11          1           0        1.775981    0.336374    2.176618
     12          8           0        1.256384   -0.971661   -0.853176
     13          6           0        0.241611   -1.556337   -0.131930
     14          6           0        2.005673   -0.166305   -0.021818
     15          8           0       -0.512676   -2.341570   -0.614574
     16          8           0        2.976952    0.407064   -0.398028
     17          6           0       -3.246414   -0.422284    0.186581
     18          1           0       -4.037905   -0.126201   -0.519971
     19          1           0       -2.829054   -1.377064   -0.171800
     20          1           0       -3.719725   -0.600858    1.161197
     21          1           0       -1.582585    0.540730   -1.734680
     22          1           0        0.125062    2.237950   -1.689734
 ---------------------------------------------------------------------
 Rotational constants (GHZ):           1.2069294           0.8437295           0.6134250
 Basis read from rwf:  (5D, 7F)
 Pseudo-potential data read from rwf file.
 There are   230 symmetry adapted cartesian basis functions of A   symmetry.
 There are   218 symmetry adapted basis functions of A   symmetry.
   218 basis functions,   370 primitive gaussians,   230 cartesian basis functions
    44 alpha electrons       44 beta electrons
       nuclear repulsion energy       688.3334482230 Hartrees.
 NAtoms=   22 NActive=   22 NUniq=   22 SFac= 1.00D+00 NAtFMM=   60 NAOKFM=F Big=F
 Integral buffers will be    131072 words long.
 Raffenetti 2 integral format.
 Two-electron integral symmetry is turned on.
 Nuclear repulsion after empirical dispersion term =      688.3179420088 Hartrees.
 ------------------------------------------------------------------------------
 Polarizable Continuum Model (PCM)
 =================================
 Model                : PCM.
 Atomic radii         : UFF (Universal Force Field).
 Polarization charges : Total charges.
 Charge compensation  : None.
 Solution method      : On-the-fly selection.
 Cavity type          : Scaled VdW (van der Waals Surface) (Alpha=1.100).
 Cavity algorithm     : GePol (No added spheres)
                        Default sphere list used, NSphG=   22.
                        Lebedev-Laikov grids with approx.  5.0 points / Ang**2.
                        Smoothing algorithm: York/Karplus (Gamma=1.0000).
                        Polarization charges: spherical gaussians, with
                                              point-specific exponents (IZeta= 3).
                        Self-potential: point-specific (ISelfS= 7).
                        Self-field    : sphere-specific E.n sum rule (ISelfD= 2).
 1st derivatives      : Analytical E(r).r(x)/FMM algorithm (CHGder, D1EAlg=3).
                        Cavity 1st derivative terms included.
 Solvent              : Toluene, Eps=   2.374100 Eps(inf)=   2.238315
 ------------------------------------------------------------------------------
 One-electron integrals computed using PRISM.
   1 Symmetry operations used in ECPInt.
 ECPInt:  NShTT=    5253 NPrTT=   19101 LenC2=    5151 LenP2D=   14297.
 LDataN:  DoStor=T MaxTD1= 4 Len=   56
 NBasis=   218 RedAO= T EigKep=  5.02D-04  NBF=   218
 NBsUse=   218 1.00D-06 EigRej= -1.00D+00 NBFU=   218
 Initial guess from the checkpoint file:  "da-2_1_opt_dft.chk"
 B after Tr=     0.000000    0.000000   -0.000000
         Rot=    1.000000   -0.000073   -0.000089    0.000300 Ang=  -0.04 deg.
 Requested convergence on RMS density matrix=1.00D-08 within 128 cycles.
 Requested convergence on MAX density matrix=1.00D-06.
 Requested convergence on             energy=1.00D-06.
 No special actions if energy rises.
 Inv3:  Mode=1 IEnd=     9817443.
 Iteration    1 A*A^-1 deviation from unit magnitude is 3.33D-15 for    923.
 Iteration    1 A*A^-1 deviation from orthogonality  is 2.60D-15 for   1501    361.
 Iteration    1 A^-1*A deviation from unit magnitude is 3.33D-15 for    923.
 Iteration    1 A^-1*A deviation from orthogonality  is 2.32D-15 for   1349     94.
 Error on total polarization charges =  0.00603
 SCF Done:  E(RwB97XD) =  -573.998631327     A.U. after    9 cycles
            NFock=  9  Conv=0.50D-08     -V/T= 2.0097
   1 Symmetry operations used in ECPInt.
 ECPInt:  NShTT=    5253 NPrTT=   19101 LenC2=    5151 LenP2D=   14297.
 LDataN:  DoStor=T MaxTD1= 5 Len=  102
 D1PCM: PCM CHGder 1st derivatives, ID1Alg=3 FixD1E=F DoIter=F DoCFld=F I1PDM=0.
 Calling FoFJK, ICntrl=      2127 FMM=F ISym2X=0 I1Cent= 0 IOpClX= 0 NMat=1 NMatS=1 NMatT=0.
 ***** Axes restored to original set *****
 -------------------------------------------------------------------
 Center     Atomic                   Forces (Hartrees/Bohr)
 Number     Number              X              Y              Z
 -------------------------------------------------------------------
      1        6          -0.000000574    0.000001026    0.000001191
      2        6          -0.000000649   -0.000001627   -0.000002448
      3        6          -0.000002437    0.000004809    0.000003232
      4        6           0.000002864    0.000002298   -0.000001614
      5        6          -0.000001788    0.000003767    0.000005061
      6        6          -0.000001197    0.000001756   -0.000001868
      7        1          -0.000003880    0.000002135    0.000005986
      8        1          -0.000003506   -0.000005130    0.000005567
      9        1           0.000000105   -0.000001036   -0.000000172
     10        1           0.000002546   -0.000005440   -0.000000821
     11        1          -0.000003485   -0.000004260    0.000003621
     12        8          -0.000000446   -0.000000737    0.000000470
     13        6           0.000001542   -0.000002190   -0.000007261
     14        6          -0.000000428    0.000001126   -0.000000080
     15        8           0.000002527    0.000003549   -0.000004198
     16        8          -0.000000961    0.000003819    0.000001854
     17        6           0.000002758   -0.000004601   -0.000001870
     18        1           0.000001560   -0.000001722   -0.000002396
     19        1           0.000005402   -0.000002122   -0.000004020
     20        1           0.000000804   -0.000003994   -0.000002233
     21        1           0.000000161    0.000004039   -0.000001303
     22        1          -0.000000918    0.000004536    0.000003305
 -------------------------------------------------------------------
 Cartesian Forces:  Max     0.000007261 RMS     0.000003035

 GradGradGradGradGradGradGradGradGradGradGradGradGradGradGradGradGradGrad
 Berny optimization.
 FormGI is forming the generalized inverse of G from B-inverse, IUseBI=4.
 Internal  Forces:  Max     0.000013552 RMS     0.000003706
 Search for a saddle point.
 Step number   2 out of a maximum of   50
 All quantities printed in internal units (Hartrees-Bohrs-Radians)
 Swapping is turned off.
 Update second derivatives using D2CorX and points    1    2
 ITU=  0  0
     Eigenvalues ---   -0.00398   0.00081   0.00357   0.00604   0.01358
     Eigenvalues ---    0.01525   0.01813   0.01835   0.02012   0.02302
     Eigenvalues ---    0.02402   0.02896   0.03066   0.03685   0.04553
     Eigenvalues ---    0.05534   0.05646   0.05954   0.06404   0.07367
     Eigenvalues ---    0.09274   0.10182   0.10883   0.10990   0.12036
     Eigenvalues ---    0.12276   0.12936   0.13760   0.14227   0.14700
     Eigenvalues ---    0.17133   0.17816   0.18055   0.18701   0.23529
     Eigenvalues ---    0.24547   0.28565   0.29242   0.31090   0.31929
     Eigenvalues ---    0.36508   0.36528   0.36669   0.38414   0.38548
     Eigenvalues ---    0.38674   0.39091   0.39201   0.39353   0.39761
     Eigenvalues ---    0.40636   0.40857   0.42236   0.44121   0.59475
     Eigenvalues ---    0.61285   0.62607   0.78416   0.78720   0.83936
 Eigenvectors required to have negative eigenvalues:
                          D8        D9        D10       D5        D6
   1                    0.42119   0.41743   0.40441   0.39765   0.39389
                          D7        D35       D33       D34       D31
   1                    0.38087   0.07489  -0.06104  -0.05957  -0.05410
 RFO step:  Lambda0=2.493221645D-10 Lambda=-1.39098318D-08.
 Linear search not attempted -- option 19 set.
 Iteration  1 RMS(Cart)=  0.00057653 RMS(Int)=  0.00000018
 Iteration  2 RMS(Cart)=  0.00000026 RMS(Int)=  0.00000000
 Variable       Old X    -DE/DX   Delta X   Delta X   Delta X     New X
                                 (Linear)    (Quad)   (Total)
    R1        2.54017  -0.00000   0.00000  -0.00000  -0.00000   2.54017
    R2        2.07203  -0.00000   0.00000   0.00000   0.00000   2.07203
    R3        2.83861   0.00000   0.00000   0.00001   0.00001   2.83862
    R4        2.52175   0.00000   0.00000  -0.00000  -0.00000   2.52175
    R5        2.05632  -0.00000   0.00000  -0.00000  -0.00000   2.05631
    R6        2.81492  -0.00000   0.00000   0.00000   0.00000   2.81492
    R7        2.53507  -0.00000   0.00000  -0.00000  -0.00000   2.53507
    R8        2.06367  -0.00000   0.00000  -0.00000  -0.00000   2.06367
    R9        2.06691   0.00000   0.00000   0.00000   0.00000   2.06691
   R10        2.05609   0.00000   0.00000  -0.00001  -0.00001   2.05608
   R11        2.81602  -0.00000   0.00000  -0.00000  -0.00000   2.81602
   R12        2.77160  -0.00000   0.00000  -0.00000  -0.00000   2.77160
   R13        2.07121  -0.00000   0.00000   0.00000   0.00000   2.07121
   R14        2.06908  -0.00000   0.00000   0.00000   0.00000   2.06908
   R15        5.55768  -0.00000   0.00000  -0.00145  -0.00145   5.55623
   R16        2.59918  -0.00000   0.00000  -0.00002  -0.00002   2.59917
   R17        2.60562   0.00000   0.00000   0.00001   0.00001   2.60563
   R18        2.25067  -0.00000   0.00000  -0.00000  -0.00000   2.25066
   R19        2.24684  -0.00000   0.00000  -0.00000  -0.00000   2.24684
   R20        2.08157  -0.00000   0.00000  -0.00000  -0.00000   2.08156
   R21        2.08233   0.00000   0.00000   0.00001   0.00001   2.08234
   R22        2.07508   0.00000   0.00000  -0.00000  -0.00000   2.07508
    A1        2.07143  -0.00000   0.00000  -0.00004  -0.00004   2.07139
    A2        2.16731  -0.00000   0.00000  -0.00002  -0.00002   2.16729
    A3        2.04441   0.00000   0.00000   0.00005   0.00005   2.04447
    A4        2.26485  -0.00000   0.00000  -0.00001  -0.00001   2.26485
    A5        1.88224   0.00000   0.00000   0.00000   0.00000   1.88224
    A6        2.13593  -0.00000   0.00000   0.00000   0.00000   2.13594
    A7        2.10827   0.00000   0.00000   0.00002   0.00002   2.10829
    A8        2.13540  -0.00000   0.00000  -0.00002  -0.00002   2.13538
    A9        2.03946   0.00000   0.00000   0.00001   0.00001   2.03946
   A10        2.26503  -0.00001   0.00000  -0.00004  -0.00004   2.26499
   A11        1.88298  -0.00000   0.00000  -0.00000  -0.00000   1.88298
   A12        2.13504   0.00001   0.00000   0.00004   0.00004   2.13508
   A13        2.20620  -0.00000   0.00000  -0.00002  -0.00002   2.20618
   A14        2.06078   0.00000   0.00000   0.00002   0.00002   2.06080
   A15        2.01589  -0.00000   0.00000   0.00001   0.00001   2.01589
   A16        2.21537  -0.00001   0.00000  -0.00005  -0.00005   2.21531
   A17        2.05626   0.00000   0.00000   0.00002   0.00002   2.05629
   A18        2.01094   0.00000   0.00000   0.00003   0.00003   2.01097
   A19        1.71314   0.00001   0.00000   0.00068   0.00068   1.71382
   A20        1.47024  -0.00001   0.00000  -0.00003  -0.00003   1.47021
   A21        1.91033   0.00000   0.00000   0.00000   0.00000   1.91033
   A22        1.87563  -0.00000   0.00000   0.00000   0.00000   1.87563
   A23        2.27199  -0.00000   0.00000  -0.00001  -0.00001   2.27199
   A24        2.13532   0.00000   0.00000   0.00000   0.00000   2.13533
   A25        1.87295  -0.00000   0.00000  -0.00000  -0.00000   1.87295
   A26        2.27489  -0.00000   0.00000   0.00000   0.00000   2.27489
   A27        2.13508   0.00000   0.00000  -0.00000  -0.00000   2.13508
   A28        1.94163   0.00000   0.00000   0.00001   0.00001   1.94164
   A29        1.93258  -0.00000   0.00000  -0.00003  -0.00003   1.93255
   A30        1.94885   0.00000   0.00000   0.00001   0.00001   1.94887
   A31        1.87176   0.00000   0.00000  -0.00001  -0.00001   1.87175
   A32        1.87896  -0.00000   0.00000   0.00001   0.00001   1.87896
   A33        1.88706   0.00000   0.00000   0.00002   0.00002   1.88707
    D1        0.05013   0.00001   0.00000   0.00009   0.00009   0.05022
    D2       -3.11978   0.00000   0.00000   0.00019   0.00019  -3.11958
    D3       -3.10067   0.00001   0.00000   0.00007   0.00007  -3.10060
    D4        0.01261   0.00000   0.00000   0.00017   0.00017   0.01278
    D5       -1.07756  -0.00000   0.00000   0.00028   0.00028  -1.07728
    D6        1.00214  -0.00000   0.00000   0.00025   0.00025   1.00239
    D7        3.10593  -0.00000   0.00000   0.00025   0.00025   3.10618
    D8        2.05496   0.00000   0.00000   0.00025   0.00025   2.05521
    D9       -2.14853   0.00000   0.00000   0.00022   0.00022  -2.14830
   D10       -0.04474   0.00000   0.00000   0.00023   0.00023  -0.04451
   D11       -0.00070  -0.00000   0.00000   0.00003   0.00003  -0.00067
   D12        3.12328  -0.00000   0.00000  -0.00002  -0.00002   3.12326
   D13       -3.12315  -0.00000   0.00000   0.00006   0.00006  -3.12309
   D14        0.00084  -0.00000   0.00000   0.00001   0.00001   0.00084
   D15       -0.02108   0.00000   0.00000   0.00001   0.00001  -0.02107
   D16        3.09699   0.00000   0.00000  -0.00000  -0.00000   3.09699
   D17        3.13794   0.00000   0.00000   0.00004   0.00004   3.13798
   D18       -0.02718   0.00000   0.00000   0.00003   0.00003  -0.02715
   D19        3.12140  -0.00001   0.00000   0.00006   0.00006   3.12146
   D20        0.01943  -0.00000   0.00000   0.00010   0.00010   0.01953
   D21       -0.03189  -0.00001   0.00000   0.00016   0.00016  -0.03173
   D22       -3.13386  -0.00000   0.00000   0.00020   0.00020  -3.13366
   D23        1.69223  -0.00001   0.00000  -0.00013  -0.00013   1.69210
   D24       -1.46063  -0.00001   0.00000  -0.00003  -0.00003  -1.46065
   D25       -1.51535   0.00000   0.00000   0.00008   0.00008  -1.51527
   D26        1.64608   0.00000   0.00000   0.00014   0.00014   1.64622
   D27        0.01960   0.00000   0.00000  -0.00002  -0.00002   0.01958
   D28       -3.09708   0.00000   0.00000  -0.00001  -0.00001  -3.09709
   D29       -3.13801   0.00000   0.00000  -0.00007  -0.00007  -3.13808
   D30        0.02850   0.00000   0.00000  -0.00006  -0.00006   0.02844
   D31        0.13191   0.00000   0.00000   0.00113   0.00113   0.13304
   D32       -3.04842  -0.00001   0.00000   0.00109   0.00109  -3.04733
   D33       -2.98200   0.00000   0.00000   0.00103   0.00103  -2.98098
   D34        0.12086  -0.00000   0.00000   0.00099   0.00099   0.12184
   D35       -1.05781  -0.00001   0.00000  -0.00032  -0.00032  -1.05814
   D36        0.03379  -0.00000   0.00000  -0.00002  -0.00002   0.03377
   D37       -3.08652  -0.00000   0.00000  -0.00001  -0.00001  -3.08653
   D38       -0.03326   0.00000   0.00000   0.00002   0.00002  -0.03323
   D39        3.08586   0.00000   0.00000   0.00001   0.00001   3.08588
         Item               Value     Threshold  Converged?
 Maximum Force            0.000014     0.000450     YES
 RMS     Force            0.000004     0.000300     YES
 Maximum Displacement     0.001806     0.001800     NO 
 RMS     Displacement     0.000577     0.001200     YES
 Predicted change in Energy=-6.830256D-09
 GradGradGradGradGradGradGradGradGradGradGradGradGradGradGradGradGradGrad

                          Input orientation:                          
 ---------------------------------------------------------------------
 Center     Atomic      Atomic             Coordinates (Angstroms)
 Number     Number       Type             X           Y           Z
 ---------------------------------------------------------------------
      1          6           0       -2.257766    0.437861   -0.073484
      2          6           0        0.069755   -0.382642    1.915957
      3          6           0       -0.232758    2.750280   -0.084567
      4          6           0        0.960923    0.610259    1.943008
      5          6           0       -1.293350    0.657086   -0.983822
      6          6           0       -0.374129    1.799372   -1.020204
      7          1           0        0.500445    3.550305   -0.206793
      8          1           0       -0.842591    2.773464    0.823114
      9          1           0       -2.426881    1.190565    0.705675
     10          1           0       -0.767638   -0.584644    2.580824
     11          1           0        1.052968    1.444310    2.635611
     12          8           0        1.508820   -0.731285    0.141686
     13          6           0        0.412604   -1.272670    0.771760
     14          6           0        1.913651    0.400973    0.816452
     15          8           0       -0.091861   -2.289566    0.411321
     16          8           0        2.877946    1.019804    0.498886
     17          6           0       -3.140058   -0.777715   -0.054939
     18          1           0       -3.743452   -0.847076   -0.973874
     19          1           0       -2.536019   -1.697085    0.009370
     20          1           0       -3.832015   -0.763357    0.797572
     21          1           0       -1.146864   -0.091756   -1.770637
     22          1           0        0.280969    1.843318   -1.896416
 ---------------------------------------------------------------------
                    Distance matrix (angstroms):
                    1          2          3          4          5
     1  C    0.000000
     2  C    3.169930   0.000000
     3  C    3.073770   3.729451   0.000000
     4  C    3.802094   1.334453   3.180507   0.000000
     5  C    1.344200   3.368650   2.512961   3.694627   0.000000
     6  C    2.509597   3.685005   1.341502   3.460778   1.466665
     7  H    4.160866   4.489948   1.092047   3.671179   3.491731
     8  H    2.874308   3.462324   1.093763   3.030888   2.819087
     9  H    1.096473   3.189507   2.805595   3.653076   2.103305
    10  H    3.211129   1.088155   4.302572   2.196025   3.811163
    11  H    4.394667   2.195988   3.279942   1.088032   4.384658
    12  O    3.949730   2.310951   3.899433   2.311858   3.323627
    13  C    3.281955   1.489591   4.163401   2.284271   3.117098
    14  C    4.265450   2.285370   3.307287   1.490174   3.686656
    15  O    3.516396   2.434422   5.066143   3.444330   3.474588
    16  O    5.200173   3.443962   3.607138   2.434787   4.441812
    17  C    1.502134   3.787269   4.571653   4.768260   2.516308
    18  H    2.160794   4.807013   5.104587   5.723913   2.874997
    19  H    2.154596   3.486100   5.009280   4.614260   2.841264
    20  H    2.163313   4.076707   5.106707   5.115769   3.411135
    21  H    2.096408   3.893039   3.428643   4.327442   1.096040
    22  H    3.426888   4.419694   2.090285   4.089492   2.172200
                    6          7          8          9         10
     6  C    0.000000
     7  H    2.119501   0.000000
     8  H    2.136851   1.862240   0.000000
     9  H    2.750108   3.869135   2.242617   0.000000
    10  H    4.336564   5.145546   3.791049   3.069306   0.000000
    11  H    3.940516   3.580469   2.940228   3.987278   2.726584
    12  O    3.361505   4.412512   4.275130   4.416031   3.339635
    13  C    3.642462   4.922029   4.236667   3.759596   2.266950
    14  C    3.250041   3.600343   3.636706   4.413156   3.357643
    15  O    4.341469   5.902287   5.134924   4.201223   2.840806
    16  O    3.673058   3.543152   4.125874   5.311601   4.494330
    17  C    3.901727   5.657568   4.319745   2.227394   3.551464
    18  H    4.284644   6.159224   4.975185   2.950632   4.643298
    19  H    4.237806   6.066460   4.849297   2.972419   3.313166
    20  H    4.672137   6.195695   4.631026   2.408455   3.549976
    21  H    2.176381   4.292301   3.876804   3.068373   4.395676
    22  H    1.094911   2.411804   3.086000   3.811746   5.200024
                   11         12         13         14         15
    11  H    0.000000
    12  O    3.340760   0.000000
    13  C    3.356484   1.375420   0.000000
    14  C    2.266863   1.378842   2.248604   0.000000
    15  O    4.494434   2.250139   1.191000   3.380120   0.000000
    16  O    2.841891   2.251312   3.377545   1.188976   4.447398
    17  C    5.455082   4.653266   3.681007   5.261996   3.434326
    18  H    6.425300   5.370684   4.527822   6.063474   4.163371
    19  H    5.444845   4.160649   3.075019   4.985257   2.546862
    20  H    5.667031   5.381053   4.275143   5.862482   4.057986
    21  H    5.158855   3.334462   3.207847   4.037644   3.271749
    22  H    4.614592   3.505718   4.104372   3.479319   4.748198
                   16         17         18         19         20
    16  O    0.000000
    17  C    6.305090   0.000000
    18  H    7.035423   1.101516   0.000000
    19  H    6.077180   1.101925   1.774029   0.000000
    20  H    6.949276   1.098083   1.775633   1.781212   0.000000
    21  H    4.752409   2.717900   2.819151   2.770425   3.775815
    22  H    3.627662   4.686605   4.928008   4.909367   5.564976
[...]
    14  C    3.250041   3.600343   3.636706   4.413156   3.357643
    15  O    4.341469   5.902287   5.134924   4.201223   2.840806
    16  O    3.673058   3.543152   4.125874   5.311601   4.494330
    17  C    3.901727   5.657568   4.319745   2.227394   3.551464
    18  H    4.284644   6.159224   4.975185   2.950632   4.643298
    19  H    4.237806   6.066460   4.849297   2.972419   3.313166
    20  H    4.672137   6.195695   4.631026   2.408455   3.549976
    21  H    2.176381   4.292301   3.876804   3.068373   4.395676
    22  H    1.094911   2.411804   3.086000   3.811746   5.200024
                   11         12         13         14         15
    11  H    0.000000
    12  O    3.340760   0.000000
    13  C    3.356484   1.375420   0.000000
    14  C    2.266863   1.378842   2.248604   0.000000
    15  O    4.494434   2.250139   1.191000   3.380120   0.000000
    16  O    2.841891   2.251312   3.377545   1.188976   4.447398
    17  C    5.455082   4.653266   3.681007   5.261996   3.434326
    18  H    6.425300   5.370684   4.527822   6.063474   4.163371
    19  H    5.444845   4.160649   3.075019   4.985257   2.546862
    20  H    5.667031   5.381053   4.275143   5.862482   4.057986
    21  H    5.158855   3.334462   3.207847   4.037644   3.271749
    22  H    4.614592   3.505718   4.104372   3.479319   4.748198
                   16         17         18         19         20
    16  O    0.000000
    17  C    6.305090   0.000000
    18  H    7.035423   1.101516   0.000000
    19  H    6.077180   1.101925   1.774029   0.000000
    20  H    6.949276   1.098083   1.775633   1.781212   0.000000
    21  H    4.752409   2.717900   2.819151   2.770425   3.775815
    22  H    3.627662   4.686605   4.928008   4.909367   5.564976
                   21         22
    21  H    0.000000
    22  H    2.408119   0.000000
 Stoichiometry    C9H10O3
 Framework group  C1[X(C9H10O3)]
 Deg. of freedom    60
 Full point group                 C1      NOp   1
 Largest Abelian subgroup         C1      NOp   1
 Largest concise Abelian subgroup C1      NOp   1
                         Standard orientation:                         
 ---------------------------------------------------------------------
 Center     Atomic      Atomic             Coordinates (Angstroms)
 Number     Number       Type             X           Y           Z
 ---------------------------------------------------------------------
      1          6           0       -2.174937    0.626905    0.274331
      2          6           0        0.331532   -1.042709    1.263499
      3          6           0        0.199681    2.576195    0.371896
      4          6           0        1.378826   -0.218300    1.328994
      5          6           0       -1.408579    1.012248   -0.760598
      6          6           0       -0.319939    1.994222   -0.719402
      7          1           0        1.026634    3.284455    0.287734
      8          1           0       -0.181840    2.379432    1.377900
      9          1           0       -2.024255    1.107405    1.248327
     10          1           0       -0.363477   -1.348399    2.042984
     11          1           0        1.776079    0.336456    2.176489
     12          8           0        1.256269   -0.971817   -0.853180
     13          6           0        0.241548   -1.556411   -0.131812
     14          6           0        2.005613   -0.166366   -0.021954
     15          8           0       -0.512776   -2.341690   -0.614320
     16          8           0        2.976859    0.406971   -0.398292
     17          6           0       -3.246007   -0.422612    0.186418
     18          1           0       -4.037178   -0.127304   -0.520815
     19          1           0       -2.828005   -1.377426   -0.171136
     20          1           0       -3.719852   -0.600797    1.160845
     21          1           0       -1.581862    0.540397   -1.734575
     22          1           0        0.124505    2.239023   -1.689646
 ---------------------------------------------------------------------
 Rotational constants (GHZ):           1.2067741           0.8438181           0.6134245

 **********************************************************************

            Population analysis using the SCF Density.

 **********************************************************************

 Orbital symmetries:
       Occupied  (A) (A) (A) (A) (A) (A) (A) (A) (A) (A) (A) (A)
                 (A) (A) (A) (A) (A) (A) (A) (A) (A) (A) (A) (A)
                 (A) (A) (A) (A) (A) (A) (A) (A) (A) (A) (A) (A)
                 (A) (A) (A) (A) (A) (A) (A) (A)
       Virtual   (A) (A) (A) (A) (A) (A) (A) (A) (A) (A) (A) (A)
                 (A) (A) (A) (A) (A) (A) (A) (A) (A) (A) (A) (A)
                 (A) (A) (A) (A) (A) (A) (A) (A) (A) (A) (A) (A)
                 (A) (A) (A) (A) (A) (A) (A) (A) (A) (A) (A) (A)
                 (A) (A) (A) (A) (A) (A) (A) (A) (A) (A) (A) (A)
                 (A) (A) (A) (A) (A) (A) (A) (A) (A) (A) (A) (A)
                 (A) (A) (A) (A) (A) (A) (A) (A) (A) (A) (A) (A)
                 (A) (A) (A) (A) (A) (A) (A) (A) (A) (A) (A) (A)
                 (A) (A) (A) (A) (A) (A) (A) (A) (A) (A) (A) (A)
                 (A) (A) (A) (A) (A) (A) (A) (A) (A) (A) (A) (A)
                 (A) (A) (A) (A) (A) (A) (A) (A) (A) (A) (A) (A)
                 (A) (A) (A) (A) (A) (A) (A) (A) (A) (A) (A) (A)
                 (A) (A) (A) (A) (A) (A) (A) (A) (A) (A) (A) (A)
                 (A) (A) (A) (A) (A) (A) (A) (A) (A) (A) (A) (A)
                 (A) (A) (A) (A) (A) (A)
 The electronic state is 1-A.
 Alpha  occ. eigenvalues --  -19.33314 -19.28007 -19.27860 -10.46132 -10.46013
 Alpha  occ. eigenvalues --  -10.35481 -10.35402 -10.31562 -10.31365 -10.30625
 Alpha  occ. eigenvalues --  -10.30594 -10.29894  -1.25212  -1.17961  -1.14138
 Alpha  occ. eigenvalues --   -0.94334  -0.91226  -0.85508  -0.79637  -0.77621
 Alpha  occ. eigenvalues --   -0.73531  -0.69444  -0.68739  -0.62073  -0.60672
 Alpha  occ. eigenvalues --   -0.60452  -0.57624  -0.56917  -0.55626  -0.54403
 Alpha  occ. eigenvalues --   -0.53381  -0.51998  -0.50503  -0.49793  -0.49496
 Alpha  occ. eigenvalues --   -0.47774  -0.43648  -0.43487  -0.42989  -0.42038
 Alpha  occ. eigenvalues --   -0.41094  -0.39126  -0.38144  -0.31111
 Alpha virt. eigenvalues --   -0.03733   0.02282   0.10936   0.12123   0.13695
 Alpha virt. eigenvalues --    0.15356   0.15895   0.16192   0.17118   0.19449
 Alpha virt. eigenvalues --    0.21090   0.21496   0.22497   0.24150   0.25024
 Alpha virt. eigenvalues --    0.27230   0.27874   0.29608   0.31891   0.33583
 Alpha virt. eigenvalues --    0.35277   0.36531   0.39145   0.40201   0.44037
 Alpha virt. eigenvalues --    0.45039   0.45456   0.48049   0.49127   0.49983
 Alpha virt. eigenvalues --    0.50614   0.52719   0.54040   0.54960   0.55685
 Alpha virt. eigenvalues --    0.57858   0.58865   0.60791   0.62539   0.63909
 Alpha virt. eigenvalues --    0.66110   0.69811   0.70384   0.70820   0.71556
 Alpha virt. eigenvalues --    0.72331   0.72709   0.73872   0.74682   0.74940
 Alpha virt. eigenvalues --    0.75396   0.76398   0.76631   0.77596   0.77998
 Alpha virt. eigenvalues --    0.78486   0.80248   0.80541   0.81765   0.86163
 Alpha virt. eigenvalues --    0.87550   0.88486   0.90255   0.91472   0.92917
 Alpha virt. eigenvalues --    0.99144   1.02307   1.05612   1.06254   1.09681
 Alpha virt. eigenvalues --    1.10871   1.12901   1.13297   1.16620   1.18666
 Alpha virt. eigenvalues --    1.19740   1.23250   1.24526   1.25521   1.27537
 Alpha virt. eigenvalues --    1.29691   1.30882   1.33978   1.35185   1.38816
 Alpha virt. eigenvalues --    1.39776   1.44535   1.45624   1.51505   1.56375
 Alpha virt. eigenvalues --    1.58426   1.60870   1.61770   1.62715   1.66453
 Alpha virt. eigenvalues --    1.67294   1.68651   1.70207   1.71808   1.74250
 Alpha virt. eigenvalues --    1.78085   1.78774   1.79819   1.81184   1.83386
 Alpha virt. eigenvalues --    1.86334   1.86956   1.87475   1.88299   1.89208
 Alpha virt. eigenvalues --    1.90362   1.90888   1.93468   1.94503   1.96779
 Alpha virt. eigenvalues --    1.97845   1.98562   2.03278   2.04160   2.06725
 Alpha virt. eigenvalues --    2.09854   2.11204   2.12819   2.13709   2.16500
 Alpha virt. eigenvalues --    2.17195   2.19329   2.21786   2.25974   2.28235
 Alpha virt. eigenvalues --    2.29726   2.31697   2.35234   2.38739   2.42065
 Alpha virt. eigenvalues --    2.42863   2.46484   2.47016   2.48724   2.53501
 Alpha virt. eigenvalues --    2.55893   2.60935   2.64427   2.65586   2.68087
 Alpha virt. eigenvalues --    2.69814   2.71098   2.71303   2.74555   2.77329
 Alpha virt. eigenvalues --    2.80305   2.81333   2.81833   2.86174   2.87114
 Alpha virt. eigenvalues --    2.91488   2.94892   3.01004   3.02261   3.03241
 Alpha virt. eigenvalues --    3.04142   3.10098   3.18363   3.25013   3.27167
 Alpha virt. eigenvalues --    3.28728   3.29121   3.34586   3.42950   3.51197
 Alpha virt. eigenvalues --    3.52468   3.73429   3.76616   3.79186
          Condensed to atoms (all electrons):
               1          2          3          4          5          6
     1  C    4.946991   0.005846  -0.023577  -0.004975   0.559012  -0.035183
     2  C    0.005846   5.394526  -0.006394   0.219758   0.006436  -0.008740
     3  C   -0.023577  -0.006394   4.785187   0.006337  -0.052203   0.626606
     4  C   -0.004975   0.219758   0.006337   5.414225  -0.010892   0.007066
     5  C    0.559012   0.006436  -0.052203  -0.010892   4.942630   0.341254
     6  C   -0.035183  -0.008740   0.626606   0.007066   0.341254   4.791877
     7  H   -0.000275   0.000253   0.392593  -0.001118   0.009876  -0.015303
     8  H    0.011309  -0.002686   0.377630   0.005966  -0.030923  -0.001449
     9  H    0.389556   0.003361   0.010024  -0.001583  -0.013372  -0.025131
    10  H    0.000764   0.429564  -0.000141  -0.046010  -0.000147   0.000006
    11  H   -0.000134  -0.047221   0.000560   0.429471  -0.000020   0.000120
    12  O   -0.001394  -0.107900  -0.001910  -0.109530   0.002432   0.003608
    13  C    0.002833   0.223040   0.000049   0.032789   0.001729   0.000379
    14  C   -0.000169   0.033253   0.003464   0.211516   0.001049  -0.000670
    15  O   -0.000531  -0.077114   0.000036   0.004213  -0.004133   0.000059
    16  O    0.000017   0.004410  -0.000078  -0.077769   0.000064  -0.003071
    17  C    0.391439  -0.001211   0.000038   0.000472  -0.058833   0.008151
    18  H   -0.019230   0.000085   0.000023  -0.000012  -0.009799  -0.000061
    19  H   -0.017660  -0.003187   0.000037   0.000247  -0.014961   0.000298
    20  H   -0.018037  -0.000056   0.000026  -0.000001   0.009301  -0.000376
    21  H   -0.064128   0.000494   0.010782  -0.000188   0.422339  -0.039270
    22  H    0.011453  -0.000107  -0.052025   0.000370  -0.046298   0.420174
               7          8          9         10         11         12
     1  C   -0.000275   0.011309   0.389556   0.000764  -0.000134  -0.001394
     2  C    0.000253  -0.002686   0.003361   0.429564  -0.047221  -0.107900
     3  C    0.392593   0.377630   0.010024  -0.000141   0.000560  -0.001910
     4  C   -0.001118   0.005966  -0.001583  -0.046010   0.429471  -0.109530
     5  C    0.009876  -0.030923  -0.013372  -0.000147  -0.000020   0.002432
     6  C   -0.015303  -0.001449  -0.025131   0.000006   0.000120   0.003608
     7  H    0.599606  -0.041215  -0.000082  -0.000000   0.000128   0.000009
     8  H   -0.041215   0.628016   0.001968  -0.000038   0.000209   0.000024
     9  H   -0.000082   0.001968   0.639352  -0.000069  -0.000051   0.000006
    10  H   -0.000000  -0.000038  -0.000069   0.567090  -0.005320   0.002825
    11  H    0.000128   0.000209  -0.000051  -0.005320   0.564870   0.002950
    12  O    0.000009   0.000024   0.000006   0.002825   0.002950   8.021043
    13  C   -0.000028   0.000328  -0.001174  -0.033852   0.009194   0.306117
    14  C    0.000971  -0.002061   0.000186   0.009039  -0.033513   0.299661
    15  O    0.000000  -0.000001   0.000011   0.001418  -0.000045  -0.063313
    16  O    0.000441  -0.000003   0.000001  -0.000046   0.001819  -0.065824
    17  C   -0.000005   0.000053  -0.044327  -0.000169  -0.000001   0.000009
    18  H    0.000001   0.000005   0.003834  -0.000002  -0.000000   0.000000
    19  H   -0.000000  -0.000001   0.003943   0.000331   0.000000   0.000147
    20  H   -0.000000   0.000009  -0.010404   0.000235   0.000000  -0.000000
    21  H   -0.000190  -0.000066   0.007903  -0.000041   0.000002  -0.000586
    22  H   -0.013551   0.007684  -0.000072   0.000003  -0.000025  -0.000181
              13         14         15         16         17         18
     1  C    0.002833  -0.000169  -0.000531   0.000017   0.391439  -0.019230
     2  C    0.223040   0.033253  -0.077114   0.004410  -0.001211   0.000085
     3  C    0.000049   0.003464   0.000036  -0.000078   0.000038   0.000023
     4  C    0.032789   0.211516   0.004213  -0.077769   0.000472  -0.000012
     5  C    0.001729   0.001049  -0.004133   0.000064  -0.058833  -0.009799
     6  C    0.000379  -0.000670   0.000059  -0.003071   0.008151  -0.000061
     7  H   -0.000028   0.000971   0.000000   0.000441  -0.000005   0.000001
     8  H    0.000328  -0.002061  -0.000001  -0.000003   0.000053   0.000005
     9  H   -0.001174   0.000186   0.000011   0.000001  -0.044327   0.003834
    10  H   -0.033852   0.009039   0.001418  -0.000046  -0.000169  -0.000002
    11  H    0.009194  -0.033513  -0.000045   0.001819  -0.000001  -0.000000
    12  O    0.306117   0.299661  -0.063313  -0.065824   0.000009   0.000000
    13  C    4.514805  -0.082978   0.730038   0.000420  -0.000576   0.000016
    14  C   -0.082978   4.506638   0.000720   0.758834  -0.000042   0.000001
    15  O    0.730038   0.000720   7.573377  -0.000013  -0.005250   0.000027
    16  O    0.000420   0.758834  -0.000013   7.551440  -0.000000   0.000000
    17  C   -0.000576  -0.000042  -0.005250  -0.000000   4.570956   0.395691
    18  H    0.000016   0.000001   0.000027   0.000000   0.395691   0.598976
    19  H    0.000414   0.000009   0.017667   0.000000   0.390662  -0.015330
    20  H    0.000039   0.000000   0.000009  -0.000000   0.388461  -0.020882
    21  H    0.001718  -0.000037   0.000782   0.000004  -0.008926   0.001821
    22  H   -0.000029   0.000361  -0.000002   0.000303  -0.000201   0.000005
              19         20         21         22
     1  C   -0.017660  -0.018037  -0.064128   0.011453
     2  C   -0.003187  -0.000056   0.000494  -0.000107
     3  C    0.000037   0.000026   0.010782  -0.052025
     4  C    0.000247  -0.000001  -0.000188   0.000370
     5  C   -0.014961   0.009301   0.422339  -0.046298
     6  C    0.000298  -0.000376  -0.039270   0.420174
     7  H   -0.000000  -0.000000  -0.000190  -0.013551
     8  H   -0.000001   0.000009  -0.000066   0.007684
     9  H    0.003943  -0.010404   0.007903  -0.000072
    10  H    0.000331   0.000235  -0.000041   0.000003
    11  H    0.000000   0.000000   0.000002  -0.000025
    12  O    0.000147  -0.000000  -0.000586  -0.000181
    13  C    0.000414   0.000039   0.001718  -0.000029
    14  C    0.000009   0.000000  -0.000037   0.000361
    15  O    0.017667   0.000009   0.000782  -0.000002
    16  O    0.000000  -0.000000   0.000004   0.000303
    17  C    0.390662   0.388461  -0.008926  -0.000201
    18  H   -0.015330  -0.020882   0.001821   0.000005
    19  H    0.590605  -0.020282   0.002157  -0.000001
    20  H   -0.020282   0.629230   0.000080   0.000006
    21  H    0.002157   0.000080   0.639398  -0.010670
    22  H   -0.000001   0.000006  -0.010670   0.635005
 Mulliken charges:
               1
     1  C   -0.133927
     2  C   -0.066408
     3  C   -0.077063
     4  C   -0.080352
     5  C   -0.054541
     6  C   -0.070343
     7  H    0.067892
     8  H    0.045242
     9  H    0.036120
    10  H    0.074560
    11  H    0.077008
    12  O   -0.288193
    13  C    0.294730
    14  C    0.293767
    15  O   -0.177953
    16  O   -0.170948
    17  C   -0.026389
    18  H    0.064832
    19  H    0.064905
    20  H    0.042643
    21  H    0.036621
    22  H    0.047799
 Sum of Mulliken charges =  -0.00000
 Mulliken charges with hydrogens summed into heavy atoms:
               1
     1  C   -0.097807
     2  C    0.008152
     3  C    0.036070
     4  C   -0.003345
     5  C   -0.017920
     6  C   -0.022544
    12  O   -0.288193
    13  C    0.294730
    14  C    0.293767
    15  O   -0.177953
    16  O   -0.170948
    17  C    0.145990
 Electronic spatial extent (au):  <R**2>=           1976.8786
 Charge=             -0.0000 electrons
 Dipole moment (field-independent basis, Debye):
    X=             -1.8589    Y=              1.0038    Z=              4.0813  Tot=              4.5957
 Quadrupole moment (field-independent basis, Debye-Ang):
   XX=            -75.5116   YY=            -75.0185   ZZ=            -64.6434
   XY=             -0.9643   XZ=              3.5240   YZ=             -3.3618
 Traceless Quadrupole moment (field-independent basis, Debye-Ang):
   XX=             -3.7871   YY=             -3.2940   ZZ=              7.0811
   XY=             -0.9643   XZ=              3.5240   YZ=             -3.3618
 Octapole moment (field-independent basis, Debye-Ang**2):
  XXX=            -27.3235  YYY=              0.4078  ZZZ=              3.7488  XYY=             18.2241
  XXY=            -13.4340  XXZ=             10.6447  XZZ=              1.7053  YZZ=              1.6595
  YYZ=              7.0682  XYZ=              1.7273
 Hexadecapole moment (field-independent basis, Debye-Ang**3):
 XXXX=          -1417.1773 YYYY=           -934.7326 ZZZZ=           -304.7712 XXXY=             -3.9104
 XXXZ=             19.2511 YYYX=             22.5760 YYYZ=             -3.9471 ZZZX=             -0.2682
 ZZZY=              1.4493 XXYY=           -382.6766 XXZZ=           -269.1941 YYZZ=           -199.6147
 XXYZ=              7.7469 YYXZ=            -10.3344 ZZXY=              9.8903
 N-N= 6.883168195479D+02 E-N=-2.713739795669D+03  KE= 5.684968810359D+02
 Unable to Open any file for archive entry.
 1\1\GINC-NODE-006\FTS\RwB97XD\Gen\C9H10O3\JP2658\22-Dec-2023\0\\# wb97
 xd chkbasis guess=read geom=allchk scrf=(iefpcm,solvent=toluene) opt=(
 readfc,ts,noeigen,maxcycles=50,maxstep=10)\\1d_2b_endo_2_reopt3.out\\0
 ,1\C,-2.2577658769,0.4378607519,-0.0734841247\C,0.0697552887,-0.382641
 9629,1.9159566574\C,-0.2327583961,2.7502797916,-0.0845669721\C,0.96092
 33422,0.6102585356,1.9430080027\C,-1.2933498127,0.6570864867,-0.983821
 5322\C,-0.3741292233,1.7993720982,-1.0202044183\H,0.5004453804,3.55030
 46969,-0.206793379\H,-0.8425913476,2.7734635585,0.8231137242\H,-2.4268
 805276,1.1905651999,0.7056751977\H,-0.7676380577,-0.584644042,2.580824
 1802\H,1.0529680214,1.4443100665,2.6356114285\O,1.5088202506,-0.731284
 685,0.141686392\C,0.4126036461,-1.2726696766,0.7717601011\C,1.91365122
 5,0.4009731692,0.8164517037\O,-0.091861178,-2.2895663983,0.4113206505\
 O,2.8779456096,1.0198041277,0.4988860734\C,-3.1400575183,-0.7777150332
 ,-0.0549387776\H,-3.7434522114,-0.8470763435,-0.9738738965\H,-2.536018
 7192,-1.6970849946,0.0093699919\H,-3.8320145972,-0.7633567257,0.797572
 1372\H,-1.1468639887,-0.091756378,-1.7706373937\H,0.2809686908,1.84331
 77571,-1.8964157465\\Version=ES64L-G16RevC.01\State=1-A\HF=-573.998631
 3\RMSD=7.634e-09\RMSF=2.906e-06\Dipole=-1.1714375,0.6812335,1.196989\Q
 uadrupole=-3.5678681,-3.1533735,6.7212416,0.0037198,0.4853361,0.535254
 8\PG=C01 [X(C9H10O3)]\\@
 The archive entry for this job was punched.


 ONE OF THE BENEFITS OF A COLLEGE EDUCATION
 IS TO SHOW THE BOY ITS LITTLE AVAIL 
                                    EMERSON IN 'CULTURE'
 Job cpu time:       0 days  0 hours  7 minutes 58.9 seconds.
 Elapsed time:       0 days  0 hours  0 minutes 41.2 seconds.
 File lengths (MBytes):  RWF=     87 Int=      0 D2E=      0 Chk=     11 Scr=      1
 Normal termination of Gaussian 16 at Fri Dec 22 23:06:06 2023.
