GRAD part at wb97xd def2svp scrf=(iefpcm,solvent=toluene)               
Force     RwB97XD                                                     def2SVP             
Number of atoms                            I               16
Info1-9                                    I   N=           9
          25          25           0           0           0         100
           5          18        -802
Full Title                                 C   N=           5
GRAD part at wb97xd def2svp scrf=(iefpcm,solvent=toluene)   
Route                                      C   N=           6
# wb97xd def2svp scrf=(iefpcm,solvent=toluene) force units=a
u nosymmetry
Charge                                     I                0
Multiplicity                               I                1
Number of electrons                        I               60
Number of alpha electrons                  I               30
Number of beta electrons                   I               30
Number of basis functions                  I              152
Number of independent functions            I              152
Number of point charges in /Mol/           I                0
Number of translation vectors              I                0
Atomic numbers                             I   N=          16
           8           6           6           6           6           6
           1           1           1           1           1           1
           6           8           1           1
Nuclear charges                            R   N=          16
  8.00000000E+00  6.00000000E+00  6.00000000E+00  6.00000000E+00  6.00000000E+00
  6.00000000E+00  1.00000000E+00  1.00000000E+00  1.00000000E+00  1.00000000E+00
  1.00000000E+00  1.00000000E+00  6.00000000E+00  8.00000000E+00  1.00000000E+00
  1.00000000E+00
Current cartesian coordinates              R   N=          48
  2.75269333E+00  2.17353922E+00 -3.14807968E-01 -5.57764434E-01  2.80569109E+00
  1.13497333E+00  1.09098402E+00 -2.47518579E+00  1.84995920E+00 -1.85265837E+00
  4.04538120E-01  1.66507984E+00  3.35914589E+00  2.18826342E-01 -1.41547874E+00
  2.56519825E+00 -2.29456741E+00 -4.69071046E-01  4.45216398E+00  2.00139899E-01
 -3.18913007E+00  1.97283702E+00 -1.55132638E+00  3.47717693E+00  2.63062122E+00
 -3.86239129E+00 -1.78078773E+00  1.45401090E-01  3.87122047E+00  2.74535548E+00
 -1.14700217E+00  3.85566438E+00 -5.36026912E-01 -2.37139278E+00  9.19447551E-02
  3.63167610E+00 -3.68994732E+00 -6.22152416E-01 -2.15449780E-01 -3.52690931E+00
 -2.66318243E-01 -2.49565986E+00  2.34619027E-01 -4.30971051E+00  2.22027708E+00
 -5.21326775E+00 -1.77620869E+00  6.15124927E-01
Number of symbols in /Mol/                 I                0
Force Field                                I                0
Atom Types                                 C   N=          16
                                                            
                                                            
                                                            
            
Int Atom Types                             I   N=          16
           0           0           0           0           0           0
           0           0           0           0           0           0
           0           0           0           0
MM charges                                 R   N=          16
  0.00000000E+00  0.00000000E+00  0.00000000E+00  0.00000000E+00  0.00000000E+00
  0.00000000E+00  0.00000000E+00  0.00000000E+00  0.00000000E+00  0.00000000E+00
  0.00000000E+00  0.00000000E+00  0.00000000E+00  0.00000000E+00  0.00000000E+00
  0.00000000E+00
Integer atomic weights                     I   N=          16
          16          12          12          12          12          12
           1           1           1           1           1           1
          12          16           1           1
Real atomic weights                        R   N=          16
  1.59949146E+01  1.20000000E+01  1.20000000E+01  1.20000000E+01  1.20000000E+01
  1.20000000E+01  1.00782504E+00  1.00782504E+00  1.00782504E+00  1.00782504E+00
  1.00782504E+00  1.00782504E+00  1.20000000E+01  1.59949146E+01  1.00782504E+00
  1.00782504E+00
Atom fragment info                         I   N=          16
           0           0           0           0           0           0
           0           0           0           0           0           0
           0           0           0           0
Atom residue num                           I   N=          16
           0           0           0           0           0           0
           0           0           0           0           0           0
           0           0           0           0
Nuclear spins                              I   N=          16
           0           0           0           0           0           0
           1           1           1           1           1           1
           0           0           1           1
Nuclear ZEff                               R   N=          16
 -5.60000000E+00 -3.60000000E+00 -3.60000000E+00 -3.60000000E+00 -3.60000000E+00
 -3.60000000E+00 -1.00000000E+00 -1.00000000E+00 -1.00000000E+00 -1.00000000E+00
 -1.00000000E+00 -1.00000000E+00 -3.60000000E+00 -5.60000000E+00 -1.00000000E+00
 -1.00000000E+00
Nuclear ZNuc                               R   N=          16
  8.00000000E+00  6.00000000E+00  6.00000000E+00  6.00000000E+00  6.00000000E+00
  6.00000000E+00  1.00000000E+00  1.00000000E+00  1.00000000E+00  1.00000000E+00
  1.00000000E+00  1.00000000E+00  6.00000000E+00  8.00000000E+00  1.00000000E+00
  1.00000000E+00
Nuclear QMom                               R   N=          16
  0.00000000E+00  0.00000000E+00  0.00000000E+00  0.00000000E+00  0.00000000E+00
  0.00000000E+00  0.00000000E+00  0.00000000E+00  0.00000000E+00  0.00000000E+00
  0.00000000E+00  0.00000000E+00  0.00000000E+00  0.00000000E+00  0.00000000E+00
  0.00000000E+00
Nuclear GFac                               R   N=          16
  0.00000000E+00  0.00000000E+00  0.00000000E+00  0.00000000E+00  0.00000000E+00
  0.00000000E+00  2.79284600E+00  2.79284600E+00  2.79284600E+00  2.79284600E+00
  2.79284600E+00  2.79284600E+00  0.00000000E+00  0.00000000E+00  2.79284600E+00
  2.79284600E+00
MicOpt                                     I   N=          16
          -1          -1          -1          -1          -1          -1
          -1          -1          -1          -1          -1          -1
          -1          -1          -1          -1
Number of residues                         I                0
Number of secondary structures             I                0
Number of contracted shells                I               72
Number of primitive shells                 I              136
Pure/Cartesian d shells                    I                0
Pure/Cartesian f shells                    I                0
Highest angular momentum                   I                2
Largest degree of contraction              I                5
Shell types                                I   N=          72
           0           0           0           1           1          -2
           0           0           0           1           1          -2
           0           0           0           1           1          -2
           0           0           0           1           1          -2
           0           0           0           1           1          -2
           0           0           0           1           1          -2
           0           0           1           0           0           1
           0           0           1           0           0           1
           0           0           1           0           0           1
           0           0           0           1           1          -2
           0           0           0           1           1          -2
           0           0           1           0           0           1
Number of primitives per shell             I   N=          72
           5           1           1           3           1           1
           5           1           1           3           1           1
           5           1           1           3           1           1
           5           1           1           3           1           1
           5           1           1           3           1           1
           5           1           1           3           1           1
           3           1           1           3           1           1
           3           1           1           3           1           1
           3           1           1           3           1           1
           5           1           1           3           1           1
           5           1           1           3           1           1
           3           1           1           3           1           1
Shell to atom map                          I   N=          72
           1           1           1           1           1           1
           2           2           2           2           2           2
           3           3           3           3           3           3
           4           4           4           4           4           4
           5           5           5           5           5           5
           6           6           6           6           6           6
           7           7           7           8           8           8
           9           9           9          10          10          10
          11          11          11          12          12          12
          13          13          13          13          13          13
          14          14          14          14          14          14
          15          15          15          16          16          16
Primitive exponents                        R   N=         136
  2.26617678E+03  3.40870102E+02  7.73631352E+01  2.14796449E+01  6.65894331E+00
  8.09759757E-01  2.55307722E-01  1.77215043E+01  3.86355054E+00  1.04809209E+00
  2.76415444E-01  1.20000000E+00  1.23840169E+03  1.86290050E+02  4.22511763E+01
  1.16765579E+01  3.59305065E+00  4.02451474E-01  1.30901827E-01  9.46809706E+00
  2.01035451E+00  5.47710047E-01  1.52686138E-01  8.00000000E-01  1.23840169E+03
  1.86290050E+02  4.22511763E+01  1.16765579E+01  3.59305065E+00  4.02451474E-01
  1.30901827E-01  9.46809706E+00  2.01035451E+00  5.47710047E-01  1.52686138E-01
  8.00000000E-01  1.23840169E+03  1.86290050E+02  4.22511763E+01  1.16765579E+01
  3.59305065E+00  4.02451474E-01  1.30901827E-01  9.46809706E+00  2.01035451E+00
  5.47710047E-01  1.52686138E-01  8.00000000E-01  1.23840169E+03  1.86290050E+02
  4.22511763E+01  1.16765579E+01  3.59305065E+00  4.02451474E-01  1.30901827E-01
  9.46809706E+00  2.01035451E+00  5.47710047E-01  1.52686138E-01  8.00000000E-01
  1.23840169E+03  1.86290050E+02  4.22511763E+01  1.16765579E+01  3.59305065E+00
  4.02451474E-01  1.30901827E-01  9.46809706E+00  2.01035451E+00  5.47710047E-01
  1.52686138E-01  8.00000000E-01  1.30107010E+01  1.96225720E+00  4.44537960E-01
  1.21949620E-01  8.00000000E-01  1.30107010E+01  1.96225720E+00  4.44537960E-01
  1.21949620E-01  8.00000000E-01  1.30107010E+01  1.96225720E+00  4.44537960E-01
  1.21949620E-01  8.00000000E-01  1.30107010E+01  1.96225720E+00  4.44537960E-01
  1.21949620E-01  8.00000000E-01  1.30107010E+01  1.96225720E+00  4.44537960E-01
  1.21949620E-01  8.00000000E-01  1.30107010E+01  1.96225720E+00  4.44537960E-01
  1.21949620E-01  8.00000000E-01  1.23840169E+03  1.86290050E+02  4.22511763E+01
  1.16765579E+01  3.59305065E+00  4.02451474E-01  1.30901827E-01  9.46809706E+00
  2.01035451E+00  5.47710047E-01  1.52686138E-01  8.00000000E-01  2.26617678E+03
  3.40870102E+02  7.73631352E+01  2.14796449E+01  6.65894331E+00  8.09759757E-01
  2.55307722E-01  1.77215043E+01  3.86355054E+00  1.04809209E+00  2.76415444E-01
  1.20000000E+00  1.30107010E+01  1.96225720E+00  4.44537960E-01  1.21949620E-01
  8.00000000E-01  1.30107010E+01  1.96225720E+00  4.44537960E-01  1.21949620E-01
  8.00000000E-01
Contraction coefficients                   R   N=         136
 -5.38935039E-03 -4.02347214E-02 -1.80081842E-01 -4.68288577E-01 -4.46926172E-01
  1.00000000E+00  1.00000000E+00  6.26302488E-02  3.33311385E-01  7.41486383E-01
  1.00000000E+00  1.00000000E+00  5.51736505E-03  4.10888286E-02  1.82253821E-01
  4.68284594E-01  4.45758173E-01  1.00000000E+00  1.00000000E+00  5.68883320E-02
  3.12940593E-01  7.60650165E-01  1.00000000E+00  1.00000000E+00  5.51736505E-03
  4.10888286E-02  1.82253821E-01  4.68284594E-01  4.45758173E-01  1.00000000E+00
  1.00000000E+00  5.68883320E-02  3.12940593E-01  7.60650165E-01  1.00000000E+00
  1.00000000E+00  5.51736505E-03  4.10888286E-02  1.82253821E-01  4.68284594E-01
  4.45758173E-01  1.00000000E+00  1.00000000E+00  5.68883320E-02  3.12940593E-01
  7.60650165E-01  1.00000000E+00  1.00000000E+00  5.51736505E-03  4.10888286E-02
  1.82253821E-01  4.68284594E-01  4.45758173E-01  1.00000000E+00  1.00000000E+00
  5.68883320E-02  3.12940593E-01  7.60650165E-01  1.00000000E+00  1.00000000E+00
  5.51736505E-03  4.10888286E-02  1.82253821E-01  4.68284594E-01  4.45758173E-01
  1.00000000E+00  1.00000000E+00  5.68883320E-02  3.12940593E-01  7.60650165E-01
  1.00000000E+00  1.00000000E+00  3.34854848E-02  2.34721871E-01  8.13770285E-01
  1.00000000E+00  1.00000000E+00  3.34854848E-02  2.34721871E-01  8.13770285E-01
  1.00000000E+00  1.00000000E+00  3.34854848E-02  2.34721871E-01  8.13770285E-01
  1.00000000E+00  1.00000000E+00  3.34854848E-02  2.34721871E-01  8.13770285E-01
  1.00000000E+00  1.00000000E+00  3.34854848E-02  2.34721871E-01  8.13770285E-01
  1.00000000E+00  1.00000000E+00  3.34854848E-02  2.34721871E-01  8.13770285E-01
  1.00000000E+00  1.00000000E+00  5.51736505E-03  4.10888286E-02  1.82253821E-01
  4.68284594E-01  4.45758173E-01  1.00000000E+00  1.00000000E+00  5.68883320E-02
  3.12940593E-01  7.60650165E-01  1.00000000E+00  1.00000000E+00 -5.38935039E-03
 -4.02347214E-02 -1.80081842E-01 -4.68288577E-01 -4.46926172E-01  1.00000000E+00
  1.00000000E+00  6.26302488E-02  3.33311385E-01  7.41486383E-01  1.00000000E+00
  1.00000000E+00  3.34854848E-02  2.34721871E-01  8.13770285E-01  1.00000000E+00
  1.00000000E+00  3.34854848E-02  2.34721871E-01  8.13770285E-01  1.00000000E+00
  1.00000000E+00
Coordinates of each shell                  R   N=         216
  2.75269333E+00  2.17353922E+00 -3.14807968E-01  2.75269333E+00  2.17353922E+00
 -3.14807968E-01  2.75269333E+00  2.17353922E+00 -3.14807968E-01  2.75269333E+00
  2.17353922E+00 -3.14807968E-01  2.75269333E+00  2.17353922E+00 -3.14807968E-01
  2.75269333E+00  2.17353922E+00 -3.14807968E-01 -5.57764434E-01  2.80569109E+00
  1.13497333E+00 -5.57764434E-01  2.80569109E+00  1.13497333E+00 -5.57764434E-01
  2.80569109E+00  1.13497333E+00 -5.57764434E-01  2.80569109E+00  1.13497333E+00
 -5.57764434E-01  2.80569109E+00  1.13497333E+00 -5.57764434E-01  2.80569109E+00
  1.13497333E+00  1.09098402E+00 -2.47518579E+00  1.84995920E+00  1.09098402E+00
 -2.47518579E+00  1.84995920E+00  1.09098402E+00 -2.47518579E+00  1.84995920E+00
  1.09098402E+00 -2.47518579E+00  1.84995920E+00  1.09098402E+00 -2.47518579E+00
  1.84995920E+00  1.09098402E+00 -2.47518579E+00  1.84995920E+00 -1.85265837E+00
  4.04538120E-01  1.66507984E+00 -1.85265837E+00  4.04538120E-01  1.66507984E+00
 -1.85265837E+00  4.04538120E-01  1.66507984E+00 -1.85265837E+00  4.04538120E-01
  1.66507984E+00 -1.85265837E+00  4.04538120E-01  1.66507984E+00 -1.85265837E+00
  4.04538120E-01  1.66507984E+00  3.35914589E+00  2.18826342E-01 -1.41547874E+00
  3.35914589E+00  2.18826342E-01 -1.41547874E+00  3.35914589E+00  2.18826342E-01
 -1.41547874E+00  3.35914589E+00  2.18826342E-01 -1.41547874E+00  3.35914589E+00
  2.18826342E-01 -1.41547874E+00  3.35914589E+00  2.18826342E-01 -1.41547874E+00
  2.56519825E+00 -2.29456741E+00 -4.69071046E-01  2.56519825E+00 -2.29456741E+00
 -4.69071046E-01  2.56519825E+00 -2.29456741E+00 -4.69071046E-01  2.56519825E+00
 -2.29456741E+00 -4.69071046E-01  2.56519825E+00 -2.29456741E+00 -4.69071046E-01
  2.56519825E+00 -2.29456741E+00 -4.69071046E-01  4.45216398E+00  2.00139899E-01
 -3.18913007E+00  4.45216398E+00  2.00139899E-01 -3.18913007E+00  4.45216398E+00
  2.00139899E-01 -3.18913007E+00  1.97283702E+00 -1.55132638E+00  3.47717693E+00
  1.97283702E+00 -1.55132638E+00  3.47717693E+00  1.97283702E+00 -1.55132638E+00
  3.47717693E+00  2.63062122E+00 -3.86239129E+00 -1.78078773E+00  2.63062122E+00
 -3.86239129E+00 -1.78078773E+00  2.63062122E+00 -3.86239129E+00 -1.78078773E+00
  1.45401090E-01  3.87122047E+00  2.74535548E+00  1.45401090E-01  3.87122047E+00
  2.74535548E+00  1.45401090E-01  3.87122047E+00  2.74535548E+00 -1.14700217E+00
  3.85566438E+00 -5.36026912E-01 -1.14700217E+00  3.85566438E+00 -5.36026912E-01
 -1.14700217E+00  3.85566438E+00 -5.36026912E-01 -2.37139278E+00  9.19447551E-02
  3.63167610E+00 -2.37139278E+00  9.19447551E-02  3.63167610E+00 -2.37139278E+00
  9.19447551E-02  3.63167610E+00 -3.68994732E+00 -6.22152416E-01 -2.15449780E-01
 -3.68994732E+00 -6.22152416E-01 -2.15449780E-01 -3.68994732E+00 -6.22152416E-01
 -2.15449780E-01 -3.68994732E+00 -6.22152416E-01 -2.15449780E-01 -3.68994732E+00
 -6.22152416E-01 -2.15449780E-01 -3.68994732E+00 -6.22152416E-01 -2.15449780E-01
 -3.52690931E+00 -2.66318243E-01 -2.49565986E+00 -3.52690931E+00 -2.66318243E-01
 -2.49565986E+00 -3.52690931E+00 -2.66318243E-01 -2.49565986E+00 -3.52690931E+00
 -2.66318243E-01 -2.49565986E+00 -3.52690931E+00 -2.66318243E-01 -2.49565986E+00
 -3.52690931E+00 -2.66318243E-01 -2.49565986E+00  2.34619027E-01 -4.30971051E+00
  2.22027708E+00  2.34619027E-01 -4.30971051E+00  2.22027708E+00  2.34619027E-01
 -4.30971051E+00  2.22027708E+00 -5.21326775E+00 -1.77620869E+00  6.15124927E-01
 -5.21326775E+00 -1.77620869E+00  6.15124927E-01 -5.21326775E+00 -1.77620869E+00
  6.15124927E-01
Num ILSW                                   I              100
ILSW                                       I   N=         100
           0           0           0           0           2           0
           0           0           0           0        4639          -1
           5           1           0           0           2           0
           0           0           1           0           1           0
           1           1           0           0           0           0
           0           0      100000           0          -1           0
           0           0           0           0           0           0
           0           0           0           1           0           0
           0 -2000000000           1           0           0           0
           0           0         121          52           0           0
           0           0          58           0           0           0
           0           0           0           0           0           1
           0           0           0           0           0           0
           0           0           0           0           0           0
           0           0           0           0           0           0
           0           0           0           0           0           0
           0           0           0           0
Num RLSW                                   I               52
RLSW                                       R   N=          52
  1.00000000E+00  1.00000000E+00  1.00000000E+00  1.00000000E+00  1.00000000E+00
  0.00000000E+00  2.00000000E-01  2.22036000E-01  0.00000000E+00  7.77964000E-01
  0.00000000E+00  2.00000000E-01  0.00000000E+00  0.00000000E+00  1.00000000E+00
  0.00000000E+00  0.00000000E+00  1.00000000E+00  0.00000000E+00  0.00000000E+00
  0.00000000E+00  0.00000000E+00  1.00000000E+00  0.00000000E+00  0.00000000E+00
  0.00000000E+00  0.00000000E+00  1.00000000E+00  0.00000000E+00  0.00000000E+00
  0.00000000E+00  0.00000000E+00  1.00000000E+00  0.00000000E+00  0.00000000E+00
  0.00000000E+00  0.00000000E+00  0.00000000E+00  1.00000000E+00  1.00000000E+00
  0.00000000E+00  1.00000000E+00  0.00000000E+00  0.00000000E+00  0.00000000E+00
  0.00000000E+00  0.00000000E+00  0.00000000E+00  0.00000000E+00  0.00000000E+00
  0.00000000E+00  0.00000000E+00
ECP-MxAtEC                                 I           250000
ECP-MaxLECP                                I               10
ECP-MaxAtL                                 I          2250000
ECP-MxTECP                                 I         11250000
ECP-LenNCZ                                 I                0
ECP-KFirst                                 I   N=         160
           0           0           0           0           0           0
           0           0           0           0           0           0
           0           0           0           0           0           0
           0           0           0           0           0           0
           0           0           0           0           0           0
           0           0           0           0           0           0
           0           0           0           0           0           0
           0           0           0           0           0           0
           0           0           0           0           0           0
           0           0           0           0           0           0
           0           0           0           0           0           0
           0           0           0           0           0           0
           0           0           0           0           0           0
           0           0           0           0           0           0
           0           0           0           0           0           0
           0           0           0           0           0           0
           0           0           0           0           0           0
           0           0           0           0           0           0
           0           0           0           0           0           0
           0           0           0           0           0           0
           0           0           0           0           0           0
           0           0           0           0           0           0
           0           0           0           0           0           0
           0           0           0           0           0           0
           0           0           0           0           0           0
           0           0           0           0           0           0
           0           0           0           0
ECP-KLast                                  I   N=         160
           0           0           0           0           0           0
           0           0           0           0           0           0
           0           0           0           0           0           0
           0           0           0           0           0           0
           0           0           0           0           0           0
           0           0           0           0           0           0
           0           0           0           0           0           0
           0           0           0           0           0           0
           0           0           0           0           0           0
           0           0           0           0           0           0
           0           0           0           0           0           0
           0           0           0           0           0           0
           0           0           0           0           0           0
           0           0           0           0           0           0
           0           0           0           0           0           0
           0           0           0           0           0           0
           0           0           0           0           0           0
           0           0           0           0           0           0
           0           0           0           0           0           0
           0           0           0           0           0           0
           0           0           0           0           0           0
           0           0           0           0           0           0
           0           0           0           0           0           0
           0           0           0           0           0           0
           0           0           0           0           0           0
           0           0           0           0           0           0
           0           0           0           0
ECP-LMax                                   I   N=          16
           0           0           0           0           0           0
           0           0           0           0           0           0
           0           0           0           0
ECP-LPSkip                                 I   N=          16
           1           1           1           1           1           1
           1           1           1           1           1           1
           1           1           1           1
ECP-RNFroz                                 R   N=          16
  0.00000000E+00  0.00000000E+00  0.00000000E+00  0.00000000E+00  0.00000000E+00
  0.00000000E+00  0.00000000E+00  0.00000000E+00  0.00000000E+00  0.00000000E+00
  0.00000000E+00  0.00000000E+00  0.00000000E+00  0.00000000E+00  0.00000000E+00
  0.00000000E+00
ECP-NLP                                    I                0
ECP-CLP1                                   R      0.000000000000000E+00
ECP-CLP2                                   R      0.000000000000000E+00
ECP-ZLP                                    R      0.000000000000000E+00
MxBond                                     I                3
NBond                                      I   N=          16
           1           3           3           3           3           3
           1           1           1           1           1           1
           3           1           1           1
IBond                                      I   N=          48
           5           0           0           4          10          11
           6           8          15           2          12          13
           1           6           7           3           5           9
           5           0           0           3           0           0
           6           0           0           2           0           0
           2           0           0           4           0           0
           4          14          16          13           0           0
           3           0           0          13           0           0
RBond                                      R   N=          48
  2.00000000E+00  0.00000000E+00  0.00000000E+00  1.00000000E+00  1.00000000E+00
  1.00000000E+00  1.00000000E+00  1.00000000E+00  1.00000000E+00  1.00000000E+00
  1.00000000E+00  1.00000000E+00  2.00000000E+00  1.00000000E+00  1.00000000E+00
  1.00000000E+00  1.00000000E+00  1.00000000E+00  1.00000000E+00  0.00000000E+00
  0.00000000E+00  1.00000000E+00  0.00000000E+00  0.00000000E+00  1.00000000E+00
  0.00000000E+00  0.00000000E+00  1.00000000E+00  0.00000000E+00  0.00000000E+00
  1.00000000E+00  0.00000000E+00  0.00000000E+00  1.00000000E+00  0.00000000E+00
  0.00000000E+00  1.00000000E+00  2.00000000E+00  1.00000000E+00  2.00000000E+00
  0.00000000E+00  0.00000000E+00  1.00000000E+00  0.00000000E+00  0.00000000E+00
  1.00000000E+00  0.00000000E+00  0.00000000E+00
Virial Ratio                               R      2.011047322757468E+00
SCF Energy                                 R     -3.833549087727845E+02
Total Energy                               R     -3.833549087727845E+02
RMS Force                                  R      2.163244296341272E-02
RMS Density                                R      5.793244970745086E-09
Job Status                                 I                1
Nuclear derivative order                   I                1
PCM-NSphere                                I               16
PCM-NGenSphere                             I               16
PCM-NOrd                                   I   N=          16
           1           2           3           4           5           6
           7           8           9          10          11          12
          13          14          15          16
PCM-SphereRadii                            R   N=          16
  3.63772279E+00  4.00253442E+00  4.00253442E+00  4.00253442E+00  4.00253442E+00
  4.00253442E+00  2.99956228E+00  2.99956228E+00  2.99956228E+00  2.99956228E+00
  2.99956228E+00  2.99956228E+00  4.00253442E+00  3.63772279E+00  2.99956228E+00
  2.99956228E+00
PCM-SphereLoc                              R   N=          48
  2.75269333E+00  2.17353922E+00 -3.14807968E-01 -5.57764434E-01  2.80569109E+00
  1.13497333E+00  1.09098402E+00 -2.47518579E+00  1.84995920E+00 -1.85265837E+00
  4.04538120E-01  1.66507984E+00  3.35914589E+00  2.18826342E-01 -1.41547874E+00
  2.56519825E+00 -2.29456741E+00 -4.69071046E-01  4.45216398E+00  2.00139899E-01
 -3.18913007E+00  1.97283702E+00 -1.55132638E+00  3.47717693E+00  2.63062122E+00
 -3.86239129E+00 -1.78078773E+00  1.45401090E-01  3.87122047E+00  2.74535548E+00
 -1.14700217E+00  3.85566438E+00 -5.36026912E-01 -2.37139278E+00  9.19447551E-02
  3.63167610E+00 -3.68994732E+00 -6.22152416E-01 -2.15449780E-01 -3.52690931E+00
 -2.66318243E-01 -2.49565986E+00  2.34619027E-01 -4.30971051E+00  2.22027708E+00
 -5.21326775E+00 -1.77620869E+00  6.15124927E-01
External E-field                           R   N=          35
  0.00000000E+00  0.00000000E+00  0.00000000E+00  0.00000000E+00  0.00000000E+00
  0.00000000E+00  0.00000000E+00  0.00000000E+00  0.00000000E+00  0.00000000E+00
  0.00000000E+00  0.00000000E+00  0.00000000E+00  0.00000000E+00  0.00000000E+00
  0.00000000E+00  0.00000000E+00  0.00000000E+00  0.00000000E+00  0.00000000E+00
  0.00000000E+00  0.00000000E+00  0.00000000E+00  0.00000000E+00  0.00000000E+00