FREQ part at pm6 scrf=(iefpcm,solvent=toluene)                          
Freq      RPM6                                                        ZDO                 
Number of atoms                            I               16
Info1-9                                    I   N=           9
          25          25           0           0           0         100
           6           8         302
Full Title                                 C   N=           4
FREQ part at pm6 scrf=(iefpcm,solvent=toluene)  
Route                                      C   N=           8
# pm6 scrf=(iefpcm,solvent=toluene) freq=(noraman,noprintnm,
intmodes) units=au nosymmetry       
Charge                                     I                0
Multiplicity                               I                1
Number of electrons                        I               44
Number of alpha electrons                  I               22
Number of beta electrons                   I               22
Number of basis functions                  I               40
Number of independent functions            I               40
Number of point charges in /Mol/           I                0
Number of translation vectors              I                0
Atomic numbers                             I   N=          16
           8           6           6           6           6           6
           1           1           1           1           1           1
           6           8           1           1
Nuclear charges                            R   N=          16
  6.00000000E+00  4.00000000E+00  4.00000000E+00  4.00000000E+00  4.00000000E+00
  4.00000000E+00  1.00000000E+00  1.00000000E+00  1.00000000E+00  1.00000000E+00
  1.00000000E+00  1.00000000E+00  4.00000000E+00  6.00000000E+00  1.00000000E+00
  1.00000000E+00
Current cartesian coordinates              R   N=          48
  2.75269333E+00  2.17353922E+00 -3.14807968E-01 -5.57764434E-01  2.80569109E+00
  1.13497333E+00  1.09098402E+00 -2.47518579E+00  1.84995920E+00 -1.85265837E+00
  4.04538120E-01  1.66507984E+00  3.35914589E+00  2.18826342E-01 -1.41547874E+00
  2.56519825E+00 -2.29456741E+00 -4.69071046E-01  4.45216398E+00  2.00139899E-01
 -3.18913007E+00  1.97283702E+00 -1.55132638E+00  3.47717693E+00  2.63062122E+00
 -3.86239129E+00 -1.78078773E+00  1.45401090E-01  3.87122047E+00  2.74535548E+00
 -1.14700217E+00  3.85566438E+00 -5.36026912E-01 -2.37139278E+00  9.19447551E-02
  3.63167610E+00 -3.68994732E+00 -6.22152416E-01 -2.15449780E-01 -3.52690931E+00
 -2.66318243E-01 -2.49565986E+00  2.34619027E-01 -4.30971051E+00  2.22027708E+00
 -5.21326775E+00 -1.77620869E+00  6.15124927E-01
Number of symbols in /Mol/                 I                0
Force Field                                I                0
Atom Types                                 C   N=          16
                                                            
                                                            
                                                            
            
Int Atom Types                             I   N=          16
           0           0           0           0           0           0
           0           0           0           0           0           0
           0           0           0           0
MM charges                                 R   N=          16
  0.00000000E+00  0.00000000E+00  0.00000000E+00  0.00000000E+00  0.00000000E+00
  0.00000000E+00  0.00000000E+00  0.00000000E+00  0.00000000E+00  0.00000000E+00
  0.00000000E+00  0.00000000E+00  0.00000000E+00  0.00000000E+00  0.00000000E+00
  0.00000000E+00
Integer atomic weights                     I   N=          16
          16          12          12          12          12          12
           1           1           1           1           1           1
          12          16           1           1
Real atomic weights                        R   N=          16
  1.59949146E+01  1.20000000E+01  1.20000000E+01  1.20000000E+01  1.20000000E+01
  1.20000000E+01  1.00782504E+00  1.00782504E+00  1.00782504E+00  1.00782504E+00
  1.00782504E+00  1.00782504E+00  1.20000000E+01  1.59949146E+01  1.00782504E+00
  1.00782504E+00
Atom fragment info                         I   N=          16
           0           0           0           0           0           0
           0           0           0           0           0           0
           0           0           0           0
Atom residue num                           I   N=          16
           0           0           0           0           0           0
           0           0           0           0           0           0
           0           0           0           0
Nuclear spins                              I   N=          16
           0           0           0           0           0           0
           1           1           1           1           1           1
           0           0           1           1
Nuclear ZEff                               R   N=          16
 -6.00000000E+00 -3.90000000E+00 -3.90000000E+00 -3.90000000E+00 -3.90000000E+00
 -3.90000000E+00 -1.00000000E+00 -1.00000000E+00 -1.00000000E+00 -1.00000000E+00
 -1.00000000E+00 -1.00000000E+00 -3.90000000E+00 -6.00000000E+00 -1.00000000E+00
 -1.00000000E+00
Nuclear ZNuc                               R   N=          16
  8.00000000E+00  6.00000000E+00  6.00000000E+00  6.00000000E+00  6.00000000E+00
  6.00000000E+00  1.00000000E+00  1.00000000E+00  1.00000000E+00  1.00000000E+00
  1.00000000E+00  1.00000000E+00  6.00000000E+00  8.00000000E+00  1.00000000E+00
  1.00000000E+00
Nuclear QMom                               R   N=          16
  0.00000000E+00  0.00000000E+00  0.00000000E+00  0.00000000E+00  0.00000000E+00
  0.00000000E+00  0.00000000E+00  0.00000000E+00  0.00000000E+00  0.00000000E+00
  0.00000000E+00  0.00000000E+00  0.00000000E+00  0.00000000E+00  0.00000000E+00
  0.00000000E+00
Nuclear GFac                               R   N=          16
  0.00000000E+00  0.00000000E+00  0.00000000E+00  0.00000000E+00  0.00000000E+00
  0.00000000E+00  2.79284600E+00  2.79284600E+00  2.79284600E+00  2.79284600E+00
  2.79284600E+00  2.79284600E+00  0.00000000E+00  0.00000000E+00  2.79284600E+00
  2.79284600E+00
MicOpt                                     I   N=          16
          -1          -1          -1          -1          -1          -1
          -1          -1          -1          -1          -1          -1
          -1          -1          -1          -1
Number of residues                         I                0
Number of secondary structures             I                0
Redundant internal dimensions              I   N=           4
          60          15          22          23
Redundant internal coordinate indices      I   N=         240
           1           2           0           0           1           5
           0           0           2           4           0           0
           2          10           0           0           2          11
           0           0           3           6           0           0
           3           8           0           0           3          15
           0           0           4          12           0           0
           4          13           0           0           5           6
           0           0           5           7           0           0
           6           9           0           0          13          14
           0           0          13          16           0           0
           2           1           5           0           1           2
           4           0           1           2          10           0
           1           2          11           0           4           2
          10           0           4           2          11           0
          10           2          11           0           6           3
           8           0           6           3          15           0
           8           3          15           0           2           4
          12           0           2           4          13           0
          12           4          13           0           1           5
           6           0           1           5           7           0
           6           5           7           0           3           6
           5           0           3           6           9           0
           5           6           9           0           4          13
          14           0           4          13          16           0
          14          13          16           0           5           1
           2           4           5           1           2          10
           5           1           2          11           2           1
           5           6           2           1           5           7
           1           2           4          12           1           2
           4          13          10           2           4          12
          10           2           4          13          11           2
           4          12          11           2           4          13
           8           3           6           5           8           3
           6           9          15           3           6           5
          15           3           6           9           2           4
          13          14           2           4          13          16
          12           4          13          14          12           4
          13          16           1           5           6           3
           1           5           6           9           7           5
           6           3           7           5           6           9
Redundant internal coordinates             R   N=          60
  3.66887072E+00  2.32382514E+00  2.77908236E+00  2.05502440E+00  2.05958415E+00
  2.75387579E+00  2.06857886E+00  2.05814899E+00  2.05774168E+00  2.82243084E+00
  2.80056933E+00  2.08347709E+00  2.04522677E+00  2.31355946E+00  2.08379590E+00
  2.17435437E+00  1.92509276E+00  1.66117301E+00  1.59618226E+00  2.04647620E+00
  2.05096254E+00  2.05934586E+00  1.98768572E+00  2.01830105E+00  2.01964941E+00
  2.01640961E+00  2.08347237E+00  2.00138829E+00  2.11865693E+00  2.15036768E+00
  2.01347012E+00  2.08885712E+00  2.10241547E+00  2.05123316E+00  2.15898440E+00
  1.99518186E+00  2.12885253E+00  3.98315432E-01  2.52040808E+00 -1.69846871E+00
 -7.15786283E-01  2.38400522E+00  2.10295767E+00 -1.68265403E+00  2.28728465E-01
  2.72630206E+00 -2.38436647E+00  1.13207128E-01 -9.58816715E-01  2.49271329E+00
  2.92202720E+00  9.03718977E-02  5.29017635E-01 -2.63187866E+00  3.03184588E+00
 -1.29050414E-01 -2.87763697E-02  2.81182463E+00 -3.13166484E+00 -2.91063845E-01
ZRed-IntVec                                I   N=          60
           0           0           0           0           0           0
           0           0           0           0           0           0
           0           0           0           0           0           0
           0           0           0           0           0           0
           0           0           0           0           0           0
           0           0           0           0           0           0
           0           0           0           0           0           0
           0           0           0           0           0           0
           0           0           0           0           0           0
           0           0           0           0           0           0
ZRed-FPVec                                 R   N=          60
  0.00000000E+00  0.00000000E+00  0.00000000E+00  0.00000000E+00  0.00000000E+00
  0.00000000E+00  0.00000000E+00  0.00000000E+00  0.00000000E+00  0.00000000E+00
  0.00000000E+00  0.00000000E+00  0.00000000E+00  0.00000000E+00  0.00000000E+00
  0.00000000E+00  0.00000000E+00  0.00000000E+00  0.00000000E+00  0.00000000E+00
  0.00000000E+00  0.00000000E+00  0.00000000E+00  0.00000000E+00  0.00000000E+00
  0.00000000E+00  0.00000000E+00  0.00000000E+00  0.00000000E+00  0.00000000E+00
  0.00000000E+00  0.00000000E+00  0.00000000E+00  0.00000000E+00  0.00000000E+00
  0.00000000E+00  0.00000000E+00  0.00000000E+00  0.00000000E+00  0.00000000E+00
  0.00000000E+00  0.00000000E+00  0.00000000E+00  0.00000000E+00  0.00000000E+00
  0.00000000E+00  0.00000000E+00  0.00000000E+00  0.00000000E+00  0.00000000E+00
  0.00000000E+00  0.00000000E+00  0.00000000E+00  0.00000000E+00  0.00000000E+00
  0.00000000E+00  0.00000000E+00  0.00000000E+00  0.00000000E+00  0.00000000E+00
ZRed-Constraint1                           R   N=          60
  3.66887072E+00  2.32382514E+00  2.77908236E+00  2.05502440E+00  2.05958415E+00
  2.75387579E+00  2.06857886E+00  2.05814899E+00  2.05774168E+00  2.82243084E+00
  2.80056933E+00  2.08347709E+00  2.04522677E+00  2.31355946E+00  2.08379590E+00
  2.17435437E+00  1.92509276E+00  1.66117301E+00  1.59618226E+00  2.04647620E+00
  2.05096254E+00  2.05934586E+00  1.98768572E+00  2.01830105E+00  2.01964941E+00
  2.01640961E+00  2.08347237E+00  2.00138829E+00  2.11865693E+00  2.15036768E+00
  2.01347012E+00  2.08885712E+00  2.10241547E+00  2.05123316E+00  2.15898440E+00
  1.99518186E+00  2.12885253E+00  3.98315432E-01  2.52040808E+00 -1.69846871E+00
 -7.15786283E-01  2.38400522E+00  2.10295767E+00 -1.68265403E+00  2.28728465E-01
  2.72630206E+00 -2.38436647E+00  1.13207128E-01 -9.58816715E-01  2.49271329E+00
  2.92202720E+00  9.03718977E-02  5.29017635E-01 -2.63187866E+00  3.03184588E+00
 -1.29050414E-01 -2.87763697E-02  2.81182463E+00 -3.13166484E+00 -2.91063845E-01
ZRed-Constraint2                           R   N=          60
  0.00000000E+00  0.00000000E+00  0.00000000E+00  0.00000000E+00  0.00000000E+00
  0.00000000E+00  0.00000000E+00  0.00000000E+00  0.00000000E+00  0.00000000E+00
  0.00000000E+00  0.00000000E+00  0.00000000E+00  0.00000000E+00  0.00000000E+00
  0.00000000E+00  0.00000000E+00  0.00000000E+00  0.00000000E+00  0.00000000E+00
  0.00000000E+00  0.00000000E+00  0.00000000E+00  0.00000000E+00  0.00000000E+00
  0.00000000E+00  0.00000000E+00  0.00000000E+00  0.00000000E+00  0.00000000E+00
  0.00000000E+00  0.00000000E+00  0.00000000E+00  0.00000000E+00  0.00000000E+00
  0.00000000E+00  0.00000000E+00  0.00000000E+00  0.00000000E+00  0.00000000E+00
  0.00000000E+00  0.00000000E+00  0.00000000E+00  0.00000000E+00  0.00000000E+00
  0.00000000E+00  0.00000000E+00  0.00000000E+00  0.00000000E+00  0.00000000E+00
  0.00000000E+00  0.00000000E+00  0.00000000E+00  0.00000000E+00  0.00000000E+00
  0.00000000E+00  0.00000000E+00  0.00000000E+00  0.00000000E+00  0.00000000E+00
Number of contracted shells                I               16
Number of primitive shells                 I               96
Pure/Cartesian d shells                    I                0
Pure/Cartesian f shells                    I                0
Highest angular momentum                   I                1
Largest degree of contraction              I                6
Shell types                                I   N=          16
          -1          -1          -1          -1          -1          -1
           0           0           0           0           0           0
          -1          -1           0           0
Number of primitives per shell             I   N=          16
           6           6           6           6           6           6
           6           6           6           6           6           6
           6           6           6           6
Shell to atom map                          I   N=          16
           1           2           3           4           5           6
           7           8           9          10          11          12
          13          14          15          16
Primitive exponents                        R   N=          96
  8.02643074E+01  2.31120341E+01  9.09054165E+00  4.15468650E+00  2.06764625E+00
  1.06186467E+00  1.14476344E+01  3.29633588E+00  1.29653143E+00  5.92558930E-01
  2.94896438E-01  1.51447622E-01  1.14476344E+01  3.29633588E+00  1.29653143E+00
  5.92558930E-01  2.94896438E-01  1.51447622E-01  1.14476344E+01  3.29633588E+00
  1.29653143E+00  5.92558930E-01  2.94896438E-01  1.51447622E-01  1.14476344E+01
  3.29633588E+00  1.29653143E+00  5.92558930E-01  2.94896438E-01  1.51447622E-01
  1.14476344E+01  3.29633588E+00  1.29653143E+00  5.92558930E-01  2.94896438E-01
  1.51447622E-01  4.39461478E+00  1.26542531E+00  4.97723458E-01  2.27476537E-01
  1.13207340E-01  5.81389949E-02  4.39461478E+00  1.26542531E+00  4.97723458E-01
  2.27476537E-01  1.13207340E-01  5.81389949E-02  4.39461478E+00  1.26542531E+00
  4.97723458E-01  2.27476537E-01  1.13207340E-01  5.81389949E-02  4.39461478E+00
  1.26542531E+00  4.97723458E-01  2.27476537E-01  1.13207340E-01  5.81389949E-02
  4.39461478E+00  1.26542531E+00  4.97723458E-01  2.27476537E-01  1.13207340E-01
  5.81389949E-02  4.39461478E+00  1.26542531E+00  4.97723458E-01  2.27476537E-01
  1.13207340E-01  5.81389949E-02  1.14476344E+01  3.29633588E+00  1.29653143E+00
  5.92558930E-01  2.94896438E-01  1.51447622E-01  8.02643074E+01  2.31120341E+01
  9.09054165E+00  4.15468650E+00  2.06764625E+00  1.06186467E+00  4.39461478E+00
  1.26542531E+00  4.97723458E-01  2.27476537E-01  1.13207340E-01  5.81389949E-02
  4.39461478E+00  1.26542531E+00  4.97723458E-01  2.27476537E-01  1.13207340E-01
  5.81389949E-02
Contraction coefficients                   R   N=          96
 -9.73739553E-03 -7.26587678E-02 -1.71615520E-01  1.28977624E-01  7.28861451E-01
  3.01331742E-01 -9.73739553E-03 -7.26587678E-02 -1.71615520E-01  1.28977624E-01
  7.28861451E-01  3.01331742E-01 -9.73739553E-03 -7.26587678E-02 -1.71615520E-01
  1.28977624E-01  7.28861451E-01  3.01331742E-01 -9.73739553E-03 -7.26587678E-02
 -1.71615520E-01  1.28977624E-01  7.28861451E-01  3.01331742E-01 -9.73739553E-03
 -7.26587678E-02 -1.71615520E-01  1.28977624E-01  7.28861451E-01  3.01331742E-01
 -9.73739553E-03 -7.26587678E-02 -1.71615520E-01  1.28977624E-01  7.28861451E-01
  3.01331742E-01 -9.73739553E-03 -7.26587678E-02 -1.71615520E-01  1.28977624E-01
  7.28861451E-01  3.01331742E-01 -9.73739553E-03 -7.26587678E-02 -1.71615520E-01
  1.28977624E-01  7.28861451E-01  3.01331742E-01 -9.73739553E-03 -7.26587678E-02
 -1.71615520E-01  1.28977624E-01  7.28861451E-01  3.01331742E-01 -9.73739553E-03
 -7.26587678E-02 -1.71615520E-01  1.28977624E-01  7.28861451E-01  3.01331742E-01
 -9.73739553E-03 -7.26587678E-02 -1.71615520E-01  1.28977624E-01  7.28861451E-01
  3.01331742E-01 -9.73739553E-03 -7.26587678E-02 -1.71615520E-01  1.28977624E-01
  7.28861451E-01  3.01331742E-01 -9.73739553E-03 -7.26587678E-02 -1.71615520E-01
  1.28977624E-01  7.28861451E-01  3.01331742E-01 -9.73739553E-03 -7.26587678E-02
 -1.71615520E-01  1.28977624E-01  7.28861451E-01  3.01331742E-01 -9.73739553E-03
 -7.26587678E-02 -1.71615520E-01  1.28977624E-01  7.28861451E-01  3.01331742E-01
 -9.73739553E-03 -7.26587678E-02 -1.71615520E-01  1.28977624E-01  7.28861451E-01
  3.01331742E-01
P(S=P) Contraction coefficients            R   N=          96
 -8.10494336E-03 -1.71547892E-02  7.36978576E-02  3.96514999E-01  4.97808488E-01
  1.17482582E-01 -8.10494336E-03 -1.71547892E-02  7.36978576E-02  3.96514999E-01
  4.97808488E-01  1.17482582E-01 -8.10494336E-03 -1.71547892E-02  7.36978576E-02
  3.96514999E-01  4.97808488E-01  1.17482582E-01 -8.10494336E-03 -1.71547892E-02
  7.36978576E-02  3.96514999E-01  4.97808488E-01  1.17482582E-01 -8.10494336E-03
 -1.71547892E-02  7.36978576E-02  3.96514999E-01  4.97808488E-01  1.17482582E-01
 -8.10494336E-03 -1.71547892E-02  7.36978576E-02  3.96514999E-01  4.97808488E-01
  1.17482582E-01  0.00000000E+00  0.00000000E+00  0.00000000E+00  0.00000000E+00
  0.00000000E+00  0.00000000E+00  0.00000000E+00  0.00000000E+00  0.00000000E+00
  0.00000000E+00  0.00000000E+00  0.00000000E+00  0.00000000E+00  0.00000000E+00
  0.00000000E+00  0.00000000E+00  0.00000000E+00  0.00000000E+00  0.00000000E+00
  0.00000000E+00  0.00000000E+00  0.00000000E+00  0.00000000E+00  0.00000000E+00
  0.00000000E+00  0.00000000E+00  0.00000000E+00  0.00000000E+00  0.00000000E+00
  0.00000000E+00  0.00000000E+00  0.00000000E+00  0.00000000E+00  0.00000000E+00
  0.00000000E+00  0.00000000E+00 -8.10494336E-03 -1.71547892E-02  7.36978576E-02
  3.96514999E-01  4.97808488E-01  1.17482582E-01 -8.10494336E-03 -1.71547892E-02
  7.36978576E-02  3.96514999E-01  4.97808488E-01  1.17482582E-01  0.00000000E+00
  0.00000000E+00  0.00000000E+00  0.00000000E+00  0.00000000E+00  0.00000000E+00
  0.00000000E+00  0.00000000E+00  0.00000000E+00  0.00000000E+00  0.00000000E+00
  0.00000000E+00
Coordinates of each shell                  R   N=          48
  2.75269333E+00  2.17353922E+00 -3.14807968E-01 -5.57764434E-01  2.80569109E+00
  1.13497333E+00  1.09098402E+00 -2.47518579E+00  1.84995920E+00 -1.85265837E+00
  4.04538120E-01  1.66507984E+00  3.35914589E+00  2.18826342E-01 -1.41547874E+00
  2.56519825E+00 -2.29456741E+00 -4.69071046E-01  4.45216398E+00  2.00139899E-01
 -3.18913007E+00  1.97283702E+00 -1.55132638E+00  3.47717693E+00  2.63062122E+00
 -3.86239129E+00 -1.78078773E+00  1.45401090E-01  3.87122047E+00  2.74535548E+00
 -1.14700217E+00  3.85566438E+00 -5.36026912E-01 -2.37139278E+00  9.19447551E-02
  3.63167610E+00 -3.68994732E+00 -6.22152416E-01 -2.15449780E-01 -3.52690931E+00
 -2.66318243E-01 -2.49565986E+00  2.34619027E-01 -4.30971051E+00  2.22027708E+00
 -5.21326775E+00 -1.77620869E+00  6.15124927E-01
Num ILSW                                   I              100
ILSW                                       I   N=         100
           0           0           0           0           2           0
           0           0           0           0           0          -1
           5           1           0           0           2           0
           0           0           1           0           1           0
           1           1           0           0           0           0
           0           0      100000           0          -1           0
           0           0           0           0           0           0
           0           0           0          40           0           0
           0 -2000000000           1           0           0           0
           0           0           4          52           0           0
           0           0           0           0           0           0
           0           0           0           0           0           1
           0           0           0           0           0           0
           0           0           0           0           0           0
           0           0           0           0           0           0
           0           0           0           0           0           0
           0           0           0           0
Num RLSW                                   I               52
RLSW                                       R   N=          52
  1.00000000E+00  1.00000000E+00  1.00000000E+00  1.00000000E+00  1.00000000E+00
  0.00000000E+00  0.00000000E+00  1.00000000E+00  0.00000000E+00  0.00000000E+00
  0.00000000E+00  0.00000000E+00  1.00000000E+00  0.00000000E+00  0.00000000E+00
  0.00000000E+00  0.00000000E+00  1.00000000E+00  0.00000000E+00  0.00000000E+00
  0.00000000E+00  0.00000000E+00  1.00000000E+00  0.00000000E+00  0.00000000E+00
  0.00000000E+00  0.00000000E+00  1.00000000E+00  0.00000000E+00  0.00000000E+00
  0.00000000E+00  0.00000000E+00  1.00000000E+00  0.00000000E+00  0.00000000E+00
  0.00000000E+00  0.00000000E+00  0.00000000E+00  1.00000000E+00  1.00000000E+00
  0.00000000E+00  1.00000000E+00  0.00000000E+00  0.00000000E+00  0.00000000E+00
  0.00000000E+00  0.00000000E+00  0.00000000E+00  0.00000000E+00  0.00000000E+00
  0.00000000E+00  0.00000000E+00
MxBond                                     I                4
NBond                                      I   N=          16
           2           4           3           3           3           3
           1           1           1           1           1           1
           3           1           1           1
IBond                                      I   N=          64
           2           5           0           0           1           4
          10          11           6           8          15           0
           2          12          13           0           1           6
           7           0           3           5           9           0
           5           0           0           0           3           0
           0           0           6           0           0           0
           2           0           0           0           2           0
           0           0           4           0           0           0
           4          14          16           0          13           0
           0           0           3           0           0           0
          13           0           0           0
RBond                                      R   N=          64
  1.00000000E-01  2.00000000E+00  0.00000000E+00  0.00000000E+00  1.00000000E-01
  1.00000000E+00  1.00000000E+00  1.00000000E+00  1.00000000E+00  1.00000000E+00
  1.00000000E+00  0.00000000E+00  1.00000000E+00  1.00000000E+00  1.00000000E+00
  0.00000000E+00  2.00000000E+00  1.00000000E+00  1.00000000E+00  0.00000000E+00
  1.00000000E+00  1.00000000E+00  1.00000000E+00  0.00000000E+00  1.00000000E+00
  0.00000000E+00  0.00000000E+00  0.00000000E+00  1.00000000E+00  0.00000000E+00
  0.00000000E+00  0.00000000E+00  1.00000000E+00  0.00000000E+00  0.00000000E+00
  0.00000000E+00  1.00000000E+00  0.00000000E+00  0.00000000E+00  0.00000000E+00
  1.00000000E+00  0.00000000E+00  0.00000000E+00  0.00000000E+00  1.00000000E+00
  0.00000000E+00  0.00000000E+00  0.00000000E+00  1.00000000E+00  2.00000000E+00
  1.00000000E+00  0.00000000E+00  2.00000000E+00  0.00000000E+00  0.00000000E+00
  0.00000000E+00  1.00000000E+00  0.00000000E+00  0.00000000E+00  0.00000000E+00
  1.00000000E+00  0.00000000E+00  0.00000000E+00  0.00000000E+00
Virial Ratio                               R      1.000202030779394E+00
SCF Energy                                 R      1.719213107708129E-02
Total Energy                               R      1.719213107708129E-02
RMS Force                                  R      2.394263884596042E-02
RMS Density                                R      3.297647695468047E-09
NImag                                      I                1
Job Status                                 I                1
Nuclear derivative order                   I                2
PCM-NSphere                                I               16
PCM-NGenSphere                             I               16
PCM-NOrd                                   I   N=          16
           1           2           3           4           5           6
           7           8           9          10          11          12
          13          14          15          16
PCM-SphereRadii                            R   N=          16
  3.63772279E+00  4.00253442E+00  4.00253442E+00  4.00253442E+00  4.00253442E+00
  4.00253442E+00  2.99956228E+00  2.99956228E+00  2.99956228E+00  2.99956228E+00
  2.99956228E+00  2.99956228E+00  4.00253442E+00  3.63772279E+00  2.99956228E+00
  2.99956228E+00
PCM-SphereLoc                              R   N=          48
  2.75269333E+00  2.17353922E+00 -3.14807968E-01 -5.57764434E-01  2.80569109E+00
  1.13497333E+00  1.09098402E+00 -2.47518579E+00  1.84995920E+00 -1.85265837E+00
  4.04538120E-01  1.66507984E+00  3.35914589E+00  2.18826342E-01 -1.41547874E+00
  2.56519825E+00 -2.29456741E+00 -4.69071046E-01  4.45216398E+00  2.00139899E-01
 -3.18913007E+00  1.97283702E+00 -1.55132638E+00  3.47717693E+00  2.63062122E+00
 -3.86239129E+00 -1.78078773E+00  1.45401090E-01  3.87122047E+00  2.74535548E+00
 -1.14700217E+00  3.85566438E+00 -5.36026912E-01 -2.37139278E+00  9.19447551E-02
  3.63167610E+00 -3.68994732E+00 -6.22152416E-01 -2.15449780E-01 -3.52690931E+00
 -2.66318243E-01 -2.49565986E+00  2.34619027E-01 -4.30971051E+00  2.22027708E+00
 -5.21326775E+00 -1.77620869E+00  6.15124927E-01
External E-field                           R   N=          35
  0.00000000E+00  0.00000000E+00  0.00000000E+00  0.00000000E+00  0.00000000E+00
  0.00000000E+00  0.00000000E+00  0.00000000E+00  0.00000000E+00  0.00000000E+00
  0.00000000E+00  0.00000000E+00  0.00000000E+00  0.00000000E+00  0.00000000E+00
  0.00000000E+00  0.00000000E+00  0.00000000E+00  0.00000000E+00  0.00000000E+00
  0.00000000E+00  0.00000000E+00  0.00000000E+00  0.00000000E+00  0.00000000E+00
  0.00000000E+00  0.00000000E+00  0.00000000E+00  0.00000000E+00  0.00000000E+00
  0.00000000E+00  0.00000000E+00  0.00000000E+00  0.00000000E+00  0.00000000E+00
IOpCl                                      I                0
IROHF                                      I                0
Alpha Orbital Energies                     R   N=          40
 -1.15608951E+00 -1.14682946E+00 -9.97633379E-01 -9.64586836E-01 -8.70823555E-01
 -8.61341491E-01 -7.31475558E-01 -6.84934327E-01 -6.34850646E-01 -6.28317792E-01
 -5.71976600E-01 -5.61979135E-01 -5.46901373E-01 -5.35657281E-01 -5.21482507E-01
 -5.11544270E-01 -4.91317048E-01 -4.78267167E-01 -4.05473793E-01 -3.88237503E-01
 -3.71181751E-01 -3.25531874E-01 -2.02785883E-02 -1.64533417E-02  3.16145744E-02
  6.30613338E-02  1.33210384E-01  1.43986064E-01  1.51886083E-01  1.63296796E-01
  1.65617057E-01  1.66683765E-01  1.88599990E-01  1.93012323E-01  1.93965358E-01
  1.98593724E-01  2.01054337E-01  2.02086978E-01  2.20197305E-01  2.32599514E-01
Alpha MO coefficients                      R   N=        1600
  7.15141062E-01  6.54289747E-02 -2.81921416E-01 -1.48135893E-01  5.01173517E-02
  2.01763946E-02 -2.71312108E-02 -1.96041665E-02  6.53623872E-02  1.85701221E-02
  2.58152168E-02 -2.60914296E-02  5.19765106E-02  8.13723843E-03  5.79265252E-04
 -2.44850318E-02  4.41236230E-01 -9.38010364E-02  2.52467945E-01  1.57958435E-01