Unloading slurm/anatra/current
  ERROR: No such file or directory on
    '/cm/local/modulefiles/slurm/anatra/current'
environment: line 0: unalias: gv: not found
environment: line 0: unalias: sl: not found
 Entering Gaussian System, Link 0=g16
 Initial command:
 /apps/gaussian/g16/C.01/g16/l1.exe "/local/jobs/1158121/Gau-718931.inp" -scrdir="/local/jobs/1158121/"
 Entering Link 1 = /apps/gaussian/g16/C.01/g16/l1.exe PID=    718932.
  
 Copyright (c) 1988-2019, Gaussian, Inc.  All Rights Reserved.
  
 This is part of the Gaussian(R) 16 program.  It is based on
 the Gaussian(R) 09 system (copyright 2009, Gaussian, Inc.),
 the Gaussian(R) 03 system (copyright 2003, Gaussian, Inc.),
 the Gaussian(R) 98 system (copyright 1998, Gaussian, Inc.),
 the Gaussian(R) 94 system (copyright 1995, Gaussian, Inc.),
 the Gaussian 92(TM) system (copyright 1992, Gaussian, Inc.),
 the Gaussian 90(TM) system (copyright 1990, Gaussian, Inc.),
 the Gaussian 88(TM) system (copyright 1988, Gaussian, Inc.),
 the Gaussian 86(TM) system (copyright 1986, Carnegie Mellon
 University), and the Gaussian 82(TM) system (copyright 1983,
 Carnegie Mellon University). Gaussian is a federally registered
 trademark of Gaussian, Inc.
  
 This software contains proprietary and confidential information,
 including trade secrets, belonging to Gaussian, Inc.
  
 This software is provided under written license and may be
 used, copied, transmitted, or stored only in accord with that
 written license.
  
 The following legend is applicable only to US Government
 contracts under FAR:
  
                    RESTRICTED RIGHTS LEGEND
  
 Use, reproduction and disclosure by the US Government is
 subject to restrictions as set forth in subparagraphs (a)
 and (c) of the Commercial Computer Software - Restricted
 Rights clause in FAR 52.227-19.
  
 Gaussian, Inc.
 340 Quinnipiac St., Bldg. 40, Wallingford CT 06492
  
  
 ---------------------------------------------------------------
 Warning -- This program may not be used in any manner that
 competes with the business of Gaussian, Inc. or will provide
 assistance to any competitor of Gaussian, Inc.  The licensee
 of this program is prohibited from giving any competitor of
 Gaussian, Inc. access to this program.  By using this program,
 the user acknowledges that Gaussian, Inc. is engaged in the
 business of creating and licensing software in the field of
 computational chemistry and represents and warrants to the
 licensee that it is not a competitor of Gaussian, Inc. and that
 it will not use this program in any manner prohibited above.
 ---------------------------------------------------------------
  

 Cite this work as:
 Gaussian 16, Revision C.01,
 M. J. Frisch, G. W. Trucks, H. B. Schlegel, G. E. Scuseria, 
 M. A. Robb, J. R. Cheeseman, G. Scalmani, V. Barone, 
 G. A. Petersson, H. Nakatsuji, X. Li, M. Caricato, A. V. Marenich, 
 J. Bloino, B. G. Janesko, R. Gomperts, B. Mennucci, H. P. Hratchian, 
 J. V. Ortiz, A. F. Izmaylov, J. L. Sonnenberg, D. Williams-Young, 
 F. Ding, F. Lipparini, F. Egidi, J. Goings, B. Peng, A. Petrone, 
 T. Henderson, D. Ranasinghe, V. G. Zakrzewski, J. Gao, N. Rega, 
 G. Zheng, W. Liang, M. Hada, M. Ehara, K. Toyota, R. Fukuda, 
 J. Hasegawa, M. Ishida, T. Nakajima, Y. Honda, O. Kitao, H. Nakai, 
 T. Vreven, K. Throssell, J. A. Montgomery, Jr., J. E. Peralta, 
 F. Ogliaro, M. J. Bearpark, J. J. Heyd, E. N. Brothers, K. N. Kudin, 
 V. N. Staroverov, T. A. Keith, R. Kobayashi, J. Normand, 
 K. Raghavachari, A. P. Rendell, J. C. Burant, S. S. Iyengar, 
 J. Tomasi, M. Cossi, J. M. Millam, M. Klene, C. Adamo, R. Cammi, 
 J. W. Ochterski, R. L. Martin, K. Morokuma, O. Farkas, 
 J. B. Foresman, and D. J. Fox, Gaussian, Inc., Wallingford CT, 2019.
 
 ******************************************
 Gaussian 16:  ES64L-G16RevC.01  3-Jul-2019
                17-Jan-2024 
 ******************************************
 %nprocshared=12
 Will use up to   12 processors via shared memory.
 %mem=48GB
 ----------------------------------------------------------------------
 # external="~/scripts/MiMe -H 'wb97xd def2svp' -EF 'wb97xd def2svp' -c
  12 -m 48GB" opt=(calcall,ts,noeigen,maxcycles=50,maxstep=10,nomicro)
 ----------------------------------------------------------------------
 1/5=1,6=50,8=10,10=4,11=1,18=20,26=1,38=1/1,3;
 2/9=110,12=2,17=6,18=5,40=1/2;
 3/11=9,25=1,30=1,41=9900000,43=2,71=2,140=1/1;
 4/20=17,22=2,24=3,113=1,114=1/2;
 6/7=2,8=2,9=2,10=2,18=1/1;
 7/25=1,44=-1/16;
 1/5=1,6=50,8=10,10=4,11=1,18=20,26=1/3(3);
 2/9=110/2;
 7/8=1,9=1,25=1,44=-1/16;
 99//99;
 2/9=110/2;
 3/11=9,25=1,30=1,41=9900000,43=2,71=2,140=1/1;
 4/16=2,20=17,22=2,24=3,113=1,114=1/2;
 7/25=1,44=-1/16;
 1/5=1,6=50,8=10,10=4,11=1,18=20,26=1/3(-4);
 2/9=110/2;
 6/7=2,8=2,9=2,10=2,18=1/1;
 7/8=1,9=1,25=1,44=-1/16;
 99//99;
 ----------
 TS-249.out
 ----------
 Symbolic Z-matrix:
 Charge =  0 Multiplicity = 1
 C                    -0.98025   0.69195  -0.20894 
 C                    -1.92168  -0.31      0.32291 
 O                    -3.01226  -0.50219  -0.2006 
 C                     0.22829   0.86754   0.36619 
 C                     2.98171  -0.36432   0.09422 
 H                     3.0227   -0.73989   1.12039 
 H                     3.50996  -1.0641   -0.55969 
 H                     3.48667   0.6048    0.05611 
 N                     1.58522  -0.22082  -0.33301 
 H                     1.18839  -1.16551  -0.35932 
 H                     1.60848   0.04987  -1.32227 
 H                     0.80126   1.75285   0.06792 
 H                     0.42254   0.43147   1.35258 
 H                    -1.29964   1.25724  -1.0751 
 H                    -1.5872   -0.87442   1.20893 
 
 Add virtual bond connecting atoms N9         and C4         Dist= 3.54D+00.

 GradGradGradGradGradGradGradGradGradGradGradGradGradGradGradGradGradGrad
 Berny optimization.
 Initialization pass.
                           ----------------------------
                           !    Initial Parameters    !
                           ! (Angstroms and Degrees)  !
 --------------------------                            --------------------------
 ! Name  Definition              Value          Derivative Info.                !
 --------------------------------------------------------------------------------
 ! R1    R(1,2)                  1.4741         calculate D2E/DX2 analytically  !
 ! R2    R(1,4)                  1.3499         calculate D2E/DX2 analytically  !
 ! R3    R(1,14)                 1.0825         calculate D2E/DX2 analytically  !
 ! R4    R(2,3)                  1.2249         calculate D2E/DX2 analytically  !
 ! R5    R(2,15)                 1.1025         calculate D2E/DX2 analytically  !
 ! R6    R(4,9)                  1.8747         calculate D2E/DX2 analytically  !
 ! R7    R(4,12)                 1.0959         calculate D2E/DX2 analytically  !
 ! R8    R(4,13)                 1.0958         calculate D2E/DX2 analytically  !
 ! R9    R(5,6)                  1.0935         calculate D2E/DX2 analytically  !
 ! R10   R(5,7)                  1.0938         calculate D2E/DX2 analytically  !
 ! R11   R(5,8)                  1.0934         calculate D2E/DX2 analytically  !
 ! R12   R(5,9)                  1.4674         calculate D2E/DX2 analytically  !
 ! R13   R(9,10)                 1.025          calculate D2E/DX2 analytically  !
 ! R14   R(9,11)                 1.0259         calculate D2E/DX2 analytically  !
 ! A1    A(2,1,4)              120.4284         calculate D2E/DX2 analytically  !
 ! A2    A(2,1,14)             117.0776         calculate D2E/DX2 analytically  !
 ! A3    A(4,1,14)             122.4892         calculate D2E/DX2 analytically  !
 ! A4    A(1,2,3)              121.4029         calculate D2E/DX2 analytically  !
 ! A5    A(1,2,15)             116.3699         calculate D2E/DX2 analytically  !
 ! A6    A(3,2,15)             122.2266         calculate D2E/DX2 analytically  !
 ! A7    A(1,4,9)              114.4307         calculate D2E/DX2 analytically  !
 ! A8    A(1,4,12)             117.2067         calculate D2E/DX2 analytically  !
 ! A9    A(1,4,13)             119.37           calculate D2E/DX2 analytically  !
 ! A10   A(9,4,12)              89.3727         calculate D2E/DX2 analytically  !
 ! A11   A(9,4,13)              88.6472         calculate D2E/DX2 analytically  !
 ! A12   A(12,4,13)            118.2791         calculate D2E/DX2 analytically  !
 ! A13   A(6,5,7)              108.8561         calculate D2E/DX2 analytically  !
 ! A14   A(6,5,8)              108.6508         calculate D2E/DX2 analytically  !
 ! A15   A(6,5,9)              110.0278         calculate D2E/DX2 analytically  !
 ! A16   A(7,5,8)              108.8547         calculate D2E/DX2 analytically  !
 ! A17   A(7,5,9)              110.3726         calculate D2E/DX2 analytically  !
 ! A18   A(8,5,9)              110.0394         calculate D2E/DX2 analytically  !
 ! A19   A(4,9,5)              129.5684         calculate D2E/DX2 analytically  !
 ! A20   A(4,9,10)             105.3319         calculate D2E/DX2 analytically  !
 ! A21   A(4,9,11)             102.8777         calculate D2E/DX2 analytically  !
 ! A22   A(5,9,10)             106.6058         calculate D2E/DX2 analytically  !
 ! A23   A(5,9,11)             106.5574         calculate D2E/DX2 analytically  !
 ! A24   A(10,9,11)            103.1331         calculate D2E/DX2 analytically  !
 ! D1    D(4,1,2,3)           -178.5729         calculate D2E/DX2 analytically  !
 ! D2    D(4,1,2,15)             1.151          calculate D2E/DX2 analytically  !
 ! D3    D(14,1,2,3)             0.6526         calculate D2E/DX2 analytically  !
 ! D4    D(14,1,2,15)         -179.6235         calculate D2E/DX2 analytically  !
 ! D5    D(2,1,4,9)             89.4706         calculate D2E/DX2 analytically  !
 ! D6    D(2,1,4,12)          -167.82           calculate D2E/DX2 analytically  !
 ! D7    D(2,1,4,13)           -13.5851         calculate D2E/DX2 analytically  !
 ! D8    D(14,1,4,9)           -89.7119         calculate D2E/DX2 analytically  !
 ! D9    D(14,1,4,12)           12.9975         calculate D2E/DX2 analytically  !
 ! D10   D(14,1,4,13)          167.2324         calculate D2E/DX2 analytically  !
 ! D11   D(1,4,9,5)           -175.7245         calculate D2E/DX2 analytically  !
 ! D12   D(1,4,9,10)           -48.0647         calculate D2E/DX2 analytically  !
 ! D13   D(1,4,9,11)            59.6548         calculate D2E/DX2 analytically  !
 ! D14   D(12,4,9,5)            64.4592         calculate D2E/DX2 analytically  !
 ! D15   D(12,4,9,10)         -167.881          calculate D2E/DX2 analytically  !
 ! D16   D(12,4,9,11)          -60.1615         calculate D2E/DX2 analytically  !
 ! D17   D(13,4,9,5)           -53.8472         calculate D2E/DX2 analytically  !
 ! D18   D(13,4,9,10)           73.8126         calculate D2E/DX2 analytically  !
 ! D19   D(13,4,9,11)         -178.4679         calculate D2E/DX2 analytically  !
 ! D20   D(6,5,9,4)             61.8552         calculate D2E/DX2 analytically  !
 ! D21   D(6,5,9,10)           -65.3281         calculate D2E/DX2 analytically  !
 ! D22   D(6,5,9,11)          -174.9628         calculate D2E/DX2 analytically  !
 ! D23   D(7,5,9,4)           -177.9916         calculate D2E/DX2 analytically  !
 ! D24   D(7,5,9,10)            54.8251         calculate D2E/DX2 analytically  !
 ! D25   D(7,5,9,11)           -54.8096         calculate D2E/DX2 analytically  !
 ! D26   D(8,5,9,4)            -57.8328         calculate D2E/DX2 analytically  !
 ! D27   D(8,5,9,10)           174.9839         calculate D2E/DX2 analytically  !
 ! D28   D(8,5,9,11)            65.3492         calculate D2E/DX2 analytically  !
 --------------------------------------------------------------------------------
 Trust Radius=1.00D-01 FncErr=1.00D-07 GrdErr=1.00D-07 EigMax=2.50D+02 EigMin=1.00D-04
 Number of steps in this run=     50 maximum allowed number of steps=    100.
 Search for a saddle point of order  1.
 GradGradGradGradGradGradGradGradGradGradGradGradGradGradGradGradGradGrad

                          Input orientation:                          
 ---------------------------------------------------------------------
 Center     Atomic      Atomic             Coordinates (Angstroms)
 Number     Number       Type             X           Y           Z
 ---------------------------------------------------------------------
      1          6           0       -0.980250    0.691950   -0.208940
      2          6           0       -1.921680   -0.310000    0.322910
      3          8           0       -3.012260   -0.502190   -0.200600
      4          6           0        0.228290    0.867540    0.366190
      5          6           0        2.981710   -0.364320    0.094220
      6          1           0        3.022700   -0.739890    1.120390
      7          1           0        3.509960   -1.064100   -0.559690
      8          1           0        3.486670    0.604800    0.056110
      9          7           0        1.585220   -0.220820   -0.333010
     10          1           0        1.188390   -1.165510   -0.359320
     11          1           0        1.608480    0.049870   -1.322270
     12          1           0        0.801260    1.752850    0.067920
     13          1           0        0.422540    0.431470    1.352580
     14          1           0       -1.299640    1.257240   -1.075100
     15          1           0       -1.587200   -0.874420    1.208930
 ---------------------------------------------------------------------
                    Distance matrix (angstroms):
                    1          2          3          4          5
     1  C    0.000000
     2  C    1.474130   0.000000
     3  O    2.356927   1.224894   0.000000
     4  C    1.349880   2.451702   3.563506   0.000000
     5  C    4.111537   4.909021   6.002800   3.028658   0.000000
     6  H    4.454312   5.026696   6.182415   3.310797   1.093507
     7  H    4.834121   5.554310   6.556222   3.918909   1.093773
     8  H    4.475625   5.491656   6.597531   3.283629   1.093449
     9  N    2.725835   3.568828   4.607985   1.874745   1.467413
    10  H    2.859331   3.296949   4.255660   2.362509   2.015837
    11  H    2.890206   3.911285   4.786873   2.329035   2.015876
    12  H    2.091874   3.425605   4.438496   1.095917   3.039319
    13  H    2.115187   2.665589   3.883547   1.095835   2.960760
    14  H    1.082495   2.190344   2.606417   2.136294   4.725116
    15  H    2.198240   1.102487   2.038658   2.653420   4.730509
                    6          7          8          9         10
     6  H    0.000000
     7  H    1.779102   0.000000
     8  H    1.776556   1.779039   0.000000
     9  N    2.109065   2.113558   2.109164   0.000000
    10  H    2.394867   2.332406   2.930643   1.024990   0.000000
    11  H    2.930926   2.331970   2.394885   1.025890   1.606517
    12  H    3.500892   3.958050   2.920545   2.161183   2.974765
    13  H    2.861263   3.927552   3.331632   2.149074   2.463224
    14  H    5.243217   5.365307   4.961258   3.325323   3.545751
    15  H    4.612712   5.398614   5.409366   3.587342   3.201256
                   11         12         13         14         15
    11  H    0.000000
    12  H    2.341874   0.000000
    13  H    2.950745   1.881442   0.000000
    14  H    3.158480   2.442520   3.088921   0.000000
    15  H    4.180150   3.729503   2.401050   3.137429   0.000000
 Stoichiometry    C4H9NO
 Framework group  C1[X(C4H9NO)]
 Deg. of freedom    39
 Full point group                 C1      NOp   1
 Largest Abelian subgroup         C1      NOp   1
 Largest concise Abelian subgroup C1      NOp   1
                         Standard orientation:                         
 ---------------------------------------------------------------------
 Center     Atomic      Atomic             Coordinates (Angstroms)
 Number     Number       Type             X           Y           Z
 ---------------------------------------------------------------------
      1          6           0       -0.980252    0.691948   -0.208939
      2          6           0       -1.921681   -0.310003    0.322911
      3          8           0       -3.012260   -0.502195   -0.200599
      4          6           0        0.228288    0.867539    0.366191
      5          6           0        2.981710   -0.364318    0.094221
      6          1           0        3.022700   -0.739888    1.120391
      7          1           0        3.509960   -1.064098   -0.559689
      8          1           0        3.486669    0.604802    0.056111
      9          7           0        1.585219   -0.220820   -0.333009
     10          1           0        1.188390   -1.165510   -0.359319
     11          1           0        1.608479    0.049870   -1.322269
     12          1           0        0.801257    1.752849    0.067921
     13          1           0        0.422539    0.431469    1.352581
     14          1           0       -1.299642    1.257237   -1.075099
     15          1           0       -1.587200   -0.874423    1.208931
 ---------------------------------------------------------------------
 Rotational constants (GHZ):          11.2493120           1.2678582           1.2133754
 Standard basis: STO-3G (5D, 7F)
 There are    39 symmetry adapted cartesian basis functions of A   symmetry.
 There are    39 symmetry adapted basis functions of A   symmetry.
    39 basis functions,   117 primitive gaussians,    39 cartesian basis functions
    24 alpha electrons       24 beta electrons
       nuclear repulsion energy       225.5433525727 Hartrees.
 NAtoms=   15 NActive=   15 NUniq=   15 SFac= 1.00D+00 NAtFMM=   60 NAOKFM=F Big=F
 Integral buffers will be    131072 words long.
 Raffenetti 1 integral format.
 Two-electron integral symmetry is turned on.
 External calculation of energy, first and second derivatives.
 Running external command "~/scripts/MiMe -H 'wb97xd def2svp' -EF 'wb97xd def2svp' -c 12 -m 48GB R"
         input file       "/local/jobs/1158121/Gau-718932.EIn"
         output file      "/local/jobs/1158121/Gau-718932.EOu"
         message file     "/local/jobs/1158121/Gau-718932.EMs"
         fchk file        "/local/jobs/1158121/Gau-718932.EFC"
         mat. el file     "/local/jobs/1158121/Gau-718932.EUF"
 Read checkpoint file Gau-718932_H.chk type G16
 Write formatted file Gau-718932_H.fchk

deriv: 2

spelevel: wb97xd def2svp
gradlevel: wb97xd def2svp
hesslevel: wb97xd def2svp

runspe: False
runforce: False
runfreq: True

Running Gaussian ...

Parsing files ...
SPE file: Gau-718932_H.out
FORCE file: Gau-718932_H.out
HESS file: Gau-718932_H.out

 ExternalExternalExternalExternalExternalExternalExternalExternalExternalExternal
 Output from external command:
 "~/scripts/MiMe -H 'wb97xd def2svp' -EF 'wb97xd def2svp' -c 12 -m 48GB R /local/jobs/1158121/Gau-718932.EIn /local/jobs/1158121/Gau-718932.EOu /local/jobs/1158121/Gau-718932.EMs /local/jobs/1158121/Gau-718932.EFC /local/jobs/1158121/Gau-718932.EUF"
  
 --------------------------------------------------
 Hessian calculation at wb97xd def2svp
 ExternalExternalExternalExternalExternalExternalExternalExternalExternalExternal

 Recovered energy= -287.426760468     dipole=      8.415600000000     -0.577200000000     -0.120000000000
 Energy=    -287.426760     NIter=   0.
 Dipole moment=       8.415600      -0.577200      -0.120000
 ***** Axes restored to original set *****
 -------------------------------------------------------------------
 Center     Atomic                   Forces (Hartrees/Bohr)
 Number     Number              X              Y              Z
 -------------------------------------------------------------------
      1        6          -0.029535983   -0.026595630    0.010298304
      2        6          -0.009035727    0.028900797   -0.043154025
      3        8           0.008860569   -0.007357827    0.015452622
      4        6           0.011655787    0.021171765    0.018317996
      5        6          -0.003867037    0.003316247    0.002181510
      6        1          -0.000045462   -0.000595644    0.003631452
      7        1           0.006034692   -0.002672707   -0.000695759
      8        1           0.001406577    0.003444236    0.000465617
      9        7           0.029103802   -0.031928544   -0.030626883
     10        1          -0.006355600    0.003774919    0.001432871
     11        1          -0.005256800    0.000904813    0.002447337
     12        1          -0.000803377    0.003067415    0.010436860
     13        1          -0.002982058    0.008275508    0.004241660
     14        1          -0.002349430    0.002750514   -0.005852073
     15        1           0.003170046   -0.006455863    0.011422512
 -------------------------------------------------------------------
 Cartesian Forces:  Max     0.043154025 RMS     0.014296742
 FormGI is forming the generalized inverse of G from B-inverse, IUseBI=4.

 GradGradGradGradGradGradGradGradGradGradGradGradGradGradGradGradGradGrad
 Berny optimization.
 Internal  Forces:  Max     0.036899791 RMS     0.008491535
 Search for a saddle point.
 Step number   1 out of a maximum of   50
 All quantities printed in internal units (Hartrees-Bohrs-Radians)
 Swapping is turned off.
 Second derivative matrix not updated -- analytic derivatives used.
 ITU=  0
     Eigenvalues ---   -0.01502   0.00084   0.00170   0.00980   0.01217
     Eigenvalues ---    0.01279   0.01680   0.02187   0.04201   0.04766
     Eigenvalues ---    0.04838   0.04843   0.05054   0.08470   0.08854
     Eigenvalues ---    0.09039   0.09572   0.10075   0.10860   0.13380
     Eigenvalues ---    0.13405   0.15967   0.17324   0.17878   0.19223
     Eigenvalues ---    0.23468   0.31958   0.33342   0.34830   0.35080
     Eigenvalues ---    0.35141   0.35655   0.36012   0.37259   0.38573
     Eigenvalues ---    0.43689   0.44051   0.61765   0.82688
 Eigenvectors required to have negative eigenvalues:
                          R6        A19       D6        D10       D9
   1                    0.79064   0.27554  -0.20840   0.19902  -0.18435
                          A11       A10       D7        A21       A20
   1                   -0.18156  -0.17611   0.17497  -0.13412  -0.09564
 RFO step:  Lambda0=8.151932759D-03 Lambda=-2.14749173D-02.
 Linear search not attempted -- option 19 set.
 Maximum step size (   0.100) exceeded in Quadratic search.
    -- Step size scaled by   0.171
 Iteration  1 RMS(Cart)=  0.03215165 RMS(Int)=  0.00050992
 Iteration  2 RMS(Cart)=  0.00071346 RMS(Int)=  0.00015013
 Iteration  3 RMS(Cart)=  0.00000028 RMS(Int)=  0.00015013
 Variable       Old X    -DE/DX   Delta X   Delta X   Delta X     New X
                                 (Linear)    (Quad)   (Total)
    R1        2.78570  -0.01804   0.00000  -0.01753  -0.01753   2.76817
    R2        2.55090   0.03205   0.00000   0.01694   0.01694   2.56784
    R3        2.04562   0.00681   0.00000   0.00309   0.00309   2.04871
    R4        2.31471  -0.01334   0.00000  -0.00129  -0.00129   2.31342
    R5        2.08340   0.01345   0.00000   0.00928   0.00928   2.09268
    R6        3.54275   0.03690   0.00000  -0.04643  -0.04643   3.49632
    R7        2.07098  -0.00078   0.00000   0.00174   0.00174   2.07272
    R8        2.07083  -0.00000   0.00000   0.00283   0.00283   2.07366
    R9        2.06643   0.00361   0.00000   0.00150   0.00150   2.06793
   R10        2.06693   0.00504   0.00000   0.00153   0.00153   2.06846
   R11        2.06632   0.00369   0.00000   0.00153   0.00153   2.06785
   R12        2.77301   0.00464   0.00000  -0.00346  -0.00346   2.76955
   R13        1.93695  -0.00106   0.00000  -0.00066  -0.00066   1.93629
   R14        1.93865  -0.00224   0.00000  -0.00102  -0.00102   1.93763
    A1        2.10187   0.00351   0.00000  -0.00104  -0.00104   2.10083
    A2        2.04339  -0.00246   0.00000   0.00581   0.00581   2.04920
    A3        2.13784  -0.00106   0.00000  -0.00475  -0.00475   2.13309
    A4        2.11888   0.02106   0.00000   0.01999   0.01999   2.13887
    A5        2.03104  -0.00993   0.00000  -0.01117  -0.01117   2.01987
    A6        2.13326  -0.01112   0.00000  -0.00881  -0.00881   2.12444
    A7        1.99719  -0.01324   0.00000  -0.00384  -0.00380   1.99340
    A8        2.04564   0.00289   0.00000   0.00030   0.00003   2.04568
    A9        2.08340  -0.00158   0.00000  -0.00874  -0.00900   2.07440
   A10        1.55985   0.00746   0.00000   0.02520   0.02522   1.58506
   A11        1.54719   0.01067   0.00000   0.02756   0.02761   1.57480
   A12        2.06436  -0.00372   0.00000  -0.01440  -0.01523   2.04913
   A13        1.89990  -0.00201   0.00000   0.00059   0.00059   1.90049
   A14        1.89631  -0.00011   0.00000   0.00067   0.00066   1.89697
   A15        1.92035  -0.00145   0.00000  -0.00315  -0.00315   1.91719
   A16        1.89987  -0.00202   0.00000   0.00073   0.00073   1.90061
   A17        1.92637   0.00685   0.00000   0.00447   0.00447   1.93083
   A18        1.92055  -0.00138   0.00000  -0.00328  -0.00328   1.91727
   A19        2.26139  -0.01272   0.00000  -0.05923  -0.05927   2.20213
   A20        1.83839  -0.00158   0.00000   0.00873   0.00857   1.84696
   A21        1.79556   0.00053   0.00000   0.01942   0.01955   1.81511
   A22        1.86062   0.00939   0.00000   0.01944   0.01905   1.87967
   A23        1.85978   0.00737   0.00000   0.01705   0.01710   1.87688
   A24        1.80001  -0.00158   0.00000   0.00651   0.00614   1.80616
    D1       -3.11669  -0.00031   0.00000   0.00305   0.00304  -3.11364
    D2        0.02009   0.00111   0.00000   0.00546   0.00545   0.02554
    D3        0.01139  -0.00056   0.00000   0.00431   0.00432   0.01571
    D4       -3.13502   0.00086   0.00000   0.00672   0.00672  -3.12830
    D5        1.56156   0.00055   0.00000   0.00220   0.00217   1.56373
    D6       -2.92901   0.00333   0.00000   0.03186   0.03178  -2.89723
    D7       -0.23710  -0.00327   0.00000  -0.02561  -0.02552  -0.26263
    D8       -1.56577   0.00082   0.00000   0.00077   0.00076  -1.56501
    D9        0.22685   0.00360   0.00000   0.03044   0.03036   0.25721
   D10        2.91876  -0.00300   0.00000  -0.02703  -0.02694   2.89182
   D11       -3.06697   0.00113   0.00000   0.00564   0.00552  -3.06145
   D12       -0.83889   0.00192   0.00000  -0.01004  -0.00999  -0.84888
   D13        1.04117  -0.00012   0.00000   0.00690   0.00695   1.04812
   D14        1.12502  -0.00270   0.00000  -0.00678  -0.00672   1.11831
   D15       -2.93008  -0.00191   0.00000  -0.02246  -0.02223  -2.95231
   D16       -1.05002  -0.00396   0.00000  -0.00552  -0.00530  -1.05531
   D17       -0.93981   0.00153   0.00000   0.00914   0.00887  -0.93094
   D18        1.28827   0.00232   0.00000  -0.00654  -0.00664   1.28163
   D19       -3.11485   0.00028   0.00000   0.01041   0.01029  -3.10456
   D20        1.07958  -0.00150   0.00000  -0.00813  -0.00814   1.07143
   D21       -1.14019   0.00196   0.00000   0.01230   0.01242  -1.12777
   D22       -3.05368  -0.00334   0.00000  -0.01043  -0.01052  -3.06420
   D23       -3.10654  -0.00056   0.00000  -0.00658  -0.00659  -3.11313
   D24        0.95688   0.00290   0.00000   0.01386   0.01398   0.97085
   D25       -0.95661  -0.00241   0.00000  -0.00887  -0.00897  -0.96558
   D26       -1.00937   0.00041   0.00000  -0.00492  -0.00494  -1.01431
   D27        3.05405   0.00387   0.00000   0.01552   0.01562   3.06967
   D28        1.14056  -0.00143   0.00000  -0.00722  -0.00732   1.13324
         Item               Value     Threshold  Converged?
 Maximum Force            0.036900     0.000450     NO 
 RMS     Force            0.008492     0.000300     NO 
 Maximum Displacement     0.102467     0.001800     NO 
 RMS     Displacement     0.032441     0.001200     NO 
 Predicted change in Energy=-2.098759D-03
 GradGradGradGradGradGradGradGradGradGradGradGradGradGradGradGradGradGrad

                          Input orientation:                          
 ---------------------------------------------------------------------
 Center     Atomic      Atomic             Coordinates (Angstroms)
 Number     Number       Type             X           Y           Z
 ---------------------------------------------------------------------
      1          6           0       -0.967205    0.687709   -0.209960
      2          6           0       -1.906816   -0.301713    0.322928
      3          8           0       -3.009207   -0.496736   -0.172445
      4          6           0        0.258487    0.845158    0.355142
      5          6           0        2.955550   -0.352410    0.102906
      6          1           0        2.968477   -0.719178    1.133833
      7          1           0        3.521413   -1.045961   -0.527089
      8          1           0        3.439681    0.628490    0.073629
      9          7           0        1.572172   -0.238873   -0.367526
     10          1           0        1.173292   -1.182351   -0.392639
     11          1           0        1.603187    0.033982   -1.355419
     12          1           0        0.825892    1.742695    0.080310
     13          1           0        0.443267    0.414972    1.347582
     14          1           0       -1.287044    1.268328   -1.067820
     15          1           0       -1.556955   -0.869641    1.206890
 ---------------------------------------------------------------------
                    Distance matrix (angstroms):
                    1          2          3          4          5
     1  C    0.000000
     2  C    1.464853   0.000000
     3  O    2.360951   1.224211   0.000000
     4  C    1.358842   2.450487   3.571673   0.000000
     5  C    4.070349   4.867606   5.972853   2.961747   0.000000
     6  H    4.390296   4.959871   6.122789   3.224523   1.094301
     7  H    4.822226   5.544556   6.563262   3.873157   1.094581
     8  H    4.416398   5.432536   6.550942   3.200967   1.094259
     9  N    2.707733   3.547398   4.592775   1.850173   1.465583
    10  H    2.848196   3.282472   4.244037   2.346665   2.027514
    11  H    2.889004   3.905081   4.791165   2.322120   2.026055
    12  H    2.100583   3.421427   4.448249   1.096838   2.987544
    13  H    2.118904   2.662037   3.880885   1.097334   2.906830
    14  H    1.084131   2.187081   2.623546   2.143026   4.690096
    15  H    2.186460   1.107400   2.037316   2.638530   4.674293
                    6          7          8          9         10
     6  H    0.000000
     7  H    1.780782   0.000000
     8  H    1.778279   1.780823   0.000000
     9  N    2.105810   2.115748   2.105831   0.000000
    10  H    2.401528   2.355918   2.938209   1.024640   0.000000
    11  H    2.937284   2.352020   2.401734   1.025351   1.609727
    12  H    3.429489   3.925731   2.841370   2.164279   2.983331
    13  H    2.776449   3.888920   3.262981   2.154887   2.472398
    14  H    5.187187   5.363728   4.904511   3.307141   3.537648
    15  H    4.528522   5.369133   5.338075   3.559226   3.179706
                   11         12         13         14         15
    11  H    0.000000
    12  H    2.363303   0.000000
    13  H    2.965937   1.874894   0.000000
    14  H    3.155908   2.451067   3.091336   0.000000
    15  H    4.167548   3.710990   2.381368   3.133380   0.000000
 Stoichiometry    C4H9NO
 Framework group  C1[X(C4H9NO)]
 Deg. of freedom    39
 Full point group                 C1      NOp   1
 Largest Abelian subgroup         C1      NOp   1
 Largest concise Abelian subgroup C1      NOp   1
                         Standard orientation:                         
 ---------------------------------------------------------------------
 Center     Atomic      Atomic             Coordinates (Angstroms)
 Number     Number       Type             X           Y           Z
 ---------------------------------------------------------------------
      1          6           0       -0.967860    0.692574   -0.207240
      2          6           0       -1.910405   -0.300054    0.314384
      3          8           0       -3.011261   -0.489866   -0.186397
      4          6           0        0.256011    0.844116    0.363397
      5          6           0        2.952646   -0.354379    0.110985
      6          1           0        2.961557   -0.729434    1.138968
      7          1           0        3.519964   -1.043473   -0.522581
      8          1           0        3.437937    0.626186    0.091290
      9          7           0        1.571050   -0.235531   -0.363359
     10          1           0        1.171240   -1.178333   -0.397453
     11          1           0        1.605827    0.045220   -1.348912
     12          1           0        0.825348    1.743202    0.097779
     13          1           0        0.436841    0.405765    1.352988
     14          1           0       -1.284058    1.280423   -1.061518
     15          1           0       -1.564264   -0.875456    1.194971
 ---------------------------------------------------------------------
 Rotational constants (GHZ):          11.3817861           1.2806417           1.2278414
 Standard basis: STO-3G (5D, 7F)
 There are    39 symmetry adapted cartesian basis functions of A   symmetry.
 There are    39 symmetry adapted basis functions of A   symmetry.
    39 basis functions,   117 primitive gaussians,    39 cartesian basis functions
    24 alpha electrons       24 beta electrons
       nuclear repulsion energy       226.2113878166 Hartrees.
 NAtoms=   15 NActive=   15 NUniq=   15 SFac= 1.00D+00 NAtFMM=   60 NAOKFM=F Big=F
 Integral buffers will be    131072 words long.
 Raffenetti 1 integral format.
 Two-electron integral symmetry is turned on.
 External calculation of energy, first and second derivatives.
 Running external command "~/scripts/MiMe -H 'wb97xd def2svp' -EF 'wb97xd def2svp' -c 12 -m 48GB R"
         input file       "/local/jobs/1158121/Gau-718932.EIn"
         output file      "/local/jobs/1158121/Gau-718932.EOu"
         message file     "/local/jobs/1158121/Gau-718932.EMs"
         fchk file        "/local/jobs/1158121/Gau-718932.EFC"
         mat. el file     "/local/jobs/1158121/Gau-718932.EUF"
 Read checkpoint file Gau-718932_H.chk type G16
 Write formatted file Gau-718932_H.fchk

deriv: 2

spelevel: wb97xd def2svp
gradlevel: wb97xd def2svp
hesslevel: wb97xd def2svp

runspe: False
runforce: False
runfreq: True

Running Gaussian ...

Parsing files ...
SPE file: Gau-718932_H.out
FORCE file: Gau-718932_H.out
HESS file: Gau-718932_H.out

 ExternalExternalExternalExternalExternalExternalExternalExternalExternalExternal
 Output from external command:
 "~/scripts/MiMe -H 'wb97xd def2svp' -EF 'wb97xd def2svp' -c 12 -m 48GB R /local/jobs/1158121/Gau-718932.EIn /local/jobs/1158121/Gau-718932.EOu /local/jobs/1158121/Gau-718932.EMs /local/jobs/1158121/Gau-718932.EFC /local/jobs/1158121/Gau-718932.EUF"
  
 --------------------------------------------------
 Hessian calculation at wb97xd def2svp
 ExternalExternalExternalExternalExternalExternalExternalExternalExternalExternal

 Recovered energy= -287.428850295     dipole=      8.817100000000     -0.595200000000     -0.202400000000
 Energy=    -287.428850     NIter=   0.
 Dipole moment=       8.817100      -0.595200      -0.202400
 ***** Axes restored to original set *****
 -------------------------------------------------------------------
 Center     Atomic                   Forces (Hartrees/Bohr)
 Number     Number              X              Y              Z
 -------------------------------------------------------------------
      1        6          -0.024906796   -0.021971828    0.008947286
      2        6          -0.008220057    0.024271510   -0.036074128
      3        8           0.007680629   -0.006203345    0.012795089
      4        6           0.009367295    0.018031338    0.015628459
      5        6          -0.003399697    0.002615241    0.001607101
      6        1          -0.000140755   -0.000396686    0.003074121
      7        1           0.005212992   -0.002127628   -0.000331208
      8        1           0.001081805    0.002927697    0.000473057
      9        7           0.025349174   -0.027712728   -0.027082191
     10        1          -0.005623728    0.003289364    0.001593966
     11        1          -0.004625945    0.001052210    0.002093904
     12        1          -0.000444940    0.002234777    0.009126128
     13        1          -0.002240491    0.007051860    0.003416411
     14        1          -0.001935424    0.002376674   -0.004909431
     15        1           0.002845939   -0.005438455    0.009641437
 -------------------------------------------------------------------
 Cartesian Forces:  Max     0.036074128 RMS     0.012171740
 FormGI is forming the generalized inverse of G from B-inverse, IUseBI=4.

 GradGradGradGradGradGradGradGradGradGradGradGradGradGradGradGradGradGrad
 Berny optimization.
 Internal  Forces:  Max     0.031856025 RMS     0.007190157
 Search for a saddle point.
 Step number   2 out of a maximum of   50
 All quantities printed in internal units (Hartrees-Bohrs-Radians)
 Swapping is turned off.
 Second derivative matrix not updated -- analytic derivatives used.
 ITU=  0  0
     Eigenvalues ---   -0.01777   0.00091   0.00166   0.00994   0.01226
     Eigenvalues ---    0.01388   0.01639   0.02420   0.04290   0.04724
     Eigenvalues ---    0.04814   0.04817   0.05007   0.08460   0.08809
     Eigenvalues ---    0.09084   0.09500   0.10145   0.11006   0.13402
     Eigenvalues ---    0.13685   0.16104   0.17320   0.17900   0.19913
     Eigenvalues ---    0.23356   0.32332   0.33242   0.34653   0.34909
     Eigenvalues ---    0.35012   0.35535   0.35865   0.37212   0.38233
     Eigenvalues ---    0.43880   0.44179   0.59309   0.83042
 Eigenvectors required to have negative eigenvalues:
                          R6        D6        D10       A19       A11
   1                    0.83444  -0.20584   0.19522   0.18577  -0.18219
                          A10       D9        D7        R2        A21
   1                   -0.18027  -0.17619   0.16557  -0.10554  -0.09213
 RFO step:  Lambda0=8.031444989D-03 Lambda=-1.56947935D-02.
 Linear search not attempted -- option 19 set.
 Maximum step size (   0.100) exceeded in Quadratic search.
    -- Step size scaled by   0.187
 Iteration  1 RMS(Cart)=  0.02783951 RMS(Int)=  0.00036494
 Iteration  2 RMS(Cart)=  0.00042075 RMS(Int)=  0.00016037
 Iteration  3 RMS(Cart)=  0.00000020 RMS(Int)=  0.00016037
 Variable       Old X    -DE/DX   Delta X   Delta X   Delta X     New X
                                 (Linear)    (Quad)   (Total)
    R1        2.76817  -0.01497   0.00000  -0.01669  -0.01669   2.75148
    R2        2.56784   0.02693   0.00000   0.01854   0.01854   2.58637
    R3        2.04871   0.00573   0.00000   0.00294   0.00294   2.05165
    R4        2.31342  -0.01111   0.00000  -0.00084  -0.00084   2.31258
    R5        2.09268   0.01138   0.00000   0.00949   0.00949   2.10217
    R6        3.49632   0.03186   0.00000  -0.05917  -0.05917   3.43715
    R7        2.07272  -0.00069   0.00000   0.00192   0.00192   2.07464
    R8        2.07366  -0.00005   0.00000   0.00283   0.00283   2.07649
    R9        2.06793   0.00303   0.00000   0.00127   0.00127   2.06920
   R10        2.06846   0.00423   0.00000   0.00117   0.00117   2.06962
   R11        2.06785   0.00309   0.00000   0.00129   0.00129   2.06914
   R12        2.76955   0.00391   0.00000  -0.00193  -0.00193   2.76762
   R13        1.93629  -0.00088   0.00000  -0.00050  -0.00050   1.93579
   R14        1.93763  -0.00188   0.00000  -0.00086  -0.00086   1.93678
    A1        2.10083   0.00294   0.00000  -0.00125  -0.00125   2.09958
    A2        2.04920  -0.00202   0.00000   0.00621   0.00621   2.05541
    A3        2.13309  -0.00092   0.00000  -0.00494  -0.00494   2.12815
    A4        2.13887   0.01778   0.00000   0.01973   0.01973   2.15860
    A5        2.01987  -0.00841   0.00000  -0.01113  -0.01113   2.00874
    A6        2.12444  -0.00937   0.00000  -0.00860  -0.00860   2.11584
    A7        1.99340  -0.01083   0.00000  -0.00477  -0.00471   1.98869
    A8        2.04568   0.00266   0.00000  -0.00046  -0.00074   2.04494
    A9        2.07440  -0.00122   0.00000  -0.00982  -0.01009   2.06431
   A10        1.58506   0.00612   0.00000   0.02790   0.02790   1.61296
   A11        1.57480   0.00877   0.00000   0.02940   0.02945   1.60425
   A12        2.04913  -0.00363   0.00000  -0.01699  -0.01792   2.03121
   A13        1.90049  -0.00172   0.00000   0.00120   0.00120   1.90169
   A14        1.89697  -0.00013   0.00000   0.00076   0.00075   1.89772
   A15        1.91719  -0.00127   0.00000  -0.00328  -0.00328   1.91391
   A16        1.90061  -0.00173   0.00000   0.00133   0.00134   1.90194
   A17        1.93083   0.00594   0.00000   0.00328   0.00328   1.93412
   A18        1.91727  -0.00119   0.00000  -0.00325  -0.00326   1.91401
   A19        2.20213  -0.01062   0.00000  -0.04644  -0.04646   2.15567
   A20        1.84696  -0.00150   0.00000   0.00103   0.00098   1.84793
   A21        1.81511   0.00043   0.00000   0.01357   0.01373   1.82884
   A22        1.87967   0.00780   0.00000   0.01798   0.01759   1.89726
   A23        1.87688   0.00621   0.00000   0.01600   0.01599   1.89286
   A24        1.80616  -0.00128   0.00000   0.00630   0.00605   1.81221
    D1       -3.11364  -0.00022   0.00000   0.00340   0.00340  -3.11024
    D2        0.02554   0.00099   0.00000   0.00558   0.00558   0.03112
    D3        0.01571  -0.00047   0.00000   0.00565   0.00565   0.02136
    D4       -3.12830   0.00074   0.00000   0.00782   0.00783  -3.12047
    D5        1.56373   0.00044   0.00000   0.00259   0.00257   1.56630
    D6       -2.89723   0.00282   0.00000   0.03474   0.03464  -2.86259
    D7       -0.26263  -0.00272   0.00000  -0.02620  -0.02609  -0.28872
    D8       -1.56501   0.00070   0.00000   0.00015   0.00014  -1.56487
    D9        0.25721   0.00308   0.00000   0.03231   0.03221   0.28943
   D10        2.89182  -0.00246   0.00000  -0.02864  -0.02852   2.86330
   D11       -3.06145   0.00097   0.00000   0.00486   0.00476  -3.05669
   D12       -0.84888   0.00167   0.00000  -0.00824  -0.00813  -0.85701
   D13        1.04812  -0.00011   0.00000   0.00426   0.00425   1.05237
   D14        1.11831  -0.00224   0.00000  -0.00808  -0.00799   1.11032
   D15       -2.95231  -0.00154   0.00000  -0.02118  -0.02088  -2.97319
   D16       -1.05531  -0.00332   0.00000  -0.00868  -0.00850  -1.06381
   D17       -0.93094   0.00116   0.00000   0.00804   0.00775  -0.92319
   D18        1.28163   0.00186   0.00000  -0.00506  -0.00514   1.27649
   D19       -3.10456   0.00008   0.00000   0.00744   0.00725  -3.09732
   D20        1.07143  -0.00138   0.00000  -0.00836  -0.00837   1.06306
   D21       -1.12777   0.00191   0.00000   0.01261   0.01275  -1.11502
   D22       -3.06420  -0.00309   0.00000  -0.01030  -0.01041  -3.07461
   D23       -3.11313  -0.00055   0.00000  -0.00690  -0.00692  -3.12005
   D24        0.97085   0.00274   0.00000   0.01407   0.01420   0.98506
   D25       -0.96558  -0.00226   0.00000  -0.00884  -0.00895  -0.97453
   D26       -1.01431   0.00031   0.00000  -0.00525  -0.00528  -1.01959
   D27        3.06967   0.00360   0.00000   0.01572   0.01585   3.08552
   D28        1.13324  -0.00140   0.00000  -0.00719  -0.00731   1.12593
         Item               Value     Threshold  Converged?
 Maximum Force            0.031856     0.000450     NO 
 RMS     Force            0.007190     0.000300     NO 
 Maximum Displacement     0.091569     0.001800     NO 
 RMS     Displacement     0.027999     0.001200     NO 
 Predicted change in Energy=-1.294171D-03
 GradGradGradGradGradGradGradGradGradGradGradGradGradGradGradGradGradGrad

                          Input orientation:                          
 ---------------------------------------------------------------------
 Center     Atomic      Atomic             Coordinates (Angstroms)
 Number     Number       Type             X           Y           Z
 ---------------------------------------------------------------------
      1          6           0       -0.952417    0.681461   -0.213755
      2          6           0       -1.889620   -0.296568    0.320199
      3          8           0       -3.001424   -0.498051   -0.149797
      4          6           0        0.289069    0.824404    0.344354
      5          6           0        2.930430   -0.342944    0.109682
      6          1           0        2.920020   -0.702159    1.144005
      7          1           0        3.522622   -1.033019   -0.500697
      8          1           0        3.399720    0.646040    0.085635
      9          7           0        1.558128   -0.249643   -0.393328
     10          1           0        1.151603   -1.189648   -0.415117
     11          1           0        1.592281    0.025478   -1.380019
     12          1           0        0.848825    1.735354    0.095108
     13          1           0        0.461705    0.403603    1.344632
     14          1           0       -1.271310    1.275404   -1.064785
     15          1           0       -1.525440   -0.865241    1.204202
 ---------------------------------------------------------------------
                    Distance matrix (angstroms):
                    1          2          3          4          5
     1  C    0.000000
     2  C    1.456022   0.000000
     3  O    2.365116   1.223765   0.000000
     4  C    1.368650   2.450275   3.580561   0.000000
     5  C    4.028711   4.824868   5.939552   2.897337   0.000000
     6  H    4.330552   4.896509   6.064577   3.145114   1.094973
     7  H    4.800806   5.523458   6.555341   3.823610   1.095197
     8  H    4.362566   5.377792   6.506844   3.126484   1.094943
     9  N    2.683660   3.521121   4.572803   1.818863   1.464560
    10  H    2.822852   3.253816   4.218570   2.318872   2.038761
    11  H    2.875060   3.888199   4.784313   2.304367   2.036071
    12  H    2.109635   3.417376   4.457858   1.097853   2.941532
    13  H    2.122620   2.658653   3.878088   1.098832   2.859552
    14  H    1.085686   2.184396   2.641144   2.150315   4.653283
    15  H    2.175143   1.112420   2.036338   2.624248   4.617958
                    6          7          8          9         10
     6  H    0.000000
     7  H    1.782594   0.000000
     8  H    1.779859   1.782731   0.000000
     9  N    2.103073   2.117650   2.103120   0.000000
    10  H    2.407448   2.377727   2.945256   1.024376   0.000000
    11  H    2.943305   2.370620   2.408334   1.024898   1.612999
    12  H    3.366230   3.894619   2.773762   2.163768   2.984567
    13  H    2.703013   3.852056   3.205586   2.156242   2.472069
    14  H    5.133884   5.350588   4.851606   3.283648   3.516967
    15  H    4.448857   5.330830   5.271846   3.526961   3.145471
                   11         12         13         14         15
    11  H    0.000000
    12  H    2.377478   0.000000
    13  H    2.974038   1.866744   0.000000
    14  H    3.140357   2.460057   3.093327   0.000000
    15  H    4.146295   3.691926   2.361870   3.129736   0.000000
 Stoichiometry    C4H9NO
 Framework group  C1[X(C4H9NO)]
 Deg. of freedom    39
 Full point group                 C1      NOp   1
 Largest Abelian subgroup         C1      NOp   1
 Largest concise Abelian subgroup C1      NOp   1
                         Standard orientation:                         
 ---------------------------------------------------------------------
 Center     Atomic      Atomic             Coordinates (Angstroms)
 Number     Number       Type             X           Y           Z
 ---------------------------------------------------------------------
      1          6           0       -0.954247    0.693217   -0.206173
      2          6           0       -1.897878   -0.290376    0.305789
      3          8           0       -3.007575   -0.480062   -0.173996
      4          6           0        0.284411    0.822440    0.361481
      5          6           0        2.923142   -0.349989    0.122590
      6          1           0        2.905436   -0.726493    1.150645
      7          1           0        3.516575   -1.031769   -0.495853
      8          1           0        3.395908    0.637620    0.117915
      9          7           0        1.554145   -0.243473   -0.386762
     10          1           0        1.144577   -1.181558   -0.426726
     11          1           0        1.595030    0.048066   -1.368469
     12          1           0        0.848702    1.735495    0.130857
     13          1           0        0.449738    0.384295    1.355528
     14          1           0       -1.266120    1.302482   -1.048934
     15          1           0       -1.540828   -0.875085    1.182207
 ---------------------------------------------------------------------
 Rotational constants (GHZ):          11.5003230           1.2954590           1.2438445
 Standard basis: STO-3G (5D, 7F)
 There are    39 symmetry adapted cartesian basis functions of A   symmetry.
 There are    39 symmetry adapted basis functions of A   symmetry.
    39 basis functions,   117 primitive gaussians,    39 cartesian basis functions
    24 alpha electrons       24 beta electrons
       nuclear repulsion energy       226.9890205648 Hartrees.
 NAtoms=   15 NActive=   15 NUniq=   15 SFac= 1.00D+00 NAtFMM=   60 NAOKFM=F Big=F
 Integral buffers will be    131072 words long.
 Raffenetti 1 integral format.
 Two-electron integral symmetry is turned on.
 External calculation of energy, first and second derivatives.
 Running external command "~/scripts/MiMe -H 'wb97xd def2svp' -EF 'wb97xd def2svp' -c 12 -m 48GB R"
         input file       "/local/jobs/1158121/Gau-718932.EIn"
         output file      "/local/jobs/1158121/Gau-718932.EOu"
         message file     "/local/jobs/1158121/Gau-718932.EMs"
         fchk file        "/local/jobs/1158121/Gau-718932.EFC"
         mat. el file     "/local/jobs/1158121/Gau-718932.EUF"
 Read checkpoint file Gau-718932_H.chk type G16
 Write formatted file Gau-718932_H.fchk

deriv: 2

spelevel: wb97xd def2svp
gradlevel: wb97xd def2svp
hesslevel: wb97xd def2svp

runspe: False
runforce: False
runfreq: True

Running Gaussian ...

Parsing files ...
SPE file: Gau-718932_H.out
FORCE file: Gau-718932_H.out
HESS file: Gau-718932_H.out

 ExternalExternalExternalExternalExternalExternalExternalExternalExternalExternal
 Output from external command:
 "~/scripts/MiMe -H 'wb97xd def2svp' -EF 'wb97xd def2svp' -c 12 -m 48GB R /local/jobs/1158121/Gau-718932.EIn /local/jobs/1158121/Gau-718932.EOu /local/jobs/1158121/Gau-718932.EMs /local/jobs/1158121/Gau-718932.EFC /local/jobs/1158121/Gau-718932.EUF"
  
 --------------------------------------------------
 Hessian calculation at wb97xd def2svp
 ExternalExternalExternalExternalExternalExternalExternalExternalExternalExternal

 Recovered energy= -287.430137690     dipole=      9.245800000000     -0.612300000000     -0.283300000000
 Energy=    -287.430138     NIter=   0.
 Dipole moment=       9.245800      -0.612300      -0.283300
 ***** Axes restored to original set *****
 -------------------------------------------------------------------
 Center     Atomic                   Forces (Hartrees/Bohr)
 Number     Number              X              Y              Z
 -------------------------------------------------------------------
      1        6          -0.020584946   -0.017794159    0.007491139
      2        6          -0.007279586    0.019856426   -0.029559731
      3        8           0.006496471   -0.005076756    0.010390257
      4        6           0.007340859    0.015205666    0.013190633
      5        6          -0.002820480    0.001997100    0.001141004
      6        1          -0.000185204   -0.000243796    0.002538326
      7        1           0.004382554   -0.001683206   -0.000099645
      8        1           0.000825076    0.002424054    0.000447814
      9        7           0.021602715   -0.023515370   -0.023298068
     10        1          -0.004847043    0.002823405    0.001633463
     11        1          -0.003993277    0.001098997    0.001757685
     12        1          -0.000203256    0.001534623    0.007778424
     13        1          -0.001655282    0.005850190    0.002638030
     14        1          -0.001563205    0.001995523   -0.004040088
     15        1           0.002484602   -0.004472694    0.007990755
 -------------------------------------------------------------------
 Cartesian Forces:  Max     0.029559731 RMS     0.010151721
 FormGI is forming the generalized inverse of G from B-inverse, IUseBI=4.

 GradGradGradGradGradGradGradGradGradGradGradGradGradGradGradGradGradGrad
 Berny optimization.
 Internal  Forces:  Max     0.026978917 RMS     0.005967298
 Search for a saddle point.
 Step number   3 out of a maximum of   50
 All quantities printed in internal units (Hartrees-Bohrs-Radians)
 Swapping is turned off.
 Second derivative matrix not updated -- analytic derivatives used.
 ITU=  0  0  0
     Eigenvalues ---   -0.01867   0.00103   0.00163   0.00986   0.01191
     Eigenvalues ---    0.01548   0.01633   0.02807   0.04477   0.04710
     Eigenvalues ---    0.04786   0.04817   0.04974   0.08441   0.08922
     Eigenvalues ---    0.09152   0.09527   0.10252   0.11218   0.13419
     Eigenvalues ---    0.13992   0.16247   0.17329   0.17927   0.20730
     Eigenvalues ---    0.23180   0.31360   0.34081   0.34631   0.34874
     Eigenvalues ---    0.35067   0.35444   0.35746   0.37110   0.37919
     Eigenvalues ---    0.44035   0.44271   0.56858   0.83273
 Eigenvectors required to have negative eigenvalues:
                          R6        D6        D10       A10       A11
   1                    0.85505  -0.20400   0.19243  -0.18328  -0.18217
                          D9        D7        A19       R2        A9
   1                   -0.16751   0.15593   0.11771  -0.11702   0.07226
 RFO step:  Lambda0=7.158968947D-03 Lambda=-1.09388384D-02.
 Linear search not attempted -- option 19 set.
 Maximum step size (   0.100) exceeded in Quadratic search.
    -- Step size scaled by   0.203
 Iteration  1 RMS(Cart)=  0.02358842 RMS(Int)=  0.00027117
 Iteration  2 RMS(Cart)=  0.00026816 RMS(Int)=  0.00015676
 Iteration  3 RMS(Cart)=  0.00000015 RMS(Int)=  0.00015676
 Variable       Old X    -DE/DX   Delta X   Delta X   Delta X     New X
                                 (Linear)    (Quad)   (Total)
    R1        2.75148  -0.01212   0.00000  -0.01538  -0.01538   2.73610
    R2        2.58637   0.02227   0.00000   0.01984   0.01984   2.60621
    R3        2.05165   0.00472   0.00000   0.00271   0.00271   2.05436
    R4        2.31258  -0.00906   0.00000  -0.00042  -0.00042   2.31216
    R5        2.10217   0.00945   0.00000   0.00943   0.00943   2.11160
    R6        3.43715   0.02698   0.00000  -0.06819  -0.06819   3.36896
    R7        2.07464  -0.00060   0.00000   0.00198   0.00198   2.07662
    R8        2.07649  -0.00010   0.00000   0.00266   0.00266   2.07916
    R9        2.06920   0.00248   0.00000   0.00099   0.00099   2.07019
   R10        2.06962   0.00349   0.00000   0.00083   0.00083   2.07045
   R11        2.06914   0.00253   0.00000   0.00101   0.00101   2.07015
   R12        2.76762   0.00329   0.00000  -0.00027  -0.00027   2.76735
   R13        1.93579  -0.00070   0.00000  -0.00021  -0.00021   1.93558
   R14        1.93678  -0.00153   0.00000  -0.00058  -0.00058   1.93620
    A1        2.09958   0.00242   0.00000  -0.00140  -0.00140   2.09818
    A2        2.05541  -0.00164   0.00000   0.00639   0.00639   2.06180
    A3        2.12815  -0.00077   0.00000  -0.00496  -0.00496   2.12319
    A4        2.15860   0.01468   0.00000   0.01884   0.01884   2.17744
    A5        2.00874  -0.00696   0.00000  -0.01073  -0.01073   1.99801
    A6        2.11584  -0.00772   0.00000  -0.00811  -0.00811   2.10774
    A7        1.98869  -0.00866   0.00000  -0.00597  -0.00590   1.98279
    A8        2.04494   0.00238   0.00000  -0.00121  -0.00148   2.04346
    A9        2.06431  -0.00090   0.00000  -0.01059  -0.01084   2.05347
   A10        1.61296   0.00490   0.00000   0.02952   0.02951   1.64247
   A11        1.60425   0.00702   0.00000   0.03017   0.03020   1.63445
   A12        2.03121  -0.00339   0.00000  -0.01891  -0.01986   2.01135
   A13        1.90169  -0.00143   0.00000   0.00171   0.00172   1.90340
   A14        1.89772  -0.00015   0.00000   0.00088   0.00088   1.89860
   A15        1.91391  -0.00109   0.00000  -0.00325  -0.00326   1.91065
   A16        1.90194  -0.00145   0.00000   0.00182   0.00182   1.90376
   A17        1.93412   0.00504   0.00000   0.00194   0.00194   1.93605
   A18        1.91401  -0.00101   0.00000  -0.00305  -0.00305   1.91096
   A19        2.15567  -0.00853   0.00000  -0.03262  -0.03263   2.12304
   A20        1.84793  -0.00142   0.00000  -0.00520  -0.00519   1.84274
   A21        1.82884   0.00028   0.00000   0.00761   0.00776   1.83660
   A22        1.89726   0.00629   0.00000   0.01574   0.01542   1.91269
   A23        1.89286   0.00509   0.00000   0.01436   0.01430   1.90717
   A24        1.81221  -0.00101   0.00000   0.00526   0.00509   1.81730
    D1       -3.11024  -0.00015   0.00000   0.00337   0.00336  -3.10688
    D2        0.03112   0.00085   0.00000   0.00514   0.00513   0.03625
    D3        0.02136  -0.00037   0.00000   0.00719   0.00720   0.02856
    D4       -3.12047   0.00063   0.00000   0.00897   0.00897  -3.11150
    D5        1.56630   0.00035   0.00000   0.00332   0.00330   1.56960
    D6       -2.86259   0.00232   0.00000   0.03639   0.03628  -2.82631
    D7       -0.28872  -0.00220   0.00000  -0.02503  -0.02490  -0.31362
    D8       -1.56487   0.00059   0.00000  -0.00073  -0.00074  -1.56562
    D9        0.28943   0.00256   0.00000   0.03234   0.03223   0.32166
   D10        2.86330  -0.00196   0.00000  -0.02908  -0.02895   2.83435
   D11       -3.05669   0.00081   0.00000   0.00321   0.00314  -3.05356
   D12       -0.85701   0.00143   0.00000  -0.00632  -0.00621  -0.86322
   D13        1.05237  -0.00012   0.00000   0.00053   0.00050   1.05286
   D14        1.11032  -0.00182   0.00000  -0.00960  -0.00948   1.10084
   D15       -2.97319  -0.00120   0.00000  -0.01913  -0.01882  -2.99201
   D16       -1.06381  -0.00274   0.00000  -0.01228  -0.01212  -1.07593
   D17       -0.92319   0.00084   0.00000   0.00571   0.00543  -0.91776
   D18        1.27649   0.00146   0.00000  -0.00382  -0.00391   1.27258
   D19       -3.09732  -0.00008   0.00000   0.00302   0.00279  -3.09452
   D20        1.06306  -0.00123   0.00000  -0.00794  -0.00795   1.05511
   D21       -1.11502   0.00177   0.00000   0.01184   0.01196  -1.10306
   D22       -3.07461  -0.00276   0.00000  -0.00938  -0.00947  -3.08408
   D23       -3.12005  -0.00052   0.00000  -0.00668  -0.00670  -3.12675
   D24        0.98506   0.00248   0.00000   0.01309   0.01321   0.99827
   D25       -0.97453  -0.00204   0.00000  -0.00813  -0.00823  -0.98275
   D26       -1.01959   0.00023   0.00000  -0.00517  -0.00519  -1.02478
   D27        3.08552   0.00323   0.00000   0.01461   0.01472   3.10024
   D28        1.12593  -0.00129   0.00000  -0.00661  -0.00672   1.11922
         Item               Value     Threshold  Converged?
 Maximum Force            0.026979     0.000450     NO 
 RMS     Force            0.005967     0.000300     NO 
 Maximum Displacement     0.073519     0.001800     NO 
 RMS     Displacement     0.023608     0.001200     NO 
 Predicted change in Energy=-6.699284D-04
 GradGradGradGradGradGradGradGradGradGradGradGradGradGradGradGradGradGrad

                          Input orientation:                          
 ---------------------------------------------------------------------
 Center     Atomic      Atomic             Coordinates (Angstroms)
 Number     Number       Type             X           Y           Z
 ---------------------------------------------------------------------
      1          6           0       -0.937149    0.673530   -0.220230
      2          6           0       -1.871859   -0.294221    0.314685
      3          8           0       -2.990559   -0.505199   -0.133706
      4          6           0        0.318403    0.806082    0.334806
      5          6           0        2.908551   -0.336062    0.114287
      6          1           0        2.881116   -0.688883    1.151048
      7          1           0        3.515791   -1.025766   -0.482358
      8          1           0        3.369189    0.657610    0.091953
      9          7           0        1.543542   -0.253702   -0.409629
     10          1           0        1.125140   -1.188464   -0.426335
     11          1           0        1.575852    0.023415   -1.395503
     12          1           0        0.868669    1.730892    0.112284
     13          1           0        0.476335    0.397439    1.344064
     14          1           0       -1.253694    1.278631   -1.066092
     15          1           0       -1.495136   -0.860832    1.201046
 ---------------------------------------------------------------------
                    Distance matrix (angstroms):
                    1          2          3          4          5
     1  C    0.000000
     2  C    1.447881   0.000000
     3  O    2.369258   1.223542   0.000000
     4  C    1.379147   2.451187   3.590013   0.000000
     5  C    3.990061   4.784791   5.906743   2.839364   0.000000
     6  H    4.279687   4.842110   6.013393   3.077120   1.095495
     7  H    4.773363   5.495198   6.536447   3.774482   1.095636
     8  H    4.317668   5.331432   6.469114   3.064036   1.095477
     9  N    2.655082   3.491595   4.549446   1.782777   1.464418
    10  H    2.786134   3.214154   4.182280   2.282187   2.049247
    11  H    2.849401   3.861650   4.766935   2.277656   2.045673
    12  H    2.118858   3.413582   4.467019   1.098900   2.904035
    13  H    2.126307   2.655565   3.875295   1.100242   2.822420
    14  H    1.087119   2.182323   2.658588   2.158079   4.617879
    15  H    2.164634   1.117409   2.035762   2.611110   4.566058
                    6          7          8          9         10
     6  H    0.000000
     7  H    1.784466   0.000000
     8  H    1.781276   1.784679   0.000000
     9  N    2.100999   2.119230   2.101204   0.000000
    10  H    2.412709   2.396835   2.951672   1.024265   0.000000
    11  H    2.948899   2.387044   2.414702   1.024590   1.615883
    12  H    3.314254   3.867817   2.721202   2.160199   2.979685
    13  H    2.645812   3.820946   3.162922   2.153684   2.463808
    14  H    5.087580   5.329069   4.806015   3.256304   3.486359
    15  H    4.379914   5.288709   5.215113   3.492341   3.101864
                   11         12         13         14         15
    11  H    0.000000
    12  H    2.385163   0.000000
    13  H    2.975577   1.857231   0.000000
    14  H    3.112942   2.469319   3.094891   0.000000
    15  H    4.117636   3.672875   2.343159   3.126580   0.000000
 Stoichiometry    C4H9NO
 Framework group  C1[X(C4H9NO)]
 Deg. of freedom    39
 Full point group                 C1      NOp   1
 Largest Abelian subgroup         C1      NOp   1
 Largest concise Abelian subgroup C1      NOp   1
                         Standard orientation:                         
 ---------------------------------------------------------------------
 Center     Atomic      Atomic             Coordinates (Angstroms)
 Number     Number       Type             X           Y           Z
 ---------------------------------------------------------------------
      1          6           0       -0.940465    0.693689   -0.205715
      2          6           0       -1.885283   -0.281286    0.297378
      3          8           0       -3.002215   -0.472855   -0.163946
      4          6           0        0.312049    0.803145    0.361095
      5          6           0        2.896021   -0.350508    0.128366
      6          1           0        2.859032   -0.730060    1.155343
      7          1           0        3.502800   -1.028540   -0.481970
      8          1           0        3.363396    0.640242    0.135131
      9          7           0        1.535267   -0.245195   -0.402460
     10          1           0        1.110789   -1.176326   -0.446425
     11          1           0        1.576273    0.057320   -1.380514
     12          1           0        0.869984    1.729668    0.166552
     13          1           0        0.460239    0.367243    1.360376
     14          1           0       -1.247092    1.322796   -1.037600
     15          1           0       -1.518507   -0.873384    1.171161
 ---------------------------------------------------------------------
 Rotational constants (GHZ):          11.6110890           1.3108988           1.2600013
 Standard basis: STO-3G (5D, 7F)
 There are    39 symmetry adapted cartesian basis functions of A   symmetry.
 There are    39 symmetry adapted basis functions of A   symmetry.
    39 basis functions,   117 primitive gaussians,    39 cartesian basis functions
    24 alpha electrons       24 beta electrons
       nuclear repulsion energy       227.8177053636 Hartrees.
 NAtoms=   15 NActive=   15 NUniq=   15 SFac= 1.00D+00 NAtFMM=   60 NAOKFM=F Big=F
 Integral buffers will be    131072 words long.
 Raffenetti 1 integral format.
 Two-electron integral symmetry is turned on.
 External calculation of energy, first and second derivatives.
 Running external command "~/scripts/MiMe -H 'wb97xd def2svp' -EF 'wb97xd def2svp' -c 12 -m 48GB R"
         input file       "/local/jobs/1158121/Gau-718932.EIn"
         output file      "/local/jobs/1158121/Gau-718932.EOu"
         message file     "/local/jobs/1158121/Gau-718932.EMs"
         fchk file        "/local/jobs/1158121/Gau-718932.EFC"
         mat. el file     "/local/jobs/1158121/Gau-718932.EUF"
 Read checkpoint file Gau-718932_H.chk type G16
 Write formatted file Gau-718932_H.fchk

deriv: 2

spelevel: wb97xd def2svp
gradlevel: wb97xd def2svp
hesslevel: wb97xd def2svp

runspe: False
runforce: False
runfreq: True

Running Gaussian ...

Parsing files ...
SPE file: Gau-718932_H.out
FORCE file: Gau-718932_H.out
HESS file: Gau-718932_H.out

 ExternalExternalExternalExternalExternalExternalExternalExternalExternalExternal
 Output from external command:
 "~/scripts/MiMe -H 'wb97xd def2svp' -EF 'wb97xd def2svp' -c 12 -m 48GB R /local/jobs/1158121/Gau-718932.EIn /local/jobs/1158121/Gau-718932.EOu /local/jobs/1158121/Gau-718932.EMs /local/jobs/1158121/Gau-718932.EFC /local/jobs/1158121/Gau-718932.EUF"
  
 --------------------------------------------------
 Hessian calculation at wb97xd def2svp
 ExternalExternalExternalExternalExternalExternalExternalExternalExternalExternal

 Recovered energy= -287.430802393     dipole=      9.685400000000     -0.625600000000     -0.357100000000
 Energy=    -287.430802     NIter=   0.
 Dipole moment=       9.685400      -0.625600      -0.357100
 ***** Axes restored to original set *****
 -------------------------------------------------------------------
 Center     Atomic                   Forces (Hartrees/Bohr)
 Number     Number              X              Y              Z
 -------------------------------------------------------------------
      1        6          -0.016681704   -0.014150651    0.006012748
      2        6          -0.006270195    0.015826609   -0.023754129
      3        8           0.005361787   -0.004030680    0.008285919
      4        6           0.005606918    0.012777569    0.011090311
      5        6          -0.002227779    0.001500541    0.000789007
      6        1          -0.000186386   -0.000136779    0.002047740
      7        1           0.003591071   -0.001328402    0.000021153
      8        1           0.000631087    0.001956881    0.000398635
      9        7           0.017989496   -0.019535219   -0.019496661
     10        1          -0.004039746    0.002365605    0.001539439
     11        1          -0.003371003    0.001038116    0.001441847
     12        1          -0.000053546    0.000979930    0.006438678
     13        1          -0.001217541    0.004700000    0.001946685
     14        1          -0.001240933    0.001631184   -0.003261342
     15        1           0.002108474   -0.003594704    0.006499970
 -------------------------------------------------------------------
 Cartesian Forces:  Max     0.023754129 RMS     0.008299423
 FormGI is forming the generalized inverse of G from B-inverse, IUseBI=4.

 GradGradGradGradGradGradGradGradGradGradGradGradGradGradGradGradGradGrad
 Berny optimization.
 Internal  Forces:  Max     0.022454900 RMS     0.004859701
 Search for a saddle point.
 Step number   4 out of a maximum of   50
 All quantities printed in internal units (Hartrees-Bohrs-Radians)
 Swapping is turned off.
 Second derivative matrix not updated -- analytic derivatives used.
 ITU=  0  0  0  0
     Eigenvalues ---   -0.01866   0.00117   0.00164   0.00958   0.01129
     Eigenvalues ---    0.01612   0.01779   0.03152   0.04615   0.04761
     Eigenvalues ---    0.04767   0.04926   0.05000   0.08411   0.09128
     Eigenvalues ---    0.09316   0.09636   0.10403   0.11460   0.13435
     Eigenvalues ---    0.14277   0.16380   0.17346   0.17954   0.21532
     Eigenvalues ---    0.23006   0.30434   0.34005   0.34442   0.34878
     Eigenvalues ---    0.35366   0.35664   0.36164   0.36980   0.37633
     Eigenvalues ---    0.44131   0.44305   0.54508   0.83377
 Eigenvectors required to have negative eigenvalues:
                          R6        D6        D10       A10       A11
   1                    0.86245  -0.20282   0.19098  -0.18584  -0.18230
                          D9        D7        R2        A9        A19
   1                   -0.15826   0.14643  -0.12876   0.07595   0.07213
 RFO step:  Lambda0=5.932724430D-03 Lambda=-7.31698879D-03.
 Linear search not attempted -- option 19 set.
 Maximum step size (   0.100) exceeded in Quadratic search.
    -- Step size scaled by   0.219
 Iteration  1 RMS(Cart)=  0.02076627 RMS(Int)=  0.00022850
 Iteration  2 RMS(Cart)=  0.00024728 RMS(Int)=  0.00014168
 Iteration  3 RMS(Cart)=  0.00000012 RMS(Int)=  0.00014168
 Variable       Old X    -DE/DX   Delta X   Delta X   Delta X     New X
                                 (Linear)    (Quad)   (Total)
    R1        2.73610  -0.00957   0.00000  -0.01388  -0.01388   2.72222
    R2        2.60621   0.01814   0.00000   0.02084   0.02084   2.62705
    R3        2.05436   0.00381   0.00000   0.00244   0.00244   2.05680
    R4        2.31216  -0.00724   0.00000  -0.00007  -0.00007   2.31209
    R5        2.11160   0.00769   0.00000   0.00917   0.00917   2.12077
    R6        3.36896   0.02245   0.00000  -0.07359  -0.07359   3.29537
    R7        2.07662  -0.00051   0.00000   0.00198   0.00198   2.07860
    R8        2.07916  -0.00013   0.00000   0.00242   0.00242   2.08158
    R9        2.07019   0.00199   0.00000   0.00072   0.00072   2.07091
   R10        2.07045   0.00282   0.00000   0.00054   0.00054   2.07099
   R11        2.07015   0.00203   0.00000   0.00074   0.00074   2.07090
   R12        2.76735   0.00274   0.00000   0.00121   0.00121   2.76856
   R13        1.93558  -0.00053   0.00000   0.00017   0.00017   1.93575
   R14        1.93620  -0.00121   0.00000  -0.00024  -0.00024   1.93596
    A1        2.09818   0.00196   0.00000  -0.00148  -0.00149   2.09669
    A2        2.06180  -0.00132   0.00000   0.00638   0.00637   2.06817
    A3        2.12319  -0.00063   0.00000  -0.00486  -0.00486   2.11832
    A4        2.17744   0.01185   0.00000   0.01754   0.01754   2.19498
    A5        1.99801  -0.00563   0.00000  -0.01010  -0.01010   1.98790
    A6        2.10774  -0.00623   0.00000  -0.00744  -0.00744   2.10030
    A7        1.98279  -0.00681   0.00000  -0.00689  -0.00681   1.97598
    A8        2.04346   0.00208   0.00000  -0.00195  -0.00219   2.04127
    A9        2.05347  -0.00064   0.00000  -0.01113  -0.01133   2.04214
   A10        1.64247   0.00382   0.00000   0.02986   0.02984   1.67231
   A11        1.63445   0.00548   0.00000   0.02987   0.02988   1.66432
   A12        2.01135  -0.00301   0.00000  -0.01976  -0.02066   1.99069
   A13        1.90340  -0.00117   0.00000   0.00209   0.00209   1.90549
   A14        1.89860  -0.00015   0.00000   0.00102   0.00101   1.89961
   A15        1.91065  -0.00090   0.00000  -0.00312  -0.00312   1.90753
   A16        1.90376  -0.00119   0.00000   0.00216   0.00216   1.90592
   A17        1.93605   0.00417   0.00000   0.00067   0.00067   1.93672
   A18        1.91096  -0.00082   0.00000  -0.00277  -0.00277   1.90818
   A19        2.12304  -0.00665   0.00000  -0.02182  -0.02182   2.10122
   A20        1.84274  -0.00129   0.00000  -0.00796  -0.00793   1.83481
   A21        1.83660   0.00013   0.00000   0.00330   0.00339   1.83999
   A22        1.91269   0.00494   0.00000   0.01326   0.01305   1.92573
   A23        1.90717   0.00408   0.00000   0.01244   0.01239   1.91956
   A24        1.81730  -0.00079   0.00000   0.00345   0.00333   1.82064
    D1       -3.10688  -0.00010   0.00000   0.00267   0.00266  -3.10422
    D2        0.03625   0.00071   0.00000   0.00389   0.00388   0.04013
    D3        0.02856  -0.00029   0.00000   0.00880   0.00881   0.03737
    D4       -3.11150   0.00051   0.00000   0.01002   0.01003  -3.10146
    D5        1.56960   0.00027   0.00000   0.00449   0.00448   1.57408
    D6       -2.82631   0.00186   0.00000   0.03699   0.03687  -2.78944
    D7       -0.31362  -0.00170   0.00000  -0.02234  -0.02222  -0.33584
    D8       -1.56562   0.00048   0.00000  -0.00190  -0.00190  -1.56752
    D9        0.32166   0.00206   0.00000   0.03060   0.03049   0.35215
   D10        2.83435  -0.00150   0.00000  -0.02873  -0.02860   2.80575
   D11       -3.05356   0.00064   0.00000   0.00048   0.00044  -3.05311
   D12       -0.86322   0.00119   0.00000  -0.00548  -0.00540  -0.86862
   D13        1.05286  -0.00014   0.00000  -0.00346  -0.00348   1.04938
   D14        1.10084  -0.00145   0.00000  -0.01153  -0.01140   1.08944
   D15       -2.99201  -0.00090   0.00000  -0.01750  -0.01724  -3.00925
   D16       -1.07593  -0.00223   0.00000  -0.01548  -0.01532  -1.09124
   D17       -0.91776   0.00057   0.00000   0.00196   0.00172  -0.91604
   D18        1.27258   0.00112   0.00000  -0.00401  -0.00413   1.26845
   D19       -3.09452  -0.00021   0.00000  -0.00199  -0.00220  -3.09673
   D20        1.05511  -0.00105   0.00000  -0.00676  -0.00678   1.04833
   D21       -1.10306   0.00155   0.00000   0.01005   0.01014  -1.09291
   D22       -3.08408  -0.00236   0.00000  -0.00788  -0.00795  -3.09203
   D23       -3.12675  -0.00045   0.00000  -0.00577  -0.00578  -3.13254
   D24        0.99827   0.00214   0.00000   0.01105   0.01114   1.00941
   D25       -0.98275  -0.00177   0.00000  -0.00689  -0.00696  -0.98972
   D26       -1.02478   0.00017   0.00000  -0.00446  -0.00448  -1.02926
   D27        3.10024   0.00277   0.00000   0.01235   0.01244   3.11268
   D28        1.11922  -0.00114   0.00000  -0.00558  -0.00566   1.11356
         Item               Value     Threshold  Converged?
 Maximum Force            0.022455     0.000450     NO 
 RMS     Force            0.004860     0.000300     NO 
 Maximum Displacement     0.055001     0.001800     NO 
 RMS     Displacement     0.020708     0.001200     NO 
 Predicted change in Energy=-2.485590D-04
 GradGradGradGradGradGradGradGradGradGradGradGradGradGradGradGradGradGrad

                          Input orientation:                          
 ---------------------------------------------------------------------
 Center     Atomic      Atomic             Coordinates (Angstroms)
 Number     Number       Type             X           Y           Z
 ---------------------------------------------------------------------
      1          6           0       -0.922124    0.664394   -0.228792
      2          6           0       -1.855087   -0.293493    0.307102
      3          8           0       -2.978871   -0.514960   -0.123051
      4          6           0        0.346057    0.789497    0.326776
      5          6           0        2.890371   -0.330694    0.117108
      6          1           0        2.852010   -0.677875    1.155827
      7          1           0        3.504195   -1.022219   -0.471159
      8          1           0        3.346541    0.665442    0.093552
      9          7           0        1.528740   -0.253329   -0.418026
     10          1           0        1.097109   -1.182247   -0.428673
     11          1           0        1.555211    0.024992   -1.403605
     12          1           0        0.885790    1.727738    0.131137
     13          1           0        0.487199    0.394218    1.345200
     14          1           0       -1.235155    1.279350   -1.070505
     15          1           0       -1.467795   -0.856344    1.197427
 ---------------------------------------------------------------------
                    Distance matrix (angstroms):
                    1          2          3          4          5
     1  C    0.000000
     2  C    1.440538   0.000000
     3  O    2.373239   1.223507   0.000000
     4  C    1.390176   2.453221   3.599875   0.000000
     5  C    3.955371   4.749406   5.877042   2.787888   0.000000
     6  H    4.238271   4.798422   5.971704   3.019984   1.095876
     7  H    4.742964   5.464306   6.512191   3.727311   1.095923
     8  H    4.280818   5.293590   6.438252   3.012090   1.095871
     9  N    2.623882   3.460883   4.524822   1.743833   1.465057
    10  H    2.743599   3.169654   4.141532   2.241105   2.058837
    11  H    2.815352   3.828588   4.742284   2.245159   2.054686
    12  H    2.128098   3.410095   4.475478   1.099947   2.873271
    13  H    2.129938   2.652715   3.872467   1.101523   2.794449
    14  H    1.088412   2.180815   2.675399   2.166237   4.585044
    15  H    2.155110   1.122263   2.035572   2.599401   4.520731
                    6          7          8          9         10
     6  H    0.000000
     7  H    1.786338   0.000000
     8  H    1.782551   1.786604   0.000000
     9  N    2.099595   2.120481   2.100060   0.000000
    10  H    2.417584   2.412774   2.957468   1.024357   0.000000
    11  H    2.954049   2.400967   2.420851   1.024465   1.617954
    12  H    3.271542   3.844616   2.680519   2.153971   2.970867
    13  H    2.603378   3.795750   3.133053   2.147810   2.450276
    14  H    5.048980   5.302629   4.766953   3.227064   3.451211
    15  H    4.323691   5.247131   5.168385   3.457244   3.054365
                   11         12         13         14         15
    11  H    0.000000
    12  H    2.388075   0.000000
    13  H    2.972021   1.846917   0.000000
    14  H    3.077419   2.478589   3.096061   0.000000
    15  H    4.084199   3.654287   2.325455   3.123911   0.000000
 Stoichiometry    C4H9NO
 Framework group  C1[X(C4H9NO)]
 Deg. of freedom    39
 Full point group                 C1      NOp   1
 Largest Abelian subgroup         C1      NOp   1
 Largest concise Abelian subgroup C1      NOp   1
                         Standard orientation:                         
 ---------------------------------------------------------------------
 Center     Atomic      Atomic             Coordinates (Angstroms)
 Number     Number       Type             X           Y           Z
 ---------------------------------------------------------------------
      1          6           0       -0.927032    0.693592   -0.205752
      2          6           0       -1.873590   -0.272939    0.289218
      3          8           0       -2.996589   -0.466892   -0.156006
      4          6           0        0.338481    0.785217    0.362292
      5          6           0        2.872434   -0.353683    0.129259
      6          1           0        2.823244   -0.737468    1.154556
      7          1           0        3.483132   -1.030143   -0.479425
      8          1           0        3.339066    0.637758    0.144521
[...]
     8   1     0.53  -0.10  -0.01     0.01  -0.01   0.06     0.06  -0.03   0.12
     9   7    -0.12  -0.03  -0.09    -0.02  -0.00   0.03    -0.03  -0.04   0.03
    10   1     0.20  -0.20  -0.21    -0.01  -0.00  -0.04     0.10  -0.10  -0.14
    11   1     0.08  -0.08  -0.12    -0.07   0.07   0.06    -0.06   0.14   0.12
    12   1     0.21  -0.06   0.03    -0.04   0.02  -0.02    -0.32   0.19   0.07
    13   1     0.05  -0.06  -0.03    -0.26  -0.07  -0.14    -0.55  -0.17  -0.22
    14   1     0.06   0.01   0.03     0.81   0.36   0.07    -0.21  -0.24   0.23
    15   1    -0.02  -0.03  -0.01    -0.13  -0.14   0.08     0.07   0.13  -0.12
                     19                     20                     21
                      A                      A                      A
 Frequencies --   1286.7153              1305.3611              1330.7570
 Red. masses --      1.3067                 1.3567                 1.1336
 Frc consts  --      1.2746                 1.3621                 1.1828
 IR Inten    --      0.0000                 0.0000                 0.0000
  Atom  AN      X      Y      Z        X      Y      Z        X      Y      Z
     1   6    -0.06  -0.00  -0.03    -0.02  -0.04   0.00     0.00  -0.01   0.01
     2   6    -0.00  -0.00   0.01     0.00   0.01  -0.01     0.00   0.00  -0.01
     3   8     0.01   0.01  -0.01     0.00   0.00  -0.00     0.00   0.00   0.00
     4   6     0.02   0.04  -0.00    -0.03   0.04   0.00    -0.02  -0.03   0.02
     5   6     0.02   0.07  -0.05     0.01  -0.07  -0.05     0.03   0.06  -0.06
     6   1    -0.23  -0.06  -0.15    -0.01   0.18   0.11    -0.18   0.00  -0.11
     7   1    -0.03  -0.21   0.11     0.28   0.07   0.10     0.04  -0.16   0.11
     8   1     0.14  -0.04   0.22    -0.20   0.00   0.03     0.10  -0.03   0.20
     9   7    -0.02  -0.08   0.05    -0.09   0.08   0.05    -0.03   0.00   0.02
    10   1    -0.15   0.01  -0.15     0.62  -0.30  -0.15    -0.34   0.18  -0.03
    11   1     0.18   0.07   0.13     0.27  -0.24  -0.09     0.60  -0.25  -0.07
    12   1    -0.28   0.19   0.26     0.23  -0.09   0.05     0.32  -0.21  -0.19
    13   1     0.59  -0.27  -0.18     0.25  -0.11  -0.08    -0.24   0.15   0.12
    14   1     0.10   0.01  -0.08     0.07   0.01   0.02    -0.02   0.02   0.06
    15   1     0.14   0.06  -0.01     0.08   0.05  -0.02    -0.02   0.01   0.01
                     22                     23                     24
                      A                      A                      A
 Frequencies --   1344.4397              1364.0437              1439.3050
 Red. masses --      1.1930                 1.3996                 1.2361
 Frc consts  --      1.2705                 1.5343                 1.5087
 IR Inten    --      0.0000                 0.0000                 0.0000
  Atom  AN      X      Y      Z        X      Y      Z        X      Y      Z
     1   6     0.01  -0.04   0.03    -0.14  -0.10   0.03    -0.02  -0.03   0.02
     2   6    -0.01   0.03  -0.03    -0.01  -0.01  -0.01     0.00   0.05  -0.05
     3   8     0.01  -0.00   0.01     0.00   0.02  -0.02     0.05  -0.01   0.03
     4   6    -0.09   0.03  -0.03     0.04   0.03  -0.02    -0.06  -0.01  -0.07
     5   6    -0.01  -0.00   0.01    -0.01  -0.00   0.02     0.02  -0.00   0.01
     6   1     0.08   0.00   0.02    -0.02  -0.02   0.00    -0.14  -0.03  -0.02
     7   1     0.03   0.03   0.02    -0.05   0.05  -0.06    -0.07   0.01  -0.08
     8   1     0.05  -0.02  -0.01    -0.00   0.02  -0.07    -0.08   0.06  -0.07
     9   7     0.03   0.01   0.02     0.03  -0.01  -0.02     0.01  -0.01  -0.00
    10   1    -0.23   0.15   0.16    -0.02   0.01   0.03    -0.03   0.01   0.01
    11   1    -0.27   0.20   0.11    -0.08   0.05   0.00    -0.02   0.02   0.01
    12   1     0.54  -0.30  -0.27     0.22  -0.07   0.27     0.14  -0.13   0.56
    13   1     0.36  -0.33  -0.22    -0.18   0.27   0.12     0.26   0.45   0.15
    14   1     0.02  -0.04   0.04     0.32   0.14   0.09     0.09   0.02   0.04
    15   1     0.04   0.05  -0.04     0.66   0.37  -0.00    -0.49  -0.19  -0.03
                     25                     26                     27
                      A                      A                      A
 Frequencies --   1446.7431              1483.3983              1486.0656
 Red. masses --      1.1834                 1.0479                 1.0535
 Frc consts  --      1.4593                 1.3586                 1.3707
 IR Inten    --      0.0000                 0.0000                 0.0000
  Atom  AN      X      Y      Z        X      Y      Z        X      Y      Z
     1   6    -0.00  -0.00   0.00    -0.02  -0.01  -0.00    -0.03  -0.01  -0.01
     2   6     0.00   0.00  -0.00    -0.00   0.01  -0.01    -0.00   0.01  -0.01
     3   8     0.00  -0.00   0.00     0.01   0.00   0.00     0.01   0.00   0.01
     4   6     0.00  -0.01  -0.02     0.01   0.00   0.00     0.02   0.01   0.02
     5   6    -0.11   0.02  -0.04     0.00  -0.03  -0.03    -0.01  -0.02   0.02
     6   1     0.52  -0.01   0.00     0.09   0.58   0.35    -0.46   0.10   0.05
     7   1     0.42   0.07   0.40    -0.21   0.11  -0.31     0.23   0.57  -0.19
     8   1     0.48  -0.26   0.09     0.08  -0.19   0.57     0.44  -0.12  -0.32
     9   7    -0.00  -0.00  -0.01     0.01  -0.02  -0.02    -0.01  -0.02   0.02
    10   1    -0.01  -0.01   0.03    -0.05   0.01   0.02    -0.07   0.01  -0.04
    11   1     0.00   0.04   0.02    -0.02   0.04   0.01     0.08  -0.03   0.02
    12   1    -0.04   0.00   0.17    -0.01   0.01   0.02    -0.03   0.03  -0.08
    13   1     0.01   0.16   0.06    -0.01   0.01   0.01    -0.03  -0.09  -0.03
    14   1     0.01   0.00   0.01     0.03   0.01  -0.00     0.04   0.02  -0.00
    15   1    -0.05  -0.01  -0.00    -0.06  -0.02  -0.00    -0.09  -0.04  -0.00
                     28                     29                     30
                      A                      A                      A
 Frequencies --   1491.6188              1629.7631              1811.7088
 Red. masses --      2.0504                 1.0853                 9.0591
 Frc consts  --      2.6879                 1.6984                17.5191
 IR Inten    --      0.0000                 0.0000                 0.0000
  Atom  AN      X      Y      Z        X      Y      Z        X      Y      Z
     1   6     0.20   0.08   0.02    -0.00  -0.00  -0.01    -0.14  -0.07   0.00
     2   6     0.01  -0.06   0.07     0.00  -0.00   0.00     0.66   0.18   0.14
     3   8    -0.10  -0.00  -0.05    -0.00   0.00  -0.00    -0.38  -0.07  -0.12
     4   6    -0.12  -0.05  -0.07     0.01  -0.00   0.00    -0.02   0.01   0.01
     5   6     0.01  -0.01   0.00     0.01  -0.01  -0.00    -0.00  -0.00  -0.00
     6   1    -0.18   0.12   0.07    -0.04  -0.01  -0.01     0.01   0.00  -0.00
     7   1     0.02   0.18  -0.13     0.02   0.00  -0.01     0.01   0.00   0.01
     8   1     0.11  -0.05  -0.01    -0.03   0.02  -0.03     0.00  -0.00   0.00
     9   7    -0.01   0.00   0.01    -0.05  -0.02  -0.06     0.02  -0.01   0.00
    10   1    -0.07   0.03   0.01     0.12  -0.18   0.68    -0.05   0.03  -0.01
    11   1     0.05  -0.01   0.01     0.40   0.52   0.22    -0.06   0.00   0.00
    12   1    -0.03  -0.11   0.32    -0.01   0.01  -0.01     0.06  -0.04  -0.02
    13   1     0.31   0.32   0.10    -0.01  -0.00   0.00    -0.01  -0.05  -0.05
    14   1    -0.30  -0.14  -0.02     0.00   0.01   0.00     0.24   0.08   0.07
    15   1     0.55   0.21   0.03    -0.00  -0.01   0.01    -0.42  -0.25   0.06
                     31                     32                     33
                      A                      A                      A
 Frequencies --   2665.9772              3039.0509              3082.1262
 Red. masses --      1.0739                 1.0592                 1.0335
 Frc consts  --      4.4972                 5.7635                 5.7846
 IR Inten    --      0.0000                 0.0000                 0.0000
  Atom  AN      X      Y      Z        X      Y      Z        X      Y      Z
     1   6    -0.00   0.00  -0.00     0.00   0.00   0.00    -0.00  -0.00   0.00
     2   6    -0.01   0.05  -0.06     0.00   0.00  -0.00     0.00   0.00  -0.00
     3   8    -0.01  -0.00  -0.00    -0.00  -0.00  -0.00    -0.00  -0.00  -0.00
     4   6    -0.00   0.00   0.00    -0.03  -0.02  -0.06     0.00  -0.00  -0.00
     5   6     0.00  -0.00  -0.00     0.00  -0.00  -0.00    -0.04   0.00  -0.02
     6   1     0.00   0.00  -0.00     0.00   0.00  -0.01    -0.04  -0.29   0.47
     7   1     0.00  -0.00   0.00    -0.00   0.00   0.01     0.35  -0.28  -0.39
     8   1    -0.00  -0.00  -0.00     0.00  -0.01  -0.00     0.22   0.53   0.12
     9   7     0.00  -0.00  -0.00     0.00  -0.00   0.00     0.00   0.00   0.00
    10   1    -0.00  -0.00  -0.01    -0.01  -0.00  -0.00    -0.00  -0.00  -0.00
    11   1    -0.00  -0.00   0.00    -0.00   0.00  -0.01    -0.00  -0.00  -0.00
    12   1     0.00  -0.01   0.00     0.29   0.58   0.01     0.00   0.01   0.00
    13   1     0.01   0.01  -0.02     0.03  -0.33   0.68    -0.00  -0.00   0.01
    14   1     0.01   0.00  -0.00     0.01  -0.01   0.01    -0.00   0.00  -0.00
    15   1     0.31  -0.58   0.75     0.01  -0.01   0.01     0.00  -0.00   0.00
                     34                     35                     36
                      A                      A                      A
 Frequencies --   3114.6391              3196.1874              3198.2885
 Red. masses --      1.1106                 1.1088                 1.0903
 Frc consts  --      6.3478                 6.6735                 6.5712
 IR Inten    --      0.0000                 0.0000                 0.0000
  Atom  AN      X      Y      Z        X      Y      Z        X      Y      Z
     1   6    -0.00   0.00  -0.00     0.00  -0.00   0.00     0.02  -0.06   0.06
     2   6    -0.00  -0.00  -0.00     0.00   0.00  -0.00     0.00   0.00  -0.00
     3   8     0.00   0.00   0.00    -0.00  -0.00  -0.00    -0.00  -0.00  -0.00
     4   6    -0.03  -0.08   0.05    -0.00   0.00  -0.00    -0.01  -0.01   0.00
     5   6     0.00  -0.00  -0.00     0.01  -0.08  -0.05    -0.00   0.01   0.00
     6   1    -0.00   0.00  -0.00    -0.00  -0.04   0.04    -0.00  -0.00   0.01
     7   1    -0.00   0.00   0.00    -0.43   0.34   0.47     0.03  -0.02  -0.03
     8   1     0.00   0.00   0.00     0.26   0.61   0.13    -0.02  -0.06  -0.01
     9   7     0.00   0.00  -0.00     0.00   0.00   0.00    -0.00  -0.00   0.00
    10   1    -0.01  -0.00   0.00    -0.00  -0.01  -0.00    -0.00   0.00   0.00
    11   1     0.00  -0.01   0.00     0.00   0.00  -0.01     0.00   0.00  -0.00
    12   1     0.35   0.67   0.02    -0.00  -0.00   0.00     0.03   0.05   0.00
    13   1    -0.03   0.28  -0.58    -0.00  -0.00   0.00    -0.00   0.01  -0.03
    14   1     0.01  -0.04   0.05    -0.02   0.05  -0.05    -0.25   0.68  -0.67
    15   1     0.00   0.01  -0.00     0.00  -0.00   0.00    -0.00  -0.00   0.00
                     37                     38                     39
                      A                      A                      A
 Frequencies --   3201.8090              3472.4794              3543.2833
 Red. masses --      1.1084                 1.0567                 1.0949
 Frc consts  --      6.6948                 7.5075                 8.0990
 IR Inten    --      0.0000                 0.0000                 0.0000
  Atom  AN      X      Y      Z        X      Y      Z        X      Y      Z
     1   6    -0.00   0.00  -0.00    -0.00  -0.00  -0.00     0.00  -0.00   0.00
     2   6    -0.00   0.00  -0.00     0.00   0.00  -0.00     0.00  -0.00   0.00
     3   8     0.00  -0.00   0.00    -0.00  -0.00  -0.00     0.00   0.00  -0.00
     4   6    -0.00   0.00   0.00     0.00  -0.00  -0.00     0.00   0.00  -0.00
     5   6     0.04   0.06  -0.07     0.00  -0.00  -0.00     0.00  -0.00  -0.00
     6   1    -0.06  -0.44   0.70     0.00  -0.00   0.01     0.00  -0.01   0.01
     7   1    -0.20   0.17   0.22    -0.01   0.00   0.01    -0.00   0.00   0.00
     8   1    -0.16  -0.39  -0.10     0.01   0.01   0.00    -0.01  -0.01  -0.00
     9   7    -0.00  -0.00   0.00    -0.03  -0.03  -0.04     0.02   0.06  -0.05
    10   1    -0.00   0.00   0.00     0.38   0.70   0.07    -0.28  -0.51  -0.07
    11   1     0.01   0.01  -0.01    -0.02  -0.26   0.53    -0.02  -0.33   0.73
    12   1     0.00  -0.00  -0.00    -0.00   0.01   0.00     0.00  -0.01  -0.00
    13   1    -0.00   0.00   0.00    -0.00  -0.00   0.01    -0.00  -0.00   0.01
    14   1     0.00  -0.01   0.01    -0.00   0.00  -0.00    -0.00   0.00  -0.00
    15   1     0.00  -0.00   0.00     0.00  -0.00   0.00    -0.00   0.00  -0.00

 -------------------
 - Thermochemistry -
 -------------------
 Temperature   298.150 Kelvin.  Pressure   1.00000 Atm.
 Atom     1 has atomic number  6 and mass  12.00000
 Atom     2 has atomic number  6 and mass  12.00000
 Atom     3 has atomic number  8 and mass  15.99491
 Atom     4 has atomic number  6 and mass  12.00000
 Atom     5 has atomic number  6 and mass  12.00000
 Atom     6 has atomic number  1 and mass   1.00783
 Atom     7 has atomic number  1 and mass   1.00783
 Atom     8 has atomic number  1 and mass   1.00783
 Atom     9 has atomic number  7 and mass  14.00307
 Atom    10 has atomic number  1 and mass   1.00783
 Atom    11 has atomic number  1 and mass   1.00783
 Atom    12 has atomic number  1 and mass   1.00783
 Atom    13 has atomic number  1 and mass   1.00783
 Atom    14 has atomic number  1 and mass   1.00783
 Atom    15 has atomic number  1 and mass   1.00783
 Molecular mass:    87.06841 amu.
 Principal axes and moments of inertia in atomic units:
                           1         2         3
     Eigenvalues --   145.710181334.411831378.05717
           X            0.99996  -0.00914   0.00097
           Y            0.00919   0.99471  -0.10228
           Z           -0.00003   0.10228   0.99476
 This molecule is an asymmetric top.
 Rotational symmetry number  1.
 Rotational temperatures (Kelvin)      0.59443     0.06491     0.06285
 Rotational constants (GHZ):          12.38583     1.35246     1.30963
 Zero-point vibrational energy     344379.6 (Joules/Mol)
                                   82.30870 (Kcal/Mol)
 Warning -- explicit consideration of   8 degrees of freedom as
           vibrations may cause significant error
 Vibrational temperatures:    105.46   127.03   270.24   325.13   348.16
          (Kelvin)            407.44   502.15   765.57   935.73  1015.14
                             1097.84  1308.94  1473.43  1484.67  1509.37
                             1634.30  1706.99  1732.67  1851.30  1878.12
                             1914.66  1934.35  1962.55  2070.84  2081.54
                             2134.28  2138.12  2146.11  2344.87  2606.64
                             3835.75  4372.52  4434.49  4481.27  4598.60
                             4601.62  4606.69  4996.12  5097.99
 
 Zero-point correction=                           0.131167 (Hartree/Particle)
 Thermal correction to Energy=                    0.138770
 Thermal correction to Enthalpy=                  0.139714
 Thermal correction to Gibbs Free Energy=         0.099332
 Sum of electronic and zero-point Energies=           -287.299257
 Sum of electronic and thermal Energies=              -287.291654
 Sum of electronic and thermal Enthalpies=            -287.290710
 Sum of electronic and thermal Free Energies=         -287.331093
 
                     E (Thermal)             CV                S
                      KCal/Mol        Cal/Mol-Kelvin    Cal/Mol-Kelvin
 Total                   87.080             25.587             84.993
 Electronic               0.000              0.000              0.000
 Translational            0.889              2.981             39.305
 Rotational               0.889              2.981             27.085
 Vibrational             85.302             19.626             18.602
 Vibration     1          0.599              1.967              4.063
 Vibration     2          0.601              1.957              3.698
 Vibration     3          0.633              1.857              2.249
 Vibration     4          0.650              1.801              1.911
 Vibration     5          0.658              1.776              1.788
 Vibration     6          0.682              1.705              1.514
 Vibration     7          0.726              1.577              1.171
 Vibration     8          0.887              1.179              0.583
                       Q            Log10(Q)             Ln(Q)
 Total Bot       0.204481D-45        -45.689347       -105.203609
 Total V=0       0.439898D+15         14.643352         33.717565
 Vib (Bot)       0.345573D-58        -58.461461       -134.612488
 Vib (Bot)    1  0.281255D+01          0.449100          1.034091
 Vib (Bot)    2  0.232933D+01          0.367232          0.845582
 Vib (Bot)    3  0.106638D+01          0.027912          0.064271
 Vib (Bot)    4  0.873102D+00         -0.058935         -0.135703
 Vib (Bot)    5  0.809580D+00         -0.091740         -0.211239
 Vib (Bot)    6  0.677773D+00         -0.168916         -0.388943
 Vib (Bot)    7  0.528967D+00         -0.276571         -0.636829
 Vib (Bot)    8  0.299975D+00         -0.522915         -1.204057
 Vib (V=0)       0.743427D+02          1.871239          4.308686
 Vib (V=0)    1  0.335665D+01          0.525906          1.210943
 Vib (V=0)    2  0.288239D+01          0.459753          1.058621
 Vib (V=0)    3  0.167778D+01          0.224735          0.517472
 Vib (V=0)    4  0.150613D+01          0.177864          0.409546
 Vib (V=0)    5  0.145154D+01          0.161828          0.372622
 Vib (V=0)    6  0.134224D+01          0.127832          0.294343
 Vib (V=0)    7  0.122788D+01          0.089155          0.205288
 Vib (V=0)    8  0.108308D+01          0.034661          0.079811
 Electronic      0.100000D+01          0.000000          0.000000
 Translational   0.319334D+08          7.504245         17.279162
 Rotational      0.185297D+06          5.267869         12.129717
 ***** Axes restored to original set *****
 -------------------------------------------------------------------
 Center     Atomic                   Forces (Hartrees/Bohr)
 Number     Number              X              Y              Z
 -------------------------------------------------------------------
      1        6           0.000368662    0.001771517    0.000472239
      2        6          -0.000609361   -0.001293146    0.000117735
      3        8           0.000401551    0.000282892    0.000032851
      4        6          -0.006605348    0.006071751    0.004953018
      5        6          -0.000370407    0.000062859   -0.000311556
      6        1           0.000041797    0.000358503    0.000171048
      7        1           0.000131431   -0.000318960    0.000221287
      8        1           0.000258250    0.000028934   -0.000202500
      9        7           0.005408450   -0.005465415   -0.003786711
     10        1           0.000354342   -0.000149317    0.000041005
     11        1          -0.000067878    0.000461678    0.000107214
     12        1           0.000526951   -0.000530793   -0.000767050
     13        1           0.000155576   -0.000785809   -0.000401658
     14        1           0.000068197   -0.000463008   -0.000464239
     15        1          -0.000062215   -0.000031686   -0.000182684
 -------------------------------------------------------------------
 Cartesian Forces:  Max     0.006605348 RMS     0.002042678


 COMMON SENSE IS NOT SO COMMON.   -- VOLTAIRE
 Error termination request processed by link 9999.
 Error termination via Lnk1e in /apps/gaussian/g16/C.01/g16/l9999.exe at Wed Jan 17 21:18:24 2024.
 Job cpu time:       0 days  6 hours 15 minutes 45.0 seconds.
 Elapsed time:       0 days  1 hours  0 minutes 47.7 seconds.
 File lengths (MBytes):  RWF=      6 Int=      0 D2E=      0 Chk=      1 Scr=      1
