Unloading slurm/anatra/current
  ERROR: No such file or directory on
    '/cm/local/modulefiles/slurm/anatra/current'
environment: line 0: unalias: gv: not found
environment: line 0: unalias: sl: not found
 Entering Gaussian System, Link 0=g16
 Initial command:
 /apps/gaussian/g16/C.01/g16/l1.exe "/local/jobs/1158123/Gau-1355786.inp" -scrdir="/local/jobs/1158123/"
 Entering Link 1 = /apps/gaussian/g16/C.01/g16/l1.exe PID=   1355789.
  
 Copyright (c) 1988-2019, Gaussian, Inc.  All Rights Reserved.
  
 This is part of the Gaussian(R) 16 program.  It is based on
 the Gaussian(R) 09 system (copyright 2009, Gaussian, Inc.),
 the Gaussian(R) 03 system (copyright 2003, Gaussian, Inc.),
 the Gaussian(R) 98 system (copyright 1998, Gaussian, Inc.),
 the Gaussian(R) 94 system (copyright 1995, Gaussian, Inc.),
 the Gaussian 92(TM) system (copyright 1992, Gaussian, Inc.),
 the Gaussian 90(TM) system (copyright 1990, Gaussian, Inc.),
 the Gaussian 88(TM) system (copyright 1988, Gaussian, Inc.),
 the Gaussian 86(TM) system (copyright 1986, Carnegie Mellon
 University), and the Gaussian 82(TM) system (copyright 1983,
 Carnegie Mellon University). Gaussian is a federally registered
 trademark of Gaussian, Inc.
  
 This software contains proprietary and confidential information,
 including trade secrets, belonging to Gaussian, Inc.
  
 This software is provided under written license and may be
 used, copied, transmitted, or stored only in accord with that
 written license.
  
 The following legend is applicable only to US Government
 contracts under FAR:
  
                    RESTRICTED RIGHTS LEGEND
  
 Use, reproduction and disclosure by the US Government is
 subject to restrictions as set forth in subparagraphs (a)
 and (c) of the Commercial Computer Software - Restricted
 Rights clause in FAR 52.227-19.
  
 Gaussian, Inc.
 340 Quinnipiac St., Bldg. 40, Wallingford CT 06492
  
  
 ---------------------------------------------------------------
 Warning -- This program may not be used in any manner that
 competes with the business of Gaussian, Inc. or will provide
 assistance to any competitor of Gaussian, Inc.  The licensee
 of this program is prohibited from giving any competitor of
 Gaussian, Inc. access to this program.  By using this program,
 the user acknowledges that Gaussian, Inc. is engaged in the
 business of creating and licensing software in the field of
 computational chemistry and represents and warrants to the
 licensee that it is not a competitor of Gaussian, Inc. and that
 it will not use this program in any manner prohibited above.
 ---------------------------------------------------------------
  

 Cite this work as:
 Gaussian 16, Revision C.01,
 M. J. Frisch, G. W. Trucks, H. B. Schlegel, G. E. Scuseria, 
 M. A. Robb, J. R. Cheeseman, G. Scalmani, V. Barone, 
 G. A. Petersson, H. Nakatsuji, X. Li, M. Caricato, A. V. Marenich, 
 J. Bloino, B. G. Janesko, R. Gomperts, B. Mennucci, H. P. Hratchian, 
 J. V. Ortiz, A. F. Izmaylov, J. L. Sonnenberg, D. Williams-Young, 
 F. Ding, F. Lipparini, F. Egidi, J. Goings, B. Peng, A. Petrone, 
 T. Henderson, D. Ranasinghe, V. G. Zakrzewski, J. Gao, N. Rega, 
 G. Zheng, W. Liang, M. Hada, M. Ehara, K. Toyota, R. Fukuda, 
 J. Hasegawa, M. Ishida, T. Nakajima, Y. Honda, O. Kitao, H. Nakai, 
 T. Vreven, K. Throssell, J. A. Montgomery, Jr., J. E. Peralta, 
 F. Ogliaro, M. J. Bearpark, J. J. Heyd, E. N. Brothers, K. N. Kudin, 
 V. N. Staroverov, T. A. Keith, R. Kobayashi, J. Normand, 
 K. Raghavachari, A. P. Rendell, J. C. Burant, S. S. Iyengar, 
 J. Tomasi, M. Cossi, J. M. Millam, M. Klene, C. Adamo, R. Cammi, 
 J. W. Ochterski, R. L. Martin, K. Morokuma, O. Farkas, 
 J. B. Foresman, and D. J. Fox, Gaussian, Inc., Wallingford CT, 2019.
 
 ******************************************
 Gaussian 16:  ES64L-G16RevC.01  3-Jul-2019
                17-Jan-2024 
 ******************************************
 %nprocshared=12
 Will use up to   12 processors via shared memory.
 %mem=48GB
 ----------------------------------------------------------------------
 # external="~/scripts/MiMe -H 'wb97xd def2svp' -EF 'wb97xd def2svp' -c
  12 -m 48GB" opt=(calcall,ts,noeigen,maxcycles=50,maxstep=10,nomicro)
 ----------------------------------------------------------------------
 1/5=1,6=50,8=10,10=4,11=1,18=20,26=1,38=1/1,3;
 2/9=110,12=2,17=6,18=5,40=1/2;
 3/11=9,25=1,30=1,41=9900000,43=2,71=2,140=1/1;
 4/20=17,22=2,24=3,113=1,114=1/2;
 6/7=2,8=2,9=2,10=2,18=1/1;
 7/25=1,44=-1/16;
 1/5=1,6=50,8=10,10=4,11=1,18=20,26=1/3(3);
 2/9=110/2;
 7/8=1,9=1,25=1,44=-1/16;
 99//99;
 2/9=110/2;
 3/11=9,25=1,30=1,41=9900000,43=2,71=2,140=1/1;
 4/16=2,20=17,22=2,24=3,113=1,114=1/2;
 7/25=1,44=-1/16;
 1/5=1,6=50,8=10,10=4,11=1,18=20,26=1/3(-4);
 2/9=110/2;
 6/7=2,8=2,9=2,10=2,18=1/1;
 7/8=1,9=1,25=1,44=-1/16;
 99//99;
 ---------
 TS-68.out
 ---------
 Symbolic Z-matrix:
 Charge =  0 Multiplicity = 1
 C                    -0.74249  -0.12132   0.22248 
 C                    -2.09729   0.30804   0.69467 
 O                    -2.30169   1.18952   1.52012 
 C                     0.23569   0.82708   0.28242 
 C                    -1.12249   3.02777  -1.33601 
 H                    -0.92798   3.59591  -2.25016 
 H                    -2.10314   2.55168  -1.41988 
 H                    -1.13854   3.71741  -0.4876 
 N                    -0.08065   2.0099   -1.1377 
 H                    -0.07122   1.43807  -1.98871 
 H                     0.8163    2.51011  -1.18421 
 C                     1.69287   0.45967   0.25094 
 C                     2.32299  -0.06152  -0.88807 
 C                     3.68719  -0.36217  -0.87152 
 C                     4.43783  -0.13667   0.28037 
 C                     3.82677   0.39194   1.41535 
 C                     2.46265   0.69229   1.39956 
 H                     1.75802  -0.23854  -1.79909 
 H                     4.16255  -0.77282  -1.75836 
 H                     5.49878  -0.37232   0.29348 
 H                     4.41054   0.57044   2.31459 
 H                     2.00288   1.1043    2.29536 
 H                     0.02255   1.70746   0.91213 
 Br                   -0.52741  -1.88792  -0.36586 
 O                    -3.07299  -0.40619   0.06938 
 C                    -4.39791  -0.05049   0.46209 
 H                    -5.09696  -0.68232  -0.09281 
 H                    -4.5431   -0.23106   1.53182 
 H                    -4.60411   0.99512   0.21281 
 
 Add virtual bond connecting atoms N9         and C4         Dist= 3.54D+00.

 GradGradGradGradGradGradGradGradGradGradGradGradGradGradGradGradGradGrad
 Berny optimization.
 Initialization pass.
                           ----------------------------
                           !    Initial Parameters    !
                           ! (Angstroms and Degrees)  !
 --------------------------                            --------------------------
 ! Name  Definition              Value          Derivative Info.                !
 --------------------------------------------------------------------------------
 ! R1    R(1,2)                  1.4976         calculate D2E/DX2 analytically  !
 ! R2    R(1,4)                  1.3638         calculate D2E/DX2 analytically  !
 ! R3    R(1,24)                 1.8744         calculate D2E/DX2 analytically  !
 ! R4    R(2,3)                  1.2248         calculate D2E/DX2 analytically  !
 ! R5    R(2,25)                 1.3613         calculate D2E/DX2 analytically  !
 ! R6    R(4,9)                  1.8751         calculate D2E/DX2 analytically  !
 ! R7    R(4,12)                 1.5031         calculate D2E/DX2 analytically  !
 ! R8    R(4,23)                 1.1032         calculate D2E/DX2 analytically  !
 ! R9    R(5,6)                  1.0937         calculate D2E/DX2 analytically  !
 ! R10   R(5,7)                  1.0933         calculate D2E/DX2 analytically  !
 ! R11   R(5,8)                  1.0935         calculate D2E/DX2 analytically  !
 ! R12   R(5,9)                  1.47           calculate D2E/DX2 analytically  !
 ! R13   R(9,10)                 1.0253         calculate D2E/DX2 analytically  !
 ! R14   R(9,11)                 1.0281         calculate D2E/DX2 analytically  !
 ! R15   R(12,13)                1.4022         calculate D2E/DX2 analytically  !
 ! R16   R(12,17)                1.4021         calculate D2E/DX2 analytically  !
 ! R17   R(13,14)                1.397          calculate D2E/DX2 analytically  !
 ! R18   R(13,18)                1.0865         calculate D2E/DX2 analytically  !
 ! R19   R(14,15)                1.3933         calculate D2E/DX2 analytically  !
 ! R20   R(14,19)                1.0868         calculate D2E/DX2 analytically  !
 ! R21   R(15,16)                1.3932         calculate D2E/DX2 analytically  !
 ! R22   R(15,20)                1.0869         calculate D2E/DX2 analytically  !
 ! R23   R(16,17)                1.3969         calculate D2E/DX2 analytically  !
 ! R24   R(16,21)                1.0869         calculate D2E/DX2 analytically  !
 ! R25   R(17,22)                1.0879         calculate D2E/DX2 analytically  !
 ! R26   R(25,26)                1.4269         calculate D2E/DX2 analytically  !
 ! R27   R(26,27)                1.0935         calculate D2E/DX2 analytically  !
 ! R28   R(26,28)                1.0945         calculate D2E/DX2 analytically  !
 ! R29   R(26,29)                1.0945         calculate D2E/DX2 analytically  !
 ! A1    A(2,1,4)              115.8255         calculate D2E/DX2 analytically  !
 ! A2    A(2,1,24)             118.2285         calculate D2E/DX2 analytically  !
 ! A3    A(4,1,24)             125.9393         calculate D2E/DX2 analytically  !
 ! A4    A(1,2,3)              124.7361         calculate D2E/DX2 analytically  !
 ! A5    A(1,2,25)             110.6804         calculate D2E/DX2 analytically  !
 ! A6    A(3,2,25)             124.5799         calculate D2E/DX2 analytically  !
 ! A7    A(1,4,9)              106.5222         calculate D2E/DX2 analytically  !
 ! A8    A(1,4,12)             121.6302         calculate D2E/DX2 analytically  !
 ! A9    A(1,4,23)             116.1982         calculate D2E/DX2 analytically  !
 ! A10   A(9,4,12)             107.5707         calculate D2E/DX2 analytically  !
 ! A11   A(9,4,23)              84.0482         calculate D2E/DX2 analytically  !
 ! A12   A(12,4,23)            113.2234         calculate D2E/DX2 analytically  !
 ! A13   A(6,5,7)              108.7589         calculate D2E/DX2 analytically  !
 ! A14   A(6,5,8)              108.874          calculate D2E/DX2 analytically  !
 ! A15   A(6,5,9)              110.2671         calculate D2E/DX2 analytically  !
 ! A16   A(7,5,8)              108.7228         calculate D2E/DX2 analytically  !
 ! A17   A(7,5,9)              110.1531         calculate D2E/DX2 analytically  !
 ! A18   A(8,5,9)              110.0261         calculate D2E/DX2 analytically  !
 ! A19   A(4,9,5)              131.1893         calculate D2E/DX2 analytically  !
 ! A20   A(4,9,10)             105.9768         calculate D2E/DX2 analytically  !
 ! A21   A(4,9,11)             101.1863         calculate D2E/DX2 analytically  !
 ! A22   A(5,9,10)             106.3035         calculate D2E/DX2 analytically  !
 ! A23   A(5,9,11)             105.9827         calculate D2E/DX2 analytically  !
 ! A24   A(10,9,11)            103.049          calculate D2E/DX2 analytically  !
 ! A25   A(4,12,13)            122.9243         calculate D2E/DX2 analytically  !
 ! A26   A(4,12,17)            118.3279         calculate D2E/DX2 analytically  !
 ! A27   A(13,12,17)           118.7115         calculate D2E/DX2 analytically  !
 ! A28   A(12,13,14)           120.6107         calculate D2E/DX2 analytically  !
 ! A29   A(12,13,18)           120.5314         calculate D2E/DX2 analytically  !
 ! A30   A(14,13,18)           118.8579         calculate D2E/DX2 analytically  !
 ! A31   A(13,14,15)           120.0706         calculate D2E/DX2 analytically  !
 ! A32   A(13,14,19)           119.9189         calculate D2E/DX2 analytically  !
 ! A33   A(15,14,19)           120.0105         calculate D2E/DX2 analytically  !
 ! A34   A(14,15,16)           119.9096         calculate D2E/DX2 analytically  !
 ! A35   A(14,15,20)           120.0524         calculate D2E/DX2 analytically  !
 ! A36   A(16,15,20)           120.038          calculate D2E/DX2 analytically  !
 ! A37   A(15,16,17)           120.0455         calculate D2E/DX2 analytically  !
 ! A38   A(15,16,21)           120.0501         calculate D2E/DX2 analytically  !
 ! A39   A(17,16,21)           119.9044         calculate D2E/DX2 analytically  !
 ! A40   A(12,17,16)           120.6448         calculate D2E/DX2 analytically  !
 ! A41   A(12,17,22)           120.3535         calculate D2E/DX2 analytically  !
 ! A42   A(16,17,22)           119.0005         calculate D2E/DX2 analytically  !
 ! A43   A(2,25,26)            114.0982         calculate D2E/DX2 analytically  !
 ! A44   A(25,26,27)           108.0518         calculate D2E/DX2 analytically  !
 ! A45   A(25,26,28)           110.5495         calculate D2E/DX2 analytically  !
 ! A46   A(25,26,29)           110.5106         calculate D2E/DX2 analytically  !
 ! A47   A(27,26,28)           108.4105         calculate D2E/DX2 analytically  !
 ! A48   A(27,26,29)           108.4194         calculate D2E/DX2 analytically  !
 ! A49   A(28,26,29)           110.806          calculate D2E/DX2 analytically  !
 ! D1    D(4,1,2,3)            -27.0774         calculate D2E/DX2 analytically  !
 ! D2    D(4,1,2,25)           152.2549         calculate D2E/DX2 analytically  !
 ! D3    D(24,1,2,3)           152.0325         calculate D2E/DX2 analytically  !
 ! D4    D(24,1,2,25)          -28.6351         calculate D2E/DX2 analytically  !
 ! D5    D(2,1,4,9)            -75.3285         calculate D2E/DX2 analytically  !
 ! D6    D(2,1,4,12)           161.1309         calculate D2E/DX2 analytically  !
 ! D7    D(2,1,4,23)            16.1275         calculate D2E/DX2 analytically  !
 ! D8    D(24,1,4,9)           105.64           calculate D2E/DX2 analytically  !
 ! D9    D(24,1,4,12)          -17.9006         calculate D2E/DX2 analytically  !
 ! D10   D(24,1,4,23)         -162.9039         calculate D2E/DX2 analytically  !
 ! D11   D(1,2,25,26)         -179.7276         calculate D2E/DX2 analytically  !
 ! D12   D(3,2,25,26)           -0.394          calculate D2E/DX2 analytically  !
 ! D13   D(1,4,9,5)             72.2434         calculate D2E/DX2 analytically  !
 ! D14   D(1,4,9,10)           -57.4423         calculate D2E/DX2 analytically  !
 ! D15   D(1,4,9,11)          -164.6612         calculate D2E/DX2 analytically  !
 ! D16   D(12,4,9,5)          -155.8651         calculate D2E/DX2 analytically  !
 ! D17   D(12,4,9,10)           74.4492         calculate D2E/DX2 analytically  !
 ! D18   D(12,4,9,11)          -32.7697         calculate D2E/DX2 analytically  !
 ! D19   D(23,4,9,5)           -43.3552         calculate D2E/DX2 analytically  !
 ! D20   D(23,4,9,10)         -173.0409         calculate D2E/DX2 analytically  !
 ! D21   D(23,4,9,11)           79.7403         calculate D2E/DX2 analytically  !
 ! D22   D(1,4,12,13)           68.9325         calculate D2E/DX2 analytically  !
 ! D23   D(1,4,12,17)         -113.2871         calculate D2E/DX2 analytically  !
 ! D24   D(9,4,12,13)          -54.1185         calculate D2E/DX2 analytically  !
 ! D25   D(9,4,12,17)          123.6619         calculate D2E/DX2 analytically  !
 ! D26   D(23,4,12,13)        -145.1222         calculate D2E/DX2 analytically  !
 ! D27   D(23,4,12,17)          32.6582         calculate D2E/DX2 analytically  !
 ! D28   D(6,5,9,4)            174.3827         calculate D2E/DX2 analytically  !
 ! D29   D(6,5,9,10)           -56.0457         calculate D2E/DX2 analytically  !
 ! D30   D(6,5,9,11)            53.1305         calculate D2E/DX2 analytically  !
 ! D31   D(7,5,9,4)            -65.572          calculate D2E/DX2 analytically  !
 ! D32   D(7,5,9,10)            63.9996         calculate D2E/DX2 analytically  !
 ! D33   D(7,5,9,11)           173.1758         calculate D2E/DX2 analytically  !
 ! D34   D(8,5,9,4)             54.2755         calculate D2E/DX2 analytically  !
 ! D35   D(8,5,9,10)          -176.1529         calculate D2E/DX2 analytically  !
 ! D36   D(8,5,9,11)           -66.9767         calculate D2E/DX2 analytically  !
 ! D37   D(4,12,13,14)         178.741          calculate D2E/DX2 analytically  !
 ! D38   D(4,12,13,18)          -1.2625         calculate D2E/DX2 analytically  !
 ! D39   D(17,12,13,14)          0.9687         calculate D2E/DX2 analytically  !
 ! D40   D(17,12,13,18)       -179.0348         calculate D2E/DX2 analytically  !
 ! D41   D(4,12,17,16)        -178.8208         calculate D2E/DX2 analytically  !
 ! D42   D(4,12,17,22)           1.582          calculate D2E/DX2 analytically  !
 ! D43   D(13,12,17,16)         -0.9451         calculate D2E/DX2 analytically  !
 ! D44   D(13,12,17,22)        179.4577         calculate D2E/DX2 analytically  !
 ! D45   D(12,13,14,15)         -0.4365         calculate D2E/DX2 analytically  !
 ! D46   D(12,13,14,19)        179.5331         calculate D2E/DX2 analytically  !
 ! D47   D(18,13,14,15)        179.5669         calculate D2E/DX2 analytically  !
 ! D48   D(18,13,14,19)         -0.4634         calculate D2E/DX2 analytically  !
 ! D49   D(13,14,15,16)         -0.1381         calculate D2E/DX2 analytically  !
 ! D50   D(13,14,15,20)        179.8921         calculate D2E/DX2 analytically  !
 ! D51   D(19,14,15,16)        179.8923         calculate D2E/DX2 analytically  !
 ! D52   D(19,14,15,20)         -0.0775         calculate D2E/DX2 analytically  !
 ! D53   D(14,15,16,17)          0.1618         calculate D2E/DX2 analytically  !
 ! D54   D(14,15,16,21)       -179.8899         calculate D2E/DX2 analytically  !
 ! D55   D(20,15,16,17)       -179.8684         calculate D2E/DX2 analytically  !
 ! D56   D(20,15,16,21)          0.0799         calculate D2E/DX2 analytically  !
 ! D57   D(15,16,17,12)          0.3887         calculate D2E/DX2 analytically  !
 ! D58   D(15,16,17,22)        179.9913         calculate D2E/DX2 analytically  !
 ! D59   D(21,16,17,12)       -179.5596         calculate D2E/DX2 analytically  !
 ! D60   D(21,16,17,22)          0.043          calculate D2E/DX2 analytically  !
 ! D61   D(2,25,26,27)        -179.7742         calculate D2E/DX2 analytically  !
 ! D62   D(2,25,26,28)         -61.2895         calculate D2E/DX2 analytically  !
 ! D63   D(2,25,26,29)          61.7526         calculate D2E/DX2 analytically  !
 --------------------------------------------------------------------------------
 Trust Radius=1.00D-01 FncErr=1.00D-07 GrdErr=1.00D-07 EigMax=2.50D+02 EigMin=1.00D-04
 Number of steps in this run=     50 maximum allowed number of steps=    174.
 Search for a saddle point of order  1.
 GradGradGradGradGradGradGradGradGradGradGradGradGradGradGradGradGradGrad

                          Input orientation:                          
 ---------------------------------------------------------------------
 Center     Atomic      Atomic             Coordinates (Angstroms)
 Number     Number       Type             X           Y           Z
 ---------------------------------------------------------------------
      1          6           0       -0.742490   -0.121320    0.222480
      2          6           0       -2.097290    0.308040    0.694670
      3          8           0       -2.301690    1.189520    1.520120
      4          6           0        0.235690    0.827080    0.282420
      5          6           0       -1.122490    3.027770   -1.336010
      6          1           0       -0.927980    3.595910   -2.250160
      7          1           0       -2.103140    2.551680   -1.419880
      8          1           0       -1.138540    3.717410   -0.487600
      9          7           0       -0.080650    2.009900   -1.137700
     10          1           0       -0.071220    1.438070   -1.988710
     11          1           0        0.816300    2.510110   -1.184210
     12          6           0        1.692870    0.459670    0.250940
     13          6           0        2.322990   -0.061520   -0.888070
     14          6           0        3.687190   -0.362170   -0.871520
     15          6           0        4.437830   -0.136670    0.280370
     16          6           0        3.826770    0.391940    1.415350
     17          6           0        2.462650    0.692290    1.399560
     18          1           0        1.758020   -0.238540   -1.799090
     19          1           0        4.162550   -0.772820   -1.758360
     20          1           0        5.498780   -0.372320    0.293480
     21          1           0        4.410540    0.570440    2.314590
     22          1           0        2.002880    1.104300    2.295360
     23          1           0        0.022550    1.707460    0.912130
     24         35           0       -0.527410   -1.887920   -0.365860
     25          8           0       -3.072990   -0.406190    0.069380
     26          6           0       -4.397910   -0.050490    0.462090
     27          1           0       -5.096960   -0.682320   -0.092810
     28          1           0       -4.543100   -0.231060    1.531820
     29          1           0       -4.604110    0.995120    0.212810
 ---------------------------------------------------------------------
                    Distance matrix (angstroms):
                    1          2          3          4          5
     1  C    0.000000
     2  C    1.497597   0.000000
     3  O    2.415218   1.224808   0.000000
     4  C    1.363778   2.425314   2.846324   0.000000
     5  C    3.534128   3.531406   3.595435   3.050738   0.000000
     6  H    4.468350   4.566114   4.678975   3.928678   1.093749
     7  H    3.419597   3.083063   3.246306   3.367818   1.093330
     8  H    3.923891   3.733734   3.431339   3.291724   1.093463
     9  N    2.613469   3.212592   3.559501   1.875067   1.469972
    10  H    2.787770   3.547176   4.165172   2.371821   2.014530
    11  H    3.366456   4.107105   4.333500   2.306665   2.012442
    12  C    2.503865   3.819058   4.254410   1.503115   4.127929
    13  C    3.260991   4.709619   5.362103   2.552739   4.649268
    14  C    4.569126   6.030120   6.632825   3.828674   5.902581
    15  C    5.180666   6.563323   6.979749   4.311241   6.598752
    16  C    4.750212   5.968325   6.181030   3.790611   6.246019
    17  C    3.510043   4.630072   4.791733   2.495099   5.078488
    18  H    3.217613   4.623960   5.434865   2.790290   4.379562
    19  H    5.329878   6.809641   7.509035   4.705815   6.523382
    20  H    6.246719   7.637023   8.049306   5.398037   7.619519
    21  H    5.604389   6.711546   6.787376   4.650264   7.069637
    22  H    3.651853   4.472989   4.374652   2.692905   5.162802
    23  H    2.098890   2.549389   2.457642   1.103192   2.847537
    24  Br   1.874374   2.900256   4.021893   2.893754   5.045723
    25  O    2.352833   1.361287   2.290380   3.537471   4.191856
    26  C    3.663949   2.339976   2.655408   4.719392   4.841201
    27  H    4.401765   3.255604   3.730799   5.554840   5.577340
    28  H    4.021324   2.640726   2.653696   5.051484   5.526753
    29  H    4.019781   2.643561   2.654805   4.843217   4.318818
                    6          7          8          9         10
     6  H    0.000000
     7  H    1.777859   0.000000
     8  H    1.779246   1.777224   0.000000
     9  N    2.114465   2.112727   2.111244   0.000000
    10  H    2.336379   2.385874   2.930511   1.025328   0.000000
    11  H    2.314676   2.929232   2.400883   1.028053   1.607539
    12  C    4.791697   4.645195   4.378949   2.734393   3.014185
    13  C    5.079458   5.167423   5.140319   3.182857   3.031900
    14  C    6.234328   6.505316   6.330722   4.460290   4.314467
    15  C    7.009112   7.273401   6.821995   5.199553   5.287727
    16  C    6.805074   6.918586   6.271704   4.940019   5.279805
    17  C    5.766094   5.679173   5.067671   3.826507   4.296168
    18  H    4.703304   4.778879   5.075392   2.978863   2.488593
    19  H    6.726155   7.101108   7.062475   5.112093   4.781831
    20  H    7.969956   8.323134   7.835177   6.233241   6.285762
    21  H    7.647889   7.765282   6.967638   5.844753   6.273543
    22  H    5.954814   5.723401   4.943858   4.116687   4.771430
    23  H    3.803923   3.266426   2.710585   2.074590   2.914830
    24  Br   5.812352   4.827415   5.639860   3.998541   3.728802
    25  O    5.098837   3.450724   4.588725   4.030959   4.080153
    26  C    5.717775   3.947033   5.071733   5.044132   5.190614
    27  H    6.351205   4.602481   5.931490   5.788196   5.774821
    28  H    6.482142   4.733876   5.591020   5.662305   5.931091
    29  H    5.132666   3.367997   4.462243   4.828597   5.058655
                   11         12         13         14         15
    11  H    0.000000
    12  C    2.651855   0.000000
    13  C    2.995179   1.402153   0.000000
    14  C    4.073055   2.431594   1.397035   0.000000
    15  C    4.718678   2.809145   2.417322   1.393256   0.000000
    16  C    4.506361   2.431865   2.787961   2.412040   1.393199
    17  C    3.562416   1.402142   2.412672   2.787326   2.416836
    18  H    2.969847   2.166648   1.086501   2.144147   3.393510
    19  H    4.722782   3.414035   2.155767   1.086778   2.153343
    20  H    5.693645   3.896019   3.402690   2.153877   1.086884
    21  H    5.377963   3.414184   3.874825   3.397689   2.153787
    22  H    3.935947   2.165943   3.405266   3.875121   3.395464
    23  H    2.380951   2.187263   3.414972   4.571035   4.826451
    24  Br   4.670966   3.289569   3.425379   4.510705   5.304536
    25  O    5.020246   4.847277   5.491094   6.825486   7.518615
    26  C    6.037794   6.115754   6.855184   8.200275   8.838029
    27  H    6.808040   6.893772   7.488223   8.824408   9.557678
    28  H    6.604090   6.403521   7.282019   8.575016   9.068194
    29  H    5.798940   6.319819   7.093176   8.471344   9.112749
                   16         17         18         19         20
    16  C    0.000000
    17  C    1.396883   0.000000
    18  H    3.874256   3.405042   0.000000
    19  H    3.397330   3.874102   2.463509   0.000000
    20  H    2.153672   3.402189   4.288360   2.481120   0.000000
    21  H    1.086868   2.155552   4.961116   4.295901   2.481521
    22  H    2.146730   1.087933   4.315982   4.961895   4.290600
    23  H    4.056589   2.687424   3.761580   5.515696   5.890442
    24  Br   5.227748   4.326043   3.161929   5.017791   6.248739
    25  O    7.074979   5.798219   5.182465   7.471820   8.574766
    26  C    8.291551   6.964040   6.560775   8.873198   9.903357
    27  H    9.113810   7.827159   7.078071   9.408548  10.607310
    28  H    8.393832   7.067574   7.127351   9.322399  10.118932
    29  H    8.537545   7.172111   6.785747   9.157808  10.195332
                   21         22         23         24         25
    21  H    0.000000
    22  H    2.466212   0.000000
    23  H    4.744909   2.489746   0.000000
    24  Br   6.132838   4.736860   3.855188   0.000000
    25  O    7.873881   5.744652   3.841889   2.977404   0.000000
    26  C    9.022533   6.757554   4.778430   4.363762   1.426940
    27  H    9.887241   7.700850   5.738496   4.733795   2.049148
    28  H    9.023458   6.724287   4.998703   4.740479   2.081015
    29  H    9.266161   6.928294   4.733124   5.026556   2.080522
                   26         27         28         29
    26  C    0.000000
    27  H    1.093524   0.000000
    28  H    1.094535   1.774773   0.000000
    29  H    1.094513   1.774855   1.801951   0.000000
 Stoichiometry    C11H14BrNO2
 Framework group  C1[X(C11H14BrNO2)]
 Deg. of freedom    81
 Full point group                 C1      NOp   1
 Largest Abelian subgroup         C1      NOp   1
 Largest concise Abelian subgroup C1      NOp   1
                         Standard orientation:                         
 ---------------------------------------------------------------------
 Center     Atomic      Atomic             Coordinates (Angstroms)
 Number     Number       Type             X           Y           Z
 ---------------------------------------------------------------------
      1          6           0       -0.742491   -0.121320    0.222480
      2          6           0       -2.097291    0.308039    0.694670
      3          8           0       -2.301692    1.189518    1.520120
      4          6           0        0.235689    0.827081    0.282420
      5          6           0       -1.122494    3.027770   -1.336010
      6          1           0       -0.927984    3.595910   -2.250160
      7          1           0       -2.103143    2.551679   -1.419880
      8          1           0       -1.138544    3.717410   -0.487600
      9          7           0       -0.080653    2.009901   -1.137700
     10          1           0       -0.071222    1.438071   -1.988710
     11          1           0        0.816297    2.510112   -1.184210
     12          6           0        1.692869    0.459672    0.250940
     13          6           0        2.322989   -0.061517   -0.888070
     14          6           0        3.687190   -0.362166   -0.871520
     15          6           0        4.437829   -0.136665    0.280370
     16          6           0        3.826769    0.391945    1.415350
     17          6           0        2.462649    0.692293    1.399560
     18          1           0        1.758020   -0.238538   -1.799090
     19          1           0        4.162550   -0.772815   -1.758360
     20          1           0        5.498780   -0.372314    0.293480
     21          1           0        4.410539    0.570445    2.314590
     22          1           0        2.002878    1.104303    2.295360
     23          1           0        0.022548    1.707461    0.912130
     24         35           0       -0.527409   -1.887920   -0.365860
     25          8           0       -3.072990   -0.406192    0.069380
     26          6           0       -4.397911   -0.050494    0.462090
     27          1           0       -5.096960   -0.682324   -0.092810
     28          1           0       -4.543100   -0.231064    1.531820
     29          1           0       -4.604112    0.995116    0.212810
 ---------------------------------------------------------------------
 Rotational constants (GHZ):           0.6855917           0.3044402           0.2523100
 Standard basis: STO-3G (5D, 7F)
 There are   103 symmetry adapted cartesian basis functions of A   symmetry.
 There are   102 symmetry adapted basis functions of A   symmetry.
   102 basis functions,   309 primitive gaussians,   103 cartesian basis functions
    69 alpha electrons       69 beta electrons
       nuclear repulsion energy      1360.8047526770 Hartrees.
 NAtoms=   29 NActive=   29 NUniq=   29 SFac= 1.00D+00 NAtFMM=   60 NAOKFM=F Big=F
 Integral buffers will be    131072 words long.
 Raffenetti 1 integral format.
 Two-electron integral symmetry is turned on.
 External calculation of energy, first and second derivatives.
 Running external command "~/scripts/MiMe -H 'wb97xd def2svp' -EF 'wb97xd def2svp' -c 12 -m 48GB R"
         input file       "/local/jobs/1158123/Gau-1355789.EIn"
         output file      "/local/jobs/1158123/Gau-1355789.EOu"
         message file     "/local/jobs/1158123/Gau-1355789.EMs"
         fchk file        "/local/jobs/1158123/Gau-1355789.EFC"
         mat. el file     "/local/jobs/1158123/Gau-1355789.EUF"
 Read checkpoint file Gau-1355789_H.chk type G16
 Write formatted file Gau-1355789_H.fchk

deriv: 2

spelevel: wb97xd def2svp
gradlevel: wb97xd def2svp
hesslevel: wb97xd def2svp

runspe: False
runforce: False
runfreq: True

Running Gaussian ...

Parsing files ...
SPE file: Gau-1355789_H.out
FORCE file: Gau-1355789_H.out
HESS file: Gau-1355789_H.out

 ExternalExternalExternalExternalExternalExternalExternalExternalExternalExternal
 Output from external command:
 "~/scripts/MiMe -H 'wb97xd def2svp' -EF 'wb97xd def2svp' -c 12 -m 48GB R /local/jobs/1158123/Gau-1355789.EIn /local/jobs/1158123/Gau-1355789.EOu /local/jobs/1158123/Gau-1355789.EMs /local/jobs/1158123/Gau-1355789.EFC /local/jobs/1158123/Gau-1355789.EUF"
  
 --------------------------------------------------
 Hessian calculation at wb97xd def2svp
 ExternalExternalExternalExternalExternalExternalExternalExternalExternalExternal

 Recovered energy= -3205.96547277     dipole=      1.675600000000      4.168400000000     -3.591900000000
 Energy=    -3205.96547     NIter=   0.
 Dipole moment=       1.675600       4.168400      -3.591900
 ***** Axes restored to original set *****
 -------------------------------------------------------------------
 Center     Atomic                   Forces (Hartrees/Bohr)
 Number     Number              X              Y              Z
 -------------------------------------------------------------------
      1        6          -0.038492355    0.002670073    0.025863863
      2        6           0.020040909   -0.012283367   -0.002525487
      3        8          -0.003508266   -0.011671172   -0.021888032
      4        6           0.007640770   -0.005428505    0.029288740
      5        6          -0.001434748   -0.006167454    0.008638485
      6        1          -0.001514921    0.003871695   -0.003831131
      7        1          -0.002761072   -0.002312238    0.001222697
      8        1          -0.000676326    0.000988945    0.003450267
      9        7           0.025470826    0.033526540   -0.052571714
     10        1           0.000017963   -0.004487422    0.004762104
     11        1          -0.001019951   -0.002346320   -0.000182828
     12        6          -0.002404801    0.012181354   -0.008483250
     13        6           0.004878610    0.000253754    0.004037828
     14        6          -0.004666230    0.002427725    0.003981813
     15        6          -0.001898841   -0.000027698   -0.000548301
     16        6          -0.006553432   -0.001227725   -0.003467086
     17        6           0.005556034   -0.001556480   -0.002572592
     18        1          -0.003501407   -0.001368052   -0.002564860
     19        1           0.001227634   -0.001317876   -0.003243400
     20        1           0.003721830   -0.000702605   -0.000067207
     21        1           0.001557469    0.000743540    0.003194228
     22        1          -0.003302429    0.001513842    0.001664726
     23        1           0.000105339   -0.014294282    0.008699021
     24       35           0.003277787   -0.006085285   -0.007558830
     25        8          -0.008734406    0.015663138    0.015420911
     26        6           0.006197118   -0.006784818   -0.004122453
     27        1           0.001954736   -0.003596192   -0.003342253
     28        1          -0.000602368    0.003439736    0.003726228
     29        1          -0.000575468    0.004377151    0.003018515
 -------------------------------------------------------------------
 Cartesian Forces:  Max     0.052571714 RMS     0.011072829
 FormGI is forming the generalized inverse of G from B-inverse, IUseBI=4.

 GradGradGradGradGradGradGradGradGradGradGradGradGradGradGradGradGradGrad
 Berny optimization.
 Internal  Forces:  Max     0.040674512 RMS     0.007162675
 Search for a saddle point.
 Step number   1 out of a maximum of   50
 All quantities printed in internal units (Hartrees-Bohrs-Radians)
 Swapping is turned off.
 Second derivative matrix not updated -- analytic derivatives used.
 ITU=  0
     Eigenvalues ---   -0.03984  -0.00094   0.00150   0.00185   0.00194
     Eigenvalues ---    0.00303   0.00758   0.00999   0.01309   0.01612
     Eigenvalues ---    0.01803   0.01822   0.01861   0.02167   0.02438
     Eigenvalues ---    0.02580   0.02724   0.02874   0.02947   0.03041
     Eigenvalues ---    0.04333   0.04559   0.04815   0.04832   0.05494
     Eigenvalues ---    0.07146   0.08185   0.08414   0.08630   0.09348
     Eigenvalues ---    0.09643   0.11069   0.11511   0.11810   0.12176
     Eigenvalues ---    0.12269   0.12622   0.12906   0.13311   0.15534
     Eigenvalues ---    0.17455   0.17550   0.17734   0.18135   0.18581
     Eigenvalues ---    0.18724   0.19243   0.19567   0.19693   0.22535
     Eigenvalues ---    0.24770   0.25112   0.26105   0.28941   0.29767
     Eigenvalues ---    0.31585   0.33532   0.34992   0.35067   0.35589
     Eigenvalues ---    0.35636   0.35935   0.36111   0.37191   0.37288
     Eigenvalues ---    0.37492   0.37526   0.37633   0.37742   0.37891
     Eigenvalues ---    0.39599   0.42682   0.42893   0.43267   0.43899
     Eigenvalues ---    0.46771   0.48796   0.49055   0.52492   0.58471
     Eigenvalues ---    0.80491
 Eigenvectors required to have negative eigenvalues:
                          R6        A19       A21       A11       D10
   1                   -0.74914  -0.34839   0.17745   0.16241   0.14217
                          A20       D6        D26       D2        R2
   1                    0.12862  -0.12519  -0.12401   0.11534   0.11338
 RFO step:  Lambda0=8.247723262D-04 Lambda=-3.88265027D-02.
 Linear search not attempted -- option 19 set.
 Maximum step size (   0.100) exceeded in Quadratic search.
    -- Step size scaled by   0.181
 Iteration  1 RMS(Cart)=  0.03856818 RMS(Int)=  0.00143329
 Iteration  2 RMS(Cart)=  0.00209339 RMS(Int)=  0.00007795
 Iteration  3 RMS(Cart)=  0.00000616 RMS(Int)=  0.00007789
 Iteration  4 RMS(Cart)=  0.00000000 RMS(Int)=  0.00007789
 Variable       Old X    -DE/DX   Delta X   Delta X   Delta X     New X
                                 (Linear)    (Quad)   (Total)
    R1        2.83005  -0.01953   0.00000  -0.01121  -0.01121   2.81884
    R2        2.57717   0.02420   0.00000   0.00319   0.00319   2.58036
    R3        3.54205   0.00848   0.00000   0.00642   0.00642   3.54847
    R4        2.31455  -0.02256   0.00000  -0.00342  -0.00342   2.31113
    R5        2.57246  -0.01237   0.00000  -0.00494  -0.00494   2.56752
    R6        3.54336   0.04067   0.00000   0.03975   0.03975   3.58311
    R7        2.84048  -0.00772   0.00000  -0.00485  -0.00485   2.83563
    R8        2.08473  -0.00646   0.00000  -0.00290  -0.00290   2.08183
    R9        2.06689   0.00494   0.00000   0.00239   0.00239   2.06928
   R10        2.06609   0.00339   0.00000   0.00220   0.00220   2.06829
   R11        2.06634   0.00331   0.00000   0.00156   0.00156   2.06790
   R12        2.77784   0.00074   0.00000  -0.00676  -0.00676   2.77109
   R13        1.93759  -0.00145   0.00000  -0.00125  -0.00125   1.93633
   R14        1.94274  -0.00202   0.00000  -0.00187  -0.00187   1.94087
   R15        2.64969  -0.00235   0.00000  -0.00076  -0.00076   2.64892
   R16        2.64966  -0.00248   0.00000  -0.00065  -0.00065   2.64902
   R17        2.64001  -0.00293   0.00000  -0.00117  -0.00117   2.63885
   R18        2.05319   0.00419   0.00000   0.00174   0.00174   2.05493
   R19        2.63287   0.00029   0.00000   0.00026   0.00026   2.63314
   R20        2.05371   0.00368   0.00000   0.00164   0.00164   2.05535
   R21        2.63276   0.00121   0.00000   0.00031   0.00031   2.63307
   R22        2.05391   0.00378   0.00000   0.00161   0.00161   2.05552
   R23        2.63973  -0.00350   0.00000  -0.00119  -0.00119   2.63854
   R24        2.05388   0.00360   0.00000   0.00160   0.00160   2.05549
   R25        2.05590   0.00334   0.00000   0.00153   0.00153   2.05743
   R26        2.69653  -0.00731   0.00000  -0.00448  -0.00448   2.69205
   R27        2.06646   0.00252   0.00000   0.00094   0.00094   2.06740
   R28        2.06837   0.00316   0.00000   0.00162   0.00162   2.06999
   R29        2.06833   0.00360   0.00000   0.00178   0.00178   2.07011
    A1        2.02154   0.00487   0.00000   0.00515   0.00514   2.02668
    A2        2.06348   0.00374   0.00000   0.00291   0.00290   2.06637
    A3        2.19805  -0.00859   0.00000  -0.00793  -0.00794   2.19011
    A4        2.17706  -0.00013   0.00000  -0.00004  -0.00004   2.17702
    A5        1.93174   0.01658   0.00000   0.00869   0.00869   1.94042
    A6        2.17433  -0.01647   0.00000  -0.00868  -0.00868   2.16565
    A7        1.85916   0.01772   0.00000   0.01213   0.01221   1.87138
    A8        2.12285   0.00549   0.00000   0.01308   0.01313   2.13597
    A9        2.02804  -0.00638   0.00000  -0.01327  -0.01334   2.01470
   A10        1.87746  -0.02518   0.00000  -0.02684  -0.02684   1.85062
   A11        1.46692   0.00965   0.00000   0.00950   0.00958   1.47650
   A12        1.97612  -0.00082   0.00000   0.00198   0.00204   1.97816
   A13        1.89820  -0.00061   0.00000  -0.00079  -0.00078   1.89742
   A14        1.90021  -0.00074   0.00000   0.00119   0.00118   1.90139
   A15        1.92452   0.00495   0.00000   0.00743   0.00743   1.93195
   A16        1.89757   0.00008   0.00000  -0.00139  -0.00140   1.89617
   A17        1.92253  -0.00242   0.00000  -0.00487  -0.00487   1.91766
   A18        1.92032  -0.00130   0.00000  -0.00162  -0.00163   1.91869
   A19        2.28969  -0.02568   0.00000  -0.06672  -0.06674   2.22295
   A20        1.84964   0.00359   0.00000   0.01835   0.01792   1.86756
   A21        1.76603   0.00774   0.00000   0.02411   0.02430   1.79033
   A22        1.85535   0.01224   0.00000   0.01482   0.01448   1.86982
   A23        1.84975   0.00813   0.00000   0.01884   0.01914   1.86888
   A24        1.79854  -0.00250   0.00000   0.00424   0.00377   1.80231
   A25        2.14543  -0.00033   0.00000  -0.00016  -0.00017   2.14527
   A26        2.06521  -0.00082   0.00000   0.00025   0.00024   2.06546
   A27        2.07191   0.00118   0.00000   0.00000   0.00000   2.07191
   A28        2.10505  -0.00010   0.00000   0.00004   0.00004   2.10509
   A29        2.10367  -0.00127   0.00000  -0.00160  -0.00161   2.10206
   A30        2.07446   0.00138   0.00000   0.00156   0.00156   2.07603
   A31        2.09563   0.00012   0.00000   0.00037   0.00037   2.09599
   A32        2.09298  -0.00052   0.00000  -0.00056  -0.00056   2.09242
   A33        2.09458   0.00041   0.00000   0.00019   0.00019   2.09477
   A34        2.09282  -0.00128   0.00000  -0.00077  -0.00077   2.09205
   A35        2.09531   0.00057   0.00000   0.00034   0.00034   2.09565
   A36        2.09506   0.00071   0.00000   0.00043   0.00043   2.09549
   A37        2.09519   0.00034   0.00000   0.00014   0.00014   2.09533
   A38        2.09527   0.00030   0.00000   0.00024   0.00024   2.09551
   A39        2.09273  -0.00064   0.00000  -0.00038  -0.00038   2.09234
   A40        2.10565  -0.00025   0.00000   0.00023   0.00023   2.10588
   A41        2.10056  -0.00212   0.00000  -0.00245  -0.00245   2.09811
   A42        2.07695   0.00237   0.00000   0.00222   0.00222   2.07917
   A43        1.99139   0.00646   0.00000   0.00518   0.00518   1.99657
   A44        1.88586  -0.00636   0.00000  -0.00483  -0.00483   1.88103
   A45        1.92945   0.00217   0.00000   0.00194   0.00194   1.93140
   A46        1.92877   0.00191   0.00000   0.00177   0.00177   1.93054
   A47        1.89212   0.00319   0.00000   0.00354   0.00355   1.89567
   A48        1.89228   0.00330   0.00000   0.00381   0.00381   1.89608
   A49        1.93393  -0.00422   0.00000  -0.00611  -0.00611   1.92782
    D1       -0.47259   0.00571   0.00000  -0.00282  -0.00284  -0.47543
    D2        2.65735   0.00309   0.00000  -0.00554  -0.00556   2.65179
    D3        2.65347   0.00699   0.00000   0.00583   0.00586   2.65932
    D4       -0.49978   0.00437   0.00000   0.00312   0.00313  -0.49664
    D5       -1.31473  -0.01024   0.00000  -0.01540  -0.01534  -1.33008
    D6        2.81226   0.00428   0.00000   0.00087   0.00082   2.81309
    D7        0.28148   0.00781   0.00000  -0.00245  -0.00250   0.27898
    D8        1.84377  -0.01176   0.00000  -0.02494  -0.02486   1.81890
    D9       -0.31242   0.00275   0.00000  -0.00867  -0.00869  -0.32112
   D10       -2.84321   0.00628   0.00000  -0.01200  -0.01202  -2.85523
   D11       -3.13684  -0.00043   0.00000  -0.00471  -0.00471  -3.14155
   D12       -0.00688  -0.00291   0.00000  -0.00735  -0.00735  -0.01422
   D13        1.26088  -0.00298   0.00000  -0.07081  -0.07069   1.19020
   D14       -1.00256  -0.00081   0.00000  -0.04831  -0.04819  -1.05075
   D15       -2.87388  -0.00196   0.00000  -0.06703  -0.06715  -2.94103
   D16       -2.72036  -0.00105   0.00000  -0.06437  -0.06428  -2.78464
   D17        1.29938   0.00112   0.00000  -0.04187  -0.04179   1.25760
   D18       -0.57194  -0.00003   0.00000  -0.06059  -0.06074  -0.63268
   D19       -0.75669   0.00051   0.00000  -0.05993  -0.05990  -0.81659
   D20       -3.02013   0.00268   0.00000  -0.03744  -0.03741  -3.05754
   D21        1.39173   0.00153   0.00000  -0.05616  -0.05636   1.33537
   D22        1.20310   0.00258   0.00000  -0.00898  -0.00901   1.19409
   D23       -1.97723   0.00356   0.00000  -0.00642  -0.00645  -1.98368
   D24       -0.94455  -0.00296   0.00000  -0.01100  -0.01097  -0.95552
   D25        2.15831  -0.00198   0.00000  -0.00844  -0.00841   2.14990
   D26       -2.53286  -0.00270   0.00000  -0.01076  -0.01075  -2.54361
   D27        0.56999  -0.00172   0.00000  -0.00820  -0.00819   0.56180
   D28        3.04355   0.00190   0.00000   0.01319   0.01312   3.05667
   D29       -0.97818  -0.00336   0.00000  -0.00828  -0.00827  -0.98645
   D30        0.92730   0.00212   0.00000   0.01017   0.01024   0.93755
   D31       -1.14445   0.00276   0.00000   0.01384   0.01375  -1.13070
   D32        1.11700  -0.00251   0.00000  -0.00764  -0.00763   1.10937
   D33        3.02249   0.00298   0.00000   0.01082   0.01088   3.03337
   D34        0.94729   0.00051   0.00000   0.00803   0.00795   0.95524
   D35       -3.07445  -0.00476   0.00000  -0.01345  -0.01343  -3.08788
   D36       -1.16896   0.00073   0.00000   0.00501   0.00508  -1.16389
   D37        3.11962   0.00083   0.00000   0.00148   0.00148   3.12110
   D38       -0.02204   0.00015   0.00000  -0.00072  -0.00072  -0.02276
   D39        0.01691  -0.00011   0.00000  -0.00109  -0.00109   0.01582
   D40       -3.12475  -0.00079   0.00000  -0.00330  -0.00330  -3.12804
   D41       -3.12101  -0.00110   0.00000  -0.00196  -0.00196  -3.12298
   D42        0.02761  -0.00073   0.00000  -0.00143  -0.00143   0.02618
   D43       -0.01649  -0.00019   0.00000   0.00048   0.00048  -0.01601
   D44        3.13213   0.00017   0.00000   0.00101   0.00101   3.13314
   D45       -0.00762   0.00024   0.00000   0.00082   0.00082  -0.00680
   D46        3.13344  -0.00005   0.00000   0.00009   0.00009   3.13353
   D47        3.13403   0.00091   0.00000   0.00299   0.00299   3.13703
   D48       -0.00809   0.00061   0.00000   0.00226   0.00226  -0.00583
   D49       -0.00241  -0.00004   0.00000   0.00008   0.00008  -0.00233
   D50        3.13971  -0.00011   0.00000  -0.00025  -0.00025   3.13946
   D51        3.13971   0.00025   0.00000   0.00081   0.00081   3.14053
   D52       -0.00135   0.00019   0.00000   0.00049   0.00049  -0.00087
   D53        0.00282  -0.00026   0.00000  -0.00068  -0.00068   0.00214
   D54       -3.13967  -0.00006   0.00000  -0.00033  -0.00033  -3.14000
   D55       -3.13930  -0.00020   0.00000  -0.00036  -0.00036  -3.13965
   D56        0.00139   0.00001   0.00000  -0.00001  -0.00001   0.00139
   D57        0.00678   0.00037   0.00000   0.00040   0.00040   0.00718
   D58        3.14144  -0.00001   0.00000  -0.00015  -0.00015   3.14129
   D59       -3.13391   0.00017   0.00000   0.00005   0.00005  -3.13386
   D60        0.00075  -0.00021   0.00000  -0.00050  -0.00050   0.00026
   D61       -3.13765   0.00005   0.00000  -0.00005  -0.00005  -3.13770
   D62       -1.06970   0.00133   0.00000   0.00244   0.00244  -1.06726
   D63        1.07779  -0.00121   0.00000  -0.00277  -0.00277   1.07502
         Item               Value     Threshold  Converged?
 Maximum Force            0.040675     0.000450     NO 
 RMS     Force            0.007163     0.000300     NO 
 Maximum Displacement     0.222797     0.001800     NO 
 RMS     Displacement     0.039172     0.001200     NO 
 Predicted change in Energy=-6.754221D-03
 GradGradGradGradGradGradGradGradGradGradGradGradGradGradGradGradGradGrad

                          Input orientation:                          
 ---------------------------------------------------------------------
 Center     Atomic      Atomic             Coordinates (Angstroms)
 Number     Number       Type             X           Y           Z
 ---------------------------------------------------------------------
      1          6           0       -0.750809   -0.118621    0.220770
      2          6           0       -2.098608    0.313952    0.691291
      3          8           0       -2.299041    1.189634    1.521187
      4          6           0        0.237978    0.820989    0.283506
      5          6           0       -1.137738    2.973994   -1.326577
      6          1           0       -0.982132    3.592567   -2.216638
      7          1           0       -2.083391    2.433781   -1.435306
      8          1           0       -1.205389    3.624553   -0.449272
      9          7           0       -0.035790    2.021196   -1.158626
     10          1           0        0.021823    1.471205   -2.021253
     11          1           0        0.836112    2.563956   -1.166512
     12          6           0        1.693840    0.458993    0.250760
     13          6           0        2.322924   -0.065475   -0.886819
     14          6           0        3.687188   -0.363019   -0.871440
     15          6           0        4.439668   -0.132162    0.278355
     16          6           0        3.828700    0.398977    1.412405
     17          6           0        2.464658    0.696780    1.397207
     18          1           0        1.754411   -0.249012   -1.795444
     19          1           0        4.161721   -0.776608   -1.758422
     20          1           0        5.501920   -0.365904    0.290620
     21          1           0        4.413337    0.581866    2.311226
     22          1           0        2.002664    1.111030    2.291815
     23          1           0        0.019871    1.695798    0.916580
     24         35           0       -0.541795   -1.881790   -0.390438
     25          8           0       -3.083689   -0.380276    0.063877
     26          6           0       -4.403007   -0.020559    0.463129
     27          1           0       -5.104017   -0.642831   -0.101006
     28          1           0       -4.548722   -0.210724    1.532004
     29          1           0       -4.603045    1.031080    0.230610
 ---------------------------------------------------------------------
                    Distance matrix (angstroms):
                    1          2          3          4          5
     1  C    0.000000
     2  C    1.491667   0.000000
     3  O    2.408244   1.222997   0.000000
     4  C    1.365468   2.425491   2.846791   0.000000
     5  C    3.479693   3.474318   3.555605   3.019998   0.000000
     6  H    4.446052   4.522376   4.634617   3.926962   1.095013
     7  H    3.321614   3.002719   3.214849   3.308197   1.094493
     8  H    3.829745   3.613697   3.317772   3.237320   1.094288
     9  N    2.644391   3.254550   3.604885   1.896099   1.466397
    10  H    2.855026   3.632266   4.244358   2.404458   2.021270
    11  H    3.411611   4.138421   4.352203   2.344835   2.022334
    12  C    2.512140   3.820702   4.253343   1.500549   4.102566
    13  C    3.267632   4.710026   5.360631   2.549996   4.626871
    14  C    4.576950   6.031239   6.631013   3.825287   5.884107
    15  C    5.190814   6.566474   6.978680   4.308448   6.582664
    16  C    4.760232   5.971617   6.179497   3.787584   6.228823
    17  C    3.519675   4.633386   4.790731   2.492762   5.057861
    18  H    3.218423   4.620231   5.431410   2.786845   4.355701
    19  H    5.336956   6.810443   7.507556   4.702929   6.506748
    20  H    6.258007   7.641385   8.049161   5.396096   7.606267
    21  H    5.615078   6.715758   6.785984   4.647844   7.054808
    22  H    3.658263   4.474086   4.370895   2.689154   5.140576
    23  H    2.090506   2.539332   2.449307   1.101656   2.829416
    24  Br   1.877772   2.900877   4.021924   2.892621   4.980978
    25  O    2.352745   1.358671   2.281237   3.539032   4.119614
    26  C    3.661544   2.339703   2.647777   4.720086   4.778325
    27  H    4.396448   3.252023   3.722543   5.552255   5.505890
    28  H    4.018950   2.642942   2.649940   5.053283   5.472543
    29  H    4.020153   2.645506   2.645593   4.845868   4.267095
                    6          7          8          9         10
     6  H    0.000000
     7  H    1.779336   0.000000
     8  H    1.781698   1.777945   0.000000
     9  N    2.117583   2.107000   2.107580   0.000000
    10  H    2.355054   2.387848   2.934976   1.024664   0.000000
    11  H    2.338123   2.934740   2.409777   1.027066   1.608650
    12  C    4.802932   4.583676   4.349292   2.723686   2.997041
    13  C    5.106181   5.095364   5.124133   3.160951   2.990550
    14  C    6.265681   6.437361   6.325841   4.430296   4.256917
    15  C    7.035233   7.216024   6.819751   5.170260   5.232240
    16  C    6.820049   6.870423   6.261967   4.916918   5.237556
    17  C    5.772852   5.632500   5.044857   3.812951   4.272358
    18  H    4.735377   4.696361   5.057380   2.960440   2.451937
    19  H    6.764530   7.029398   7.063282   5.080016   4.718103
    20  H    7.999923   8.267648   7.839590   6.201999   6.225045
    21  H    7.660089   7.724867   6.960486   5.822910   6.232712
    22  H    5.949217   5.686559   4.911513   4.109652   4.759834
    23  H    3.797209   3.240324   2.662125   2.101300   2.946407
    24  Br   5.787701   4.700257   5.546497   4.009919   3.770914
    25  O    5.039918   3.341716   4.453088   4.068326   4.173722
    26  C    5.651391   3.874075   4.933972   5.086398   5.289295
    27  H    6.277295   4.513322   5.790610   5.822588   5.867771
    28  H    6.421674   4.677199   5.460099   5.708547   6.028632
    29  H    5.065693   3.330390   4.328095   4.875461   5.162751
                   11         12         13         14         15
    11  H    0.000000
    12  C    2.678661   0.000000
    13  C    3.033602   1.401749   0.000000
    14  C    4.096692   2.430735   1.396418   0.000000
    15  C    4.726765   2.808878   2.417164   1.393396   0.000000
    16  C    4.504834   2.431182   2.787384   2.411765   1.393362
    17  C    3.565271   1.401800   2.412031   2.786487   2.416534
    18  H    3.025164   2.166077   1.087424   2.145322   3.394834
    19  H    4.750726   3.413789   2.155591   1.087646   2.154305
    20  H    5.698866   3.896603   3.403327   2.154912   1.087734
    21  H    5.368415   3.414130   3.875096   3.398451   2.154784
    22  H    3.928341   2.164817   3.404474   3.875129   3.396841
    23  H    2.399838   2.185218   3.414438   4.570007   4.825285
    24  Br   4.718641   3.299767   3.428121   4.519106   5.321978
    25  O    5.054425   4.854285   5.498581   6.835195   7.530502
    26  C    6.064967   6.119364   6.860214   8.206681   8.845309
    27  H    6.834027   6.895551   7.490682   8.829335   9.564864
    28  H    6.631537   6.407783   7.286380   8.580789   9.075735
    29  H    5.821176   6.322851   7.100714   8.478560   9.117350
                   16         17         18         19         20
    16  C    0.000000
    17  C    1.396255   0.000000
    18  H    3.874643   3.404701   0.000000
    19  H    3.398095   3.874131   2.464725   0.000000
    20  H    2.154787   3.402762   4.290588   2.482617   0.000000
    21  H    1.087717   2.155455   4.962357   4.297767   2.483169
    22  H    2.148206   1.088745   4.314745   4.962774   4.293123
    23  H    4.053982   2.684404   3.761116   5.515737   5.890272
    24  Br   5.249130   4.345510   3.148423   5.021540   6.268033
    25  O    7.085682   5.807062   5.184739   7.481565   8.588615
    26  C    8.296875   6.967919   6.562556   8.880398   9.912447
    27  H    9.119716   7.830967   7.075610   9.413757  10.616777
    28  H    8.400431   7.073134   7.127612   9.328394  10.128204
    29  H    8.537594   7.171132   6.794172   9.167612  10.201249
                   21         22         23         24         25
    21  H    0.000000
    22  H    2.468144   0.000000
    23  H    4.742197   2.482881   0.000000
    24  Br   6.158078   4.756651   3.850052   0.000000
    25  O    7.885538   5.749669   3.830049   2.987000   0.000000
    26  C    9.028084   6.757012   4.765852   4.370551   1.424570
    27  H    9.894382   7.701074   5.723539   4.736313   2.043978
    28  H    9.030719   6.726441   4.988548   4.748021   2.080977
    29  H    9.264227   6.920286   4.720567   5.036295   2.080425
                   26         27         28         29
    26  C    0.000000
    27  H    1.094023   0.000000
    28  H    1.095394   1.778142   0.000000
    29  H    1.095457   1.778460   1.799626   0.000000
 Stoichiometry    C11H14BrNO2
 Framework group  C1[X(C11H14BrNO2)]
 Deg. of freedom    81
 Full point group                 C1      NOp   1
 Largest Abelian subgroup         C1      NOp   1
 Largest concise Abelian subgroup C1      NOp   1
                         Standard orientation:                         
 ---------------------------------------------------------------------
 Center     Atomic      Atomic             Coordinates (Angstroms)
 Number     Number       Type             X           Y           Z
 ---------------------------------------------------------------------
      1          6           0       -0.748021   -0.117805    0.229991
      2          6           0       -2.095519    0.322349    0.694298
      3          8           0       -2.295383    1.210596    1.510873
      4          6           0        0.241125    0.822286    0.278167
      5          6           0       -1.134304    2.951118   -1.363984
      6          1           0       -0.978747    3.556058   -2.263375
      7          1           0       -2.080186    2.409663   -1.464221
      8          1           0       -1.201453    3.614937   -0.496631
      9          7           0       -0.032650    2.000575   -1.181927
     10          1           0        0.024502    1.437537   -2.036127
     11          1           0        0.839446    2.542834   -1.198308
     12          6           0        1.696846    0.459303    0.250481
     13          6           0        2.325394   -0.082594   -0.879198
     14          6           0        3.689554   -0.380370   -0.859715
     15          6           0        4.442469   -0.132370    0.286220
     16          6           0        3.832039    0.416137    1.412263
     17          6           0        2.468100    0.714175    1.392957
     18          1           0        1.756537   -0.279689   -1.784763
     19          1           0        4.163667   -0.807543   -1.740462
     20          1           0        5.504640   -0.366287    0.301711
     21          1           0        4.417017    0.612430    2.308030
     22          1           0        2.006529    1.142119    2.281315
     23          1           0        0.023527    1.706680    0.897961
     24         35           0       -0.539830   -1.890121   -0.354458
     25          8           0       -3.081043   -0.380958    0.077786
     26          6           0       -4.400109   -0.014742    0.471929
     27          1           0       -5.101516   -0.645245   -0.082489
     28          1           0       -4.545566   -0.188614    1.543610
     29          1           0       -4.599838    1.033322    0.223541
 ---------------------------------------------------------------------
 Rotational constants (GHZ):           0.6898803           0.3035288           0.2524931
 Standard basis: STO-3G (5D, 7F)
 There are   103 symmetry adapted cartesian basis functions of A   symmetry.
 There are   102 symmetry adapted basis functions of A   symmetry.
   102 basis functions,   309 primitive gaussians,   103 cartesian basis functions
    69 alpha electrons       69 beta electrons
       nuclear repulsion energy      1360.9948770294 Hartrees.
 NAtoms=   29 NActive=   29 NUniq=   29 SFac= 1.00D+00 NAtFMM=   60 NAOKFM=F Big=F
 Integral buffers will be    131072 words long.
 Raffenetti 1 integral format.
 Two-electron integral symmetry is turned on.
 External calculation of energy, first and second derivatives.
 Running external command "~/scripts/MiMe -H 'wb97xd def2svp' -EF 'wb97xd def2svp' -c 12 -m 48GB R"
         input file       "/local/jobs/1158123/Gau-1355789.EIn"
         output file      "/local/jobs/1158123/Gau-1355789.EOu"
         message file     "/local/jobs/1158123/Gau-1355789.EMs"
         fchk file        "/local/jobs/1158123/Gau-1355789.EFC"
         mat. el file     "/local/jobs/1158123/Gau-1355789.EUF"
 Read checkpoint file Gau-1355789_H.chk type G16
 Write formatted file Gau-1355789_H.fchk

deriv: 2

spelevel: wb97xd def2svp
gradlevel: wb97xd def2svp
hesslevel: wb97xd def2svp

runspe: False
runforce: False
runfreq: True

Running Gaussian ...

Parsing files ...
SPE file: Gau-1355789_H.out
FORCE file: Gau-1355789_H.out
HESS file: Gau-1355789_H.out

 ExternalExternalExternalExternalExternalExternalExternalExternalExternalExternal
 Output from external command:
 "~/scripts/MiMe -H 'wb97xd def2svp' -EF 'wb97xd def2svp' -c 12 -m 48GB R /local/jobs/1158123/Gau-1355789.EIn /local/jobs/1158123/Gau-1355789.EOu /local/jobs/1158123/Gau-1355789.EMs /local/jobs/1158123/Gau-1355789.EFC /local/jobs/1158123/Gau-1355789.EUF"
  
 --------------------------------------------------
 Hessian calculation at wb97xd def2svp
 ExternalExternalExternalExternalExternalExternalExternalExternalExternalExternal

 Recovered energy= -3205.97222132     dipole=      1.708900000000      4.067400000000     -3.585800000000
 Energy=    -3205.97222     NIter=   0.
 Dipole moment=       1.708900       4.067400      -3.585800
 ***** Axes restored to original set *****
 -------------------------------------------------------------------
 Center     Atomic                   Forces (Hartrees/Bohr)
 Number     Number              X              Y              Z
 -------------------------------------------------------------------
      1        6          -0.032300086    0.003069883    0.022138005
      2        6           0.016564378   -0.010924938   -0.002081539
      3        8          -0.002978284   -0.008897225   -0.018812583
      4        6           0.005725048   -0.006654633    0.026120466
      5        6          -0.001068828   -0.005949313    0.007013852
      6        1          -0.001628585    0.003304568   -0.003099570
      7        1          -0.002191524   -0.002162693    0.001125921
      8        1          -0.000747917    0.000581166    0.002975737
      9        7           0.023322060    0.030766703   -0.045455612
     10        1          -0.000317913   -0.004219990    0.004157433
     11        1          -0.000927819   -0.001805357    0.000202002
     12        6          -0.002069272    0.010574672   -0.007492364
     13        6           0.004150261    0.000114894    0.003361158
     14        6          -0.003900313    0.002068737    0.003347105
     15        6          -0.001581610   -0.000054023   -0.000425092
     16        6          -0.005475545   -0.001133475   -0.002905329
     17        6           0.004729676   -0.001260054   -0.002134099
     18        1          -0.003019419   -0.001312486   -0.002052202
     19        1           0.001021493   -0.001096458   -0.002719129
     20        1           0.003115654   -0.000571319   -0.000062866
     21        1           0.001302438    0.000637535    0.002671175
     22        1          -0.002811499    0.001274010    0.001358033
     23        1          -0.000216700   -0.012068510    0.007164567
     24       35           0.002634433   -0.004878725   -0.007170684
     25        8          -0.007168560    0.012865748    0.013361602
     26        6           0.005053859   -0.005910675   -0.003624712
     27        1           0.001694762   -0.003015680   -0.002860043
     28        1          -0.000471374    0.002994111    0.003178875
     29        1          -0.000438818    0.003663530    0.002719889
 -------------------------------------------------------------------
 Cartesian Forces:  Max     0.045455612 RMS     0.009609659
 FormGI is forming the generalized inverse of G from B-inverse, IUseBI=4.

 GradGradGradGradGradGradGradGradGradGradGradGradGradGradGradGradGradGrad
 Berny optimization.
 Internal  Forces:  Max     0.035772097 RMS     0.006143300
 Search for a saddle point.
 Step number   2 out of a maximum of   50
 All quantities printed in internal units (Hartrees-Bohrs-Radians)
 Swapping is turned off.
 Second derivative matrix not updated -- analytic derivatives used.
 ITU=  0  0
     Eigenvalues ---   -0.03131  -0.00070   0.00168   0.00190   0.00197
     Eigenvalues ---    0.00334   0.00855   0.01011   0.01430   0.01628
     Eigenvalues ---    0.01804   0.01836   0.01861   0.02162   0.02439
     Eigenvalues ---    0.02581   0.02732   0.02947   0.03038   0.03103
     Eigenvalues ---    0.04383   0.04652   0.04818   0.04822   0.05569
     Eigenvalues ---    0.07186   0.07942   0.08187   0.08611   0.09071
     Eigenvalues ---    0.09647   0.11066   0.11512   0.11804   0.12259
     Eigenvalues ---    0.12415   0.12663   0.12963   0.13297   0.15383
     Eigenvalues ---    0.17357   0.17541   0.17806   0.18104   0.18652
     Eigenvalues ---    0.18760   0.19260   0.19595   0.19706   0.22597
     Eigenvalues ---    0.24896   0.25047   0.26197   0.28988   0.29653
     Eigenvalues ---    0.31925   0.33907   0.34891   0.35041   0.35415
     Eigenvalues ---    0.35439   0.35843   0.35905   0.37105   0.37315
     Eigenvalues ---    0.37336   0.37337   0.37454   0.37563   0.38200
     Eigenvalues ---    0.40057   0.42778   0.43228   0.43328   0.44144
     Eigenvalues ---    0.47196   0.48904   0.49076   0.52558   0.57795
     Eigenvalues ---    0.81663
 Eigenvectors required to have negative eigenvalues:
                          R6        A19       A11       D6        A21
   1                   -0.76993  -0.27139   0.17541  -0.15820   0.14654
                          D10       D26       D2        D27       D1
   1                    0.14109  -0.13696   0.12681  -0.12520   0.12171
 RFO step:  Lambda0=2.085081679D-03 Lambda=-3.20616956D-02.
 Linear search not attempted -- option 19 set.
 Maximum step size (   0.100) exceeded in Quadratic search.
    -- Step size scaled by   0.207
 Iteration  1 RMS(Cart)=  0.03581416 RMS(Int)=  0.00114558
 Iteration  2 RMS(Cart)=  0.00178299 RMS(Int)=  0.00010375
 Iteration  3 RMS(Cart)=  0.00000422 RMS(Int)=  0.00010373
 Iteration  4 RMS(Cart)=  0.00000000 RMS(Int)=  0.00010373
 Variable       Old X    -DE/DX   Delta X   Delta X   Delta X     New X
                                 (Linear)    (Quad)   (Total)
    R1        2.81884  -0.01631   0.00000  -0.01341  -0.01341   2.80543
    R2        2.58036   0.01988   0.00000   0.00658   0.00658   2.58694
    R3        3.54847   0.00721   0.00000   0.00711   0.00711   3.55559
    R4        2.31113  -0.01865   0.00000  -0.00207  -0.00207   2.30905
    R5        2.56752  -0.01035   0.00000  -0.00426  -0.00426   2.56325
    R6        3.58311   0.03577   0.00000   0.01909   0.01909   3.60220
    R7        2.83563  -0.00648   0.00000  -0.00344  -0.00344   2.83219
    R8        2.08183  -0.00542   0.00000  -0.00204  -0.00204   2.07979
    R9        2.06928   0.00415   0.00000   0.00200   0.00200   2.07128
   R10        2.06829   0.00285   0.00000   0.00195   0.00195   2.07024
   R11        2.06790   0.00278   0.00000   0.00133   0.00133   2.06923
   R12        2.77109   0.00057   0.00000  -0.00571  -0.00571   2.76538
   R13        1.93633  -0.00125   0.00000  -0.00135  -0.00135   1.93498
   R14        1.94087  -0.00174   0.00000  -0.00181  -0.00181   1.93906
   R15        2.64892  -0.00195   0.00000  -0.00073  -0.00073   2.64819
   R16        2.64902  -0.00206   0.00000  -0.00075  -0.00075   2.64827
   R17        2.63885  -0.00245   0.00000  -0.00115  -0.00115   2.63770
   R18        2.05493   0.00352   0.00000   0.00171   0.00171   2.05664
   R19        2.63314   0.00025   0.00000   0.00026   0.00026   2.63340
   R20        2.05535   0.00308   0.00000   0.00161   0.00161   2.05696
   R21        2.63307   0.00099   0.00000   0.00024   0.00024   2.63331
   R22        2.05552   0.00316   0.00000   0.00156   0.00156   2.05708
   R23        2.63854  -0.00291   0.00000  -0.00110  -0.00110   2.63744
   R24        2.05549   0.00301   0.00000   0.00157   0.00157   2.05706
   R25        2.05743   0.00279   0.00000   0.00149   0.00149   2.05892
   R26        2.69205  -0.00614   0.00000  -0.00470  -0.00470   2.68735
   R27        2.06740   0.00210   0.00000   0.00095   0.00095   2.06835
   R28        2.06999   0.00265   0.00000   0.00164   0.00164   2.07164
   R29        2.07011   0.00302   0.00000   0.00180   0.00180   2.07191
    A1        2.02668   0.00422   0.00000   0.00552   0.00551   2.03219
    A2        2.06637   0.00318   0.00000   0.00421   0.00421   2.07058
    A3        2.19011  -0.00739   0.00000  -0.00969  -0.00970   2.18041
    A4        2.17702  -0.00020   0.00000  -0.00047  -0.00047   2.17655
    A5        1.94042   0.01393   0.00000   0.00947   0.00947   1.94989
    A6        2.16565  -0.01376   0.00000  -0.00903  -0.00903   2.15662
    A7        1.87138   0.01491   0.00000   0.01244   0.01252   1.88390
    A8        2.13597   0.00496   0.00000   0.01080   0.01084   2.14682
    A9        2.01470  -0.00574   0.00000  -0.01510  -0.01525   1.99944
   A10        1.85062  -0.02145   0.00000  -0.02457  -0.02458   1.82604
   A11        1.47650   0.00836   0.00000   0.01833   0.01842   1.49492
   A12        1.97816  -0.00051   0.00000   0.00026   0.00039   1.97856
   A13        1.89742  -0.00051   0.00000   0.00024   0.00025   1.89767
   A14        1.90139  -0.00065   0.00000   0.00197   0.00197   1.90336
   A15        1.93195   0.00440   0.00000   0.00581   0.00582   1.93777
   A16        1.89617  -0.00002   0.00000  -0.00133  -0.00134   1.89483
   A17        1.91766  -0.00216   0.00000  -0.00522  -0.00522   1.91244
   A18        1.91869  -0.00112   0.00000  -0.00153  -0.00154   1.91715
   A19        2.22295  -0.02266   0.00000  -0.07267  -0.07272   2.15022
   A20        1.86756   0.00311   0.00000   0.01688   0.01628   1.88384
   A21        1.79033   0.00705   0.00000   0.02883   0.02903   1.81936
   A22        1.86982   0.01031   0.00000   0.01520   0.01470   1.88452
   A23        1.86888   0.00728   0.00000   0.01925   0.01965   1.88853
   A24        1.80231  -0.00217   0.00000   0.00659   0.00603   1.80835
   A25        2.14527  -0.00027   0.00000   0.00028   0.00028   2.14555
   A26        2.06546  -0.00067   0.00000  -0.00011  -0.00011   2.06534
   A27        2.07191   0.00096   0.00000  -0.00006  -0.00006   2.07185
   A28        2.10509  -0.00008   0.00000   0.00006   0.00006   2.10515
   A29        2.10206  -0.00113   0.00000  -0.00140  -0.00140   2.10067
   A30        2.07603   0.00120   0.00000   0.00133   0.00133   2.07735
   A31        2.09599   0.00011   0.00000   0.00040   0.00040   2.09639
   A32        2.09242  -0.00045   0.00000  -0.00060  -0.00060   2.09182
   A33        2.09477   0.00034   0.00000   0.00020   0.00020   2.09497
   A34        2.09205  -0.00108   0.00000  -0.00082  -0.00082   2.09123
   A35        2.09565   0.00048   0.00000   0.00034   0.00034   2.09599
   A36        2.09549   0.00060   0.00000   0.00047   0.00047   2.09596
   A37        2.09533   0.00029   0.00000   0.00015   0.00015   2.09548
   A38        2.09551   0.00025   0.00000   0.00026   0.00026   2.09577
   A39        2.09234  -0.00054   0.00000  -0.00041  -0.00041   2.09193
   A40        2.10588  -0.00020   0.00000   0.00029   0.00029   2.10617
   A41        2.09811  -0.00183   0.00000  -0.00255  -0.00255   2.09556
   A42        2.07917   0.00203   0.00000   0.00226   0.00226   2.08143
   A43        1.99657   0.00551   0.00000   0.00509   0.00509   2.00166
   A44        1.88103  -0.00539   0.00000  -0.00477  -0.00476   1.87627
   A45        1.93140   0.00185   0.00000   0.00214   0.00214   1.93354
   A46        1.93054   0.00163   0.00000   0.00197   0.00197   1.93251
   A47        1.89567   0.00276   0.00000   0.00359   0.00360   1.89926
   A48        1.89608   0.00286   0.00000   0.00382   0.00382   1.89991
   A49        1.92782  -0.00368   0.00000  -0.00661  -0.00660   1.92122
    D1       -0.47543   0.00533   0.00000   0.01592   0.01591  -0.45952
    D2        2.65179   0.00306   0.00000   0.01394   0.01392   2.66571
    D3        2.65932   0.00665   0.00000   0.02140   0.02142   2.68075
    D4       -0.49664   0.00439   0.00000   0.01943   0.01944  -0.47720
    D5       -1.33008  -0.00869   0.00000  -0.02238  -0.02231  -1.35239
    D6        2.81309   0.00363   0.00000  -0.00781  -0.00783   2.80526
    D7        0.27898   0.00635   0.00000  -0.00010  -0.00019   0.27879
    D8        1.81890  -0.01017   0.00000  -0.02837  -0.02828   1.79062
    D9       -0.32112   0.00215   0.00000  -0.01380  -0.01380  -0.33492
   D10       -2.85523   0.00487   0.00000  -0.00609  -0.00616  -2.86138
   D11       -3.14155  -0.00045   0.00000  -0.00587  -0.00587   3.13576
   D12       -0.01422  -0.00257   0.00000  -0.00775  -0.00775  -0.02197
   D13        1.19020  -0.00275   0.00000  -0.05656  -0.05633   1.13386
   D14       -1.05075  -0.00052   0.00000  -0.02914  -0.02900  -1.07974
   D15       -2.94103  -0.00197   0.00000  -0.05347  -0.05361  -2.99463
   D16       -2.78464  -0.00118   0.00000  -0.05151  -0.05132  -2.83597
   D17        1.25760   0.00105   0.00000  -0.02409  -0.02398   1.23361
   D18       -0.63268  -0.00040   0.00000  -0.04841  -0.04859  -0.68128
   D19       -0.81659   0.00018   0.00000  -0.04670  -0.04666  -0.86326
   D20       -3.05754   0.00241   0.00000  -0.01928  -0.01933  -3.07687
   D21        1.33537   0.00096   0.00000  -0.04360  -0.04394   1.29143
   D22        1.19409   0.00189   0.00000  -0.00447  -0.00447   1.18962
   D23       -1.98368   0.00280   0.00000  -0.00062  -0.00062  -1.98430
   D24       -0.95552  -0.00255   0.00000  -0.00691  -0.00689  -0.96240
   D25        2.14990  -0.00164   0.00000  -0.00306  -0.00303   2.14686
   D26       -2.54361  -0.00246   0.00000  -0.01695  -0.01697  -2.56058
   D27        0.56180  -0.00155   0.00000  -0.01309  -0.01312   0.54868
   D28        3.05667   0.00183   0.00000   0.01710   0.01702   3.07369
   D29       -0.98645  -0.00322   0.00000  -0.00976  -0.00973  -0.99618
   D30        0.93755   0.00208   0.00000   0.01293   0.01300   0.95054
   D31       -1.13070   0.00260   0.00000   0.01773   0.01764  -1.11306
   D32        1.10937  -0.00245   0.00000  -0.00913  -0.00912   1.10026
   D33        3.03337   0.00285   0.00000   0.01355   0.01361   3.04698
   D34        0.95524   0.00054   0.00000   0.01191   0.01182   0.96706
   D35       -3.08788  -0.00451   0.00000  -0.01496  -0.01493  -3.10281
   D36       -1.16389   0.00079   0.00000   0.00773   0.00780  -1.15609
   D37        3.12110   0.00074   0.00000   0.00209   0.00209   3.12319
   D38       -0.02276   0.00010   0.00000  -0.00071  -0.00070  -0.02346
   D39        0.01582  -0.00014   0.00000  -0.00178  -0.00178   0.01404
   D40       -3.12804  -0.00078   0.00000  -0.00457  -0.00457  -3.13261
   D41       -3.12298  -0.00098   0.00000  -0.00263  -0.00262  -3.12560
   D42        0.02618  -0.00067   0.00000  -0.00215  -0.00215   0.02402
   D43       -0.01601  -0.00013   0.00000   0.00107   0.00107  -0.01494
   D44        3.13314   0.00018   0.00000   0.00154   0.00154   3.13468
   D45       -0.00680   0.00024   0.00000   0.00117   0.00117  -0.00563
   D46        3.13353  -0.00004   0.00000   0.00011   0.00011   3.13364
   D47        3.13703   0.00087   0.00000   0.00393   0.00393   3.14096
   D48       -0.00583   0.00059   0.00000   0.00287   0.00287  -0.00296
   D49       -0.00233  -0.00003   0.00000   0.00017   0.00017  -0.00216
   D50        3.13946  -0.00010   0.00000  -0.00032  -0.00032   3.13915
   D51        3.14053   0.00024   0.00000   0.00123   0.00123  -3.14143
   D52       -0.00087   0.00018   0.00000   0.00074   0.00074  -0.00012
   D53        0.00214  -0.00024   0.00000  -0.00087  -0.00087   0.00127
   D54       -3.14000  -0.00006   0.00000  -0.00048  -0.00048  -3.14049
   D55       -3.13965  -0.00018   0.00000  -0.00038  -0.00038  -3.14004
   D56        0.00139   0.00001   0.00000   0.00000   0.00000   0.00139
   D57        0.00718   0.00032   0.00000   0.00024   0.00024   0.00743
   D58        3.14129  -0.00000   0.00000  -0.00024  -0.00024   3.14105
   D59       -3.13386   0.00014   0.00000  -0.00014  -0.00014  -3.13400
   D60        0.00026  -0.00019   0.00000  -0.00063  -0.00063  -0.00038
   D61       -3.13770   0.00005   0.00000   0.00048   0.00048  -3.13723
   D62       -1.06726   0.00119   0.00000   0.00317   0.00317  -1.06409
   D63        1.07502  -0.00108   0.00000  -0.00240  -0.00240   1.07262
         Item               Value     Threshold  Converged?
 Maximum Force            0.035772     0.000450     NO 
 RMS     Force            0.006143     0.000300     NO 
 Maximum Displacement     0.203019     0.001800     NO 
 RMS     Displacement     0.036383     0.001200     NO 
 Predicted change in Energy=-5.973435D-03
 GradGradGradGradGradGradGradGradGradGradGradGradGradGradGradGradGradGrad

                          Input orientation:                          
 ---------------------------------------------------------------------
 Center     Atomic      Atomic             Coordinates (Angstroms)
 Number     Number       Type             X           Y           Z
 ---------------------------------------------------------------------
      1          6           0       -0.762607   -0.107028    0.204487
      2          6           0       -2.101585    0.325369    0.677903
      3          8           0       -2.297075    1.204259    1.503962
      4          6           0        0.238104    0.824608    0.272749
      5          6           0       -1.141120    2.923450   -1.315465
      6          1           0       -1.034084    3.580203   -2.186438
      7          1           0       -2.051813    2.326348   -1.434962
      8          1           0       -1.242746    3.537850   -0.414803
      9          7           0        0.013935    2.034779   -1.182876
     10          1           0        0.104234    1.502028   -2.052641
     11          1           0        0.862056    2.612042   -1.164141
     12          6           0        1.692523    0.463968    0.244479
     13          6           0        2.325115   -0.061865   -0.890042
     14          6           0        3.688433   -0.360575   -0.869494
     15          6           0        4.437200   -0.130996    0.283146
     16          6           0        3.821738    0.400200    1.414893
     17          6           0        2.458771    0.699838    1.393899
     18          1           0        1.757507   -0.247675   -1.799851
     19          1           0        4.165598   -0.775533   -1.755466
     20          1           0        5.499917   -0.366220    0.299495
     21          1           0        4.402802    0.582197    2.317210
     22          1           0        1.990863    1.114230    2.286327
     23          1           0        0.015222    1.689021    0.916475
     24         35           0       -0.556465   -1.864571   -0.434826
     25          8           0       -3.097022   -0.362643    0.065035
     26          6           0       -4.409353   -0.002929    0.478214
     27          1           0       -5.113267   -0.626922   -0.081361
     28          1           0       -4.544948   -0.190570    1.549755
     29          1           0       -4.612295    1.050505    0.251929
[...]
     4   6    -0.00   0.00  -0.00    -0.00   0.00   0.00    -0.00   0.00  -0.00
     5   6     0.00   0.00  -0.00    -0.00   0.00   0.00    -0.04  -0.05   0.07
     6   1    -0.00  -0.00   0.00     0.00   0.00  -0.00     0.05   0.56  -0.47
     7   1    -0.00  -0.00  -0.00    -0.00  -0.00  -0.00     0.22   0.23   0.12
     8   1    -0.00   0.00   0.01     0.00  -0.00  -0.00     0.16  -0.19  -0.53
     9   7    -0.00   0.00   0.00     0.00  -0.00  -0.00     0.00   0.00  -0.00
    10   1     0.00  -0.00  -0.00    -0.00   0.00   0.00     0.00   0.01   0.02
    11   1     0.00   0.00  -0.00    -0.00  -0.00   0.00    -0.01  -0.01  -0.00
    12   6    -0.00  -0.00   0.00     0.00   0.00  -0.00    -0.00  -0.00  -0.00
    13   6    -0.01   0.05  -0.07     0.00  -0.01   0.01     0.00   0.00  -0.00
    14   6    -0.01  -0.01   0.02    -0.02  -0.00   0.02    -0.00  -0.00   0.00
    15   6     0.00  -0.00   0.00     0.04  -0.02   0.01     0.00  -0.00   0.00
    16   6    -0.00   0.00  -0.00    -0.01   0.03  -0.04     0.00  -0.00   0.00
    17   6    -0.00  -0.00   0.00    -0.03  -0.01   0.03     0.00   0.00  -0.00
    18   1     0.15  -0.53   0.78    -0.03   0.08  -0.12     0.00  -0.00   0.00
    19   1     0.19   0.05  -0.18     0.21   0.05  -0.20     0.02   0.00  -0.02
    20   1    -0.06   0.02  -0.01    -0.48   0.20  -0.07    -0.02   0.01  -0.00
    21   1     0.01  -0.02   0.03     0.12  -0.36   0.50    -0.00   0.01  -0.01
    22   1     0.01   0.00  -0.01     0.34   0.10  -0.30    -0.02  -0.01   0.02
    23   1     0.00  -0.00   0.00     0.00  -0.00  -0.00    -0.00   0.00  -0.00
    24  35    -0.00  -0.00   0.00     0.00   0.00   0.00     0.00  -0.00  -0.00
    25   8     0.00   0.00  -0.00    -0.00  -0.00   0.00    -0.00  -0.00  -0.00
    26   6    -0.00   0.00  -0.00     0.00   0.00  -0.00     0.00   0.00   0.00
    27   1     0.00   0.00  -0.00    -0.00  -0.00  -0.00    -0.00  -0.00  -0.00
    28   1     0.00  -0.00   0.00     0.00   0.00   0.00    -0.00   0.00  -0.00
    29   1     0.00  -0.00   0.00    -0.00   0.00   0.00     0.00   0.00   0.00
                     76                     77                     78
                      A                      A                      A
 Frequencies --   3213.5093              3221.4590              3222.0832
 Red. masses --      1.0919                 1.0969                 1.1078
 Frc consts  --      6.6435                 6.7068                 6.7762
 IR Inten    --      0.0000                 0.0000                 0.0000
  Atom  AN      X      Y      Z        X      Y      Z        X      Y      Z
     1   6    -0.00   0.00  -0.00    -0.00   0.00  -0.00     0.00  -0.00   0.00
     2   6     0.00  -0.00  -0.00     0.00  -0.00  -0.00     0.00   0.00   0.00
     3   8    -0.00   0.00   0.00    -0.00   0.00   0.00     0.00  -0.00  -0.00
     4   6    -0.00   0.00   0.00    -0.00  -0.00   0.00    -0.00  -0.00   0.00
     5   6    -0.00  -0.00   0.00     0.00   0.00   0.00    -0.03  -0.07  -0.06
     6   1     0.00   0.02  -0.02    -0.00  -0.01   0.00     0.00   0.07  -0.07
     7   1     0.01   0.01   0.00    -0.04  -0.04  -0.02     0.52   0.55   0.26
     8   1     0.01  -0.01  -0.02     0.01  -0.01  -0.04    -0.17   0.17   0.53
     9   7     0.00  -0.00   0.00     0.00  -0.00  -0.00     0.00   0.00   0.00
    10   1     0.00   0.00   0.00    -0.00   0.00   0.00    -0.00  -0.00  -0.01
    11   1     0.00  -0.00  -0.00    -0.00   0.00   0.00    -0.00  -0.01   0.00
    12   6    -0.00   0.00  -0.00    -0.00   0.00  -0.00    -0.00   0.00  -0.00
    13   6    -0.00   0.01  -0.01     0.00  -0.01   0.01     0.00  -0.00   0.00
    14   6     0.04   0.01  -0.03    -0.03  -0.01   0.03    -0.00  -0.00   0.00
    15   6    -0.04   0.01  -0.00    -0.02   0.01  -0.01    -0.00   0.00  -0.00
    16   6    -0.00   0.01  -0.02     0.01  -0.03   0.04     0.00  -0.00   0.00
    17   6    -0.04  -0.01   0.03    -0.04  -0.01   0.03    -0.00  -0.00   0.00
    18   1     0.03  -0.09   0.13    -0.02   0.07  -0.10    -0.00   0.01  -0.01
    19   1    -0.42  -0.11   0.39     0.39   0.10  -0.37     0.03   0.01  -0.03
    20   1     0.42  -0.17   0.06     0.23  -0.10   0.04     0.02  -0.01   0.00
    21   1     0.05  -0.15   0.21    -0.10   0.29  -0.40    -0.01   0.02  -0.03
    22   1     0.43   0.12  -0.38     0.44   0.12  -0.39     0.03   0.01  -0.03
    23   1     0.00  -0.00  -0.00     0.00  -0.00  -0.00    -0.00   0.00   0.00
    24  35     0.00   0.00   0.00     0.00   0.00   0.00     0.00  -0.00  -0.00
    25   8    -0.00  -0.00  -0.00    -0.00  -0.00   0.00    -0.00  -0.00  -0.00
    26   6    -0.00   0.00  -0.00     0.00  -0.00  -0.00     0.00   0.00   0.00
    27   1    -0.00  -0.00  -0.00    -0.00  -0.00  -0.00    -0.00  -0.00  -0.00
    28   1     0.00  -0.00   0.00     0.00  -0.00   0.00    -0.00   0.00  -0.00
    29   1     0.00  -0.00   0.00    -0.00   0.00  -0.00     0.00   0.00   0.00
                     79                     80                     81
                      A                      A                      A
 Frequencies --   3230.5628              3463.1732              3544.5446
 Red. masses --      1.1012                 1.0532                 1.0958
 Frc consts  --      6.7711                 7.4424                 8.1118
 IR Inten    --      0.0000                 0.0000                 0.0000
  Atom  AN      X      Y      Z        X      Y      Z        X      Y      Z
     1   6    -0.00   0.00   0.00    -0.00  -0.00   0.00    -0.00   0.00   0.00
     2   6     0.00   0.00  -0.00     0.00  -0.00  -0.00     0.00  -0.00  -0.00
     3   8    -0.00   0.00   0.00     0.00  -0.00  -0.00     0.00   0.00   0.00
     4   6     0.00  -0.00   0.00     0.00   0.00  -0.00     0.00  -0.00  -0.00
     5   6     0.00   0.00   0.00    -0.00   0.00  -0.00     0.00  -0.00  -0.00
     6   1    -0.00   0.00  -0.00    -0.00  -0.01   0.01     0.00   0.00  -0.00
     7   1    -0.00  -0.00  -0.00    -0.01  -0.00  -0.00     0.01   0.00   0.01
     8   1     0.00  -0.00  -0.00    -0.01   0.01   0.01    -0.01   0.00   0.01
     9   7    -0.00   0.00  -0.00     0.04   0.00  -0.04    -0.03  -0.06  -0.05
    10   1     0.00  -0.00  -0.00    -0.15   0.38   0.66    -0.13   0.30   0.53
    11   1     0.00   0.00   0.00    -0.45  -0.42  -0.10     0.56   0.52   0.12
    12   6     0.00  -0.00   0.00    -0.00   0.00   0.00     0.00  -0.00   0.00
    13   6     0.00  -0.01   0.01     0.00   0.00  -0.00    -0.00  -0.00   0.00
    14   6    -0.03  -0.01   0.03    -0.00  -0.00   0.00    -0.00  -0.00  -0.00
    15   6    -0.06   0.02  -0.01     0.00   0.00  -0.00    -0.00   0.00   0.00
    16   6    -0.01   0.03  -0.04    -0.00   0.00   0.00    -0.00  -0.00   0.00
    17   6     0.02   0.00  -0.02     0.00  -0.00  -0.00     0.00   0.00   0.00
    18   1    -0.02   0.05  -0.08     0.00  -0.00   0.00     0.00   0.00   0.00
    19   1     0.32   0.09  -0.31     0.00   0.00  -0.00    -0.00   0.00   0.00
    20   1     0.61  -0.25   0.09     0.00  -0.00   0.00     0.00   0.00   0.00
    21   1     0.09  -0.30   0.41     0.00  -0.00   0.00    -0.00   0.00  -0.00
    22   1    -0.20  -0.06   0.17    -0.00  -0.00   0.00     0.00   0.00  -0.00
    23   1    -0.00   0.00  -0.00    -0.00   0.00   0.01    -0.00   0.00   0.01
    24  35    -0.00  -0.00  -0.00     0.00   0.00  -0.00     0.00   0.00  -0.00
    25   8    -0.00  -0.00   0.00    -0.00  -0.00  -0.00    -0.00  -0.00  -0.00
    26   6     0.00   0.00   0.00     0.00   0.00  -0.00     0.00   0.00  -0.00
    27   1    -0.00  -0.00  -0.00    -0.00  -0.00  -0.00    -0.00  -0.00  -0.00
    28   1    -0.00   0.00   0.00     0.00  -0.00   0.00    -0.00   0.00  -0.00
    29   1    -0.00   0.00  -0.00     0.00  -0.00   0.00    -0.00   0.00   0.00

 -------------------
 - Thermochemistry -
 -------------------
 Temperature   298.150 Kelvin.  Pressure   1.00000 Atm.
 Atom     1 has atomic number  6 and mass  12.00000
 Atom     2 has atomic number  6 and mass  12.00000
 Atom     3 has atomic number  8 and mass  15.99491
 Atom     4 has atomic number  6 and mass  12.00000
 Atom     5 has atomic number  6 and mass  12.00000
 Atom     6 has atomic number  1 and mass   1.00783
 Atom     7 has atomic number  1 and mass   1.00783
 Atom     8 has atomic number  1 and mass   1.00783
 Atom     9 has atomic number  7 and mass  14.00307
 Atom    10 has atomic number  1 and mass   1.00783
 Atom    11 has atomic number  1 and mass   1.00783
 Atom    12 has atomic number  6 and mass  12.00000
 Atom    13 has atomic number  6 and mass  12.00000
 Atom    14 has atomic number  6 and mass  12.00000
 Atom    15 has atomic number  6 and mass  12.00000
 Atom    16 has atomic number  6 and mass  12.00000
 Atom    17 has atomic number  6 and mass  12.00000
 Atom    18 has atomic number  1 and mass   1.00783
 Atom    19 has atomic number  1 and mass   1.00783
 Atom    20 has atomic number  1 and mass   1.00783
 Atom    21 has atomic number  1 and mass   1.00783
 Atom    22 has atomic number  1 and mass   1.00783
 Atom    23 has atomic number  1 and mass   1.00783
 Atom    24 has atomic number 35 and mass  78.91834
 Atom    25 has atomic number  8 and mass  15.99491
 Atom    26 has atomic number  6 and mass  12.00000
 Atom    27 has atomic number  1 and mass   1.00783
 Atom    28 has atomic number  1 and mass   1.00783
 Atom    29 has atomic number  1 and mass   1.00783
 Molecular mass:   271.02079 amu.
 Principal axes and moments of inertia in atomic units:
                           1         2         3
     Eigenvalues --  2580.181526031.393756366.97203
           X            0.99981  -0.01787  -0.00724
           Y            0.01335   0.91230  -0.40930
           Z            0.01392   0.40913   0.91237
 This molecule is an asymmetric top.
 Rotational symmetry number  1.
 Warning -- assumption of classical behavior for rotation
           may cause significant error
 Rotational temperatures (Kelvin)      0.03357     0.01436     0.01360
 Rotational constants (GHZ):           0.69946     0.29922     0.28345
    1 imaginary frequencies ignored.
 Zero-point vibrational energy     625178.4 (Joules/Mol)
                                  149.42122 (Kcal/Mol)
 Warning -- explicit consideration of  20 degrees of freedom as
           vibrations may cause significant error
 Vibrational temperatures:     49.03    63.23   100.67   127.31   147.84
          (Kelvin)            171.22   191.23   216.66   240.16   265.31
                              318.78   401.70   458.59   477.19   491.66
                              592.46   598.72   601.61   685.13   863.27
                              895.96   917.97   957.79  1038.48  1088.72
                             1120.55  1125.11  1241.84  1246.33  1280.65
                             1354.93  1452.01  1456.96  1466.00  1494.99
                             1509.49  1534.46  1565.06  1601.27  1640.15
                             1660.80  1696.51  1706.04  1723.94  1728.19
                             1736.57  1768.13  1883.27  1899.81  1926.08
                             1952.93  1973.44  1992.06  2065.89  2089.41
                             2107.07  2113.16  2132.85  2146.56  2147.96
                             2170.16  2222.75  2325.08  2411.77  2448.76
                             2490.09  4383.58  4446.51  4464.11  4510.74
                             4569.76  4580.19  4611.81  4621.92  4623.52
                             4634.96  4635.86  4648.06  4982.73  5099.81
 
 Zero-point correction=                           0.238118 (Hartree/Particle)
 Thermal correction to Energy=                    0.253078
 Thermal correction to Enthalpy=                  0.254022
 Thermal correction to Gibbs Free Energy=         0.194113
 Sum of electronic and zero-point Energies=          -3205.751599
 Sum of electronic and thermal Energies=             -3205.736639
 Sum of electronic and thermal Enthalpies=           -3205.735695
 Sum of electronic and thermal Free Energies=        -3205.795604
 
                     E (Thermal)             CV                S
                      KCal/Mol        Cal/Mol-Kelvin    Cal/Mol-Kelvin
 Total                  158.809             54.055            126.090
 Electronic               0.000              0.000              0.000
 Translational            0.889              2.981             42.690
 Rotational               0.889              2.981             32.960
 Vibrational            157.031             48.093             50.440
 Vibration     1          0.594              1.983              5.577
 Vibration     2          0.595              1.980              5.073
 Vibration     3          0.598              1.968              4.154
 Vibration     4          0.601              1.957              3.693
 Vibration     5          0.605              1.947              3.401
 Vibration     6          0.609              1.933              3.117
 Vibration     7          0.613              1.920              2.904
 Vibration     8          0.618              1.902              2.665
 Vibration     9          0.624              1.883              2.470
 Vibration    10          0.631              1.861              2.283
 Vibration    11          0.648              1.808              1.946
 Vibration    12          0.680              1.712              1.539
 Vibration    13          0.705              1.638              1.317
 Vibration    14          0.714              1.612              1.252
 Vibration    15          0.721              1.592              1.204
 Vibration    16          0.776              1.445              0.920
 Vibration    17          0.779              1.435              0.905
 Vibration    18          0.781              1.431              0.898
 Vibration    19          0.833              1.303              0.720
 Vibration    20          0.958              1.032              0.450
                       Q            Log10(Q)             Ln(Q)
 Total Bot       0.518107D-89        -89.285580       -205.587647
 Total V=0       0.174157D+21         20.240940         46.606486
 Vib (Bot)       0.829117-104       -104.081384       -239.656244
 Vib (Bot)    1  0.607412D+01          0.783484          1.804038
 Vib (Bot)    2  0.470679D+01          0.672725          1.549007
 Vib (Bot)    3  0.294768D+01          0.469480          1.081017
 Vib (Bot)    4  0.232422D+01          0.366277          0.843385
 Vib (Bot)    5  0.199626D+01          0.300217          0.691276
 Vib (Bot)    6  0.171765D+01          0.234936          0.540959
 Vib (Bot)    7  0.153275D+01          0.185471          0.427063
 Vib (Bot)    8  0.134630D+01          0.129141          0.297358
 Vib (Bot)    9  0.120851D+01          0.082248          0.189384
 Vib (Bot)   10  0.108754D+01          0.036444          0.083916
 Vib (Bot)   11  0.892165D+00         -0.049555         -0.114104
 Vib (Bot)   12  0.688927D+00         -0.161827         -0.372619
 Vib (Bot)   13  0.590219D+00         -0.228987         -0.527262
 Vib (Bot)   14  0.562783D+00         -0.249659         -0.574861
 Vib (Bot)   15  0.542790D+00         -0.265368         -0.611033
 Vib (Bot)   16  0.429078D+00         -0.367464         -0.846116
 Vib (Bot)   17  0.423197D+00         -0.373458         -0.859919
 Vib (Bot)   18  0.420522D+00         -0.376211         -0.866259
 Vib (Bot)   19  0.352364D+00         -0.453008         -1.043089
 Vib (Bot)   20  0.248864D+00         -0.604037         -1.390848
 Vib (V=0)       0.278699D+06          5.445136         12.537889
 Vib (V=0)    1  0.659467D+01          0.819193          1.886262
 Vib (V=0)    2  0.523328D+01          0.718774          1.655038
 Vib (V=0)    3  0.348978D+01          0.542798          1.249839
 Vib (V=0)    4  0.287739D+01          0.458999          1.056885
 Vib (V=0)    5  0.255792D+01          0.407888          0.939196
 Vib (V=0)    6  0.228895D+01          0.359636          0.828092
 Vib (V=0)    7  0.211224D+01          0.324743          0.747749
 Vib (V=0)    8  0.193615D+01          0.286938          0.660700
 Vib (V=0)    9  0.180785D+01          0.257164          0.592141
 Vib (V=0)   10  0.169697D+01          0.229674          0.528845
 Vib (V=0)   11  0.152272D+01          0.182620          0.420499
 Vib (V=0)   12  0.135125D+01          0.130735          0.301028
 Vib (V=0)   13  0.127354D+01          0.105011          0.241798
 Vib (V=0)   14  0.125281D+01          0.097886          0.225390
 Vib (V=0)   15  0.123798D+01          0.092715          0.213484
 Vib (V=0)   16  0.115887D+01          0.064034          0.147444
 Vib (V=0)   17  0.115505D+01          0.062602          0.144147
 Vib (V=0)   18  0.115333D+01          0.061953          0.142652
 Vib (V=0)   19  0.111169D+01          0.045982          0.105878
 Vib (V=0)   20  0.105851D+01          0.024695          0.056862
 Electronic      0.100000D+01          0.000000          0.000000
 Translational   0.175371D+09          8.243958         18.982414
 Rotational      0.356325D+07          6.551846         15.086183
 ***** Axes restored to original set *****
 -------------------------------------------------------------------
 Center     Atomic                   Forces (Hartrees/Bohr)
 Number     Number              X              Y              Z
 -------------------------------------------------------------------
      1        6          -0.000037598   -0.000000885   -0.000076896
      2        6          -0.000028146   -0.000045479    0.000070540
      3        8          -0.000010165   -0.000123257    0.000049905
      4        6           0.000271926    0.000162960    0.000270727
      5        6          -0.000041309   -0.000006747    0.000039469
      6        1          -0.000035821   -0.000025358   -0.000028682
      7        1          -0.000039896    0.000064573   -0.000041399
      8        1           0.000100260    0.000241732   -0.000206292
      9        7           0.000003983    0.000071894   -0.000212759
     10        1           0.000235655    0.000019603   -0.000053079
     11        1          -0.000240263    0.000023032    0.000086358
     12        6          -0.000436454   -0.000318913    0.000319673
     13        6           0.000291591    0.000139689   -0.000353364
     14        6          -0.000185862    0.000164417   -0.000076156
     15        6          -0.000055754   -0.000067748    0.000292733
     16        6           0.000294186   -0.000062955   -0.000010032
     17        6           0.000231983    0.000061314    0.000035084
     18        1           0.000010364   -0.000150519    0.000021257
     19        1          -0.000005129    0.000030859   -0.000014043
     20        1           0.000003911   -0.000012970   -0.000003111
     21        1           0.000007639   -0.000022909    0.000011419
     22        1           0.000030009   -0.000010543   -0.000032410
     23        1          -0.000119123   -0.000022006   -0.000048326
     24       35          -0.000241096   -0.000090174   -0.000034394
     25        8           0.000009779    0.000001106   -0.000014156
     26        6          -0.000012995   -0.000009802    0.000011263
     27        1           0.000002452   -0.000004755   -0.000007491
     28        1          -0.000003441   -0.000004370    0.000000732
     29        1          -0.000000689   -0.000001787    0.000003429
 -------------------------------------------------------------------
 Cartesian Forces:  Max     0.000436454 RMS     0.000133599


 I HAVE NOT FAILED, I HAVE ONLY DISCOVERED 10,000
 WAYS THAT DIDN'T WORK.  -- THOMAS A. EDISON
 Error termination request processed by link 9999.
 Error termination via Lnk1e in /apps/gaussian/g16/C.01/g16/l9999.exe at Thu Jan 18 02:20:19 2024.
 Job cpu time:       1 days  8 hours 55 minutes 21.6 seconds.
 Elapsed time:       0 days  5 hours 38 minutes 34.6 seconds.
 File lengths (MBytes):  RWF=      6 Int=      0 D2E=      0 Chk=      2 Scr=      1
