Unloading slurm/anatra/current
  ERROR: No such file or directory on
    '/cm/local/modulefiles/slurm/anatra/current'
environment: line 0: unalias: gv: not found
environment: line 0: unalias: sl: not found
 Entering Gaussian System, Link 0=g16
 Initial command:
 /apps/gaussian/g16/C.01/g16/l1.exe "/local/jobs/1176099/Gau-4192648.inp" -scrdir="/local/jobs/1176099/"
 Entering Link 1 = /apps/gaussian/g16/C.01/g16/l1.exe PID=   4192652.
  
 Copyright (c) 1988-2019, Gaussian, Inc.  All Rights Reserved.
  
 This is part of the Gaussian(R) 16 program.  It is based on
 the Gaussian(R) 09 system (copyright 2009, Gaussian, Inc.),
 the Gaussian(R) 03 system (copyright 2003, Gaussian, Inc.),
 the Gaussian(R) 98 system (copyright 1998, Gaussian, Inc.),
 the Gaussian(R) 94 system (copyright 1995, Gaussian, Inc.),
 the Gaussian 92(TM) system (copyright 1992, Gaussian, Inc.),
 the Gaussian 90(TM) system (copyright 1990, Gaussian, Inc.),
 the Gaussian 88(TM) system (copyright 1988, Gaussian, Inc.),
 the Gaussian 86(TM) system (copyright 1986, Carnegie Mellon
 University), and the Gaussian 82(TM) system (copyright 1983,
 Carnegie Mellon University). Gaussian is a federally registered
 trademark of Gaussian, Inc.
  
 This software contains proprietary and confidential information,
 including trade secrets, belonging to Gaussian, Inc.
  
 This software is provided under written license and may be
 used, copied, transmitted, or stored only in accord with that
 written license.
  
 The following legend is applicable only to US Government
 contracts under FAR:
  
                    RESTRICTED RIGHTS LEGEND
  
 Use, reproduction and disclosure by the US Government is
 subject to restrictions as set forth in subparagraphs (a)
 and (c) of the Commercial Computer Software - Restricted
 Rights clause in FAR 52.227-19.
  
 Gaussian, Inc.
 340 Quinnipiac St., Bldg. 40, Wallingford CT 06492
  
  
 ---------------------------------------------------------------
 Warning -- This program may not be used in any manner that
 competes with the business of Gaussian, Inc. or will provide
 assistance to any competitor of Gaussian, Inc.  The licensee
 of this program is prohibited from giving any competitor of
 Gaussian, Inc. access to this program.  By using this program,
 the user acknowledges that Gaussian, Inc. is engaged in the
 business of creating and licensing software in the field of
 computational chemistry and represents and warrants to the
 licensee that it is not a competitor of Gaussian, Inc. and that
 it will not use this program in any manner prohibited above.
 ---------------------------------------------------------------
  

 Cite this work as:
 Gaussian 16, Revision C.01,
 M. J. Frisch, G. W. Trucks, H. B. Schlegel, G. E. Scuseria, 
 M. A. Robb, J. R. Cheeseman, G. Scalmani, V. Barone, 
 G. A. Petersson, H. Nakatsuji, X. Li, M. Caricato, A. V. Marenich, 
 J. Bloino, B. G. Janesko, R. Gomperts, B. Mennucci, H. P. Hratchian, 
 J. V. Ortiz, A. F. Izmaylov, J. L. Sonnenberg, D. Williams-Young, 
 F. Ding, F. Lipparini, F. Egidi, J. Goings, B. Peng, A. Petrone, 
 T. Henderson, D. Ranasinghe, V. G. Zakrzewski, J. Gao, N. Rega, 
 G. Zheng, W. Liang, M. Hada, M. Ehara, K. Toyota, R. Fukuda, 
 J. Hasegawa, M. Ishida, T. Nakajima, Y. Honda, O. Kitao, H. Nakai, 
 T. Vreven, K. Throssell, J. A. Montgomery, Jr., J. E. Peralta, 
 F. Ogliaro, M. J. Bearpark, J. J. Heyd, E. N. Brothers, K. N. Kudin, 
 V. N. Staroverov, T. A. Keith, R. Kobayashi, J. Normand, 
 K. Raghavachari, A. P. Rendell, J. C. Burant, S. S. Iyengar, 
 J. Tomasi, M. Cossi, J. M. Millam, M. Klene, C. Adamo, R. Cammi, 
 J. W. Ochterski, R. L. Martin, K. Morokuma, O. Farkas, 
 J. B. Foresman, and D. J. Fox, Gaussian, Inc., Wallingford CT, 2019.
 
 ******************************************
 Gaussian 16:  ES64L-G16RevC.01  3-Jul-2019
                20-May-2024 
 ******************************************
 %nprocshared=12
 Will use up to   12 processors via shared memory.
 %mem=48GB
 ----------------------------------------------------------------------
 # external="~/scripts/MiMe -H 'am1' -EF 'wb97xd def2svp' -c 12 -m 48GB
 " opt=(calcall,ts,noeigen,maxcycles=50,maxstep=10,nomicro,cartesian)
 ----------------------------------------------------------------------
 1/5=1,6=50,8=10,10=4,11=1,18=10,26=1,38=1/1,3;
 2/12=2,17=6,18=5,29=2,40=1/2;
 3/11=9,25=1,30=1,41=9900000,43=2,71=2,140=1/1;
 4/20=17,22=2,24=3,113=1,114=1/2;
 6/7=2,8=2,9=2,10=2,18=1/1;
 7/7=1,25=1,44=-1/16;
 1/5=1,6=50,8=10,10=4,11=1,18=10,26=1/3(3);
 2/29=1/2;
 7/7=1,8=1,9=1,25=1,44=-1/16;
 99/12=1/99;
 2/29=1/2;
 3/11=9,25=1,30=1,41=9900000,43=2,71=2,140=1/1;
 4/16=2,20=17,22=2,24=3,113=1,114=1/2;
 7/7=1,25=1,44=-1/16;
 1/5=1,6=50,8=10,10=4,11=1,18=10,26=1/3(-4);
 2/29=1/2;
 6/7=2,8=2,9=2,10=2,18=1/1;
 7/7=1,8=1,9=1,25=1,44=-1/16;
 99/12=1/99;
 -----
 *****
 -----
 Symbolic Z-matrix:
 Charge =  0 Multiplicity = 1
 C                     0.7952   -0.3887   -0.8761 
 C                    -1.5119   -0.557    -0.2726 
 C                     0.2953    1.9111   -0.4892 
 C                    -1.9384    0.8105   -0.17 
 N                     1.1554    0.8132   -0.1629 
 H                    -2.4403    1.2646   -1.0159 
 H                    -0.0681    2.0507   -1.5043 
 H                    -1.7658   -1.191    -1.1121 
 H                     0.1873    2.7498    0.1944 
 H                     0.4382   -0.2881   -1.9022 
 H                    -2.0602    1.2339    0.8204 
 F                    -1.4481   -1.2825    0.863 
 C                     1.3984   -1.7207   -0.5386 
 H                     1.0027   -2.487    -1.2129 
 H                     2.4852   -1.692    -0.6607 
 H                     1.1594   -2.0217    0.4852 
 C                     1.4768    0.6754    1.2476 
 H                     1.7665    1.6392    1.6839 
 H                     0.6339    0.2847    1.8294 
 H                     2.335     0.0097    1.3941 
 

 GradGradGradGradGradGradGradGradGradGradGradGradGradGradGradGradGradGrad
 Berny optimization.
 Initialization pass.
 No Z-matrix variables, so optimization will use Cartesian coordinates.
 Trust Radius=1.00D-01 FncErr=1.00D-07 GrdErr=1.00D-07 EigMax=2.50D+02 EigMin=1.00D-04
 Number of steps in this run=     50 maximum allowed number of steps=    120.
 Search for a saddle point of order  1.
 GradGradGradGradGradGradGradGradGradGradGradGradGradGradGradGradGradGrad

 ---------------------------------------------------------------------------------------------------
                            Z-MATRIX (ANGSTROMS AND DEGREES)
   CD    Cent   Atom    N1       Length/X        N2       Alpha/Y        N3        Beta/Z          J
 ---------------------------------------------------------------------------------------------------
      1      1  C        0   0.795200         -0.388700         -0.876100
      2      2  C        0  -1.511900         -0.557000         -0.272600
      3      3  C        0   0.295300          1.911100         -0.489200
      4      4  C        0  -1.938400          0.810500         -0.170000
      5      5  N        0   1.155400          0.813200         -0.162900
      6      6  H        0  -2.440300          1.264600         -1.015900
      7      7  H        0  -0.068100          2.050700         -1.504300
      8      8  H        0  -1.765800         -1.191000         -1.112100
      9      9  H        0   0.187300          2.749800          0.194400
     10     10  H        0   0.438200         -0.288100         -1.902200
     11     11  H        0  -2.060200          1.233900          0.820400
     12     12  F        0  -1.448100         -1.282500          0.863000
     13     13  C        0   1.398400         -1.720700         -0.538600
     14     14  H        0   1.002700         -2.487000         -1.212900
     15     15  H        0   2.485200         -1.692000         -0.660700
     16     16  H        0   1.159400         -2.021700          0.485200
     17     17  C        0   1.476800          0.675400          1.247600
     18     18  H        0   1.766500          1.639200          1.683900
     19     19  H        0   0.633900          0.284700          1.829400
     20     20  H        0   2.335000          0.009700          1.394100
 ---------------------------------------------------------------------------------------------------
                         Z-Matrix orientation:                         
 ---------------------------------------------------------------------
 Center     Atomic      Atomic             Coordinates (Angstroms)
 Number     Number       Type             X           Y           Z
 ---------------------------------------------------------------------
      1          6           0        0.795200   -0.388700   -0.876100
      2          6           0       -1.511900   -0.557000   -0.272600
      3          6           0        0.295300    1.911100   -0.489200
      4          6           0       -1.938400    0.810500   -0.170000
      5          7           0        1.155400    0.813200   -0.162900
      6          1           0       -2.440300    1.264600   -1.015900
      7          1           0       -0.068100    2.050700   -1.504300
      8          1           0       -1.765800   -1.191000   -1.112100
      9          1           0        0.187300    2.749800    0.194400
     10          1           0        0.438200   -0.288100   -1.902200
     11          1           0       -2.060200    1.233900    0.820400
     12          9           0       -1.448100   -1.282500    0.863000
     13          6           0        1.398400   -1.720700   -0.538600
     14          1           0        1.002700   -2.487000   -1.212900
     15          1           0        2.485200   -1.692000   -0.660700
     16          1           0        1.159400   -2.021700    0.485200
     17          6           0        1.476800    0.675400    1.247600
     18          1           0        1.766500    1.639200    1.683900
     19          1           0        0.633900    0.284700    1.829400
     20          1           0        2.335000    0.009700    1.394100
 ---------------------------------------------------------------------
                    Distance matrix (angstroms):
                    1          2          3          4          5
     1  C    0.000000
     2  C    2.390658   0.000000
     3  C    2.385094   3.066660   0.000000
     4  C    3.067446   1.436136   2.510503   0.000000
     5  N    1.443247   3.000662   1.432351   3.093809   0.000000
     6  H    3.636125   2.175465   2.859875   1.083355   3.722960
     7  H    2.662817   3.225173   1.087187   2.610838   2.197206
     8  H    2.694087   1.082211   3.776131   2.218861   3.667589
     9  H    3.371305   3.747038   1.087378   2.900392   2.194379
    10  H    1.091078   2.555542   2.617913   3.139374   2.180000
    11  H    3.696519   2.168549   2.778854   1.083972   3.388798
    12  F    2.975860   1.349077   3.881619   2.384981   3.496089
    13  C    1.500660   3.145600   3.795951   4.204411   2.573101
    14  H    2.135264   3.306399   4.513030   4.539958   3.466574
    15  H    2.145015   4.173207   4.219882   5.106029   2.879618
    16  H    2.156958   3.139339   4.142830   4.248177   2.908042
    17  C    2.471232   3.572415   2.437082   3.700194   1.453202
    18  H    3.407257   4.404440   2.638318   4.224923   2.113383
    19  H    2.792708   3.119506   2.852321   3.300120   2.126155
    20  H    2.771915   4.230565   3.364895   4.620567   2.112183
                    6          7          8          9         10
     6  H    0.000000
     7  H    2.546335   0.000000
     8  H    2.548367   3.680302   0.000000
     9  H    3.251911   1.854603   4.588186   0.000000
    10  H    3.388535   2.425830   2.509403   3.699665   0.000000
    11  H    1.875478   3.168573   3.114702   2.782281   3.996378
    12  F    3.316993   4.314943   2.002580   4.402386   3.491889
    13  C    4.886251   4.160127   3.259087   4.689288   2.198575
    14  H    5.095838   4.671429   3.058491   5.483561   2.372542
    15  H    5.755710   4.608558   4.304157   5.073571   2.775332
    16  H    5.100089   4.695669   3.434854   4.878192   3.037298
    17  C    4.562265   3.442546   4.423357   2.659920   3.453732
    18  H    5.012625   3.701312   5.320225   2.438425   4.282403
    19  H    4.301935   3.837332   4.072919   2.991554   3.780375
    20  H    5.494212   4.282674   4.953714   3.682396   3.814725
                   11         12         13         14         15
    11  H    0.000000
    12  F    2.590126   0.000000
    13  C    4.747468   3.202977   0.000000
    14  H    5.230752   3.430248   1.094749   0.000000
    15  H    5.604927   4.237948   1.094014   1.770524   0.000000
    16  H    4.590982   2.736459   1.093567   1.767655   1.783125
    17  C    3.606216   3.540668   2.989641   4.034799   3.203601
    18  H    3.943797   4.420844   4.045236   5.099056   4.136493
    19  H    3.029395   2.779347   3.195859   4.132060   3.679029
    20  H    4.598432   4.032827   2.758049   3.847724   2.672180
                   16         17         18         19         20
    16  H    0.000000
    17  C    2.820699   0.000000
    18  H    3.899698   1.096902   0.000000
    19  H    2.720754   1.096183   1.771616   0.000000
    20  H    2.516887   1.095959   1.749985   1.777316   0.000000
 Stoichiometry    C6H12FN
 Framework group  C1[X(C6H12FN)]
 Deg. of freedom    54
 Full point group                 C1      NOp   1
 Largest Abelian subgroup         C1      NOp   1
 Largest concise Abelian subgroup C1      NOp   1
                         Standard orientation:                         
 ---------------------------------------------------------------------
 Center     Atomic      Atomic             Coordinates (Angstroms)
 Number     Number       Type             X           Y           Z
 ---------------------------------------------------------------------
      1          6           0       -0.708768    0.500977   -0.853229
      2          6           0        1.596693    0.384316   -0.231550
      3          6           0       -0.480472   -1.851490   -0.533147
      4          6           0        1.862007   -1.025662   -0.167871
      5          7           0       -1.211478   -0.671790   -0.178794
      6          1           0        2.316107   -1.509572   -1.024189
      7          1           0       -0.126185   -2.002195   -1.549879
      8          1           0        1.929622    1.009185   -1.050011
      9          1           0       -0.476039   -2.716759    0.125398
     10          1           0       -0.356249    0.390055   -1.879815
     11          1           0        1.925108   -1.489182    0.809965
     12          9           0        1.606321    1.078672    0.925077
     13          6           0       -1.157754    1.883160   -0.479115
     14          1           0       -0.670274    2.618186   -1.127632
     15          1           0       -2.239460    1.983574   -0.608326
     16          1           0       -0.895174    2.124398    0.554686
     17          6           0       -1.527907   -0.539326    1.233340
     18          1           0       -1.930627   -1.475683    1.638613
     19          1           0       -0.651057   -0.265685    1.831564
     20          1           0       -2.305107    0.216305    1.394921
 ---------------------------------------------------------------------
 Rotational constants (GHZ):           2.1495626           1.7137595           1.2884224
 Standard basis: STO-3G (5D, 7F)
 There are    52 symmetry adapted cartesian basis functions of A   symmetry.
 There are    52 symmetry adapted basis functions of A   symmetry.
    52 basis functions,   156 primitive gaussians,    52 cartesian basis functions
    32 alpha electrons       32 beta electrons
       nuclear repulsion energy       395.3818641918 Hartrees.
 NAtoms=   20 NActive=   20 NUniq=   20 SFac= 1.00D+00 NAtFMM=   60 NAOKFM=F Big=F
 Integral buffers will be    131072 words long.
 Raffenetti 1 integral format.
 Two-electron integral symmetry is turned on.
 External calculation of energy, first and second derivatives.
 Running external command "~/scripts/MiMe -H 'am1' -EF 'wb97xd def2svp' -c 12 -m 48GB R"
         input file       "/local/jobs/1176099/Gau-4192652.EIn"
         output file      "/local/jobs/1176099/Gau-4192652.EOu"
         message file     "/local/jobs/1176099/Gau-4192652.EMs"
         fchk file        "/local/jobs/1176099/Gau-4192652.EFC"
         mat. el file     "/local/jobs/1176099/Gau-4192652.EUF"
 Read checkpoint file Gau-4192652_H.chk type G16
 Write formatted file Gau-4192652_H.fchk

deriv: 2

spelevel: wb97xd def2svp
gradlevel: wb97xd def2svp
hesslevel: am1

runspe: False
runforce: True
runfreq: True

Running Gaussian ...

Parsing files ...
SPE file: Gau-4192652_F.out
FORCE file: Gau-4192652_F.out
HESS file: Gau-4192652_H.out

 ExternalExternalExternalExternalExternalExternalExternalExternalExternalExternal
 Output from external command:
 "~/scripts/MiMe -H 'am1' -EF 'wb97xd def2svp' -c 12 -m 48GB R /local/jobs/1176099/Gau-4192652.EIn /local/jobs/1176099/Gau-4192652.EOu /local/jobs/1176099/Gau-4192652.EMs /local/jobs/1176099/Gau-4192652.EFC /local/jobs/1176099/Gau-4192652.EUF"
  
 --------------------------------------------------
 Force calculation at wb97xd def2svp
 Hessian calculation at am1
 ExternalExternalExternalExternalExternalExternalExternalExternalExternalExternal

 Recovered energy= -389.898671614     dipole=     -1.460200000000     -0.441500000000     -0.351600000000
 Energy=    -389.898672     NIter=   0.
 Dipole moment=      -1.460200      -0.441500      -0.351600
 ***** Axes restored to original set *****
 -------------------------------------------------------------------
 Center     Atomic                   Forces (Hartrees/Bohr)
 Number     Number              X              Y              Z
 -------------------------------------------------------------------
      1        6          -0.007705034    0.017772796    0.031531870
      2        6           0.001526143    0.047411992    0.004826981
      3        6           0.012548850   -0.038148715    0.018144280
      4        6           0.038288521   -0.041952067   -0.004743163
      5        7          -0.083321878   -0.000126937   -0.045315267
      6        1          -0.000051173    0.004185501   -0.003614751
      7        1           0.009029800   -0.003967241   -0.002997930
      8        1          -0.001538034   -0.002350445   -0.008870294
      9        1           0.010320365    0.000980586    0.002629191
     10        1           0.006429800    0.011925723   -0.000091129
     11        1          -0.003874826    0.001763602    0.003903493
     12        9           0.006676083   -0.001790772    0.005967221
     13        6           0.001768033    0.013306476   -0.000526167
     14        1          -0.001358546   -0.000569731   -0.001641754
     15        1           0.007908760   -0.004682140    0.000679219
     16        1          -0.000245767   -0.002434596    0.004945284
     17        6           0.008879503    0.000722686    0.004181989
     18        1          -0.000999534    0.003180443   -0.004273414
     19        1          -0.004937397   -0.002506046   -0.001991982
     20        1           0.000656332   -0.002721117   -0.002743676
 -------------------------------------------------------------------
 Cartesian Forces:  Max     0.083321878 RMS     0.017769170

 GradGradGradGradGradGradGradGradGradGradGradGradGradGradGradGradGradGrad
 Berny optimization.
 Search for a saddle point.
 Step number   1 out of a maximum of   50
 All quantities printed in internal units (Hartrees-Bohrs-Radians)
 Swapping is turned off.
 Second derivative matrix not updated -- analytic derivatives used.
 ITU=  0
     Eigenvalues ---   -0.12290  -0.00958  -0.00829   0.00051   0.00148
     Eigenvalues ---    0.00248   0.00425   0.00567   0.00744   0.01053
     Eigenvalues ---    0.01378   0.01673   0.01918   0.02028   0.02757
     Eigenvalues ---    0.03011   0.03248   0.03659   0.05185   0.05829
     Eigenvalues ---    0.05994   0.06745   0.07627   0.07888   0.08443
     Eigenvalues ---    0.08789   0.10089   0.10577   0.12660   0.13360
     Eigenvalues ---    0.14608   0.16268   0.17244   0.19698   0.20353
     Eigenvalues ---    0.21616   0.29124   0.37099   0.42078   0.48790
     Eigenvalues ---    0.61664   0.66988   0.77091   0.78566   0.80330
     Eigenvalues ---    0.82391   0.88000   0.89382   0.93735   0.95965
     Eigenvalues ---    0.98573   1.05469   1.12925   1.28521
 Eigenvectors required to have negative eigenvalues:
                          X2        X4        X3        X1        Y4
   1                    0.53270   0.47010  -0.44861  -0.37208   0.23017
                          Y3        Z1        Y1        Z3        Z2
   1                   -0.14858   0.09767  -0.09719   0.09127  -0.09088
 RFO step:  Lambda0=8.689819891D-04 Lambda=-4.07469090D-02.
 Linear search not attempted -- option 19 set.
 Maximum step size (   0.100) exceeded in Quadratic search.
    -- Step size scaled by   0.169
 B after Tr=    -0.002337   -0.000995    0.001127
         Rot=    1.000000    0.000030   -0.000230   -0.000330 Ang=   0.05 deg.
 Variable       Old X    -DE/DX   Delta X   Delta X   Delta X     New X
                                 (Linear)    (Quad)   (Total)
    X1        1.50271  -0.00771   0.00000  -0.00228  -0.00489   1.49782
    Y1       -0.73454   0.01777   0.00000   0.00223   0.00213  -0.73241
    Z1       -1.65559   0.03153   0.00000   0.00377   0.00426  -1.65133
    X2       -2.85708   0.00153   0.00000  -0.01165  -0.01353  -2.87061
    Y2       -1.05258   0.04741   0.00000   0.00774   0.00482  -1.04776
    Z2       -0.51514   0.00483   0.00000   0.00391   0.00642  -0.50872
    X3        0.55804   0.01255   0.00000   0.00452  -0.00062   0.55742
    Y3        3.61146  -0.03815   0.00000  -0.00340  -0.00408   3.60737
    Z3       -0.92445   0.01814   0.00000   0.00207   0.00272  -0.92173
    X4       -3.66305   0.03829   0.00000   0.00277  -0.00072  -3.66377
    Y4        1.53162  -0.04195   0.00000  -0.01178  -0.01521   1.51642
    Z4       -0.32125  -0.00474   0.00000   0.00076   0.00348  -0.31777
    X5        2.18339  -0.08332   0.00000  -0.05148  -0.05496   2.12843
    Y5        1.53673  -0.00013   0.00000  -0.01176  -0.01137   1.52536
    Z5       -0.30784  -0.04532   0.00000   0.00171   0.00177  -0.30607
    X6       -4.61150  -0.00005   0.00000   0.01420   0.00940  -4.60210
    Y6        2.38975   0.00419   0.00000   0.00548   0.00134   2.39109
    Z6       -1.91977  -0.00361   0.00000  -0.00105   0.00205  -1.91772
    X7       -0.12869   0.00903   0.00000   0.01189   0.00569  -0.12300
    Y7        3.87526  -0.00397   0.00000  -0.00462  -0.00586   3.86940
    Z7       -2.84272  -0.00300   0.00000  -0.00142  -0.00047  -2.84318
    X8       -3.33688  -0.00154   0.00000   0.00631   0.00448  -3.33240
    Y8       -2.25066  -0.00235   0.00000   0.00455   0.00124  -2.24943
    Z8       -2.10156  -0.00887   0.00000  -0.00399  -0.00120  -2.10276
    X9        0.35395   0.01032   0.00000   0.03037   0.02478   0.37873
    Y9        5.19637   0.00098   0.00000   0.00231   0.00159   5.19796
    Z9        0.36736   0.00263   0.00000   0.00038   0.00102   0.36838
   X10        0.82808   0.00643   0.00000   0.00951   0.00587   0.83395
   Y10       -0.54443   0.01193   0.00000   0.01654   0.01588  -0.52855
   Z10       -3.59464  -0.00009   0.00000   0.00055   0.00133  -3.59331
   X11       -3.89321  -0.00387   0.00000  -0.00029  -0.00345  -3.89667
   Y11        2.33173   0.00176   0.00000   0.00199  -0.00148   2.33025
   Z11        1.55033   0.00390   0.00000  -0.00199   0.00079   1.55112
   X12       -2.73651   0.00668   0.00000   0.02022   0.02023  -2.71628
   Y12       -2.42357  -0.00179   0.00000   0.00229  -0.00040  -2.42397
   Z12        1.63083   0.00597   0.00000   0.00075   0.00327   1.63410
   X13        2.64259   0.00177   0.00000   0.00468   0.00401   2.64661
   Y13       -3.25165   0.01331   0.00000   0.00697   0.00766  -3.24399
   Z13       -1.01781  -0.00053   0.00000   0.00338   0.00348  -1.01432
   X14        1.89483  -0.00136   0.00000   0.02120   0.02089   1.91572
   Y14       -4.69975  -0.00057   0.00000   0.01216   0.01229  -4.68746
   Z14       -2.29205  -0.00164   0.00000  -0.01554  -0.01501  -2.30706
   X15        4.69635   0.00791   0.00000   0.01004   0.00925   4.70560
   Y15       -3.19742  -0.00468   0.00000   0.00096   0.00299  -3.19442
   Z15       -1.24854   0.00068   0.00000   0.02996   0.02911  -1.21943
   X16        2.19095  -0.00025   0.00000  -0.01969  -0.01908   2.17187
   Y16       -3.82046  -0.00243   0.00000  -0.01156  -0.01107  -3.83153
   Z16        0.91690   0.00495   0.00000  -0.00531  -0.00495   0.91195
   X17        2.79075   0.00888   0.00000  -0.00215  -0.00425   2.78650
   Y17        1.27632   0.00072   0.00000  -0.00203  -0.00105   1.27527
   Z17        2.35762   0.00418   0.00000  -0.00382  -0.00405   2.35357
   X18        3.33820  -0.00100   0.00000   0.02001   0.01708   3.35528
   Y18        3.09764   0.00318   0.00000   0.00017   0.00158   3.09922
   Z18        3.18211  -0.00427   0.00000  -0.02354  -0.02414   3.15797
   X19        1.19790  -0.00494   0.00000  -0.00473  -0.00583   1.19206
   Y19        0.53801  -0.00251   0.00000   0.01592   0.01592   0.55392
   Z19        3.45706  -0.00199   0.00000   0.00745   0.00800   3.46506
   X20        4.41251   0.00066   0.00000  -0.01321  -0.01434   4.39817
   Y20        0.01833  -0.00272   0.00000  -0.01898  -0.01692   0.00141
   Z20        2.63447  -0.00274   0.00000  -0.01697  -0.01787   2.61660
         Item               Value     Threshold  Converged?
 Maximum Force            0.083322     0.000450     NO 
 RMS     Force            0.017769     0.000300     NO 
 Maximum Displacement     0.054964     0.001800     NO 
 RMS     Displacement     0.012695     0.001200     NO 
 Predicted change in Energy=-6.323705D-03
 GradGradGradGradGradGradGradGradGradGradGradGradGradGradGradGradGradGrad

                          Input orientation:                          
 ---------------------------------------------------------------------
 Center     Atomic      Atomic             Coordinates (Angstroms)
 Number     Number       Type             X           Y           Z
 ---------------------------------------------------------------------
      1          6           0        0.792610   -0.387574   -0.873848
      2          6           0       -1.519062   -0.554449   -0.269203
      3          6           0        0.294972    1.908938   -0.487761
      4          6           0       -1.938781    0.802453   -0.168158
      5          7           0        1.126314    0.807186   -0.161966
      6          1           0       -2.435327    1.265309   -1.014815
      7          1           0       -0.065087    2.047598   -1.504547
      8          1           0       -1.763428   -1.190345   -1.112734
      9          1           0        0.200413    2.750644    0.194941
     10          1           0        0.441305   -0.279698   -1.901498
     11          1           0       -2.062027    1.233116    0.820818
     12          9           0       -1.437394   -1.282711    0.864728
     13          6           0        1.400524   -1.716646   -0.536756
     14          1           0        1.013753   -2.480496   -1.220845
     15          1           0        2.490096   -1.690416   -0.645295
     16          1           0        1.149302   -2.027558    0.482581
     17          6           0        1.474552    0.674846    1.245457
     18          1           0        1.775540    1.640034    1.671123
     19          1           0        0.630812    0.293123    1.833632
     20          1           0        2.327411    0.000748    1.384645
 ---------------------------------------------------------------------
                    Distance matrix (angstroms):
                    1          2          3          4          5
     1  C    0.000000
     2  C    2.395260   0.000000
     3  C    2.381318   3.067045   0.000000
     4  C    3.061807   1.423923   2.513187   0.000000
     5  N    1.430240   2.977174   1.418144   3.065106   0.000000
     6  H    3.629252   2.169562   2.854221   1.085183   3.690870
     7  H    2.657722   3.226572   1.087531   2.616688   2.181876
     8  H    2.689765   1.084262   3.772686   2.212288   3.639327
     9  H    3.367702   3.754419   1.087883   2.916065   2.182133
    10  H    1.091383   2.565719   2.609636   3.136930   2.162528
    11  H    3.694249   2.162948   2.779309   1.085694   3.363450
    12  F    2.965946   1.350124   3.875170   2.380368   3.463288
    13  C    1.499875   3.153771   3.790714   4.199129   2.566201
    14  H    2.132987   3.321209   4.507903   4.539093   3.455827
    15  H    2.151997   4.183923   4.218855   5.104607   2.886438
    16  H    2.157934   3.139331   4.143362   4.238948   2.907188
    17  C    2.466827   3.573106   2.432784   3.696679   1.455892
    18  H    3.399151   4.408517   2.631572   4.228555   2.115501
    19  H    2.796422   3.124460   2.848247   3.296876   2.119480
    20  H    2.758115   4.223602   3.358259   4.610241   2.117777
                    6          7          8          9         10
     6  H    0.000000
     7  H    2.543591   0.000000
     8  H    2.547797   3.677248   0.000000
     9  H    3.258351   1.858231   4.593264   0.000000
    10  H    3.383528   2.414603   2.512424   3.692703   0.000000
    11  H    1.873483   3.171510   3.114634   2.795218   3.995783
    12  F    3.319783   4.311340   2.006287   4.404427   3.491068
    13  C    4.882044   4.153814   3.258732   4.683196   2.201691
    14  H    5.096043   4.663477   3.064133   5.480036   2.373710
    15  H    5.756096   4.608690   4.308252   5.066721   2.786704
    16  H    5.092616   4.693647   3.424902   4.879994   3.039755
    17  C    4.554628   3.437653   4.418655   2.652537   3.447039
    18  H    5.008601   3.693088   5.318383   2.427673   4.269564
    19  H    4.296511   3.834827   4.076044   2.984956   3.783548
    20  H    5.480894   4.273298   4.938681   3.674431   3.799314
                   11         12         13         14         15
    11  H    0.000000
    12  F    2.592581   0.000000
    13  C    4.746932   3.194720   0.000000
    14  H    5.236384   3.434010   1.095917   0.000000
    15  H    5.605207   4.227478   1.095279   1.770613   0.000000
    16  H    4.589012   2.718792   1.094910   1.767819   1.784236
    17  C    3.605465   3.529364   2.983454   4.031273   3.193859
    18  H    3.951648   4.417652   4.035179   5.091421   4.119258
    19  H    3.026675   2.774798   3.201619   4.143601   3.679190
    20  H    4.593887   4.011401   2.738676   3.830254   2.647104
                   16         17         18         19         20
    16  H    0.000000
    17  C    2.826792   0.000000
    18  H    3.905898   1.096984   0.000000
    19  H    2.734910   1.097069   1.775100   0.000000
    20  H    2.513103   1.095970   1.753252   1.779191   0.000000
 Stoichiometry    C6H12FN
 Framework group  C1[X(C6H12FN)]
 Deg. of freedom    54
 Full point group                 C1      NOp   1
 Largest Abelian subgroup         C1      NOp   1
 Largest concise Abelian subgroup C1      NOp   1
                         Standard orientation:                         
 ---------------------------------------------------------------------
 Center     Atomic      Atomic             Coordinates (Angstroms)
 Number     Number       Type             X           Y           Z
 ---------------------------------------------------------------------
      1          6           0       -0.712014    0.492976   -0.852676
      2          6           0        1.598553    0.391014   -0.229655
      3          6           0       -0.469459   -1.853916   -0.530277
      4          6           0        1.867965   -1.005714   -0.165434
      5          7           0       -1.179556   -0.678086   -0.177690
      6          1           0        2.319144   -1.495699   -1.022157
      7          1           0       -0.117316   -2.002154   -1.548483
      8          1           0        1.917975    1.020128   -1.052946
      9          1           0       -0.472785   -2.719785    0.128321
     10          1           0       -0.365140    0.376583   -1.880902
     11          1           0        1.934878   -1.474859    0.811376
     12          9           0        1.585922    1.091644    0.924379
     13          6           0       -1.175496    1.870138   -0.480881
     14          1           0       -0.702106    2.606466   -1.140244
     15          1           0       -2.260472    1.965325   -0.596640
     16          1           0       -0.901352    2.123159    0.548513
     17          6           0       -1.524179   -0.548401    1.230869
     18          1           0       -1.931745   -1.486833    1.626606
     19          1           0       -0.649444   -0.277161    1.834879
     20          1           0       -2.300271    0.210054    1.384419
 ---------------------------------------------------------------------
 Rotational constants (GHZ):           2.1551917           1.7237016           1.2948054
 Standard basis: STO-3G (5D, 7F)
 There are    52 symmetry adapted cartesian basis functions of A   symmetry.
 There are    52 symmetry adapted basis functions of A   symmetry.
    52 basis functions,   156 primitive gaussians,    52 cartesian basis functions
    32 alpha electrons       32 beta electrons
       nuclear repulsion energy       396.2349728695 Hartrees.
 NAtoms=   20 NActive=   20 NUniq=   20 SFac= 1.00D+00 NAtFMM=   60 NAOKFM=F Big=F
 Integral buffers will be    131072 words long.
 Raffenetti 1 integral format.
 Two-electron integral symmetry is turned on.
 External calculation of energy, first and second derivatives.
 Running external command "~/scripts/MiMe -H 'am1' -EF 'wb97xd def2svp' -c 12 -m 48GB R"
         input file       "/local/jobs/1176099/Gau-4192652.EIn"
         output file      "/local/jobs/1176099/Gau-4192652.EOu"
         message file     "/local/jobs/1176099/Gau-4192652.EMs"
         fchk file        "/local/jobs/1176099/Gau-4192652.EFC"
         mat. el file     "/local/jobs/1176099/Gau-4192652.EUF"
 Read checkpoint file Gau-4192652_H.chk type G16
 Write formatted file Gau-4192652_H.fchk

deriv: 2

spelevel: wb97xd def2svp
gradlevel: wb97xd def2svp
hesslevel: am1

runspe: False
runforce: True
runfreq: True

Running Gaussian ...

Parsing files ...
SPE file: Gau-4192652_F.out
FORCE file: Gau-4192652_F.out
HESS file: Gau-4192652_H.out

 ExternalExternalExternalExternalExternalExternalExternalExternalExternalExternal
 Output from external command:
 "~/scripts/MiMe -H 'am1' -EF 'wb97xd def2svp' -c 12 -m 48GB R /local/jobs/1176099/Gau-4192652.EIn /local/jobs/1176099/Gau-4192652.EOu /local/jobs/1176099/Gau-4192652.EMs /local/jobs/1176099/Gau-4192652.EFC /local/jobs/1176099/Gau-4192652.EUF"
  
 --------------------------------------------------
 Force calculation at wb97xd def2svp
 Hessian calculation at am1
 ExternalExternalExternalExternalExternalExternalExternalExternalExternalExternal

 Recovered energy= -389.905046524     dipole=     -1.548400000000     -0.465900000000     -0.320400000000
 Energy=    -389.905047     NIter=   0.
 Dipole moment=      -1.548400      -0.465900      -0.320400
 ***** Axes restored to original set *****
 -------------------------------------------------------------------
 Center     Atomic                   Forces (Hartrees/Bohr)
 Number     Number              X              Y              Z
 -------------------------------------------------------------------
      1        6          -0.006763803    0.017364429    0.027610965
      2        6           0.000214747    0.041208803    0.003535882
      3        6           0.010945692   -0.034161441    0.016147773
      4        6           0.032694643   -0.036543091   -0.003793358
      5        7          -0.072624240   -0.000703838   -0.039624567
      6        1           0.000655724    0.003105686   -0.002828504
      7        1           0.008112822   -0.003743961   -0.002319353
      8        1          -0.001031063   -0.001534684   -0.007369435
      9        1           0.009726348    0.000405354    0.002159382
     10        1           0.005655877    0.010647194    0.000358169
     11        1          -0.003097786    0.001201449    0.002946085
     12        9           0.006385788   -0.001233542    0.005393857
     13        6           0.001400205    0.011531663   -0.000130162
     14        1          -0.001033759   -0.000158881   -0.001157097
     15        1           0.007026465   -0.004063409    0.000681674
     16        1          -0.000165567   -0.002110190    0.004186307
     17        6           0.006447319    0.000618723    0.002952622
     18        1          -0.001112105    0.002824530   -0.004184890
     19        1          -0.003891322   -0.002175112   -0.001469215
     20        1           0.000454012   -0.002479683   -0.003096135
 -------------------------------------------------------------------
 Cartesian Forces:  Max     0.072624240 RMS     0.015529367

 GradGradGradGradGradGradGradGradGradGradGradGradGradGradGradGradGradGrad
 Berny optimization.
 Search for a saddle point.
 Step number   2 out of a maximum of   50
 All quantities printed in internal units (Hartrees-Bohrs-Radians)
 Swapping is turned off.
 Second derivative matrix not updated -- analytic derivatives used.
 ITU=  0  0
     Eigenvalues ---   -0.10227  -0.00931  -0.00788   0.00058   0.00155
     Eigenvalues ---    0.00240   0.00437   0.00577   0.00765   0.01008
     Eigenvalues ---    0.01363   0.01692   0.01963   0.02040   0.02814
     Eigenvalues ---    0.03046   0.03338   0.03748   0.05224   0.05894
     Eigenvalues ---    0.06062   0.06805   0.07667   0.07924   0.08534
     Eigenvalues ---    0.08845   0.10167   0.10560   0.12710   0.13407
     Eigenvalues ---    0.14668   0.16352   0.17355   0.19795   0.20422
     Eigenvalues ---    0.21612   0.29507   0.37356   0.42317   0.48845
     Eigenvalues ---    0.62107   0.66796   0.77016   0.78365   0.80363
     Eigenvalues ---    0.82354   0.88551   0.90067   0.93421   0.96901
     Eigenvalues ---    1.04428   1.08988   1.15129   1.29420
 Eigenvectors required to have negative eigenvalues:
                          X2        X4        X3        X1        Y4
   1                    0.52764   0.47664  -0.44819  -0.37002   0.21897
                          Y3        Z1        Y1        Z3        Z2
   1                   -0.15262   0.09932  -0.09604   0.09472  -0.09125
 RFO step:  Lambda0=1.057291112D-03 Lambda=-3.21889773D-02.
 Linear search not attempted -- option 19 set.
 Maximum step size (   0.100) exceeded in Quadratic search.
    -- Step size scaled by   0.171
 B after Tr=    -0.002452   -0.000627    0.001200
         Rot=    1.000000    0.000089   -0.000221   -0.000184 Ang=   0.03 deg.
 Variable       Old X    -DE/DX   Delta X   Delta X   Delta X     New X
                                 (Linear)    (Quad)   (Total)
    X1        1.49782  -0.00676   0.00000  -0.00123  -0.00414   1.49367
    Y1       -0.73241   0.01736   0.00000   0.00138   0.00101  -0.73140
    Z1       -1.65133   0.02761   0.00000   0.00224   0.00291  -1.64843
    X2       -2.87061   0.00021   0.00000  -0.01389  -0.01618  -2.88680
    Y2       -1.04776   0.04121   0.00000   0.00780   0.00602  -1.04174
    Z2       -0.50872   0.00354   0.00000   0.00425   0.00692  -0.50180
    X3        0.55742   0.01095   0.00000   0.00704   0.00285   0.56027
    Y3        3.60737  -0.03416   0.00000  -0.00186  -0.00244   3.60493
    Z3       -0.92173   0.01615   0.00000   0.00068   0.00098  -0.92075
    X4       -3.66377   0.03269   0.00000  -0.00059  -0.00374  -3.66751
    Y4        1.51642  -0.03654   0.00000  -0.00889  -0.01092   1.50550
    Z4       -0.31777  -0.00379   0.00000   0.00056   0.00311  -0.31466
    X5        2.12843  -0.07262   0.00000  -0.04686  -0.05001   2.07842
    Y5        1.52536  -0.00070   0.00000  -0.01220  -0.01212   1.51324
    Z5       -0.30607  -0.03962   0.00000   0.00235   0.00236  -0.30371
    X6       -4.60210   0.00066   0.00000   0.01446   0.01027  -4.59183
    Y6        2.39109   0.00311   0.00000   0.00686   0.00420   2.39528
    Z6       -1.91772  -0.00283   0.00000  -0.00285  -0.00004  -1.91776
    X7       -0.12300   0.00811   0.00000   0.01345   0.00832  -0.11468
    Y7        3.86940  -0.00374   0.00000  -0.00452  -0.00570   3.86370
    Z7       -2.84318  -0.00232   0.00000  -0.00227  -0.00172  -2.84490
    X8       -3.33240  -0.00103   0.00000   0.00503   0.00248  -3.32992
    Y8       -2.24943  -0.00153   0.00000   0.00512   0.00289  -2.24653
    Z8       -2.10276  -0.00737   0.00000  -0.00293   0.00014  -2.10262
    X9        0.37873   0.00973   0.00000   0.03607   0.03187   0.41060
    Y9        5.19796   0.00041   0.00000   0.00391   0.00350   5.20146
    Z9        0.36838   0.00216   0.00000  -0.00175  -0.00167   0.36672
   X10        0.83395   0.00566   0.00000   0.00998   0.00613   0.84007
   Y10       -0.52855   0.01065   0.00000   0.01527   0.01431  -0.51425
   Z10       -3.59331   0.00036   0.00000  -0.00027   0.00065  -3.59266
   X11       -3.89667  -0.00310   0.00000  -0.00068  -0.00331  -3.89997
   Y11        2.33025   0.00120   0.00000   0.00472   0.00294   2.33319
   Z11        1.55112   0.00295   0.00000  -0.00267  -0.00016   1.55096
   X12       -2.71628   0.00639   0.00000   0.01877   0.01793  -2.69835
   Y12       -2.42397  -0.00123   0.00000   0.00550   0.00417  -2.41980
   Z12        1.63410   0.00539   0.00000   0.00211   0.00493   1.63903
   X13        2.64661   0.00140   0.00000   0.00303   0.00133   2.64793
   Y13       -3.24399   0.01153   0.00000   0.00558   0.00575  -3.23824
   Z13       -1.01432  -0.00013   0.00000   0.00468   0.00529  -1.00903
   X14        1.91572  -0.00103   0.00000   0.01488   0.01312   1.92884
   Y14       -4.68746  -0.00016   0.00000   0.00992   0.00959  -4.67787
   Z14       -2.30706  -0.00116   0.00000  -0.00942  -0.00824  -2.31530
   X15        4.70560   0.00703   0.00000   0.00755   0.00574   4.71134
   Y15       -3.19442  -0.00406   0.00000  -0.00283  -0.00194  -3.19636
   Z15       -1.21943   0.00068   0.00000   0.02617   0.02585  -1.19358
   X16        2.17187  -0.00017   0.00000  -0.01653  -0.01717   2.15470
   Y16       -3.83153  -0.00211   0.00000  -0.00798  -0.00765  -3.83918
   Z16        0.91195   0.00419   0.00000  -0.00210  -0.00117   0.91078
   X17        2.78650   0.00645   0.00000  -0.00256  -0.00444   2.78206
   Y17        1.27527   0.00062   0.00000  -0.00485  -0.00403   1.27124
   Z17        2.35357   0.00295   0.00000  -0.00411  -0.00437   2.34920
   X18        3.35528  -0.00111   0.00000  -0.02468  -0.02688   3.32840
   Y18        3.09922   0.00282   0.00000   0.00477   0.00593   3.10514
   Z18        3.15797  -0.00418   0.00000  -0.01056  -0.01139   3.14657
   X19        1.19206  -0.00389   0.00000   0.01173   0.01062   1.20269
   Y19        0.55392  -0.00218   0.00000  -0.03215  -0.03171   0.52221
   Z19        3.46506  -0.00147   0.00000   0.00073   0.00130   3.46636
   X20        4.39817   0.00045   0.00000   0.01652   0.01521   4.41338
   Y20        0.00141  -0.00248   0.00000   0.01476   0.01622   0.01763
   Z20        2.61660  -0.00310   0.00000  -0.02493  -0.02568   2.59092
         Item               Value     Threshold  Converged?
 Maximum Force            0.072624     0.000450     NO 
 RMS     Force            0.015529     0.000300     NO 
 Maximum Displacement     0.050007     0.001800     NO 
 RMS     Displacement     0.012750     0.001200     NO 
 Predicted change in Energy=-5.007387D-03
 GradGradGradGradGradGradGradGradGradGradGradGradGradGradGradGradGradGrad

                          Input orientation:                          
 ---------------------------------------------------------------------
 Center     Atomic      Atomic             Coordinates (Angstroms)
 Number     Number       Type             X           Y           Z
 ---------------------------------------------------------------------
      1          6           0        0.790417   -0.387041   -0.872310
      2          6           0       -1.527626   -0.551263   -0.265542
      3          6           0        0.296481    1.907647   -0.487241
      4          6           0       -1.940761    0.796675   -0.166512
      5          7           0        1.099852    0.800772   -0.160718
      6          1           0       -2.429892    1.267530   -1.014837
      7          1           0       -0.060686    2.044581   -1.505455
      8          1           0       -1.762117   -1.188814   -1.112659
      9          1           0        0.217278    2.752496    0.194059
     10          1           0        0.444548   -0.272127   -1.901154
     11          1           0       -2.063778    1.234671    0.820732
     12          9           0       -1.427906   -1.280504    0.867338
     13          6           0        1.401226   -1.713604   -0.533958
     14          1           0        1.020698   -2.475421   -1.225206
     15          1           0        2.493134   -1.691443   -0.631613
     16          1           0        1.140219   -2.031609    0.481964
     17          6           0        1.472203    0.672711    1.243146
     18          1           0        1.761316    1.643171    1.665095
     19          1           0        0.636435    0.276342    1.834319
     20          1           0        2.335460    0.009330    1.371053
 ---------------------------------------------------------------------
                    Distance matrix (angstroms):
                    1          2          3          4          5
     1  C    0.000000
     2  C    2.401762   0.000000
     3  C    2.378623   3.069650   0.000000
     4  C    3.059194   1.413302   2.518408   0.000000
     5  N    1.418808   2.956793   1.406127   3.040621   0.000000
     6  H    3.623301   2.164147   2.849775   1.086558   3.661485
     7  H    2.652930   3.229195   1.087694   2.623875   2.168461
     8  H    2.686269   1.085848   3.770550   2.206644   3.613242
     9  H    3.364867   3.764405   1.088215   2.934685   2.171182
    10  H    1.091490   2.577327   2.602401   3.137040   2.147011
    11  H    3.693612   2.158010   2.781099   1.087025   3.340668
    12  F    2.957298   1.350983   3.869457   2.376244   3.431934
    13  C    1.499112   3.162477   3.786304   4.195878   2.559731
    14  H    2.130468   3.334261   4.503373   4.538467   3.445700
    15  H    2.158389   4.195299   4.218954   5.105534   2.893807
    16  H    2.158940   3.141272   4.143547   4.232274   2.904660
    17  C    2.462328   3.573965   2.429326   3.694702   1.458039
    18  H    3.391582   4.400004   2.616914   4.216244   2.116781
    19  H    2.790991   3.126901   2.857685   3.303939   2.114227
    20  H    2.752626   4.232747   3.348776   4.611951   2.121187
                    6          7          8          9         10
     6  H    0.000000
     7  H    2.541191   0.000000
     8  H    2.547375   3.674780   0.000000
     9  H    3.267118   1.861922   4.599940   0.000000
    10  H    3.379128   2.403950   2.516230   3.686451   0.000000
    11  H    1.872013   3.174819   3.114848   2.810645   3.996348
    12  F    3.322504   4.307624   2.010098   4.407383   3.491054
    13  C    4.878100   4.147885   3.258380   4.677370   2.205065
    14  H    5.095145   4.656002   3.067912   5.476396   2.375575
    15  H    5.756611   4.609064   4.311752   5.060618   2.796944
    16  H    5.086297   4.691197   3.417116   4.880816   3.042858
    17  C    4.547377   3.433159   4.413153   2.645926   3.440264
    18  H    4.988924   3.678751   5.305718   2.403873   4.256804
    19  H    4.301454   3.842751   4.072397   2.999581   3.780397
    20  H    5.475776   4.261228   4.939081   3.660188   3.789738
                   11         12         13         14         15
    11  H    0.000000
    12  F    2.594727   0.000000
    13  C    4.746973   3.186721   0.000000
    14  H    5.240671   3.435438   1.096810   0.000000
    15  H    5.606861   4.217853   1.096491   1.770606   0.000000
    16  H    4.587912   2.703320   1.096060   1.767961   1.784978
    17  C    3.605189   3.516662   2.976178   4.025836   3.185318
    18  H    3.938421   4.399480   4.029074   5.085780   4.114618
    19  H    3.039227   2.760494   3.186460   4.132863   3.660647
    20  H    4.599740   4.010029   2.733197   3.826637   2.632141
                   16         17         18         19         20
    16  H    0.000000
    17  C    2.828950   0.000000
    18  H    3.910187   1.097005   0.000000
    19  H    2.722003   1.097772   1.778262   0.000000
    20  H    2.526759   1.096198   1.756570   1.781179   0.000000
 Stoichiometry    C6H12FN
 Framework group  C1[X(C6H12FN)]
 Deg. of freedom    54
 Full point group                 C1      NOp   1
 Largest Abelian subgroup         C1      NOp   1
 Largest concise Abelian subgroup C1      NOp   1
                         Standard orientation:                         
 ---------------------------------------------------------------------
 Center     Atomic      Atomic             Coordinates (Angstroms)
 Number     Number       Type             X           Y           Z
 ---------------------------------------------------------------------
      1          6           0       -0.716593    0.484047   -0.853090
      2          6           0        1.600921    0.399967   -0.228174
      3          6           0       -0.457220   -1.857799   -0.527008
      4          6           0        1.876756   -0.984624   -0.163005
      5          7           0       -1.149056   -0.685157   -0.175629
      6          1           0        2.323858   -1.479587   -1.020745
      7          1           0       -0.106659   -2.002995   -1.546372
      8          1           0        1.905141    1.032886   -1.056382
      9          1           0       -0.468545   -2.723895    0.131750
     10          1           0       -0.374985    0.362161   -1.882555
     11          1           0        1.946926   -1.458434    0.812805
     12          9           0        1.564563    1.105585    0.923319
     13          6           0       -1.195036    1.855660   -0.482809
     14          1           0       -0.734477    2.593511   -1.150981
     15          1           0       -2.282826    1.945236   -0.587598
     16          1           0       -0.912456    2.119276    0.542863
     17          6           0       -1.518956   -0.557375    1.228907
     18          1           0       -1.907019   -1.504827    1.622813
     19          1           0       -0.653002   -0.262091    1.835565
     20          1           0       -2.312864    0.185330    1.369439
 ---------------------------------------------------------------------
 Rotational constants (GHZ):           2.1602163           1.7323292           1.3003928
 Standard basis: STO-3G (5D, 7F)
 There are    52 symmetry adapted cartesian basis functions of A   symmetry.
 There are    52 symmetry adapted basis functions of A   symmetry.
    52 basis functions,   156 primitive gaussians,    52 cartesian basis functions
    32 alpha electrons       32 beta electrons
       nuclear repulsion energy       396.9822854329 Hartrees.
 NAtoms=   20 NActive=   20 NUniq=   20 SFac= 1.00D+00 NAtFMM=   60 NAOKFM=F Big=F
 Integral buffers will be    131072 words long.
 Raffenetti 1 integral format.
 Two-electron integral symmetry is turned on.
 External calculation of energy, first and second derivatives.
 Running external command "~/scripts/MiMe -H 'am1' -EF 'wb97xd def2svp' -c 12 -m 48GB R"
         input file       "/local/jobs/1176099/Gau-4192652.EIn"
         output file      "/local/jobs/1176099/Gau-4192652.EOu"
         message file     "/local/jobs/1176099/Gau-4192652.EMs"
         fchk file        "/local/jobs/1176099/Gau-4192652.EFC"
         mat. el file     "/local/jobs/1176099/Gau-4192652.EUF"
 Read checkpoint file Gau-4192652_H.chk type G16
 Write formatted file Gau-4192652_H.fchk

deriv: 2

spelevel: wb97xd def2svp
gradlevel: wb97xd def2svp
hesslevel: am1

runspe: False
runforce: True
runfreq: True

Running Gaussian ...

Parsing files ...
SPE file: Gau-4192652_F.out
FORCE file: Gau-4192652_F.out
HESS file: Gau-4192652_H.out

 ExternalExternalExternalExternalExternalExternalExternalExternalExternalExternal
 Output from external command:
 "~/scripts/MiMe -H 'am1' -EF 'wb97xd def2svp' -c 12 -m 48GB R /local/jobs/1176099/Gau-4192652.EIn /local/jobs/1176099/Gau-4192652.EOu /local/jobs/1176099/Gau-4192652.EMs /local/jobs/1176099/Gau-4192652.EFC /local/jobs/1176099/Gau-4192652.EUF"
  
 --------------------------------------------------
 Force calculation at wb97xd def2svp
 Hessian calculation at am1
 ExternalExternalExternalExternalExternalExternalExternalExternalExternalExternal

 Recovered energy= -389.910098486     dipole=     -1.620100000000     -0.489400000000     -0.290500000000
 Energy=    -389.910098     NIter=   0.
 Dipole moment=      -1.620100      -0.489400      -0.290500
 ***** Axes restored to original set *****
 -------------------------------------------------------------------
 Center     Atomic                   Forces (Hartrees/Bohr)
 Number     Number              X              Y              Z
 -------------------------------------------------------------------
      1        6          -0.005678631    0.016938302    0.024187368
      2        6          -0.001022371    0.035962436    0.002558429
      3        6           0.009619416   -0.030542358    0.014456766
      4        6           0.027685115   -0.032044655   -0.002988914
      5        7          -0.062964756   -0.000982590   -0.034716088
      6        1           0.001118470    0.002208232   -0.002215996
      7        1           0.007209386   -0.003471352   -0.001799337
      8        1          -0.000632453   -0.000965422   -0.006091366
      9        1           0.009040653   -0.000058100    0.001733467
     10        1           0.004935571    0.009404332    0.000622844
     11        1          -0.002401156    0.000798866    0.002197666
     12        9           0.006012996   -0.000808799    0.004803718
     13        6           0.001087431    0.010019404    0.000154805
     14        1          -0.000777407    0.000088912   -0.000758436
     15        1           0.006210520   -0.003485131    0.000664646
     16        1          -0.000100135   -0.001803622    0.003554862
     17        6           0.004610806    0.000373285    0.001956456
     18        1          -0.001214211    0.002445923   -0.004048813
     19        1          -0.002992862   -0.001852790   -0.001076495
     20        1           0.000253619   -0.002224872   -0.003195583
 -------------------------------------------------------------------
 Cartesian Forces:  Max     0.062964756 RMS     0.013568289

 GradGradGradGradGradGradGradGradGradGradGradGradGradGradGradGradGradGrad
 Berny optimization.
 Search for a saddle point.
 Step number   3 out of a maximum of   50
 All quantities printed in internal units (Hartrees-Bohrs-Radians)
 Swapping is turned off.
 Second derivative matrix not updated -- analytic derivatives used.
 ITU=  0  0  0
     Eigenvalues ---   -0.08314  -0.00906  -0.00754   0.00064   0.00157
     Eigenvalues ---    0.00231   0.00437   0.00578   0.00781   0.00957
     Eigenvalues ---    0.01336   0.01713   0.01958   0.02091   0.02859
     Eigenvalues ---    0.03074   0.03416   0.03831   0.05263   0.05945
     Eigenvalues ---    0.06121   0.06853   0.07703   0.07947   0.08588
     Eigenvalues ---    0.08897   0.10226   0.10541   0.12752   0.13431
     Eigenvalues ---    0.14704   0.16418   0.17454   0.19877   0.20454
     Eigenvalues ---    0.21603   0.29777   0.37529   0.42484   0.48889
     Eigenvalues ---    0.62423   0.66619   0.76909   0.78131   0.80288
     Eigenvalues ---    0.82362   0.88709   0.90196   0.93110   0.97703
     Eigenvalues ---    1.10400   1.12165   1.17752   1.30948
 Eigenvectors required to have negative eigenvalues:
                          X2        X4        X3        X1        Y4
   1                    0.52126   0.48234  -0.44763  -0.36654   0.20865
                          Y3        X9        Z1        Z3        Y1
   1                   -0.15472  -0.10367   0.10003   0.09749  -0.09473
 RFO step:  Lambda0=1.122114695D-03 Lambda=-2.54740557D-02.
 Linear search not attempted -- option 19 set.
 Maximum step size (   0.100) exceeded in Quadratic search.
    -- Step size scaled by   0.174
 B after Tr=    -0.002415   -0.000593    0.001202
         Rot=    1.000000    0.000085   -0.000220   -0.000181 Ang=   0.03 deg.
 Variable       Old X    -DE/DX   Delta X   Delta X   Delta X     New X
                                 (Linear)    (Quad)   (Total)
    X1        1.49367  -0.00568   0.00000  -0.00042  -0.00329   1.49038
    Y1       -0.73140   0.01694   0.00000   0.00153   0.00119  -0.73021
    Z1       -1.64843   0.02419   0.00000   0.00095   0.00162  -1.64680
    X2       -2.88680  -0.00102   0.00000  -0.01503  -0.01729  -2.90408
    Y2       -1.04174   0.03596   0.00000   0.00605   0.00432  -1.03742
    Z2       -0.50180   0.00256   0.00000   0.00445   0.00711  -0.49469
    X3        0.56027   0.00962   0.00000   0.00803   0.00390   0.56417
    Y3        3.60493  -0.03054   0.00000  -0.00026  -0.00081   3.60412
    Z3       -0.92075   0.01446   0.00000   0.00012   0.00046  -0.92030
    X4       -3.66751   0.02769   0.00000  -0.00371  -0.00680  -3.67431
    Y4        1.50550  -0.03204   0.00000  -0.00852  -0.01049   1.49501
    Z4       -0.31466  -0.00299   0.00000   0.00105   0.00361  -0.31105
    X5        2.07842  -0.06296   0.00000  -0.04298  -0.04607   2.03235
    Y5        1.51324  -0.00098   0.00000  -0.01152  -0.01142   1.50182
    Z5       -0.30371  -0.03472   0.00000   0.00284   0.00289  -0.30082
    X6       -4.59183   0.00112   0.00000   0.01291   0.00878  -4.58305
    Y6        2.39528   0.00221   0.00000   0.00546   0.00288   2.39816
    Z6       -1.91776  -0.00222   0.00000  -0.00313  -0.00032  -1.91808
    X7       -0.11468   0.00721   0.00000   0.01346   0.00839  -0.10629
    Y7        3.86370  -0.00347   0.00000  -0.00339  -0.00451   3.85919
    Z7       -2.84490  -0.00180   0.00000  -0.00228  -0.00169  -2.84659
    X8       -3.32992  -0.00063   0.00000   0.00415   0.00162  -3.32829
    Y8       -2.24653  -0.00097   0.00000   0.00418   0.00203  -2.24451
    Z8       -2.10262  -0.00609   0.00000  -0.00230   0.00075  -2.10187
    X9        0.41060   0.00904   0.00000   0.03936   0.03522   0.44581
    Y9        5.20146  -0.00006   0.00000   0.00512   0.00475   5.20621
    Z9        0.36672   0.00173   0.00000  -0.00267  -0.00255   0.36417
   X10        0.84007   0.00494   0.00000   0.01013   0.00631   0.84638
   Y10       -0.51425   0.00940   0.00000   0.01484   0.01394  -0.50030
   Z10       -3.59266   0.00062   0.00000  -0.00101  -0.00009  -3.59276
   X11       -3.89997  -0.00240   0.00000  -0.00156  -0.00414  -3.90412
   Y11        2.33319   0.00080   0.00000   0.00439   0.00265   2.33584
   Z11        1.55096   0.00220   0.00000  -0.00234   0.00018   1.55114
   X12       -2.69835   0.00601   0.00000   0.01858   0.01776  -2.68059
   Y12       -2.41980  -0.00081   0.00000   0.00552   0.00424  -2.41556
   Z12        1.63903   0.00480   0.00000   0.00247   0.00527   1.64430
   X13        2.64793   0.00109   0.00000   0.00291   0.00123   2.64916
   Y13       -3.23824   0.01002   0.00000   0.00550   0.00570  -3.23254
   Z13       -1.00903   0.00015   0.00000   0.00474   0.00533  -1.00371
   X14        1.92884  -0.00078   0.00000   0.01597   0.01422   1.94306
   Y14       -4.67787   0.00009   0.00000   0.00982   0.00954  -4.66833
   Z14       -2.31530  -0.00076   0.00000  -0.00915  -0.00801  -2.32332
   X15        4.71134   0.00621   0.00000   0.00715   0.00538   4.71672
   Y15       -3.19636  -0.00349   0.00000  -0.00181  -0.00090  -3.19726
   Z15       -1.19358   0.00066   0.00000   0.02720   0.02687  -1.16670
   X16        2.15470  -0.00010   0.00000  -0.01689  -0.01751   2.13719
   Y16       -3.83918  -0.00180   0.00000  -0.00728  -0.00695  -3.84613
   Z16        0.91078   0.00355   0.00000  -0.00241  -0.00149   0.90929
   X17        2.78206   0.00461   0.00000  -0.00361  -0.00545   2.77661
   Y17        1.27124   0.00037   0.00000  -0.00548  -0.00466   1.26658
   Z17        2.34920   0.00196   0.00000  -0.00403  -0.00427   2.34493
   X18        3.32840  -0.00121   0.00000  -0.02542  -0.02758   3.30083
   Y18        3.10514   0.00245   0.00000   0.00358   0.00472   3.10986
   Z18        3.14657  -0.00405   0.00000  -0.01016  -0.01095   3.13563
   X19        1.20269  -0.00299   0.00000   0.01243   0.01137   1.21405
   Y19        0.52221  -0.00185   0.00000  -0.03260  -0.03216   0.49005
   Z19        3.46636  -0.00108   0.00000   0.00183   0.00241   3.46877
   X20        4.41338   0.00025   0.00000   0.01526   0.01396   4.42734
   Y20        0.01763  -0.00222   0.00000   0.01450   0.01595   0.03358
   Z20        2.59092  -0.00320   0.00000  -0.02636  -0.02712   2.56380
         Item               Value     Threshold  Converged?
 Maximum Force            0.062965     0.000450     NO 
 RMS     Force            0.013568     0.000300     NO 
 Maximum Displacement     0.046072     0.001800     NO 
 RMS     Displacement     0.012754     0.001200     NO 
 Predicted change in Energy=-3.966490D-03
 GradGradGradGradGradGradGradGradGradGradGradGradGradGradGradGradGradGrad

                          Input orientation:                          
 ---------------------------------------------------------------------
 Center     Atomic      Atomic             Coordinates (Angstroms)
 Number     Number       Type             X           Y           Z
 ---------------------------------------------------------------------
      1          6           0        0.788675   -0.386411   -0.871451
      2          6           0       -1.536774   -0.548977   -0.261780
      3          6           0        0.298545    1.907219   -0.486999
      4          6           0       -1.944362    0.791123   -0.164602
      5          7           0        1.075472    0.794727   -0.159188
      6          1           0       -2.425248    1.269052   -1.015004
      7          1           0       -0.056246    2.042196   -1.506351
      8          1           0       -1.761258   -1.187742   -1.112262
      9          1           0        0.235914    2.755010    0.192709
     10          1           0        0.447887   -0.264749   -1.901205
     11          1           0       -2.065969    1.236073    0.820829
     12          9           0       -1.418506   -1.278260    0.870126
     13          6           0        1.401875   -1.710589   -0.531139
     14          1           0        1.028221   -2.470374   -1.229447
     15          1           0        2.495983   -1.691918   -0.617394
     16          1           0        1.130951   -2.035284    0.481174
     17          6           0        1.469318    0.670243    1.240885
     18          1           0        1.746723    1.645667    1.659302
     19          1           0        0.642449    0.259323    1.835594
     20          1           0        2.342850    0.017769    1.356703
 ---------------------------------------------------------------------
                    Distance matrix (angstroms):
                    1          2          3          4          5
     1  C    0.000000
     2  C    2.409531   0.000000
     3  C    2.376713   3.074413   0.000000
     4  C    3.058711   1.404080   2.525913   0.000000
     5  N    1.408778   2.939369   1.395964   3.019840   0.000000
     6  H    3.618074   2.159158   2.846944   1.087590   3.634892
     7  H    2.648607   3.233435   1.087738   2.632576   2.156806
     8  H    2.683706   1.087075   3.769950   2.201703   3.589647
     9  H    3.362515   3.776945   1.088428   2.956031   2.161342
    10  H    1.091481   2.589860   2.596098   3.139030   2.133301
    11  H    3.693949   2.153717   2.784201   1.088045   3.320221
    12  F    2.949599   1.351685   3.864884   2.372663   3.402453
    13  C    1.498424   3.171365   3.782568   4.194069   2.553721
    14  H    2.128014   3.347737   4.499664   4.539549   3.436359
    15  H    2.164208   4.206650   4.218948   5.107560   2.900208
    16  H    2.159985   3.142904   4.144103   4.226482   2.902086
    17  C    2.457999   3.575065   2.426191   3.693672   1.459732
    18  H    3.384067   4.391853   2.602352   4.204875   2.116975
    19  H    2.786835   3.130709   2.868496   3.312881   2.110289
    20  H    2.746542   4.241718   3.338929   4.614393   2.123167
                    6          7          8          9         10
     6  H    0.000000
     7  H    2.539949   0.000000
     8  H    2.546798   3.673536   0.000000
     9  H    3.278478   1.865548   4.608355   0.000000
    10  H    3.375322   2.394170   2.520846   3.680808   0.000000
    11  H    1.870950   3.178772   3.115216   2.828492   3.997675
    12  F    3.325063   4.304512   2.013835   4.411719   3.491547
    13  C    4.874347   4.142529   3.258294   4.671723   2.208535
    14  H    5.094678   4.649304   3.072469   5.473108   2.377568
    15  H    5.757078   4.609525   4.315459   5.053647   2.807077
    16  H    5.079738   4.688874   3.409140   4.881723   3.045834
    17  C    4.540402   3.428835   4.407497   2.639358   3.433695
    18  H    4.969818   3.664600   5.292986   2.379933   4.244275
    19  H    4.307694   3.851676   4.069602   3.015426   3.778382
    20  H    5.470417   4.248653   4.938901   3.645072   3.779506
                   11         12         13         14         15
    11  H    0.000000
    12  F    2.596827   0.000000
    13  C    4.747271   3.178836   0.000000
    14  H    5.245512   3.437413   1.097508   0.000000
    15  H    5.608300   4.207975   1.097661   1.770573   0.000000
    16  H    4.586659   2.687768   1.097090   1.768073   1.785515
    17  C    3.604839   3.503377   2.968666   4.020022   3.176011
    18  H    3.925229   4.380733   4.022611   5.079656   4.109039
    19  H    3.052756   2.746603   3.171546   4.122443   3.641439
    20  H    4.605335   4.008022   2.727013   3.821946   2.616015
                   16         17         18         19         20
    16  H    0.000000
    17  C    2.830464   0.000000
    18  H    3.913637   1.097031   0.000000
    19  H    2.708931   1.098292   1.781137   0.000000
    20  H    2.539739   1.096446   1.759825   1.782988   0.000000
 Stoichiometry    C6H12FN
 Framework group  C1[X(C6H12FN)]
 Deg. of freedom    54
 Full point group                 C1      NOp   1
 Largest Abelian subgroup         C1      NOp   1
 Largest concise Abelian subgroup C1      NOp   1
                         Standard orientation:                         
 ---------------------------------------------------------------------
 Center     Atomic      Atomic             Coordinates (Angstroms)
 Number     Number       Type             X           Y           Z
 ---------------------------------------------------------------------
      1          6           0       -0.721398    0.475372   -0.854082
      2          6           0        1.604154    0.408873   -0.227007
      3          6           0       -0.446773   -1.862186   -0.523667
      4          6           0        1.886344   -0.964956   -0.160652
      5          7           0       -1.121042   -0.691254   -0.172960
      6          1           0        2.328241   -1.464396   -1.019802
      7          1           0       -0.097623   -2.004567   -1.543959
      8          1           0        1.893133    1.044635   -1.060092
      9          1           0       -0.467643   -2.728287    0.135202
     10          1           0       -0.384887    0.347783   -1.884524
     11          1           0        1.958667   -1.442827    0.814156
     12          9           0        1.544107    1.118431    0.921894
     13          6           0       -1.213326    1.841690   -0.484683
     14          1           0       -0.765943    2.580552   -1.161776
     15          1           0       -2.303803    1.925695   -0.577759
     16          1           0       -0.921965    2.115620    0.536922
     17          6           0       -1.513122   -0.564911    1.227442
     18          1           0       -1.882175   -1.520530    1.619959
     19          1           0       -0.656894   -0.246150    1.836957
     20          1           0       -2.324053    0.162069    1.354274
 ---------------------------------------------------------------------
 Rotational constants (GHZ):           2.1646765           1.7396830           1.3051834
 Standard basis: STO-3G (5D, 7F)
 There are    52 symmetry adapted cartesian basis functions of A   symmetry.
 There are    52 symmetry adapted basis functions of A   symmetry.
    52 basis functions,   156 primitive gaussians,    52 cartesian basis functions
    32 alpha electrons       32 beta electrons
       nuclear repulsion energy       397.6284279814 Hartrees.
 NAtoms=   20 NActive=   20 NUniq=   20 SFac= 1.00D+00 NAtFMM=   60 NAOKFM=F Big=F
 Integral buffers will be    131072 words long.
 Raffenetti 1 integral format.
 Two-electron integral symmetry is turned on.
 External calculation of energy, first and second derivatives.
 Running external command "~/scripts/MiMe -H 'am1' -EF 'wb97xd def2svp' -c 12 -m 48GB R"
         input file       "/local/jobs/1176099/Gau-4192652.EIn"
         output file      "/local/jobs/1176099/Gau-4192652.EOu"
         message file     "/local/jobs/1176099/Gau-4192652.EMs"
         fchk file        "/local/jobs/1176099/Gau-4192652.EFC"
         mat. el file     "/local/jobs/1176099/Gau-4192652.EUF"
 Read checkpoint file Gau-4192652_H.chk type G16
 Write formatted file Gau-4192652_H.fchk

deriv: 2

spelevel: wb97xd def2svp
gradlevel: wb97xd def2svp
hesslevel: am1

runspe: False
runforce: True
runfreq: True

Running Gaussian ...

Parsing files ...
SPE file: Gau-4192652_F.out
FORCE file: Gau-4192652_F.out
HESS file: Gau-4192652_H.out

 ExternalExternalExternalExternalExternalExternalExternalExternalExternalExternal
 Output from external command:
 "~/scripts/MiMe -H 'am1' -EF 'wb97xd def2svp' -c 12 -m 48GB R /local/jobs/1176099/Gau-4192652.EIn /local/jobs/1176099/Gau-4192652.EOu /local/jobs/1176099/Gau-4192652.EMs /local/jobs/1176099/Gau-4192652.EFC /local/jobs/1176099/Gau-4192652.EUF"
  
 --------------------------------------------------
 Force calculation at wb97xd def2svp
 Hessian calculation at am1
 ExternalExternalExternalExternalExternalExternalExternalExternalExternalExternal

 Recovered energy= -389.914100640     dipole=     -1.676800000000     -0.508000000000     -0.262900000000
 Energy=    -389.914101     NIter=   0.
 Dipole moment=      -1.676800      -0.508000      -0.262900
 ***** Axes restored to original set *****
 -------------------------------------------------------------------
 Center     Atomic                   Forces (Hartrees/Bohr)
 Number     Number              X              Y              Z
 -------------------------------------------------------------------
      1        6          -0.004573941    0.016438111    0.021222356
      2        6          -0.002152712    0.031510096    0.001873750
      3        6           0.008561751   -0.027256276    0.013007632
      4        6           0.023259059   -0.028273234   -0.002319736
      5        7          -0.054247597   -0.001166059   -0.030501829
      6        1           0.001400589    0.001468599   -0.001730380
      7        1           0.006353684   -0.003164792   -0.001402375
      8        1          -0.000305170   -0.000574730   -0.005006658
      9        1           0.008288406   -0.000426616    0.001356347
     10        1           0.004265367    0.008232933    0.000768619
     11        1          -0.001785208    0.000512260    0.001614917
     12        9           0.005546565   -0.000458192    0.004181492
     13        6           0.000800145    0.008678533    0.000371141
     14        1          -0.000565146    0.000234663   -0.000430872
     15        1           0.005443828   -0.002944295    0.000634036
     16        1          -0.000043249   -0.001523795    0.002994419
     17        6           0.003236806    0.000182830    0.001124500
     18        1          -0.001276916    0.002045689   -0.003819850
     19        1          -0.002262038   -0.001552773   -0.000782581
     20        1           0.000055776   -0.001962952   -0.003154928
 -------------------------------------------------------------------
 Cartesian Forces:  Max     0.054247597 RMS     0.011850289

 GradGradGradGradGradGradGradGradGradGradGradGradGradGradGradGradGradGrad
 Berny optimization.
 Search for a saddle point.
 Step number   4 out of a maximum of   50
 All quantities printed in internal units (Hartrees-Bohrs-Radians)
 Swapping is turned off.
 Second derivative matrix not updated -- analytic derivatives used.
 ITU=  0  0  0  0
     Eigenvalues ---   -0.06603  -0.00883  -0.00725   0.00066   0.00154
     Eigenvalues ---    0.00223   0.00431   0.00579   0.00792   0.00906
     Eigenvalues ---    0.01300   0.01732   0.01945   0.02143   0.02894
     Eigenvalues ---    0.03097   0.03486   0.03921   0.05299   0.05987
     Eigenvalues ---    0.06173   0.06891   0.07735   0.07962   0.08617
     Eigenvalues ---    0.08944   0.10268   0.10529   0.12786   0.13440
     Eigenvalues ---    0.14723   0.16474   0.17539   0.19949   0.20460
     Eigenvalues ---    0.21587   0.29970   0.37648   0.42605   0.48926
     Eigenvalues ---    0.62652   0.66466   0.76787   0.77894   0.80213
     Eigenvalues ---    0.82377   0.88704   0.90138   0.92929   0.98308
     Eigenvalues ---    1.14431   1.15763   1.21006   1.33062
 Eigenvectors required to have negative eigenvalues:
                          X2        X4        X3        X1        Y4
   1                    0.51285   0.48660  -0.44649  -0.36123   0.19955
                          Y3        X9        Z1        Z3        Y1
   1                   -0.15556  -0.12338   0.09974   0.09948  -0.09355
 RFO step:  Lambda0=1.074582869D-03 Lambda=-2.01357780D-02.
 Linear search not attempted -- option 19 set.
 Maximum step size (   0.100) exceeded in Quadratic search.
    -- Step size scaled by   0.176
 B after Tr=    -0.002362   -0.000540    0.001183
         Rot=    1.000000    0.000083   -0.000219   -0.000173 Ang=   0.03 deg.
 Variable       Old X    -DE/DX   Delta X   Delta X   Delta X     New X
                                 (Linear)    (Quad)   (Total)
    X1        1.49038  -0.00457   0.00000   0.00004  -0.00279   1.48759
    Y1       -0.73021   0.01644   0.00000   0.00175   0.00145  -0.72876
    Z1       -1.64680   0.02122   0.00000  -0.00010   0.00055  -1.64626
    X2       -2.90408  -0.00215   0.00000  -0.01556  -0.01777  -2.92186
    Y2       -1.03742   0.03151   0.00000   0.00454   0.00291  -1.03451
    Z2       -0.49469   0.00187   0.00000   0.00465   0.00728  -0.48741
    X3        0.56417   0.00856   0.00000   0.00888   0.00487   0.56904
    Y3        3.60412  -0.02726   0.00000   0.00099   0.00050   3.60462
    Z3       -0.92030   0.01301   0.00000  -0.00028   0.00005  -0.92024
    X4       -3.67431   0.02326   0.00000  -0.00612  -0.00913  -3.68345
    Y4        1.49501  -0.02827   0.00000  -0.00820  -0.01007   1.48494
    Z4       -0.31105  -0.00232   0.00000   0.00142   0.00397  -0.30708
    X5        2.03235  -0.05425   0.00000  -0.03918  -0.04219   1.99016
    Y5        1.50182  -0.00117   0.00000  -0.01066  -0.01056   1.49126
    Z5       -0.30082  -0.03050   0.00000   0.00296   0.00302  -0.29780
    X6       -4.58305   0.00140   0.00000   0.01086   0.00682  -4.57623
    Y6        2.39816   0.00147   0.00000   0.00371   0.00127   2.39943
    Z6       -1.91808  -0.00173   0.00000  -0.00320  -0.00041  -1.91849
    X7       -0.10629   0.00635   0.00000   0.01359   0.00864  -0.09765
    Y7        3.85919  -0.00316   0.00000  -0.00201  -0.00305   3.85614
    Z7       -2.84659  -0.00140   0.00000  -0.00226  -0.00167  -2.84827
    X8       -3.32829  -0.00031   0.00000   0.00320   0.00070  -3.32760
    Y8       -2.24451  -0.00057   0.00000   0.00318   0.00114  -2.24337
    Z8       -2.10187  -0.00501   0.00000  -0.00147   0.00154  -2.10033
    X9        0.44581   0.00829   0.00000   0.04229   0.03828   0.48409
    Y9        5.20621  -0.00043   0.00000   0.00614   0.00583   5.21204
    Z9        0.36417   0.00136   0.00000  -0.00363  -0.00353   0.36064
   X10        0.84638   0.00427   0.00000   0.01038   0.00661   0.85299
   Y10       -0.50030   0.00823   0.00000   0.01425   0.01341  -0.48689
   Z10       -3.59276   0.00077   0.00000  -0.00183  -0.00094  -3.59370
   X11       -3.90412  -0.00179   0.00000  -0.00243  -0.00492  -3.90903
   Y11        2.33584   0.00051   0.00000   0.00397   0.00234   2.33818
   Z11        1.55114   0.00161   0.00000  -0.00205   0.00046   1.55160
   X12       -2.68059   0.00555   0.00000   0.01793   0.01713  -2.66346
   Y12       -2.41556  -0.00046   0.00000   0.00551   0.00432  -2.41124
   Z12        1.64430   0.00418   0.00000   0.00282   0.00557   1.64987
   X13        2.64916   0.00080   0.00000   0.00266   0.00098   2.65014
   Y13       -3.23254   0.00868   0.00000   0.00550   0.00571  -3.22683
   Z13       -1.00371   0.00037   0.00000   0.00479   0.00535  -0.99836
   X14        1.94306  -0.00057   0.00000   0.01711   0.01534   1.95840
   Y14       -4.66833   0.00023   0.00000   0.00957   0.00932  -4.65901
   Z14       -2.32332  -0.00043   0.00000  -0.00880  -0.00770  -2.33102
   X15        4.71672   0.00544   0.00000   0.00658   0.00483   4.72155
   Y15       -3.19726  -0.00294   0.00000  -0.00041   0.00049  -3.19677
   Z15       -1.16670   0.00063   0.00000   0.02815   0.02779  -1.13891
   X16        2.13719  -0.00004   0.00000  -0.01731  -0.01794   2.11924
   Y16       -3.84613  -0.00152   0.00000  -0.00650  -0.00615  -3.85228
   Z16        0.90929   0.00299   0.00000  -0.00269  -0.00180   0.90749
   X17        2.77661   0.00324   0.00000  -0.00439  -0.00616   2.77045
   Y17        1.26658   0.00018   0.00000  -0.00606  -0.00525   1.26133
   Z17        2.34493   0.00112   0.00000  -0.00405  -0.00429   2.34064
   X18        3.30083  -0.00128   0.00000  -0.02607  -0.02813   3.27269
   Y18        3.10986   0.00205   0.00000   0.00222   0.00333   3.11319
   Z18        3.13563  -0.00382   0.00000  -0.00923  -0.01000   3.12562
   X19        1.21405  -0.00226   0.00000   0.01304   0.01204   1.22609
   Y19        0.49005  -0.00155   0.00000  -0.03308  -0.03262   0.45743
   Z19        3.46877  -0.00078   0.00000   0.00236   0.00292   3.47169
   X20        4.42734   0.00006   0.00000   0.01408   0.01281   4.44016
   Y20        0.03358  -0.00196   0.00000   0.01426   0.01568   0.04925
   Z20        2.56380  -0.00315   0.00000  -0.02740  -0.02818   2.53562
         Item               Value     Threshold  Converged?
 Maximum Force            0.054248     0.000450     NO 
 RMS     Force            0.011850     0.000300     NO 
 Maximum Displacement     0.042185     0.001800     NO 
 RMS     Displacement     0.012762     0.001200     NO 
 Predicted change in Energy=-3.146235D-03
 GradGradGradGradGradGradGradGradGradGradGradGradGradGradGradGradGradGrad

                          Input orientation:                          
 ---------------------------------------------------------------------
 Center     Atomic      Atomic             Coordinates (Angstroms)
 Number     Number       Type             X           Y           Z
 ---------------------------------------------------------------------
      1          6           0        0.787196   -0.385643   -0.871163
      2          6           0       -1.546180   -0.547438   -0.257926
[...]
    17   6    -0.02  -0.01   0.03    -0.01   0.00   0.02    -0.06   0.01   0.15
    18   1     0.19  -0.16  -0.28     0.04  -0.04  -0.07     0.16  -0.16  -0.22
    19   1     0.07   0.08  -0.16     0.03   0.02  -0.05     0.11   0.05  -0.13
    20   1     0.08   0.16  -0.23     0.01   0.03  -0.06     0.03   0.13  -0.25
                     40                     41                     42
                      A                      A                      A
 Frequencies --   1671.3400              1781.2435              1827.6273
 Red. masses --      8.0457                 9.0957                 9.3936
 Frc consts  --     13.2417                17.0032                18.4866
 IR Inten    --      0.0000                 0.0000                 0.0000
  Atom  AN      X      Y      Z        X      Y      Z        X      Y      Z
     1   6    -0.02   0.34  -0.19    -0.02   0.03  -0.02     0.04  -0.39   0.20
     2   6    -0.00   0.04   0.02    -0.18   0.61   0.18    -0.03   0.09   0.03
     3   6     0.18  -0.36  -0.14    -0.04   0.06   0.02     0.11  -0.29  -0.06
     4   6     0.02  -0.02   0.00     0.17  -0.48   0.01     0.02  -0.06   0.00
     5   7    -0.23   0.11   0.42     0.04  -0.09  -0.01    -0.11   0.59  -0.14
     6   1    -0.01  -0.02  -0.01     0.04  -0.11  -0.24     0.03  -0.01  -0.03
     7   1     0.18  -0.04  -0.15    -0.02  -0.00   0.03     0.13   0.07  -0.10
     8   1    -0.03  -0.01  -0.02    -0.00  -0.03  -0.33    -0.01  -0.01  -0.04
     9   1    -0.12   0.03   0.36    -0.03   0.02  -0.02     0.22  -0.19   0.00
    10   1     0.05   0.21  -0.13     0.04  -0.02   0.01    -0.16   0.07   0.05
    11   1    -0.02  -0.01   0.01    -0.10  -0.04   0.28     0.00   0.00   0.04
    12   9     0.00  -0.01  -0.01     0.02  -0.07  -0.10     0.00  -0.01  -0.02
    13   6     0.03  -0.09   0.01     0.01   0.00  -0.00    -0.02   0.03  -0.00
    14   1     0.10  -0.16  -0.08     0.01  -0.00  -0.01    -0.07   0.07   0.07
    15   1     0.01  -0.02  -0.03     0.01  -0.02  -0.01    -0.01   0.08   0.04
    16   1     0.02   0.00  -0.01     0.01   0.00  -0.00    -0.03  -0.00   0.00
    17   6     0.04  -0.02  -0.12    -0.00   0.01   0.01     0.01  -0.05   0.02
    18   1     0.04  -0.04  -0.12     0.01  -0.02  -0.04    -0.11   0.12   0.26
    19   1     0.09   0.01  -0.16    -0.01  -0.00   0.01     0.01   0.04  -0.06
    20   1     0.02   0.01  -0.20    -0.00  -0.00   0.03     0.03   0.03  -0.16
                     43                     44                     45
                      A                      A                      A
 Frequencies --   3131.0247              3167.8269              3182.2543
 Red. masses --      1.0874                 1.0875                 1.0931
 Frc consts  --      6.2807                 6.4299                 6.5217
 IR Inten    --      0.0000                 0.0000                 0.0000
  Atom  AN      X      Y      Z        X      Y      Z        X      Y      Z
     1   6    -0.00   0.00  -0.00    -0.00   0.00   0.01    -0.00  -0.00  -0.00
     2   6     0.00   0.00  -0.00     0.00   0.00  -0.00     0.00   0.00   0.00
     3   6    -0.00  -0.00  -0.00    -0.00  -0.00  -0.00    -0.00  -0.00  -0.00
     4   6     0.00   0.00   0.00     0.00  -0.00   0.00     0.00  -0.00  -0.00
     5   7    -0.00  -0.00   0.00     0.00  -0.00   0.00    -0.00  -0.00  -0.00
     6   1    -0.00   0.00   0.00    -0.00   0.00   0.00     0.00  -0.00  -0.00
     7   1    -0.00   0.00   0.00    -0.00   0.00   0.00    -0.00  -0.00  -0.00
     8   1    -0.00  -0.00   0.00    -0.00  -0.00   0.00    -0.00  -0.00   0.00
     9   1     0.00   0.00  -0.00    -0.00   0.00  -0.00     0.00   0.00  -0.00
    10   1    -0.01   0.00   0.02     0.03  -0.01  -0.12    -0.00   0.00   0.00
    11   1    -0.00   0.00  -0.00    -0.00   0.00  -0.00     0.00   0.00  -0.00
    12   9    -0.00   0.00  -0.00     0.00  -0.00  -0.00    -0.00  -0.00  -0.00
    13   6    -0.08  -0.03  -0.01     0.01   0.02  -0.08     0.00   0.00   0.00
    14   1     0.02   0.15  -0.17    -0.17  -0.45   0.40     0.00   0.01  -0.01
    15   1     0.90   0.04  -0.02    -0.15   0.00  -0.04    -0.01  -0.00   0.00
    16   1     0.07   0.11   0.33     0.24   0.27   0.66    -0.01  -0.01  -0.02
    17   6    -0.00   0.00  -0.00    -0.00  -0.00  -0.00    -0.08  -0.02  -0.03
    18   1    -0.00  -0.00   0.00    -0.00   0.00  -0.00    -0.02   0.12  -0.07
    19   1     0.01   0.01   0.01     0.01   0.01   0.01     0.56   0.43   0.45
    20   1     0.02  -0.01  -0.00     0.01  -0.01   0.00     0.44  -0.28  -0.02
                     46                     47                     48
                      A                      A                      A
 Frequencies --   3201.6562              3233.9491              3236.5192
 Red. masses --      1.0941                 1.0899                 1.0761
 Frc consts  --      6.6075                 6.7158                 6.6414
 IR Inten    --      0.0000                 0.0000                 0.0000
  Atom  AN      X      Y      Z        X      Y      Z        X      Y      Z
     1   6    -0.00   0.00   0.00     0.00  -0.00  -0.02     0.02  -0.01  -0.07
     2   6     0.00   0.00  -0.00    -0.00  -0.03   0.03     0.00   0.01  -0.01
     3   6     0.00   0.00  -0.00    -0.00  -0.00   0.00    -0.00   0.01   0.01
     4   6    -0.00  -0.00  -0.00     0.01   0.01  -0.07    -0.00  -0.00   0.02
     5   7     0.00  -0.00  -0.00    -0.00   0.00  -0.00     0.00   0.00  -0.00
     6   1     0.00  -0.00  -0.00    -0.17   0.21   0.34     0.04  -0.05  -0.09
     7   1    -0.01   0.01   0.04     0.01  -0.00  -0.03     0.05  -0.03  -0.20
     8   1    -0.00  -0.00   0.00     0.07   0.37  -0.50    -0.01  -0.06   0.09
     9   1    -0.00  -0.01   0.01     0.00   0.01  -0.00    -0.01  -0.07   0.06
    10   1     0.01  -0.00  -0.03    -0.05   0.03   0.20    -0.23   0.13   0.89
    11   1     0.00   0.00  -0.00     0.06  -0.30   0.52    -0.01   0.07  -0.12
    12   9    -0.00  -0.00  -0.00    -0.00   0.00   0.00     0.00  -0.00  -0.00
    13   6    -0.00  -0.00   0.00     0.00   0.00  -0.00     0.00   0.01  -0.01
    14   1     0.00   0.01  -0.01    -0.01  -0.03   0.02    -0.04  -0.12   0.11
    15   1     0.01   0.00  -0.00     0.00   0.00  -0.00     0.02   0.01  -0.01
    16   1     0.00   0.00   0.01     0.00   0.00   0.00     0.00   0.01   0.01
    17   6     0.02  -0.09   0.01    -0.00  -0.00   0.00     0.00  -0.00   0.00
    18   1     0.11   0.65  -0.30     0.00   0.01  -0.00     0.00   0.02  -0.01
    19   1     0.20   0.10   0.16     0.00   0.00   0.00     0.01   0.01   0.01
    20   1    -0.56   0.28   0.02    -0.00   0.00   0.00    -0.02   0.01   0.00
                     49                     50                     51
                      A                      A                      A
 Frequencies --   3244.8331              3252.8639              3255.1148
 Red. masses --      1.1106                 1.0512                 1.0904
 Frc consts  --      6.8896                 6.5532                 6.8073
 IR Inten    --      0.0000                 0.0000                 0.0000
  Atom  AN      X      Y      Z        X      Y      Z        X      Y      Z
     1   6    -0.00   0.00   0.00     0.00   0.00  -0.02     0.00  -0.00  -0.01
     2   6    -0.00   0.00  -0.00    -0.00  -0.01   0.01     0.01   0.04  -0.05
     3   6    -0.02  -0.05   0.08     0.01  -0.04  -0.03     0.00  -0.01  -0.01
     4   6    -0.00  -0.00   0.00    -0.01   0.01   0.02     0.01   0.00  -0.06
     5   7    -0.00  -0.00   0.00    -0.00  -0.00  -0.00    -0.00  -0.00  -0.00
     6   1     0.00  -0.00  -0.00     0.09  -0.10  -0.18    -0.16   0.20   0.32
     7   1     0.14  -0.11  -0.53    -0.20   0.11   0.73    -0.05   0.03   0.19
     8   1    -0.00  -0.01   0.01     0.02   0.10  -0.13    -0.09  -0.45   0.59
     9   1     0.07   0.66  -0.48     0.05   0.42  -0.34     0.01   0.11  -0.09
    10   1     0.01  -0.00  -0.05    -0.05   0.02   0.18    -0.02   0.01   0.08
    11   1    -0.00   0.00  -0.00    -0.01   0.03  -0.03     0.05  -0.22   0.37
    12   9     0.00   0.00  -0.00    -0.00  -0.00   0.00     0.00   0.00  -0.00
    13   6     0.00  -0.00   0.00     0.00   0.00  -0.00     0.00   0.00  -0.00
    14   1     0.00   0.01  -0.01    -0.01  -0.03   0.03    -0.01  -0.02   0.01
    15   1    -0.01  -0.00   0.00     0.01   0.00  -0.00     0.00   0.00  -0.00
    16   1     0.00   0.00   0.01    -0.00  -0.00  -0.01    -0.00  -0.00  -0.01
    17   6     0.00  -0.00  -0.00    -0.00   0.00   0.00     0.00   0.00   0.00
    18   1     0.01   0.02  -0.01    -0.00  -0.01   0.01    -0.00  -0.01   0.00
    19   1     0.01   0.00   0.01     0.00   0.00   0.00     0.00   0.00   0.00
    20   1    -0.02   0.01   0.00     0.00  -0.00  -0.00    -0.00   0.00   0.00
                     52                     53                     54
                      A                      A                      A
 Frequencies --   3262.9421              3268.6182              3283.5618
 Red. masses --      1.0488                 1.0337                 1.0278
 Frc consts  --      6.5788                 6.5072                 6.5292
 IR Inten    --      0.0000                 0.0000                 0.0000
  Atom  AN      X      Y      Z        X      Y      Z        X      Y      Z
     1   6     0.00  -0.00  -0.00     0.00  -0.01  -0.01     0.00   0.00  -0.00
     2   6     0.00  -0.00   0.00    -0.00   0.00  -0.00     0.00   0.00  -0.00
     3   6     0.00  -0.01  -0.00     0.00  -0.00  -0.00     0.00  -0.00  -0.00
     4   6     0.03  -0.05  -0.00     0.00  -0.00  -0.00     0.00  -0.00  -0.00
     5   7    -0.00   0.00  -0.00     0.00   0.00  -0.00    -0.00   0.00   0.00
     6   1    -0.29   0.33   0.61    -0.00   0.00   0.01    -0.00   0.00   0.00
     7   1    -0.03   0.01   0.10    -0.00   0.00   0.02    -0.00   0.00   0.00
     8   1     0.01   0.05  -0.07    -0.00  -0.00   0.00    -0.00  -0.00   0.00
     9   1     0.01   0.06  -0.05    -0.00  -0.00   0.00     0.00   0.01  -0.00
    10   1    -0.01   0.00   0.03    -0.03   0.02   0.13    -0.00   0.00   0.01
    11   1    -0.05   0.29  -0.57    -0.00   0.00  -0.00    -0.00   0.00  -0.00
    12   9    -0.00   0.00   0.00    -0.00   0.00  -0.00     0.00   0.00   0.00
    13   6     0.00   0.00  -0.00     0.00  -0.05  -0.00     0.00  -0.00  -0.00
    14   1    -0.00  -0.01   0.01     0.19   0.48  -0.49     0.01   0.01  -0.01
    15   1     0.00   0.00  -0.00    -0.40  -0.04   0.00    -0.02  -0.00   0.00
    16   1    -0.00  -0.00  -0.01     0.17   0.16   0.50     0.01   0.01   0.02
    17   6     0.00   0.00  -0.00     0.00   0.00  -0.00    -0.02  -0.01   0.04
    18   1    -0.00  -0.00   0.00    -0.00  -0.02   0.01     0.08   0.61  -0.26
    19   1     0.00   0.00   0.00     0.01   0.01   0.01    -0.33  -0.24  -0.24
    20   1    -0.00   0.00  -0.00    -0.01   0.01   0.00     0.49  -0.29   0.00

 -------------------
 - Thermochemistry -
 -------------------
 Temperature   298.150 Kelvin.  Pressure   1.00000 Atm.
 Atom     1 has atomic number  6 and mass  12.00000
 Atom     2 has atomic number  6 and mass  12.00000
 Atom     3 has atomic number  6 and mass  12.00000
 Atom     4 has atomic number  6 and mass  12.00000
 Atom     5 has atomic number  7 and mass  14.00307
 Atom     6 has atomic number  1 and mass   1.00783
 Atom     7 has atomic number  1 and mass   1.00783
 Atom     8 has atomic number  1 and mass   1.00783
 Atom     9 has atomic number  1 and mass   1.00783
 Atom    10 has atomic number  1 and mass   1.00783
 Atom    11 has atomic number  1 and mass   1.00783
 Atom    12 has atomic number  9 and mass  18.99840
 Atom    13 has atomic number  6 and mass  12.00000
 Atom    14 has atomic number  1 and mass   1.00783
 Atom    15 has atomic number  1 and mass   1.00783
 Atom    16 has atomic number  1 and mass   1.00783
 Atom    17 has atomic number  6 and mass  12.00000
 Atom    18 has atomic number  1 and mass   1.00783
 Atom    19 has atomic number  1 and mass   1.00783
 Atom    20 has atomic number  1 and mass   1.00783
 Molecular mass:   117.09538 amu.
 Principal axes and moments of inertia in atomic units:
                           1         2         3
     Eigenvalues --   813.98157 984.084131311.14798
           X            0.97330  -0.22428  -0.04887
           Y            0.22158   0.97358  -0.05515
           Z            0.05995   0.04285   0.99728
 This molecule is an asymmetric top.
 Rotational symmetry number  1.
 Warning -- assumption of classical behavior for rotation
           may cause significant error
 Rotational temperatures (Kelvin)      0.10641     0.08801     0.06606
 Rotational constants (GHZ):           2.21718     1.83393     1.37646
    4 imaginary frequencies ignored.
 Zero-point vibrational energy     450479.1 (Joules/Mol)
                                  107.66708 (Kcal/Mol)
 Warning -- explicit consideration of  11 degrees of freedom as
           vibrations may cause significant error
 Vibrational temperatures:    109.17   200.06   213.19   327.76   409.03
          (Kelvin)            430.99   634.61   662.06   743.26   750.31
                              856.89   896.62   975.12  1120.78  1218.56
                             1374.21  1394.35  1454.28  1457.94  1520.86
                             1534.71  1585.62  1675.19  1784.06  1853.77
                             1901.02  1914.50  1936.88  1957.96  1965.47
                             1994.95  2005.33  2035.37  2062.16  2095.14
                             2404.69  2562.81  2629.55  4504.85  4557.80
                             4578.55  4606.47  4652.93  4656.63  4668.59
                             4680.15  4683.38  4694.65  4702.81  4724.31
 
 Zero-point correction=                           0.171578 (Hartree/Particle)
 Thermal correction to Energy=                    0.179782
 Thermal correction to Enthalpy=                  0.180726
 Thermal correction to Gibbs Free Energy=         0.138772
 Sum of electronic and zero-point Energies=           -389.756806
 Sum of electronic and thermal Energies=              -389.748602
 Sum of electronic and thermal Enthalpies=            -389.747658
 Sum of electronic and thermal Free Energies=         -389.789612
 
                     E (Thermal)             CV                S
                      KCal/Mol        Cal/Mol-Kelvin    Cal/Mol-Kelvin
 Total                  112.815             30.486             88.299
 Electronic               0.000              0.000              0.000
 Translational            0.889              2.981             40.188
 Rotational               0.889              2.981             28.442
 Vibrational            111.037             24.525             19.669
 Vibration     1          0.599              1.965              3.995
 Vibration     2          0.615              1.914              2.817
 Vibration     3          0.618              1.905              2.696
 Vibration     4          0.651              1.799              1.896
 Vibration     5          0.683              1.703              1.508
 Vibration     6          0.692              1.675              1.419
 Vibration     7          0.801              1.381              0.823
 Vibration     8          0.818              1.338              0.766
 Vibration     9          0.872              1.213              0.618
 Vibration    10          0.876              1.202              0.607
 Vibration    11          0.953              1.041              0.457
                       Q            Log10(Q)             Ln(Q)
 Total Bot       0.147691D-63        -63.830646       -146.975493
 Total V=0       0.122991D+16         15.089874         34.745720
 Vib (Bot)       0.808344D-77        -77.092404       -177.511820
 Vib (Bot)    1  0.271581D+01          0.433899          0.999090
 Vib (Bot)    2  0.146269D+01          0.165154          0.380280
 Vib (Bot)    3  0.136915D+01          0.136452          0.314193
 Vib (Bot)    4  0.865421D+00         -0.062772         -0.144539
 Vib (Bot)    5  0.674746D+00         -0.170860         -0.393420
 Vib (Bot)    6  0.635026D+00         -0.197208         -0.454089
 Vib (Bot)    7  0.391596D+00         -0.407162         -0.937526
 Vib (Bot)    8  0.369581D+00         -0.432290         -0.995384
 Vib (Bot)    9  0.313432D+00         -0.503857         -1.160174
 Vib (Bot)   10  0.309102D+00         -0.509898         -1.174083
 Vib (Bot)   11  0.251859D+00         -0.598842         -1.378885
 Vib (V=0)       0.673156D+02          1.828116          4.209393
 Vib (V=0)    1  0.326145D+01          0.513411          1.182173
 Vib (V=0)    2  0.204579D+01          0.310862          0.715785
 Vib (V=0)    3  0.195759D+01          0.291723          0.671716
 Vib (V=0)    4  0.149948D+01          0.175940          0.405116
 Vib (V=0)    5  0.133981D+01          0.127043          0.292528
 Vib (V=0)    6  0.130824D+01          0.116689          0.268686
 Vib (V=0)    7  0.113510D+01          0.055033          0.126717
 Vib (V=0)    8  0.112176D+01          0.049901          0.114902
 Vib (V=0)    9  0.109012D+01          0.037474          0.086286
 Vib (V=0)   10  0.108783D+01          0.036561          0.084185
 Vib (V=0)   11  0.105985D+01          0.025245          0.058128
 Electronic      0.100000D+01          0.000000          0.000000
 Translational   0.498039D+08          7.697264         17.723604
 Rotational      0.366855D+06          5.564495         12.812723
 ***** Axes restored to original set *****
 -------------------------------------------------------------------
 Center     Atomic                   Forces (Hartrees/Bohr)
 Number     Number              X              Y              Z
 -------------------------------------------------------------------
      1        6           0.000087908    0.000005415    0.000056515
      2        6          -0.000144638    0.000120398    0.000056215
      3        6          -0.000016347   -0.000029253   -0.000018293
      4        6           0.000038879   -0.000197792    0.000108141
      5        7           0.000057111   -0.000038710   -0.000014639
      6        1           0.000110440   -0.000059758    0.000071806
      7        1           0.000007591   -0.000008808    0.000010780
      8        1           0.000028677    0.000094307    0.000137220
      9        1          -0.000024559   -0.000018737    0.000012901
     10        1          -0.000024787    0.000003241    0.000024554
     11        1           0.000014707   -0.000077837   -0.000115173
     12        9          -0.000010019    0.000178299   -0.000253177
     13        6           0.000068574   -0.000375483    0.000040030
     14        1           0.000147015    0.000341464    0.000388199
     15        1          -0.000431316   -0.000064030   -0.000015080
     16        1           0.000213753    0.000098343   -0.000426138
     17        6           0.000084280    0.000027985    0.000248184
     18        1          -0.000081507   -0.000436858   -0.000162199
     19        1           0.000292214    0.000176752   -0.000170380
     20        1          -0.000417974    0.000261062    0.000020533
 -------------------------------------------------------------------
 Cartesian Forces:  Max     0.000436858 RMS     0.000174242


 GOD GAVE US TWO ENDS... ONE TO SIT ON...    
 AND THE OTHER TO THINK WITH...              
 YOUR SUCCESS DEPENDS UPON WHICH END YOU     
 USE THE MOST...                             
                                             
 IT'S A CASE OF HEADS YOU WIN TAILS YOU LOSE.
          SOURCE UNKNOWN(IT'S JUST AS WELL.) 
 Error termination request processed by link 9999.
 Error termination via Lnk1e in /apps/gaussian/g16/C.01/g16/l9999.exe at Mon May 20 13:26:53 2024.
 Job cpu time:       0 days  4 hours 52 minutes 16.5 seconds.
 Elapsed time:       0 days  0 hours 42 minutes 11.3 seconds.
 File lengths (MBytes):  RWF=      6 Int=      0 D2E=      0 Chk=      1 Scr=      1
