Unloading slurm/anatra/current
  ERROR: No such file or directory on
    '/cm/local/modulefiles/slurm/anatra/current'
environment: line 0: unalias: gv: not found
environment: line 0: unalias: sl: not found
 Entering Gaussian System, Link 0=g16
 Initial command:
 /apps/gaussian/g16/C.01/g16/l1.exe "/local/jobs/1176109/Gau-66483.inp" -scrdir="/local/jobs/1176109/"
 Entering Link 1 = /apps/gaussian/g16/C.01/g16/l1.exe PID=     66486.
  
 Copyright (c) 1988-2019, Gaussian, Inc.  All Rights Reserved.
  
 This is part of the Gaussian(R) 16 program.  It is based on
 the Gaussian(R) 09 system (copyright 2009, Gaussian, Inc.),
 the Gaussian(R) 03 system (copyright 2003, Gaussian, Inc.),
 the Gaussian(R) 98 system (copyright 1998, Gaussian, Inc.),
 the Gaussian(R) 94 system (copyright 1995, Gaussian, Inc.),
 the Gaussian 92(TM) system (copyright 1992, Gaussian, Inc.),
 the Gaussian 90(TM) system (copyright 1990, Gaussian, Inc.),
 the Gaussian 88(TM) system (copyright 1988, Gaussian, Inc.),
 the Gaussian 86(TM) system (copyright 1986, Carnegie Mellon
 University), and the Gaussian 82(TM) system (copyright 1983,
 Carnegie Mellon University). Gaussian is a federally registered
 trademark of Gaussian, Inc.
  
 This software contains proprietary and confidential information,
 including trade secrets, belonging to Gaussian, Inc.
  
 This software is provided under written license and may be
 used, copied, transmitted, or stored only in accord with that
 written license.
  
 The following legend is applicable only to US Government
 contracts under FAR:
  
                    RESTRICTED RIGHTS LEGEND
  
 Use, reproduction and disclosure by the US Government is
 subject to restrictions as set forth in subparagraphs (a)
 and (c) of the Commercial Computer Software - Restricted
 Rights clause in FAR 52.227-19.
  
 Gaussian, Inc.
 340 Quinnipiac St., Bldg. 40, Wallingford CT 06492
  
  
 ---------------------------------------------------------------
 Warning -- This program may not be used in any manner that
 competes with the business of Gaussian, Inc. or will provide
 assistance to any competitor of Gaussian, Inc.  The licensee
 of this program is prohibited from giving any competitor of
 Gaussian, Inc. access to this program.  By using this program,
 the user acknowledges that Gaussian, Inc. is engaged in the
 business of creating and licensing software in the field of
 computational chemistry and represents and warrants to the
 licensee that it is not a competitor of Gaussian, Inc. and that
 it will not use this program in any manner prohibited above.
 ---------------------------------------------------------------
  

 Cite this work as:
 Gaussian 16, Revision C.01,
 M. J. Frisch, G. W. Trucks, H. B. Schlegel, G. E. Scuseria, 
 M. A. Robb, J. R. Cheeseman, G. Scalmani, V. Barone, 
 G. A. Petersson, H. Nakatsuji, X. Li, M. Caricato, A. V. Marenich, 
 J. Bloino, B. G. Janesko, R. Gomperts, B. Mennucci, H. P. Hratchian, 
 J. V. Ortiz, A. F. Izmaylov, J. L. Sonnenberg, D. Williams-Young, 
 F. Ding, F. Lipparini, F. Egidi, J. Goings, B. Peng, A. Petrone, 
 T. Henderson, D. Ranasinghe, V. G. Zakrzewski, J. Gao, N. Rega, 
 G. Zheng, W. Liang, M. Hada, M. Ehara, K. Toyota, R. Fukuda, 
 J. Hasegawa, M. Ishida, T. Nakajima, Y. Honda, O. Kitao, H. Nakai, 
 T. Vreven, K. Throssell, J. A. Montgomery, Jr., J. E. Peralta, 
 F. Ogliaro, M. J. Bearpark, J. J. Heyd, E. N. Brothers, K. N. Kudin, 
 V. N. Staroverov, T. A. Keith, R. Kobayashi, J. Normand, 
 K. Raghavachari, A. P. Rendell, J. C. Burant, S. S. Iyengar, 
 J. Tomasi, M. Cossi, J. M. Millam, M. Klene, C. Adamo, R. Cammi, 
 J. W. Ochterski, R. L. Martin, K. Morokuma, O. Farkas, 
 J. B. Foresman, and D. J. Fox, Gaussian, Inc., Wallingford CT, 2019.
 
 ******************************************
 Gaussian 16:  ES64L-G16RevC.01  3-Jul-2019
                20-May-2024 
 ******************************************
 %nprocshared=12
 Will use up to   12 processors via shared memory.
 %mem=48GB
 ----------------------------------------------------------------------
 # external="~/scripts/MiMe -H 'am1' -EF 'wb97xd def2svp' -c 12 -m 48GB
 " opt=(calcall,ts,noeigen,maxcycles=50,maxstep=10,nomicro,cartesian)
 ----------------------------------------------------------------------
 1/5=1,6=50,8=10,10=4,11=1,18=10,26=1,38=1/1,3;
 2/12=2,17=6,18=5,29=2,40=1/2;
 3/11=9,25=1,30=1,41=9900000,43=2,71=2,140=1/1;
 4/20=17,22=2,24=3,113=1,114=1/2;
 6/7=2,8=2,9=2,10=2,18=1/1;
 7/7=1,25=1,44=-1/16;
 1/5=1,6=50,8=10,10=4,11=1,18=10,26=1/3(3);
 2/29=1/2;
 7/7=1,8=1,9=1,25=1,44=-1/16;
 99/12=1/99;
 2/29=1/2;
 3/11=9,25=1,30=1,41=9900000,43=2,71=2,140=1/1;
 4/16=2,20=17,22=2,24=3,113=1,114=1/2;
 7/7=1,25=1,44=-1/16;
 1/5=1,6=50,8=10,10=4,11=1,18=10,26=1/3(-4);
 2/29=1/2;
 6/7=2,8=2,9=2,10=2,18=1/1;
 7/7=1,8=1,9=1,25=1,44=-1/16;
 99/12=1/99;
 -----
 *****
 -----
 Symbolic Z-matrix:
 Charge =  0 Multiplicity = 1
 C                     1.926     0.1722   -0.005 
 C                     0.7332   -1.561     0.2678 
 C                     0.4112    1.2555    1.075 
 C                    -0.531    -1.0586    0.8293 
 N                     1.7025    0.7364    1.2998 
 H                     0.6664   -1.9557   -0.7531 
 H                     1.3297   -2.1646    0.9585 
 H                    -0.2593    1.6608    1.8195 
 H                    -0.6848   -1.0875    1.9035 
 O                     1.2051    0.8334   -1.0306 
 C                     0.2136    1.5119   -0.3666 
 O                    -0.6834    2.1731   -0.8537 
 C                    -1.7411   -0.9446   -0.0186 
 O                    -1.7938   -1.287    -1.187 
 O                    -2.7058   -0.3299    0.7041 
 C                    -3.864    -0.0087   -0.0696 
 H                    -4.6046    0.4407    0.5972 
 H                    -4.2985   -0.9112   -0.5123 
 H                    -3.6099    0.72     -0.8471 
 C                     3.2267   -0.349    -0.3333 
 N                     4.2764   -0.7867   -0.567 
 H                     2.014     0.283     2.1522 
 

 GradGradGradGradGradGradGradGradGradGradGradGradGradGradGradGradGradGrad
 Berny optimization.
 Initialization pass.
 No Z-matrix variables, so optimization will use Cartesian coordinates.
 Trust Radius=1.00D-01 FncErr=1.00D-07 GrdErr=1.00D-07 EigMax=2.50D+02 EigMin=1.00D-04
 Number of steps in this run=     50 maximum allowed number of steps=    132.
 Search for a saddle point of order  1.
 GradGradGradGradGradGradGradGradGradGradGradGradGradGradGradGradGradGrad

 ---------------------------------------------------------------------------------------------------
                            Z-MATRIX (ANGSTROMS AND DEGREES)
   CD    Cent   Atom    N1       Length/X        N2       Alpha/Y        N3        Beta/Z          J
 ---------------------------------------------------------------------------------------------------
      1      1  C        0   1.926000          0.172200         -0.005000
      2      2  C        0   0.733200         -1.561000          0.267800
      3      3  C        0   0.411200          1.255500          1.075000
      4      4  C        0  -0.531000         -1.058600          0.829300
      5      5  N        0   1.702500          0.736400          1.299800
      6      6  H        0   0.666400         -1.955700         -0.753100
      7      7  H        0   1.329700         -2.164600          0.958500
      8      8  H        0  -0.259300          1.660800          1.819500
      9      9  H        0  -0.684800         -1.087500          1.903500
     10     10  O        0   1.205100          0.833400         -1.030600
     11     11  C        0   0.213600          1.511900         -0.366600
     12     12  O        0  -0.683400          2.173100         -0.853700
     13     13  C        0  -1.741100         -0.944600         -0.018600
     14     14  O        0  -1.793800         -1.287000         -1.187000
     15     15  O        0  -2.705800         -0.329900          0.704100
     16     16  C        0  -3.864000         -0.008700         -0.069600
     17     17  H        0  -4.604600          0.440700          0.597200
     18     18  H        0  -4.298500         -0.911200         -0.512300
     19     19  H        0  -3.609900          0.720000         -0.847100
     20     20  C        0   3.226700         -0.349000         -0.333300
     21     21  N        0   4.276400         -0.786700         -0.567000
     22     22  H        0   2.014000          0.283000          2.152200
 ---------------------------------------------------------------------------------------------------
                         Z-Matrix orientation:                         
 ---------------------------------------------------------------------
 Center     Atomic      Atomic             Coordinates (Angstroms)
 Number     Number       Type             X           Y           Z
 ---------------------------------------------------------------------
      1          6           0        1.926000    0.172200   -0.005000
      2          6           0        0.733200   -1.561000    0.267800
      3          6           0        0.411200    1.255500    1.075000
      4          6           0       -0.531000   -1.058600    0.829300
      5          7           0        1.702500    0.736400    1.299800
      6          1           0        0.666400   -1.955700   -0.753100
      7          1           0        1.329700   -2.164600    0.958500
      8          1           0       -0.259300    1.660800    1.819500
      9          1           0       -0.684800   -1.087500    1.903500
     10          8           0        1.205100    0.833400   -1.030600
     11          6           0        0.213600    1.511900   -0.366600
     12          8           0       -0.683400    2.173100   -0.853700
     13          6           0       -1.741100   -0.944600   -0.018600
     14          8           0       -1.793800   -1.287000   -1.187000
     15          8           0       -2.705800   -0.329900    0.704100
     16          6           0       -3.864000   -0.008700   -0.069600
     17          1           0       -4.604600    0.440700    0.597200
     18          1           0       -4.298500   -0.911200   -0.512300
     19          1           0       -3.609900    0.720000   -0.847100
     20          6           0        3.226700   -0.349000   -0.333300
     21          7           0        4.276400   -0.786700   -0.567000
     22          1           0        2.014000    0.283000    2.152200
 ---------------------------------------------------------------------
                    Distance matrix (angstroms):
                    1          2          3          4          5
     1  C    0.000000
     2  C    2.121597   0.000000
     3  C    2.152802   2.947529   0.000000
     4  C    2.871894   1.471696   2.510611   0.000000
     5  N    1.439019   2.698632   1.409771   2.903776   0.000000
     6  H    2.583448   1.096580   3.703901   2.177738   3.540523
     7  H    2.597025   1.094172   3.543205   2.168440   2.944701
     8  H    3.212517   3.711176   1.080795   2.906794   2.230081
     9  H    3.470662   2.215951   2.716114   1.085539   3.064354
    10  O    1.417299   2.764360   2.289541   3.170636   2.384865
    11  C    2.204056   3.180434   1.477497   2.931224   2.365399
    12  O    3.396007   4.148255   2.400005   3.646862   3.520538
    13  C    3.833412   2.565957   3.266312   1.481983   4.052446
    14  O    4.166929   2.928694   4.054994   2.390041   4.743673
    15  O    4.712589   3.678680   3.516639   2.297049   4.574381
    16  C    5.793185   4.863920   4.602787   3.608213   5.780688
    17  H    6.563800   5.710290   5.103963   4.346952   6.352999
    18  H    6.338415   5.133108   5.421751   4.001959   6.481535
    19  H    5.626314   5.030753   4.488928   3.931076   5.729838
    20  C    1.439184   2.836866   3.533379   3.996934   2.483605
    21  N    2.599945   3.721653   4.669745   5.013450   3.525583
    22  H    2.161835   2.931168   2.162194   3.166541   1.014490
                    6          7          8          9         10
     6  H    0.000000
     7  H    1.847480   0.000000
     8  H    4.533681   4.230831   0.000000
     9  H    3.104358   2.472120   2.782312   0.000000
    10  O    2.854169   3.600007   3.309400   3.983782   0.000000
    11  C    3.518332   4.064261   2.241615   3.566140   1.372709
    12  O    4.345005   5.113930   2.754689   4.270090   2.322180
    13  C    2.712539   3.445713   3.516028   2.197876   3.586854
    14  O    2.586119   3.889679   4.481435   3.289509   3.676134
    15  O    4.017262   4.440282   3.345499   2.469202   4.433688
    16  C    4.978203   5.716591   4.398840   3.894130   5.227660
    17  H    5.945543   6.491074   4.675927   4.405298   6.046202
    18  H    5.079291   5.950706   5.326125   4.350402   5.796713
    19  H    5.045290   5.998396   4.384334   4.403302   4.819830
    20  C    3.051697   2.926390   4.563556   4.566015   2.443596
    21  N    3.799118   3.592882   5.679631   5.550437   3.503217
    22  H    3.907502   2.807834   2.678976   3.037045   3.329786
                   11         12         13         14         15
    11  C    0.000000
    12  O    1.216166   0.000000
    13  C    3.158536   3.396494   0.000000
    14  O    3.540699   3.649160   1.218677   0.000000
    15  O    3.614073   3.575172   1.353070   2.307389   0.000000
    16  C    4.362024   3.935896   2.320606   2.677380   1.429408
    17  H    5.029059   4.525719   3.240046   3.750855   2.051997
    18  H    5.123640   4.764285   2.604832   2.621062   2.086680
    19  H    3.934099   3.267407   2.636232   2.727966   2.079882
    20  C    3.541586   4.681953   5.013264   5.178230   6.022551
    21  N    4.672266   5.782926   6.044500   6.122257   7.111644
    22  H    3.331064   4.459134   4.507788   5.302311   4.974852
                   16         17         18         19         20
    16  C    0.000000
    17  H    1.093193   0.000000
    18  H    1.095116   1.775478   0.000000
    19  H    1.095480   1.775793   1.801964   0.000000
    20  C    7.103757   7.925826   7.548294   6.938721   0.000000
    21  N    8.192607   9.040688   8.575978   8.033824   1.161063
    22  H    6.290657   6.800644   6.955094   6.388663   2.836860
                   21         22
    21  N    0.000000
    22  H    3.695505   0.000000
 Stoichiometry    C8H8N2O4
 Framework group  C1[X(C8H8N2O4)]
 Deg. of freedom    60
 Full point group                 C1      NOp   1
 Largest Abelian subgroup         C1      NOp   1
 Largest concise Abelian subgroup C1      NOp   1
                         Standard orientation:                         
 ---------------------------------------------------------------------
 Center     Atomic      Atomic             Coordinates (Angstroms)
 Number     Number       Type             X           Y           Z
 ---------------------------------------------------------------------
      1          6           0        1.901595    0.103954    0.015435
      2          6           0        0.662124   -1.607415    0.205441
      3          6           0        0.407708    1.179062    1.132128
      4          6           0       -0.592612   -1.096648    0.780457
      5          7           0        1.683388    0.616915    1.342097
      6          1           0        0.592488   -1.955723   -0.832018
      7          1           0        1.237674   -2.255800    0.872937
      8          1           0       -0.257403    1.569313    1.889393
      9          1           0       -0.754911   -1.167894    1.851428
     10          8           0        1.205623    0.827616   -0.984902
     11          6           0        0.227327    1.502648   -0.298170
     12          8           0       -0.648592    2.207669   -0.761604
     13          6           0       -1.793143   -0.914287   -0.069097
     14          8           0       -1.846252   -1.204357   -1.251558
     15          8           0       -2.746736   -0.306217    0.673673
     16          6           0       -3.890530    0.078505   -0.092442
     17          1           0       -4.624003    0.518004    0.588682
     18          1           0       -4.345153   -0.792264   -0.576548
     19          1           0       -3.611903    0.833189   -0.836012
     20          6           0        3.190634   -0.436629   -0.327198
     21          7           0        4.230253   -0.891301   -0.573236
     22          1           0        1.976778    0.119051    2.175910
 ---------------------------------------------------------------------
 Rotational constants (GHZ):           1.3537180           0.4678392           0.4214048
 Standard basis: STO-3G (5D, 7F)
 There are    78 symmetry adapted cartesian basis functions of A   symmetry.
 There are    78 symmetry adapted basis functions of A   symmetry.
    78 basis functions,   234 primitive gaussians,    78 cartesian basis functions
    51 alpha electrons       51 beta electrons
       nuclear repulsion energy       892.5014373949 Hartrees.
 NAtoms=   22 NActive=   22 NUniq=   22 SFac= 1.00D+00 NAtFMM=   60 NAOKFM=F Big=F
 Integral buffers will be    131072 words long.
 Raffenetti 1 integral format.
 Two-electron integral symmetry is turned on.
 External calculation of energy, first and second derivatives.
 Running external command "~/scripts/MiMe -H 'am1' -EF 'wb97xd def2svp' -c 12 -m 48GB R"
         input file       "/local/jobs/1176109/Gau-66486.EIn"
         output file      "/local/jobs/1176109/Gau-66486.EOu"
         message file     "/local/jobs/1176109/Gau-66486.EMs"
         fchk file        "/local/jobs/1176109/Gau-66486.EFC"
         mat. el file     "/local/jobs/1176109/Gau-66486.EUF"
 Read checkpoint file Gau-66486_H.chk type G16
 Write formatted file Gau-66486_H.fchk

deriv: 2

spelevel: wb97xd def2svp
gradlevel: wb97xd def2svp
hesslevel: am1

runspe: False
runforce: True
runfreq: True

Running Gaussian ...

Parsing files ...
SPE file: Gau-66486_F.out
FORCE file: Gau-66486_F.out
HESS file: Gau-66486_H.out

 ExternalExternalExternalExternalExternalExternalExternalExternalExternalExternal
 Output from external command:
 "~/scripts/MiMe -H 'am1' -EF 'wb97xd def2svp' -c 12 -m 48GB R /local/jobs/1176109/Gau-66486.EIn /local/jobs/1176109/Gau-66486.EOu /local/jobs/1176109/Gau-66486.EMs /local/jobs/1176109/Gau-66486.EFC /local/jobs/1176109/Gau-66486.EUF"
  
 --------------------------------------------------
 Force calculation at wb97xd def2svp
 Hessian calculation at am1
 ExternalExternalExternalExternalExternalExternalExternalExternalExternalExternal

 Recovered energy= -719.169780601     dipole=     -0.727200000000     -0.282600000000      6.089500000000
 Energy=    -719.169781     NIter=   0.
 Dipole moment=      -0.727200      -0.282600       6.089500
 ***** Axes restored to original set *****
 -------------------------------------------------------------------
 Center     Atomic                   Forces (Hartrees/Bohr)
 Number     Number              X              Y              Z
 -------------------------------------------------------------------
      1        6          -0.007809128   -0.033880465    0.012001507
      2        6          -0.037738720    0.019364654    0.012982594
      3        6           0.021030036   -0.025659028    0.009116698
      4        6           0.052942876   -0.002016738   -0.024704305
      5        7          -0.053825496    0.022031473   -0.080129080
      6        1           0.001869437    0.003600916   -0.000072009
      7        1           0.006664384    0.004129268   -0.001545387
      8        1           0.003233376    0.004460791    0.006453284
      9        1          -0.001086389    0.001641267    0.004297616
     10        8           0.022565221   -0.008158445    0.048475282
     11        6          -0.036398399    0.019679857    0.014875119
     12        8           0.030671408   -0.023132674    0.001406252
     13        6           0.015579323    0.006459839   -0.005942299
     14        8          -0.009581802    0.010777451    0.027120315
     15        8          -0.006323560   -0.007241723   -0.024801972
     16        6          -0.002091419    0.001332276    0.006068176
     17        1           0.001420962    0.000504077    0.005021870
     18        1           0.000740954   -0.001497495   -0.003464945
     19        1           0.001600462   -0.000862124   -0.003344665
     20        6           0.006686364    0.007692508   -0.004444712
     21        7          -0.010283729    0.001597627    0.002580480
     22        1           0.000133837   -0.000823308   -0.001949818
 -------------------------------------------------------------------
 Cartesian Forces:  Max     0.080129080 RMS     0.020056788

 GradGradGradGradGradGradGradGradGradGradGradGradGradGradGradGradGradGrad
 Berny optimization.
 Search for a saddle point.
 Step number   1 out of a maximum of   50
 All quantities printed in internal units (Hartrees-Bohrs-Radians)
 Swapping is turned off.
 Second derivative matrix not updated -- analytic derivatives used.
 ITU=  0
     Eigenvalues ---   -0.17354  -0.00870  -0.00188  -0.00074  -0.00034
     Eigenvalues ---    0.00221   0.00328   0.00514   0.00571   0.00700
     Eigenvalues ---    0.01276   0.01512   0.01807   0.02009   0.02529
     Eigenvalues ---    0.03054   0.03578   0.04062   0.04668   0.05738
     Eigenvalues ---    0.06164   0.06519   0.06903   0.07718   0.09209
     Eigenvalues ---    0.11416   0.11845   0.12586   0.13145   0.13461
     Eigenvalues ---    0.14619   0.16155   0.17057   0.19178   0.19723
     Eigenvalues ---    0.22076   0.24127   0.24851   0.26047   0.32152
     Eigenvalues ---    0.37606   0.48086   0.53032   0.61898   0.68806
     Eigenvalues ---    0.80819   0.81488   0.85629   0.86982   0.88011
     Eigenvalues ---    0.97012   0.97711   1.00729   1.07260   1.10979
     Eigenvalues ---    1.15964   1.29229   2.31406   2.34764   3.13450
 Eigenvectors required to have negative eigenvalues:
                          Y1        Y4        Y2        X2        Y3
   1                    0.45456  -0.45221  -0.40062  -0.38863   0.32078
                          X1        X3        Z2        X4        Z5
   1                    0.28093   0.17815   0.12660  -0.08070  -0.06437
 RFO step:  Lambda0=3.078237380D-04 Lambda=-4.81408070D-02.
 Linear search not attempted -- option 19 set.
 Maximum step size (   0.100) exceeded in Quadratic search.
    -- Step size scaled by   0.132
 B after Tr=    -0.000234   -0.000312   -0.000370
         Rot=    1.000000   -0.000267    0.000200    0.000082 Ang=  -0.04 deg.
 Variable       Old X    -DE/DX   Delta X   Delta X   Delta X     New X
                                 (Linear)    (Quad)   (Total)
    X1        3.63961  -0.00781   0.00000  -0.00242  -0.00260   3.63701
    Y1        0.32541  -0.03388   0.00000  -0.01211  -0.01302   0.31239
    Z1       -0.00945   0.01200   0.00000   0.00291   0.00416  -0.00529
    X2        1.38555  -0.03774   0.00000  -0.01014  -0.01107   1.37448
    Y2       -2.94986   0.01936   0.00000  -0.00763  -0.00844  -2.95830
    Z2        0.50607   0.01298   0.00000   0.00487   0.00347   0.50954
    X3        0.77706   0.02103   0.00000  -0.00688  -0.00754   0.76951
    Y3        2.37255  -0.02566   0.00000  -0.00029  -0.00181   2.37074
    Z3        2.03146   0.00912   0.00000   0.00136   0.00257   2.03402
    X4       -1.00344   0.05294   0.00000   0.01152   0.01033  -0.99311
    Y4       -2.00046  -0.00202   0.00000  -0.00397  -0.00496  -2.00542
    Z4        1.56715  -0.02470   0.00000  -0.00250  -0.00434   1.56281
    X5        3.21726  -0.05383   0.00000  -0.01643  -0.01741   3.19984
    Y5        1.39159   0.02203   0.00000  -0.00071  -0.00285   1.38874
    Z5        2.45627  -0.08013   0.00000  -0.01756  -0.01591   2.44036
    X6        1.25931   0.00187   0.00000   0.00404   0.00377   1.26308
    Y6       -3.69574   0.00360   0.00000   0.00362   0.00386  -3.69188
    Z6       -1.42315  -0.00007   0.00000  -0.00017  -0.00201  -1.42517
    X7        2.51277   0.00666   0.00000   0.00946   0.00783   2.52060
    Y7       -4.09050   0.00413   0.00000   0.00390   0.00220  -4.08830
    Z7        1.81130  -0.00155   0.00000  -0.00148  -0.00303   1.80828
    X8       -0.49001   0.00323   0.00000   0.00671   0.00562  -0.48439
    Y8        3.13846   0.00446   0.00000   0.01164   0.00956   3.14802
    Z8        3.43836   0.00645   0.00000   0.00788   0.00900   3.44736
    X9       -1.29408  -0.00109   0.00000   0.00146  -0.00055  -1.29463
    Y9       -2.05508   0.00164   0.00000   0.00041  -0.00161  -2.05669
    Z9        3.59709   0.00430   0.00000  -0.00083  -0.00281   3.59428
   X10        2.27731   0.02257   0.00000   0.00415   0.00495   2.28225
   Y10        1.57490  -0.00816   0.00000  -0.00690  -0.00655   1.56835
   Z10       -1.94755   0.04848   0.00000   0.01664   0.01802  -1.92953
   X11        0.40365  -0.03640   0.00000  -0.00996  -0.00945   0.39419
   Y11        2.85708   0.01968   0.00000  -0.00747  -0.00748   2.84960
   Z11       -0.69277   0.01488   0.00000   0.00620   0.00751  -0.68526
   X12       -1.29144   0.03067   0.00000   0.00565   0.00674  -1.28470
   Y12        4.10656  -0.02313   0.00000  -0.01756  -0.01678   4.08978
   Z12       -1.61326   0.00141   0.00000  -0.02420  -0.02290  -1.63616
   X13       -3.29020   0.01558   0.00000   0.01346   0.01295  -3.27725
   Y13       -1.78504   0.00646   0.00000   0.01709   0.01734  -1.76770
   Z13       -0.03515  -0.00594   0.00000  -0.00079  -0.00341  -0.03856
   X14       -3.38979  -0.00958   0.00000   0.00929   0.00957  -3.38023
   Y14       -2.43208   0.01078   0.00000   0.05846   0.05991  -2.37217
   Z14       -2.24310   0.02712   0.00000  -0.01022  -0.01321  -2.25631
   X15       -5.11322  -0.00632   0.00000  -0.00547  -0.00635  -5.11957
   Y15       -0.62342  -0.00724   0.00000  -0.02174  -0.02192  -0.64534
   Z15        1.33056  -0.02480   0.00000   0.00370   0.00094   1.33150
   X16       -7.30190  -0.00209   0.00000  -0.00317  -0.00336  -7.30526
   Y16       -0.01644   0.00133   0.00000  -0.00824  -0.00729  -0.02373
   Z16       -0.13152   0.00607   0.00000   0.00854   0.00523  -0.12629
   X17       -8.70143   0.00142   0.00000   0.01327   0.01271  -8.68872
   Y17        0.83280   0.00050   0.00000   0.01296   0.01347   0.84627
   Z17        1.12854   0.00502   0.00000   0.01315   0.00975   1.13830
   X18       -8.12299   0.00074   0.00000  -0.02013  -0.02027  -8.14326
   Y18       -1.72192  -0.00150   0.00000  -0.00519  -0.00366  -1.72557
   Z18       -0.96811  -0.00346   0.00000   0.01768   0.01312  -0.95498
   X19       -6.82172   0.00160   0.00000   0.00629   0.00692  -6.81481
   Y19        1.36060  -0.00086   0.00000  -0.02372  -0.02206   1.33855
   Z19       -1.60079  -0.00334   0.00000  -0.00414  -0.00652  -1.60731
   X20        6.09758   0.00669   0.00000   0.00152   0.00142   6.09900
   Y20       -0.65951   0.00769   0.00000   0.00031  -0.00067  -0.66019
   Z20       -0.62985  -0.00444   0.00000   0.00276   0.00448  -0.62537
   X21        8.08122  -0.01028   0.00000   0.00070   0.00065   8.08187
   Y21       -1.48665   0.00160   0.00000   0.00080  -0.00027  -1.48692
   Z21       -1.07147   0.00258   0.00000   0.00281   0.00488  -1.06659
   X22        3.80591   0.00013   0.00000  -0.00308  -0.00485   3.80106
   Y22        0.53479  -0.00082   0.00000   0.01614   0.01304   0.54783
   Z22        4.06707  -0.00195   0.00000  -0.01043  -0.00899   4.05808
         Item               Value     Threshold  Converged?
 Maximum Force            0.080129     0.000450     NO 
 RMS     Force            0.020057     0.000300     NO 
 Maximum Displacement     0.059908     0.001800     NO 
 RMS     Displacement     0.012204     0.001200     NO 
 Predicted change in Energy=-6.111582D-03
 GradGradGradGradGradGradGradGradGradGradGradGradGradGradGradGradGradGrad

                          Input orientation:                          
 ---------------------------------------------------------------------
 Center     Atomic      Atomic             Coordinates (Angstroms)
 Number     Number       Type             X           Y           Z
 ---------------------------------------------------------------------
      1          6           0        1.924624    0.165310   -0.002799
      2          6           0        0.727343   -1.565465    0.269636
      3          6           0        0.407209    1.254540    1.076359
      4          6           0       -0.525533   -1.061223    0.827005
      5          7           0        1.693285    0.734889    1.291381
      6          1           0        0.668394   -1.953657   -0.754165
      7          1           0        1.333845   -2.163434    0.956898
      8          1           0       -0.256329    1.665860    1.824263
      9          1           0       -0.685090   -1.088354    1.902012
     10          8           0        1.207717    0.829933   -1.021065
     11          6           0        0.208599    1.507941   -0.362626
     12          8           0       -0.679832    2.164218   -0.865819
     13          6           0       -1.734246   -0.935425   -0.020406
     14          8           0       -1.788738   -1.255298   -1.193990
     15          8           0       -2.709158   -0.341498    0.704597
     16          6           0       -3.865776   -0.012556   -0.066831
     17          1           0       -4.597872    0.447826    0.602362
     18          1           0       -4.309227   -0.913134   -0.505356
     19          1           0       -3.606240    0.708328   -0.850551
     20          6           0        3.227454   -0.349356   -0.330931
     21          7           0        4.276742   -0.786843   -0.564416
     22          1           0        2.011433    0.289899    2.147444
 ---------------------------------------------------------------------
                    Distance matrix (angstroms):
                    1          2          3          4          5
     1  C    0.000000
     2  C    2.122094   0.000000
     3  C    2.157210   2.950546   0.000000
     4  C    2.862905   1.461034   2.508973   0.000000
     5  N    1.432773   2.696041   1.403661   2.892200   0.000000
     6  H    2.575400   1.096511   3.702913   2.173016   3.530289
     7  H    2.587100   1.094414   3.543370   2.165417   2.939618
     8  H    3.216576   3.718324   1.081122   2.916158   2.225233
     9  H    3.465629   2.210713   2.713664   1.087122   3.058391
    10  O    1.411576   2.763079   2.284796   3.161644   2.364787
    11  C    2.208365   3.180358   1.474563   2.924855   2.353219
    12  O    3.394647   4.144869   2.404418   3.645948   3.511150
    13  C    3.820897   2.557439   3.253409   1.481525   4.032208
    14  O    4.150436   2.927297   4.034347   2.391187   4.718305
    15  O    4.714785   3.673803   3.520978   2.302435   4.569948
    16  C    5.793485   4.860194   4.601175   3.613291   5.771185
    17  H    6.556599   5.702803   5.091787   4.348751   6.335283
    18  H    6.346377   5.137430   5.426361   4.014157   6.478764
    19  H    5.621744   5.020448   4.485432   3.928901   5.716077
    20  C    1.438721   2.844320   3.536486   3.991552   2.482168
    21  N    2.598936   3.728288   4.672545   5.007313   3.526174
    22  H    2.155598   2.935546   2.156685   3.163113   1.015913
                    6          7          8          9         10
     6  H    0.000000
     7  H    1.847856   0.000000
     8  H    4.539196   4.236091   0.000000
     9  H    3.104182   2.474901   2.788472   0.000000
    10  O    2.847890   3.590055   3.307279   3.975792   0.000000
    11  C    3.513883   4.060335   2.241334   3.559215   1.375309
    12  O    4.334406   5.109380   2.768440   4.270848   2.316734
    13  C    2.710697   3.446203   3.514787   2.195406   3.573927
    14  O    2.592036   3.898918   4.471163   3.291070   3.654701
    15  O    4.016827   4.441732   3.361474   2.467478   4.437575
    16  C    4.979859   5.719297   4.406975   3.892358   5.230744
    17  H    5.944816   6.490735   4.671793   4.399864   6.040396
    18  H    5.091297   5.962022   5.338943   4.354364   5.808693
    19  H    5.036660   5.993191   4.392425   4.397475   4.818510
    20  C    3.049868   2.921496   4.565380   4.565102   2.438513
    21  N    3.797056   3.587484   5.680692   5.549230   3.498773
    22  H    3.905974   2.809869   2.672163   3.038265   3.313163
                   11         12         13         14         15
    11  C    0.000000
    12  O    1.213760   0.000000
    13  C    3.140350   3.381464   0.000000
    14  O    3.509418   3.609773   1.217616   0.000000
    15  O    3.615619   3.586501   1.352343   2.299312   0.000000
    16  C    4.358892   3.940427   2.323201   2.670016   1.428660
    17  H    5.015696   4.522455   3.240613   3.744162   2.049567
    18  H    5.127644   4.772058   2.620343   2.635177   2.085899
    19  H    3.928160   3.268594   2.625914   2.697608   2.079755
    20  C    3.544580   4.676649   5.005834   5.169892   6.026255
    21  N    4.675098   5.776438   6.037384   6.116033   7.114178
    22  H    3.321790   4.453733   4.497900   5.290947   4.976389
                   16         17         18         19         20
    16  C    0.000000
    17  H    1.093496   0.000000
    18  H    1.095442   1.778361   0.000000
    19  H    1.096016   1.778245   1.800692   0.000000
    20  C    7.106131   7.921001   7.559751   6.934556   0.000000
    21  N    8.194371   9.035738   8.587101   8.028624   1.160567
    22  H    6.287772   6.789339   6.959553   6.381325   2.833672
                   21         22
    21  N    0.000000
    22  H    3.693939   0.000000
 Stoichiometry    C8H8N2O4
 Framework group  C1[X(C8H8N2O4)]
 Deg. of freedom    60
 Full point group                 C1      NOp   1
 Largest Abelian subgroup         C1      NOp   1
 Largest concise Abelian subgroup C1      NOp   1
                         Standard orientation:                         
 ---------------------------------------------------------------------
 Center     Atomic      Atomic             Coordinates (Angstroms)
 Number     Number       Type             X           Y           Z
 ---------------------------------------------------------------------
      1          6           0        1.900144    0.099153    0.018433
      2          6           0        0.658095   -1.612219    0.196775
      3          6           0        0.402657    1.171228    1.141706
      4          6           0       -0.585786   -1.104879    0.771218
      5          7           0        1.673776    0.609134    1.338099
      6          1           0        0.596852   -1.947240   -0.845504
      7          1           0        1.244512   -2.258875    0.856845
      8          1           0       -0.255777    1.561379    1.905298
      9          1           0       -0.753713   -1.181557    1.842552
     10          8           0        1.207409    0.831665   -0.969540
     11          6           0        0.220810    1.501038   -0.283949
     12          8           0       -0.647311    2.203860   -0.758942
     13          6           0       -1.784844   -0.906432   -0.076011
     14          8           0       -1.838846   -1.165884   -1.264437
     15          8           0       -2.749824   -0.324942    0.671996
     16          6           0       -3.892280    0.071223   -0.088870
     17          1           0       -4.617458    0.516020    0.598158
     18          1           0       -4.354904   -0.794854   -0.574549
     19          1           0       -3.609187    0.823509   -0.833971
     20          6           0        3.192050   -0.431292   -0.327289
     21          7           0        4.231744   -0.882989   -0.576130
     22          1           0        1.974539    0.114090    2.172695
 ---------------------------------------------------------------------
 Rotational constants (GHZ):           1.3614593           0.4682618           0.4223571
 Standard basis: STO-3G (5D, 7F)
 There are    78 symmetry adapted cartesian basis functions of A   symmetry.
 There are    78 symmetry adapted basis functions of A   symmetry.
    78 basis functions,   234 primitive gaussians,    78 cartesian basis functions
    51 alpha electrons       51 beta electrons
       nuclear repulsion energy       893.7638222266 Hartrees.
 NAtoms=   22 NActive=   22 NUniq=   22 SFac= 1.00D+00 NAtFMM=   60 NAOKFM=F Big=F
 Integral buffers will be    131072 words long.
 Raffenetti 1 integral format.
 Two-electron integral symmetry is turned on.
 External calculation of energy, first and second derivatives.
 Running external command "~/scripts/MiMe -H 'am1' -EF 'wb97xd def2svp' -c 12 -m 48GB R"
         input file       "/local/jobs/1176109/Gau-66486.EIn"
         output file      "/local/jobs/1176109/Gau-66486.EOu"
         message file     "/local/jobs/1176109/Gau-66486.EMs"
         fchk file        "/local/jobs/1176109/Gau-66486.EFC"
         mat. el file     "/local/jobs/1176109/Gau-66486.EUF"
 Read checkpoint file Gau-66486_H.chk type G16
 Write formatted file Gau-66486_H.fchk

deriv: 2

spelevel: wb97xd def2svp
gradlevel: wb97xd def2svp
hesslevel: am1

runspe: False
runforce: True
runfreq: True

Running Gaussian ...

Parsing files ...
SPE file: Gau-66486_F.out
FORCE file: Gau-66486_F.out
HESS file: Gau-66486_H.out

 ExternalExternalExternalExternalExternalExternalExternalExternalExternalExternal
 Output from external command:
 "~/scripts/MiMe -H 'am1' -EF 'wb97xd def2svp' -c 12 -m 48GB R /local/jobs/1176109/Gau-66486.EIn /local/jobs/1176109/Gau-66486.EOu /local/jobs/1176109/Gau-66486.EMs /local/jobs/1176109/Gau-66486.EFC /local/jobs/1176109/Gau-66486.EUF"
  
 --------------------------------------------------
 Force calculation at wb97xd def2svp
 Hessian calculation at am1
 ExternalExternalExternalExternalExternalExternalExternalExternalExternalExternal

 Recovered energy= -719.175873736     dipole=     -0.671700000000     -0.322200000000      6.142900000000
 Energy=    -719.175874     NIter=   0.
 Dipole moment=      -0.671700      -0.322200       6.142900
 ***** Axes restored to original set *****
 -------------------------------------------------------------------
 Center     Atomic                   Forces (Hartrees/Bohr)
 Number     Number              X              Y              Z
 -------------------------------------------------------------------
      1        6          -0.008554538   -0.028963378    0.010865809
      2        6          -0.033334270    0.017281873    0.011526522
      3        6           0.019395412   -0.023871163    0.008009892
      4        6           0.047161651   -0.001463266   -0.021599889
      5        7          -0.048758629    0.018783786   -0.072365133
      6        1           0.001550116    0.003516160    0.000007236
      7        1           0.005835769    0.003946637   -0.001530820
      8        1           0.003317500    0.003958261    0.006251556
      9        1          -0.000645384    0.001573964    0.003230548
     10        8           0.020764038   -0.008653910    0.045053272
     11        6          -0.032285255    0.017736601    0.011928448
     12        8           0.027507794   -0.021133732    0.002326820
     13        6           0.012554370    0.006436318   -0.006504912
     14        8          -0.007850618    0.009098257    0.025208755
     15        8          -0.004803444   -0.005973424   -0.022157408
     16        6          -0.001455456    0.001182397    0.005395220
     17        1           0.001367261    0.000300982    0.004588438
     18        1           0.000524253   -0.001398933   -0.003187133
     19        1           0.001361517   -0.000926561   -0.002934389
     20        6           0.005794457    0.007090187   -0.003607371
     21        7          -0.009222441    0.001379255    0.002278303
     22        1          -0.000224103    0.000099690   -0.002783762
 -------------------------------------------------------------------
 Cartesian Forces:  Max     0.072365133 RMS     0.018040180

 GradGradGradGradGradGradGradGradGradGradGradGradGradGradGradGradGradGrad
 Berny optimization.
 Search for a saddle point.
 Step number   2 out of a maximum of   50
 All quantities printed in internal units (Hartrees-Bohrs-Radians)
 Swapping is turned off.
 Second derivative matrix not updated -- analytic derivatives used.
 ITU=  0  0
     Eigenvalues ---   -0.16764  -0.00852  -0.00267  -0.00085  -0.00054
     Eigenvalues ---    0.00215   0.00293   0.00499   0.00548   0.00688
     Eigenvalues ---    0.01238   0.01499   0.01820   0.02006   0.02525
     Eigenvalues ---    0.03109   0.03577   0.04059   0.04635   0.05779
     Eigenvalues ---    0.06190   0.06408   0.06915   0.07701   0.09233
     Eigenvalues ---    0.11425   0.11845   0.12520   0.13125   0.13385
     Eigenvalues ---    0.14609   0.16197   0.17051   0.19020   0.19673
     Eigenvalues ---    0.22134   0.24115   0.24852   0.26090   0.32423
     Eigenvalues ---    0.37945   0.48061   0.53693   0.61981   0.69560
     Eigenvalues ---    0.80574   0.81467   0.85683   0.89009   0.89653
     Eigenvalues ---    0.97055   0.99296   1.00771   1.08273   1.12730
     Eigenvalues ---    1.17142   1.31508   2.32582   2.37015   3.14237
 Eigenvectors required to have negative eigenvalues:
                          Y1        Y4        Y2        X2        Y3
   1                    0.45734  -0.45013  -0.40558  -0.38167   0.32171
                          X1        X3        Z2        X4        Z5
   1                    0.28339   0.17605   0.12328  -0.08614  -0.06015
 RFO step:  Lambda0=3.881700142D-04 Lambda=-3.98489716D-02.
 Linear search not attempted -- option 19 set.
 Maximum step size (   0.100) exceeded in Quadratic search.
    -- Step size scaled by   0.136
 B after Tr=    -0.000469   -0.001258   -0.000635
         Rot=    1.000000    0.000071    0.000168    0.000067 Ang=   0.02 deg.
 Variable       Old X    -DE/DX   Delta X   Delta X   Delta X     New X
                                 (Linear)    (Quad)   (Total)
    X1        3.63701  -0.00855   0.00000  -0.00080  -0.00122   3.63579
    Y1        0.31239  -0.02896   0.00000  -0.00949  -0.01124   0.30115
    Z1       -0.00529   0.01087   0.00000   0.00263   0.00317  -0.00212
    X2        1.37448  -0.03333   0.00000  -0.00962  -0.01066   1.36382
    Y2       -2.95830   0.01728   0.00000  -0.00888  -0.01025  -2.96855
    Z2        0.50954   0.01153   0.00000   0.00504   0.00529   0.51483
    X3        0.76951   0.01940   0.00000  -0.00970  -0.01053   0.75898
    Y3        2.37074  -0.02387   0.00000  -0.00201  -0.00308   2.36766
    Z3        2.03402   0.00801   0.00000  -0.00122  -0.00194   2.03209
    X4       -0.99311   0.04716   0.00000   0.01077   0.00951  -0.98361
    Y4       -2.00542  -0.00146   0.00000  -0.00433  -0.00523  -2.01065
    Z4        1.56281  -0.02160   0.00000  -0.00134  -0.00202   1.56080
    X5        3.19984  -0.04876   0.00000  -0.01720  -0.01830   3.18154
    Y5        1.38874   0.01878   0.00000   0.00015  -0.00119   1.38755
    Z5        2.44036  -0.07237   0.00000  -0.01774  -0.01751   2.42285
    X6        1.26308   0.00155   0.00000   0.00363   0.00314   1.26622
    Y6       -3.69188   0.00352   0.00000   0.00337   0.00174  -3.69014
    Z6       -1.42517   0.00001   0.00000   0.00005   0.00036  -1.42480
    X7        2.52060   0.00584   0.00000   0.01042   0.00880   2.52940
    Y7       -4.08830   0.00395   0.00000   0.00411   0.00277  -4.08553
    Z7        1.80828  -0.00153   0.00000  -0.00131  -0.00051   1.80776
    X8       -0.48439   0.00332   0.00000   0.00427   0.00307  -0.48132
    Y8        3.14802   0.00396   0.00000   0.00918   0.00848   3.15650
    Z8        3.44736   0.00625   0.00000   0.00577   0.00453   3.45188
    X9       -1.29463  -0.00065   0.00000   0.00305   0.00110  -1.29353
    Y9       -2.05669   0.00157   0.00000   0.00166   0.00109  -2.05560
    Z9        3.59428   0.00323   0.00000   0.00020  -0.00058   3.59370
   X10        2.28225   0.02076   0.00000   0.00478   0.00516   2.28741
   Y10        1.56835  -0.00865   0.00000  -0.00790  -0.00974   1.55860
   Z10       -1.92953   0.04505   0.00000   0.01479   0.01470  -1.91483
   X11        0.39419  -0.03229   0.00000  -0.01141  -0.01127   0.38293
   Y11        2.84960   0.01774   0.00000  -0.01040  -0.01181   2.83779
   Z11       -0.68526   0.01193   0.00000   0.00302   0.00211  -0.68315
   X12       -1.28470   0.02751   0.00000   0.00335   0.00398  -1.28072
   Y12        4.08978  -0.02113   0.00000  -0.02350  -0.02483   4.06495
   Z12       -1.63616   0.00233   0.00000  -0.02916  -0.03080  -1.66696
   X13       -3.27725   0.01255   0.00000   0.01214   0.01145  -3.26580
   Y13       -1.76770   0.00644   0.00000   0.01590   0.01508  -1.75262
   Z13       -0.03856  -0.00650   0.00000   0.00086  -0.00063  -0.03919
   X14       -3.38023  -0.00785   0.00000   0.00864   0.00862  -3.37161
   Y14       -2.37217   0.00910   0.00000   0.05596   0.05483  -2.31734
   Z14       -2.25631   0.02521   0.00000  -0.00746  -0.00889  -2.26521
   X15       -5.11957  -0.00480   0.00000  -0.00552  -0.00652  -5.12609
   Y15       -0.64534  -0.00597   0.00000  -0.02314  -0.02352  -0.66886
   Z15        1.33150  -0.02216   0.00000   0.00591   0.00366   1.33515
   X16       -7.30526  -0.00146   0.00000  -0.00064  -0.00107  -7.30633
   Y16       -0.02373   0.00118   0.00000  -0.00241  -0.00271  -0.02644
   Z16       -0.12629   0.00540   0.00000   0.00986   0.00677  -0.11952
   X17       -8.68872   0.00137   0.00000   0.00257   0.00182  -8.68690
   Y17        0.84627   0.00030   0.00000  -0.01421  -0.01414   0.83213
   Z17        1.13830   0.00459   0.00000   0.02206   0.01839   1.15669
   X18       -8.14326   0.00052   0.00000  -0.00178  -0.00215  -8.14541
   Y18       -1.72557  -0.00140   0.00000   0.00947   0.00916  -1.71641
   Z18       -0.95498  -0.00319   0.00000  -0.01483  -0.01795  -0.97294
   X19       -6.81481   0.00136   0.00000   0.00719   0.00743  -6.80737
   Y19        1.33855  -0.00093   0.00000   0.01066   0.01009   1.34864
   Z19       -1.60731  -0.00293   0.00000   0.02328   0.02017  -1.58714
   X20        6.09900   0.00579   0.00000   0.00277   0.00242   6.10143
   Y20       -0.66019   0.00709   0.00000   0.00145  -0.00072  -0.66090
   Z20       -0.62537  -0.00361   0.00000   0.00408   0.00558  -0.61979
   X21        8.08187  -0.00922   0.00000   0.00178   0.00147   8.08334
   Y21       -1.48692   0.00138   0.00000   0.00113  -0.00136  -1.48828
   Z21       -1.06659   0.00228   0.00000   0.00445   0.00673  -1.05986
   X22        3.80106  -0.00022   0.00000  -0.00451  -0.00626   3.79480
   Y22        0.54783   0.00010   0.00000   0.01775   0.01656   0.56439
   Z22        4.05808  -0.00278   0.00000  -0.01119  -0.01064   4.04744
         Item               Value     Threshold  Converged?
 Maximum Force            0.072365     0.000450     NO 
 RMS     Force            0.018040     0.000300     NO 
 Maximum Displacement     0.054829     0.001800     NO 
 RMS     Displacement     0.012233     0.001200     NO 
 Predicted change in Energy=-5.216131D-03
 GradGradGradGradGradGradGradGradGradGradGradGradGradGradGradGradGradGrad

                          Input orientation:                          
 ---------------------------------------------------------------------
 Center     Atomic      Atomic             Coordinates (Angstroms)
 Number     Number       Type             X           Y           Z
 ---------------------------------------------------------------------
      1          6           0        1.923977    0.159364   -0.001122
      2          6           0        0.721703   -1.570887    0.272434
      3          6           0        0.401637    1.252912    1.075333
      4          6           0       -0.520502   -1.063991    0.825938
      5          7           0        1.683601    0.734261    1.282117
      6          1           0        0.670056   -1.952735   -0.753973
      7          1           0        1.338502   -2.161969    0.956627
      8          1           0       -0.254706    1.670349    1.826658
      9          1           0       -0.684506   -1.087777    1.901706
     10          8           0        1.210447    0.824778   -1.013287
     11          6           0        0.202636    1.501692   -0.361510
     12          8           0       -0.677726    2.151080   -0.882119
     13          6           0       -1.728185   -0.927446   -0.020736
     14          8           0       -1.784177   -1.226284   -1.198695
     15          8           0       -2.712611   -0.353946    0.706532
     16          6           0       -3.866343   -0.013989   -0.063247
     17          1           0       -4.596907    0.440342    0.612094
     18          1           0       -4.310366   -0.908287   -0.514857
     19          1           0       -3.602306    0.713668   -0.839876
     20          6           0        3.228737   -0.349735   -0.327978
     21          7           0        4.277519   -0.787563   -0.560852
     22          1           0        2.008121    0.298663    2.141815
 ---------------------------------------------------------------------
                    Distance matrix (angstroms):
                    1          2          3          4          5
     1  C    0.000000
     2  C    2.124633   0.000000
     3  C    2.161509   2.953122   0.000000
     4  C    2.855889   1.451339   2.506108   0.000000
     5  N    1.426530   2.694144   1.398281   2.880951   0.000000
     6  H    2.569059   1.096352   3.700620   2.168736   3.520353
     7  H    2.578497   1.094504   3.543052   2.162991   2.934823
     8  H    3.220328   3.724862   1.081447   2.923816   2.220320
     9  H    3.461257   2.205753   2.709506   1.088458   3.051499
    10  O    1.405837   2.762455   2.280309   3.153788   2.345409
    11  C    2.212405   3.179946   1.471737   2.918165   2.341733
    12  O    3.392925   4.140583   2.409014   3.644017   3.502449
    13  C    3.810489   2.549886   3.239054   1.481216   4.012353
    14  O    4.135771   2.926159   4.011907   2.392144   4.692936
    15  O    4.718284   3.669319   3.523712   2.307328   4.565323
    16  C    5.793247   4.856622   4.595330   3.617707   5.759493
    17  H    6.555678   5.696317   5.085303   4.350383   6.322982
    18  H    6.345930   5.136203   5.422403   4.023064   6.469522
    19  H    5.616988   5.015324   4.471059   3.928425   5.695971
    20  C    1.438199   2.852530   3.539810   3.987289   2.480906
    21  N    2.597909   3.735209   4.675800   5.002060   3.527165
    22  H    2.149107   2.940182   2.151456   3.159476   1.016927
                    6          7          8          9         10
     6  H    0.000000
     7  H    1.848445   0.000000
     8  H    4.543301   4.240510   0.000000
     9  H    3.104130   2.477826   2.792422   0.000000
    10  O    2.841451   3.580169   3.305594   3.968110   0.000000
    11  C    3.507931   4.055870   2.241804   3.551692   1.377937
    12  O    4.321370   5.103777   2.783436   4.270822   2.311164
    13  C    2.709320   3.447297   3.511772   2.193344   3.562444
    14  O    2.597839   3.907946   4.458982   3.292559   3.634419
    15  O    4.016421   4.443311   3.375462   2.465798   4.442696
    16  C    4.981441   5.722269   4.410516   3.890777   5.232581
    17  H    5.944229   6.489978   4.673627   4.393761   6.042766
    18  H    5.094374   5.970485   5.346067   4.361061   5.807867
    19  H    5.036880   5.992353   4.385438   4.390334   4.817157
    20  C    3.049251   2.916743   4.567009   4.563953   2.433644
    21  N    3.795881   3.581837   5.681778   5.547613   3.494462
    22  H    3.904459   2.812075   2.664813   3.038109   3.296626
                   11         12         13         14         15
    11  C    0.000000
    12  O    1.211518   0.000000
    13  C    3.121684   3.364932   0.000000
    14  O    3.477090   3.568058   1.216563   0.000000
    15  O    3.617011   3.597182   1.351634   2.291910   0.000000
    16  C    4.352337   3.940223   2.325495   2.663516   1.428015
    17  H    5.010986   4.529821   3.240507   3.737386   2.047043
    18  H    5.118466   4.763474   2.629102   2.636359   2.086122
    19  H    3.915022   3.259004   2.622322   2.682864   2.079118
    20  C    3.547702   4.671359   4.999923   5.162925   6.030742
    21  N    4.678151   5.770033   6.031565   6.110931   7.117317
    22  H    3.312656   4.448527   4.487756   5.278825   4.977072
                   16         17         18         19         20
    16  C    0.000000
    17  H    1.093722   0.000000
    18  H    1.095845   1.780709   0.000000
    19  H    1.096519   1.781055   1.799368   0.000000
    20  C    7.107951   7.921406   7.562075   6.932244   0.000000
    21  N    8.195640   9.035430   8.588856   8.026405   1.160115
    22  H    6.282465   6.781336   6.959734   6.367071   2.830229
                   21         22
    21  N    0.000000
    22  H    3.692487   0.000000
 Stoichiometry    C8H8N2O4
 Framework group  C1[X(C8H8N2O4)]
 Deg. of freedom    60
 Full point group                 C1      NOp   1
 Largest Abelian subgroup         C1      NOp   1
 Largest concise Abelian subgroup C1      NOp   1
                         Standard orientation:                         
 ---------------------------------------------------------------------
 Center     Atomic      Atomic             Coordinates (Angstroms)
 Number     Number       Type             X           Y           Z
 ---------------------------------------------------------------------
      1          6           0        1.899647    0.096173    0.021778
      2          6           0        0.654634   -1.617664    0.185387
      3          6           0        0.395828    1.160775    1.151942
      4          6           0       -0.579222   -1.114446    0.760500
      5          7           0        1.663554    0.600030    1.335314
      6          1           0        0.601490   -1.936959   -0.862093
      7          1           0        1.252166   -2.262786    0.837086
      8          1           0       -0.255928    1.548903    1.922720
      9          1           0       -0.751660   -1.197665    1.831985
     10          8           0        1.209595    0.837154   -0.953493
     11          6           0        0.213376    1.498589   -0.268833
     12          8           0       -0.647456    2.198616   -0.755357
     13          6           0       -1.777055   -0.899087   -0.083785
     14          8           0       -1.831455   -1.126498   -1.277666
     15          8           0       -2.752909   -0.345872    0.670256
     16          6           0       -3.892542    0.066647   -0.084920
     17          1           0       -4.617061    0.497869    0.611749
     18          1           0       -4.354344   -0.788479   -0.591254
     19          1           0       -3.605585    0.832251   -0.815578
     20          6           0        3.194318   -0.424119   -0.326846
     21          7           0        4.234091   -0.872648   -0.578962
     22          1           0        1.971297    0.106782    2.169664
 ---------------------------------------------------------------------
 Rotational constants (GHZ):           1.3697118           0.4686493           0.4233335
 Standard basis: STO-3G (5D, 7F)
 There are    78 symmetry adapted cartesian basis functions of A   symmetry.
 There are    78 symmetry adapted basis functions of A   symmetry.
    78 basis functions,   234 primitive gaussians,    78 cartesian basis functions
    51 alpha electrons       51 beta electrons
       nuclear repulsion energy       895.0204247341 Hartrees.
 NAtoms=   22 NActive=   22 NUniq=   22 SFac= 1.00D+00 NAtFMM=   60 NAOKFM=F Big=F
 Integral buffers will be    131072 words long.
 Raffenetti 1 integral format.
 Two-electron integral symmetry is turned on.
 External calculation of energy, first and second derivatives.
 Running external command "~/scripts/MiMe -H 'am1' -EF 'wb97xd def2svp' -c 12 -m 48GB R"
         input file       "/local/jobs/1176109/Gau-66486.EIn"
         output file      "/local/jobs/1176109/Gau-66486.EOu"
         message file     "/local/jobs/1176109/Gau-66486.EMs"
         fchk file        "/local/jobs/1176109/Gau-66486.EFC"
         mat. el file     "/local/jobs/1176109/Gau-66486.EUF"
 Read checkpoint file Gau-66486_H.chk type G16
 Write formatted file Gau-66486_H.fchk

deriv: 2

spelevel: wb97xd def2svp
gradlevel: wb97xd def2svp
hesslevel: am1

runspe: False
runforce: True
runfreq: True

Running Gaussian ...

Parsing files ...
SPE file: Gau-66486_F.out
FORCE file: Gau-66486_F.out
HESS file: Gau-66486_H.out

 ExternalExternalExternalExternalExternalExternalExternalExternalExternalExternal
 Output from external command:
 "~/scripts/MiMe -H 'am1' -EF 'wb97xd def2svp' -c 12 -m 48GB R /local/jobs/1176109/Gau-66486.EIn /local/jobs/1176109/Gau-66486.EOu /local/jobs/1176109/Gau-66486.EMs /local/jobs/1176109/Gau-66486.EFC /local/jobs/1176109/Gau-66486.EUF"
  
 --------------------------------------------------
 Force calculation at wb97xd def2svp
 Hessian calculation at am1
 ExternalExternalExternalExternalExternalExternalExternalExternalExternalExternal

 Recovered energy= -719.181066731     dipole=     -0.623700000000     -0.365900000000      6.191100000000
 Energy=    -719.181067     NIter=   0.
 Dipole moment=      -0.623700      -0.365900       6.191100
 ***** Axes restored to original set *****
 -------------------------------------------------------------------
 Center     Atomic                   Forces (Hartrees/Bohr)
 Number     Number              X              Y              Z
 -------------------------------------------------------------------
      1        6          -0.009169005   -0.024365615    0.009795222
      2        6          -0.029313770    0.015343279    0.010145065
      3        6           0.017955845   -0.022087060    0.007064965
      4        6           0.041819555   -0.001024239   -0.018806057
      5        7          -0.043938911    0.015822936   -0.065025486
      6        1           0.001264000    0.003380075    0.000042070
      7        1           0.005049550    0.003682953   -0.001467683
      8        1           0.003332322    0.003504291    0.005963616
      9        1          -0.000277939    0.001477232    0.002337217
     10        8           0.018970326   -0.008994568    0.041614640
     11        6          -0.028379054    0.015909432    0.008999794
     12        8           0.024447808   -0.019138377    0.003298091
     13        6           0.009849972    0.006235244   -0.006902087
     14        8          -0.006234813    0.007641906    0.023280259
     15        8          -0.003477316   -0.004864755   -0.019734007
     16        6          -0.000997865    0.000911346    0.004784018
     17        1           0.001263683    0.000182117    0.004160909
     18        1           0.000488413   -0.001239843   -0.002854810
     19        1           0.001121324   -0.000879195   -0.002558304
     20        6           0.004936224    0.006512542   -0.002824239
     21        7          -0.008215642    0.001186159    0.002003763
     22        1          -0.000494707    0.000804139   -0.003316956
 -------------------------------------------------------------------
 Cartesian Forces:  Max     0.065025486 RMS     0.016153566

 GradGradGradGradGradGradGradGradGradGradGradGradGradGradGradGradGradGrad
 Berny optimization.
 Search for a saddle point.
 Step number   3 out of a maximum of   50
 All quantities printed in internal units (Hartrees-Bohrs-Radians)
 Swapping is turned off.
 Second derivative matrix not updated -- analytic derivatives used.
 ITU=  0  0  0
     Eigenvalues ---   -0.16129  -0.00834  -0.00354  -0.00097  -0.00070
     Eigenvalues ---    0.00199   0.00274   0.00486   0.00525   0.00676
     Eigenvalues ---    0.01195   0.01484   0.01820   0.02003   0.02515
     Eigenvalues ---    0.03150   0.03574   0.04055   0.04608   0.05812
     Eigenvalues ---    0.06213   0.06302   0.06920   0.07684   0.09251
     Eigenvalues ---    0.11432   0.11838   0.12453   0.13102   0.13316
     Eigenvalues ---    0.14594   0.16227   0.17034   0.18847   0.19624
     Eigenvalues ---    0.22190   0.24089   0.24843   0.26139   0.32681
     Eigenvalues ---    0.38203   0.48024   0.54289   0.62052   0.70253
     Eigenvalues ---    0.80314   0.81406   0.85734   0.90422   0.90711
     Eigenvalues ---    0.96787   1.00175   1.02657   1.09500   1.14676
     Eigenvalues ---    1.18290   1.33661   2.33735   2.39172   3.14954
 Eigenvectors required to have negative eigenvalues:
                          Y1        Y4        Y2        X2        Y3
   1                    0.45959  -0.44888  -0.40915  -0.37467   0.32346
                          X1        X3        Z2        X4        Y20
   1                    0.28515   0.17425   0.12037  -0.09107   0.05938
 RFO step:  Lambda0=4.387867763D-04 Lambda=-3.25655788D-02.
 Linear search not attempted -- option 19 set.
 Maximum step size (   0.100) exceeded in Quadratic search.
    -- Step size scaled by   0.156
 B after Tr=    -0.000353   -0.001492   -0.000612
         Rot=    1.000000    0.000209    0.000213    0.000073 Ang=   0.04 deg.
 Variable       Old X    -DE/DX   Delta X   Delta X   Delta X     New X
                                 (Linear)    (Quad)   (Total)
    X1        3.63579  -0.00917   0.00000   0.00145   0.00114   3.63692
    Y1        0.30115  -0.02437   0.00000  -0.00678  -0.00880   0.29235
    Z1       -0.00212   0.00980   0.00000   0.00329   0.00410   0.00198
    X2        1.36382  -0.02931   0.00000  -0.01040  -0.01141   1.35241
    Y2       -2.96855   0.01534   0.00000  -0.01080  -0.01227  -2.98082
    Z2        0.51483   0.01015   0.00000   0.00217   0.00338   0.51821
    X3        0.75898   0.01796   0.00000  -0.01322  -0.01409   0.74489
    Y3        2.36766  -0.02209   0.00000  -0.00547  -0.00622   2.36144
    Z3        2.03209   0.00706   0.00000  -0.00167  -0.00296   2.02913
    X4       -0.98361   0.04182   0.00000   0.01107   0.00975  -0.97385
    Y4       -2.01065  -0.00102   0.00000  -0.00528  -0.00598  -2.01663
    Z4        1.56080  -0.01881   0.00000  -0.00351  -0.00369   1.55710
    X5        3.18154  -0.04394   0.00000  -0.01965  -0.02082   3.16072
    Y5        1.38755   0.01582   0.00000  -0.00089  -0.00184   1.38571
    Z5        2.42285  -0.06503   0.00000  -0.01778  -0.01762   2.40523
    X6        1.26622   0.00126   0.00000   0.00353   0.00325   1.26947
    Y6       -3.69014   0.00338   0.00000   0.00509   0.00282  -3.68732
    Z6       -1.42480   0.00004   0.00000  -0.00379  -0.00232  -1.42712
    X7        2.52940   0.00505   0.00000   0.01186   0.01014   2.53954
    Y7       -4.08553   0.00368   0.00000   0.00403   0.00292  -4.08261
    Z7        1.80776  -0.00147   0.00000  -0.00544  -0.00326   1.80451
    X8       -0.48132   0.00333   0.00000   0.00169   0.00033  -0.48100
    Y8        3.15650   0.00350   0.00000   0.00408   0.00410   3.16060
    Z8        3.45188   0.00596   0.00000   0.00689   0.00475   3.45663
    X9       -1.29353  -0.00028   0.00000   0.00517   0.00299  -1.29054
    Y9       -2.05560   0.00148   0.00000   0.00249   0.00269  -2.05291
    Z9        3.59370   0.00234   0.00000  -0.00187  -0.00217   3.59154
   X10        2.28741   0.01897   0.00000   0.00734   0.00803   2.29544
   Y10        1.55860  -0.00899   0.00000  -0.00609  -0.00871   1.54989
   Z10       -1.91483   0.04161   0.00000   0.01607   0.01579  -1.89904
   X11        0.38293  -0.02838   0.00000  -0.01219  -0.01184   0.37109
   Y11        2.83779   0.01591   0.00000  -0.01146  -0.01329   2.82450
   Z11       -0.68315   0.00900   0.00000   0.00290   0.00126  -0.68189
   X12       -1.28072   0.02445   0.00000   0.00540   0.00636  -1.27436
   Y12        4.06495  -0.01914   0.00000  -0.02485  -0.02686   4.03809
   Z12       -1.66696   0.00330   0.00000  -0.03257  -0.03542  -1.70238
   X13       -3.26580   0.00985   0.00000   0.01109   0.01050  -3.25530
   Y13       -1.75262   0.00624   0.00000   0.01549   0.01445  -1.73816
   Z13       -0.03919  -0.00690   0.00000   0.00040  -0.00087  -0.04006
   X14       -3.37161  -0.00623   0.00000   0.00285   0.00313  -3.36847
   Y14       -2.31734   0.00764   0.00000   0.04696   0.04501  -2.27233
   Z14       -2.26521   0.02328   0.00000  -0.00448  -0.00558  -2.27079
   X15       -5.12609  -0.00348   0.00000  -0.00217  -0.00319  -5.12929
   Y15       -0.66886  -0.00486   0.00000  -0.01673  -0.01691  -0.68577
   Z15        1.33515  -0.01973   0.00000   0.00443   0.00191   1.33706
   X16       -7.30633  -0.00100   0.00000  -0.00024  -0.00055  -7.30688
   Y16       -0.02644   0.00091   0.00000   0.00053   0.00006  -0.02638
   Z16       -0.11952   0.00478   0.00000   0.01175   0.00803  -0.11149
   X17       -8.68690   0.00126   0.00000   0.00304   0.00230  -8.68459
   Y17        0.83213   0.00018   0.00000  -0.01597  -0.01570   0.81643
   Z17        1.15669   0.00416   0.00000   0.02700   0.02234   1.17903
   X18       -8.14541   0.00049   0.00000   0.00121   0.00103  -8.14438
   Y18       -1.71641  -0.00124   0.00000   0.01196   0.01124  -1.70518
   Z18       -0.97294  -0.00285   0.00000  -0.01398  -0.01735  -0.99029
   X19       -6.80737   0.00112   0.00000   0.00269   0.00320  -6.80417
   Y19        1.34864  -0.00088   0.00000   0.01579   0.01464   1.36328
   Z19       -1.58714  -0.00256   0.00000   0.02591   0.02182  -1.56531
   X20        6.10143   0.00494   0.00000   0.00500   0.00481   6.10624
   Y20       -0.66090   0.00651   0.00000   0.00399   0.00135  -0.65955
   Z20       -0.61979  -0.00282   0.00000   0.00631   0.00858  -0.61121
   X21        8.08334  -0.00822   0.00000   0.00365   0.00352   8.08686
   Y21       -1.48828   0.00119   0.00000   0.00277  -0.00034  -1.48862
   Z21       -1.05986   0.00200   0.00000   0.00675   0.01021  -1.04964
   X22        3.79480  -0.00049   0.00000  -0.00657  -0.00857   3.78623
   Y22        0.56439   0.00080   0.00000   0.01799   0.01764   0.58203
   Z22        4.04744  -0.00332   0.00000  -0.01171  -0.01095   4.03649
         Item               Value     Threshold  Converged?
 Maximum Force            0.065025     0.000450     NO 
 RMS     Force            0.016154     0.000300     NO 
 Maximum Displacement     0.045007     0.001800     NO 
 RMS     Displacement     0.012190     0.001200     NO 
 Predicted change in Energy=-4.792145D-03
 GradGradGradGradGradGradGradGradGradGradGradGradGradGradGradGradGradGrad

                          Input orientation:                          
 ---------------------------------------------------------------------
 Center     Atomic      Atomic             Coordinates (Angstroms)
 Number     Number       Type             X           Y           Z
 ---------------------------------------------------------------------
      1          6           0        1.924578    0.154707    0.001049
      2          6           0        0.715664   -1.577381    0.274223
      3          6           0        0.394179    1.249622    1.073768
      4          6           0       -0.515340   -1.067154    0.823984
      5          7           0        1.672581    0.733287    1.272792
      6          1           0        0.671774   -1.951244   -0.755199
      7          1           0        1.343867   -2.160424    0.954904
      8          1           0       -0.254534    1.672520    1.829170
      9          1           0       -0.682926   -1.086355    1.900558
     10          8           0        1.214694    0.820168   -1.004930
     11          6           0        0.196373    1.494660   -0.360842
     12          8           0       -0.674361    2.136864   -0.900862
     13          6           0       -1.722628   -0.919797   -0.021196
     14          8           0       -1.782519   -1.202467   -1.201650
     15          8           0       -2.714301   -0.362893    0.707543
     16          6           0       -3.866636   -0.013957   -0.058997
     17          1           0       -4.595689    0.432037    0.623916
     18          1           0       -4.309818   -0.902340   -0.524039
     19          1           0       -3.600610    0.721415   -0.828327
     20          6           0        3.231283   -0.349020   -0.323437
     21          7           0        4.279384   -0.787745   -0.555448
     22          1           0        2.003588    0.307997    2.136018
 ---------------------------------------------------------------------
                    Distance matrix (angstroms):
                    1          2          3          4          5
     1  C    0.000000
     2  C    2.129842   0.000000
     3  C    2.166030   2.955431   0.000000
     4  C    2.850152   1.441506   2.501413   0.000000
     5  N    1.419714   2.692958   1.393027   2.868801   0.000000
     6  H    2.564461   1.096088   3.696989   2.164410   3.510139
     7  H    2.570388   1.094489   3.541814   2.160794   2.929619
     8  H    3.224021   3.731086   1.081805   2.929886   2.214833
     9  H    3.456508   2.200484   2.701948   1.089709   3.041974
    10  O    1.399560   2.762880   2.275667   3.146416   2.324915
    11  C    2.216558   3.179686   1.468767   2.910883   2.329730
    12  O    3.390704   4.136255   2.414154   3.642267   3.493270
    13  C    3.802258   2.542628   3.222763   1.481077   3.991809
    14  O    4.126860   2.925693   3.991025   2.393166   4.669874
    15  O    4.720831   3.664343   3.520933   2.311920   4.556956
    16  C    5.793981   4.853123   4.586321   3.622163   5.745865
    17  H    6.555818   5.689509   5.076376   4.351649   6.308962
    18  H    6.345137   5.133067   5.414011   4.030186   6.457010
    19  H    5.615757   5.013013   4.455930   3.930395   5.676389
    20  C    1.437536   2.862588   3.543585   3.983651   2.479695
    21  N    2.596732   3.743258   4.679746   4.997027   3.528657
    22  H    2.141923   2.946130   2.145980   3.155547   1.017642
                    6          7          8          9         10
     6  H    0.000000
     7  H    1.849302   0.000000
     8  H    4.546282   4.243900   0.000000
     9  H    3.104238   2.481085   2.792850   0.000000
    10  O    2.835112   3.569533   3.304127   3.959502   0.000000
    11  C    3.500825   4.050625   2.243012   3.542419   1.380857
    12  O    4.306498   5.097430   2.800882   4.270500   2.305004
    13  C    2.708469   3.448960   3.507031   2.191315   3.552897
    14  O    2.604523   3.916975   4.448163   3.293369   3.621193
    15  O    4.015965   4.445339   3.383993   2.464379   4.446257
    16  C    4.983467   5.725790   4.410971   3.889204   5.235501
    17  H    5.943749   6.489124   4.673014   4.386917   6.046845
    18  H    5.096067   5.977810   5.349096   4.366564   5.806766
    19  H    5.040012   5.994395   4.377570   4.384944   4.819554
    20  C    3.050349   2.911645   4.568507   4.561891   2.428593
    21  N    3.795851   3.575286   5.682932   5.544877   3.489949
    22  H    3.903465   2.814847   2.656161   3.035955   3.278754
                   11         12         13         14         15
    11  C    0.000000
    12  O    1.209225   0.000000
    13  C    3.102825   3.349008   0.000000
    14  O    3.449270   3.531235   1.215302   0.000000
    15  O    3.614411   3.605150   1.350784   2.284321   0.000000
    16  C    4.344546   3.940227   2.327820   2.657396   1.427311
    17  H    5.006273   4.539625   3.240077   3.730712   2.044144
    18  H    5.106662   4.753452   2.635661   2.633719   2.086498
    19  H    3.903015   3.251414   2.621422   2.673228   2.078501
    20  C    3.551230   4.665521   4.995835   5.161186   6.034325
    21  N    4.681690   5.763006   6.027190   6.110339   7.119500
    22  H    3.302803   4.442837   4.477247   5.268409   4.974848
                   16         17         18         19         20
    16  C    0.000000
    17  H    1.093983   0.000000
    18  H    1.096311   1.783279   0.000000
    19  H    1.097001   1.784077   1.797818   0.000000
    20  C    7.110742   7.922689   7.564034   6.933650   0.000000
    21  N    8.197735   9.035800   8.590024   8.027848   1.159666
    22  H    6.275451   6.771432   6.957005   6.353369   2.826274
                   21         22
    21  N    0.000000
    22  H    3.691055   0.000000
 Stoichiometry    C8H8N2O4
 Framework group  C1[X(C8H8N2O4)]
 Deg. of freedom    60
 Full point group                 C1      NOp   1
 Largest Abelian subgroup         C1      NOp   1
 Largest concise Abelian subgroup C1      NOp   1
                         Standard orientation:                         
 ---------------------------------------------------------------------
 Center     Atomic      Atomic             Coordinates (Angstroms)
 Number     Number       Type             X           Y           Z
 ---------------------------------------------------------------------
      1          6           0        1.900359    0.094367    0.025408
      2          6           0        0.650574   -1.623970    0.172311
      3          6           0        0.387249    1.148473    1.161650
      4          6           0       -0.572595   -1.124215    0.748542
      5          7           0        1.652135    0.590379    1.332292
      6          1           0        0.605838   -1.925522   -0.880530
      7          1           0        1.260379   -2.266496    0.815121
      8          1           0       -0.257289    1.533638    1.940445
      9          1           0       -0.748519   -1.213044    1.820282
     10          8           0        1.213165    0.843205   -0.936763
     11          6           0        0.205638    1.495444   -0.253944
     12          8           0       -0.646328    2.192966   -0.753786
     13          6           0       -1.769965   -0.891637   -0.091578
     14          8           0       -1.827518   -1.091546   -1.288943
     15          8           0       -2.754136   -0.363077    0.667797
     16          6           0       -3.892588    0.063915   -0.079748
     17          1           0       -4.616384    0.478922    0.627843
     18          1           0       -4.352313   -0.780157   -0.607094
     19          1           0       -3.604314    0.843789   -0.795363
     20          6           0        3.197691   -0.416042   -0.325194
     21          7           0        4.237281   -0.861966   -0.580594
     22          1           0        1.967049    0.099585    2.166286
 ---------------------------------------------------------------------
 Rotational constants (GHZ):           1.3781284           0.4689861           0.4241919
 Standard basis: STO-3G (5D, 7F)
 There are    78 symmetry adapted cartesian basis functions of A   symmetry.
 There are    78 symmetry adapted basis functions of A   symmetry.
    78 basis functions,   234 primitive gaussians,    78 cartesian basis functions
    51 alpha electrons       51 beta electrons
       nuclear repulsion energy       896.2770262672 Hartrees.
 NAtoms=   22 NActive=   22 NUniq=   22 SFac= 1.00D+00 NAtFMM=   60 NAOKFM=F Big=F
 Integral buffers will be    131072 words long.
 Raffenetti 1 integral format.
 Two-electron integral symmetry is turned on.
 External calculation of energy, first and second derivatives.
 Running external command "~/scripts/MiMe -H 'am1' -EF 'wb97xd def2svp' -c 12 -m 48GB R"
         input file       "/local/jobs/1176109/Gau-66486.EIn"
         output file      "/local/jobs/1176109/Gau-66486.EOu"
         message file     "/local/jobs/1176109/Gau-66486.EMs"
         fchk file        "/local/jobs/1176109/Gau-66486.EFC"
         mat. el file     "/local/jobs/1176109/Gau-66486.EUF"
 Read checkpoint file Gau-66486_H.chk type G16
 Write formatted file Gau-66486_H.fchk

deriv: 2

spelevel: wb97xd def2svp
gradlevel: wb97xd def2svp
hesslevel: am1

runspe: False
runforce: True
runfreq: True

Running Gaussian ...

Parsing files ...
SPE file: Gau-66486_F.out
FORCE file: Gau-66486_F.out
HESS file: Gau-66486_H.out

 ExternalExternalExternalExternalExternalExternalExternalExternalExternalExternal
 Output from external command:
 "~/scripts/MiMe -H 'am1' -EF 'wb97xd def2svp' -c 12 -m 48GB R /local/jobs/1176109/Gau-66486.EIn /local/jobs/1176109/Gau-66486.EOu /local/jobs/1176109/Gau-66486.EMs /local/jobs/1176109/Gau-66486.EFC /local/jobs/1176109/Gau-66486.EUF"
  
 --------------------------------------------------
 Force calculation at wb97xd def2svp
 Hessian calculation at am1
 ExternalExternalExternalExternalExternalExternalExternalExternalExternalExternal

 Recovered energy= -719.185839747     dipole=     -0.583200000000     -0.407200000000      6.239500000000
 Energy=    -719.185840     NIter=   0.
 Dipole moment=      -0.583200      -0.407200       6.239500
 ***** Axes restored to original set *****
 -------------------------------------------------------------------
 Center     Atomic                   Forces (Hartrees/Bohr)
 Number     Number              X              Y              Z
 -------------------------------------------------------------------
      1        6          -0.009677282   -0.019664156    0.008646658
      2        6          -0.025264429    0.013316605    0.008754615
      3        6           0.016553027   -0.020100389    0.006160589
      4        6           0.036423872   -0.000586089   -0.016002640
      5        7          -0.038878047    0.012942170   -0.057371116
      6        1           0.000980417    0.003175421    0.000040771
      7        1           0.004230528    0.003331693   -0.001369087
      8        1           0.003278673    0.003050135    0.005567882
      9        1           0.000054691    0.001339463    0.001505793
     10        8           0.016994618   -0.009312718    0.037799780
     11        6          -0.024262379    0.014136267    0.005903771
     12        8           0.021134840   -0.017073532    0.004326759
     13        6           0.007193288    0.005746003   -0.007041755
     14        8          -0.004541187    0.006396095    0.020987287
     15        8          -0.002299163   -0.003840240   -0.017199597
     16        6          -0.000604543    0.000639797    0.004184647
     17        1           0.001146941    0.000092683    0.003655147
     18        1           0.000472211   -0.001065061   -0.002461125
     19        1           0.000902280   -0.000788334   -0.002174461
     20        6           0.004029198    0.005906911   -0.002019719
     21        7          -0.007160527    0.000998255    0.001730456
     22        1          -0.000707025    0.001359020   -0.003624653
 -------------------------------------------------------------------
 Cartesian Forces:  Max     0.057371116 RMS     0.014208025

 GradGradGradGradGradGradGradGradGradGradGradGradGradGradGradGradGradGrad
 Berny optimization.
 Search for a saddle point.
 Step number   4 out of a maximum of   50
 All quantities printed in internal units (Hartrees-Bohrs-Radians)
 Swapping is turned off.
 Second derivative matrix not updated -- analytic derivatives used.
 ITU=  0  0  0  0
     Eigenvalues ---   -0.15351  -0.00815  -0.00459  -0.00118  -0.00082
     Eigenvalues ---    0.00166   0.00276   0.00474   0.00502   0.00663
     Eigenvalues ---    0.01146   0.01463   0.01810   0.01993   0.02499
     Eigenvalues ---    0.03173   0.03572   0.04054   0.04586   0.05839
     Eigenvalues ---    0.06177   0.06248   0.06918   0.07664   0.09259
     Eigenvalues ---    0.11433   0.11826   0.12378   0.13074   0.13249
     Eigenvalues ---    0.14573   0.16248   0.17011   0.18644   0.19574
     Eigenvalues ---    0.22253   0.24054   0.24823   0.26191   0.32946
     Eigenvalues ---    0.38414   0.47988   0.54878   0.62119   0.70959
     Eigenvalues ---    0.80036   0.81324   0.85785   0.91080   0.91424
     Eigenvalues ---    0.96519   1.00816   1.05889   1.11169   1.16921
     Eigenvalues ---    1.19636   1.35909   2.35115   2.41440   3.15671
 Eigenvectors required to have negative eigenvalues:
                          Y1        Y4        Y2        X2        Y3
[...]
    10   8     0.05  -0.04   0.10    -0.11   0.11  -0.20     0.13  -0.11   0.19
    11   6     0.04  -0.03  -0.08    -0.04   0.03   0.11    -0.03   0.03  -0.05
    12   8    -0.00   0.00   0.01    -0.00  -0.00  -0.02     0.01  -0.01   0.00
    13   6    -0.16   0.05  -0.01    -0.12   0.04  -0.01    -0.04   0.02   0.00
    14   8     0.00   0.00   0.00     0.00   0.00   0.01     0.00  -0.00   0.00
    15   8     0.00  -0.01  -0.04     0.02  -0.01  -0.03     0.02  -0.01  -0.01
    16   6     0.03  -0.01   0.02     0.02  -0.01   0.01    -0.00   0.00  -0.00
    17   1    -0.03   0.01  -0.06    -0.03   0.01  -0.05    -0.01   0.00  -0.02
    18   1    -0.01   0.01  -0.00    -0.01   0.01  -0.00    -0.01   0.00  -0.00
    19   1    -0.02  -0.00  -0.00    -0.02   0.00  -0.00    -0.01   0.00  -0.00
    20   6     0.02   0.01   0.01    -0.01   0.00  -0.04     0.01  -0.01  -0.01
    21   7     0.04  -0.02  -0.01    -0.01   0.00   0.01     0.09  -0.03  -0.03
    22   1    -0.16   0.21   0.26     0.05  -0.27  -0.40    -0.04  -0.02  -0.27
                     49                     50                     51
                      A                      A                      A
 Frequencies --   1739.4583              2200.7726              2253.6079
 Red. masses --      7.9364                12.6673                12.9279
 Frc consts  --     14.1483                36.1479                38.6845
 IR Inten    --      0.0000                 0.0000                 0.0000
  Atom  AN      X      Y      Z        X      Y      Z        X      Y      Z
     1   6    -0.37   0.27   0.37     0.01  -0.00   0.01    -0.07   0.03  -0.00
     2   6     0.08  -0.03  -0.03    -0.00   0.00   0.01     0.01   0.00  -0.00
     3   6    -0.02   0.01   0.08    -0.01   0.00   0.01    -0.00  -0.00  -0.09
     4   6    -0.11   0.05   0.01    -0.02   0.00  -0.05    -0.01   0.01  -0.01
     5   7     0.18  -0.18  -0.34     0.01  -0.00  -0.00    -0.03   0.02  -0.02
     6   1    -0.03   0.00  -0.04     0.02  -0.01  -0.00     0.01  -0.00  -0.01
     7   1     0.04  -0.00   0.04     0.02  -0.01  -0.03     0.00  -0.01   0.00
     8   1    -0.19   0.01  -0.07    -0.02   0.00   0.00     0.07  -0.04  -0.04
     9   1     0.03  -0.02   0.04    -0.15   0.04  -0.01    -0.02  -0.00   0.01
    10   8     0.03  -0.01   0.03     0.00  -0.00  -0.00    -0.01   0.01   0.02
    11   6     0.02  -0.02  -0.07    -0.07   0.05  -0.05     0.59  -0.39   0.44
    12   8     0.02  -0.01   0.02     0.05  -0.03   0.03    -0.37   0.25  -0.25
    13   6     0.05  -0.02   0.00    -0.02   0.15   0.80     0.01   0.01   0.10
    14   8    -0.00   0.00  -0.00    -0.02  -0.08  -0.51    -0.00  -0.01  -0.06
    15   8    -0.01   0.01   0.01     0.07  -0.04  -0.07     0.00  -0.00  -0.01
    16   6    -0.01   0.00  -0.00     0.01   0.00   0.02     0.00  -0.00   0.01
    17   1     0.01  -0.00   0.01    -0.08   0.02  -0.08    -0.01   0.00  -0.01
    18   1     0.00  -0.00  -0.00    -0.02   0.03   0.01    -0.00   0.01  -0.00
    19   1     0.00  -0.00  -0.00    -0.04  -0.00   0.01    -0.01   0.00  -0.00
    20   6     0.02   0.01  -0.02     0.00  -0.00  -0.00    -0.01   0.01   0.00
    21   7     0.11  -0.05  -0.02    -0.00   0.00   0.00     0.02  -0.01  -0.01
    22   1    -0.52   0.25   0.17     0.00  -0.00   0.01    -0.04   0.00  -0.04
                     52                     53                     54
                      A                      A                      A
 Frequencies --   2579.5488              3196.8645              3211.1278
 Red. masses --     12.6417                 1.0892                 1.1004
 Frc consts  --     49.5614                 6.5583                 6.6850
 IR Inten    --      0.0000                 0.0000                 0.0000
  Atom  AN      X      Y      Z        X      Y      Z        X      Y      Z
     1   6    -0.12   0.06   0.03    -0.00   0.00  -0.00    -0.00   0.00  -0.00
     2   6    -0.00  -0.00   0.00     0.00   0.00  -0.00    -0.03   0.01  -0.08
     3   6     0.01  -0.01   0.00     0.00  -0.00  -0.00     0.00  -0.00  -0.00
     4   6     0.00  -0.00  -0.00    -0.00  -0.00   0.00    -0.01   0.00   0.02
     5   7    -0.01   0.00   0.00    -0.00   0.00   0.00     0.00   0.00  -0.00
     6   1     0.00   0.00   0.00    -0.00   0.00   0.00    -0.03   0.19   0.76
     7   1    -0.00   0.00  -0.00     0.00   0.00   0.00     0.36  -0.27   0.29
     8   1     0.02  -0.01  -0.02    -0.00   0.00   0.00    -0.01   0.00   0.01
     9   1     0.00  -0.00  -0.00     0.00  -0.00   0.00     0.05  -0.00  -0.32
    10   8    -0.01   0.00   0.00     0.00  -0.00  -0.00     0.00  -0.00   0.00
    11   6     0.01  -0.01  -0.00    -0.00   0.00  -0.00     0.00  -0.00   0.00
    12   8    -0.00   0.00  -0.00     0.00  -0.00   0.00    -0.00   0.00  -0.00
    13   6     0.00  -0.00  -0.00     0.00  -0.00  -0.00     0.00  -0.00   0.00
    14   8     0.00   0.00   0.00    -0.00  -0.00   0.00    -0.00  -0.00  -0.00
    15   8    -0.00   0.00   0.00    -0.00  -0.00   0.00     0.00  -0.00   0.00
    16   6    -0.00  -0.00  -0.00    -0.03  -0.08   0.00     0.00  -0.00  -0.00
    17   1    -0.00  -0.00  -0.00    -0.04  -0.03   0.03    -0.00   0.00   0.00
    18   1    -0.00  -0.00  -0.00     0.29   0.57   0.38     0.00   0.00   0.00
    19   1    -0.00  -0.00  -0.00     0.14   0.45  -0.46    -0.00  -0.00   0.00
    20   6     0.73  -0.29  -0.18     0.00   0.00  -0.00    -0.00   0.00   0.00
    21   7    -0.52   0.21   0.13    -0.00   0.00   0.00     0.00  -0.00   0.00
    22   1    -0.01   0.01  -0.01    -0.00   0.00  -0.00     0.00  -0.00   0.00
                     55                     56                     57
                      A                      A                      A
 Frequencies --   3225.7932              3236.5568              3246.1506
 Red. masses --      1.0888                 1.0524                 1.0808
 Frc consts  --      6.6751                 6.4953                 6.7102
 IR Inten    --      0.0000                 0.0000                 0.0000
  Atom  AN      X      Y      Z        X      Y      Z        X      Y      Z
     1   6    -0.00  -0.00  -0.00     0.00   0.00  -0.00    -0.00  -0.00  -0.00
     2   6    -0.00  -0.00  -0.00    -0.05   0.04   0.00    -0.00  -0.01  -0.03
     3   6     0.00  -0.00  -0.00    -0.00   0.00   0.00    -0.00   0.00   0.00
     4   6    -0.00  -0.00  -0.00     0.00   0.00  -0.01     0.01  -0.00  -0.07
     5   7    -0.00   0.00  -0.00     0.00  -0.00   0.00     0.00   0.00   0.00
     6   1    -0.00   0.00   0.00    -0.01  -0.10  -0.50    -0.01   0.08   0.35
     7   1     0.00  -0.00   0.00     0.55  -0.40   0.49     0.01  -0.01  -0.00
     8   1    -0.00   0.00   0.00     0.01  -0.01  -0.02     0.02  -0.02  -0.03
     9   1    -0.00   0.00   0.00    -0.03   0.00   0.18    -0.15   0.01   0.92
    10   8     0.00  -0.00  -0.00    -0.00  -0.00   0.00    -0.00   0.00  -0.00
    11   6    -0.00   0.00  -0.00    -0.00   0.00  -0.00    -0.00   0.00  -0.00
    12   8     0.00  -0.00   0.00     0.00  -0.00   0.00     0.00  -0.00   0.00
    13   6     0.00  -0.00   0.00     0.00  -0.00  -0.00    -0.00  -0.00  -0.00
    14   8     0.00  -0.00  -0.00     0.00   0.00   0.00     0.00   0.00   0.00
    15   8    -0.00   0.00   0.00    -0.00   0.00   0.00    -0.00   0.00  -0.00
    16   6    -0.03   0.02   0.08    -0.00   0.00   0.00     0.00  -0.00  -0.00
    17   1     0.45  -0.24  -0.42     0.00  -0.00  -0.00    -0.00   0.00   0.00
    18   1    -0.21  -0.38  -0.20    -0.00  -0.00  -0.00     0.00   0.00  -0.00
    19   1     0.12   0.43  -0.36     0.00   0.00  -0.00     0.00  -0.00   0.00
    20   6    -0.00   0.00  -0.00     0.00  -0.00  -0.00    -0.00   0.00   0.00
    21   7    -0.00  -0.00  -0.00    -0.00   0.00   0.00     0.00   0.00  -0.00
    22   1     0.00  -0.00   0.00    -0.01   0.00  -0.01    -0.01   0.00  -0.01
                     58                     59                     60
                      A                      A                      A
 Frequencies --   3272.3808              3300.2525              3313.0141
 Red. masses --      1.0892                 1.0273                 1.0772
 Frc consts  --      6.8722                 6.5924                 6.9659
 IR Inten    --      0.0000                 0.0000                 0.0000
  Atom  AN      X      Y      Z        X      Y      Z        X      Y      Z
     1   6    -0.00   0.00   0.00     0.00  -0.00   0.00    -0.00   0.00  -0.00
     2   6    -0.00   0.00  -0.00    -0.00   0.00   0.00     0.00   0.00  -0.00
     3   6     0.04  -0.03  -0.07     0.00  -0.00  -0.00     0.01  -0.00  -0.01
     4   6     0.00  -0.00  -0.00    -0.00   0.00   0.00     0.00   0.00  -0.00
     5   7     0.00  -0.00   0.01     0.00  -0.00   0.00    -0.03   0.02  -0.06
     6   1    -0.00  -0.00  -0.01     0.00  -0.00  -0.00    -0.00  -0.00  -0.01
     7   1     0.01  -0.01   0.01     0.00  -0.00   0.00     0.01  -0.01   0.01
     8   1    -0.47   0.39   0.77    -0.00   0.00   0.00    -0.06   0.05   0.10
     9   1    -0.01   0.00   0.04     0.00   0.00  -0.00    -0.00  -0.00   0.02
    10   8    -0.00  -0.00   0.00    -0.00   0.00  -0.00     0.00  -0.00   0.00
    11   6     0.00  -0.00   0.00    -0.00   0.00  -0.00     0.00  -0.00   0.00
    12   8     0.00  -0.00   0.00     0.00  -0.00   0.00    -0.00  -0.00  -0.00
    13   6    -0.00   0.00  -0.00    -0.00   0.00   0.00    -0.00   0.00  -0.00
    14   8     0.00  -0.00   0.00    -0.00   0.00   0.00     0.00   0.00   0.00
    15   8     0.00  -0.00  -0.00     0.01  -0.00   0.00     0.00  -0.00  -0.00
    16   6    -0.00   0.00  -0.00     0.04  -0.02   0.00     0.00  -0.00  -0.00
    17   1     0.00  -0.00  -0.00    -0.48   0.26   0.48    -0.01   0.00   0.01
    18   1     0.00   0.00   0.00    -0.18  -0.37  -0.23    -0.00  -0.00  -0.00
    19   1    -0.00  -0.00   0.00     0.12   0.34  -0.33     0.00   0.00  -0.00
    20   6     0.00  -0.00  -0.00     0.00   0.00   0.00     0.00  -0.00  -0.00
    21   7    -0.00   0.00   0.00     0.00  -0.00   0.00    -0.00   0.00   0.00
    22   1    -0.06   0.04  -0.12    -0.01   0.00  -0.01     0.45  -0.28   0.83

 -------------------
 - Thermochemistry -
 -------------------
 Temperature   298.150 Kelvin.  Pressure   1.00000 Atm.
 Atom     1 has atomic number  6 and mass  12.00000
 Atom     2 has atomic number  6 and mass  12.00000
 Atom     3 has atomic number  6 and mass  12.00000
 Atom     4 has atomic number  6 and mass  12.00000
 Atom     5 has atomic number  7 and mass  14.00307
 Atom     6 has atomic number  1 and mass   1.00783
 Atom     7 has atomic number  1 and mass   1.00783
 Atom     8 has atomic number  1 and mass   1.00783
 Atom     9 has atomic number  1 and mass   1.00783
 Atom    10 has atomic number  8 and mass  15.99491
 Atom    11 has atomic number  6 and mass  12.00000
 Atom    12 has atomic number  8 and mass  15.99491
 Atom    13 has atomic number  6 and mass  12.00000
 Atom    14 has atomic number  8 and mass  15.99491
 Atom    15 has atomic number  8 and mass  15.99491
 Atom    16 has atomic number  6 and mass  12.00000
 Atom    17 has atomic number  1 and mass   1.00783
 Atom    18 has atomic number  1 and mass   1.00783
 Atom    19 has atomic number  1 and mass   1.00783
 Atom    20 has atomic number  6 and mass  12.00000
 Atom    21 has atomic number  7 and mass  14.00307
 Atom    22 has atomic number  1 and mass   1.00783
 Molecular mass:   196.04841 amu.
 Principal axes and moments of inertia in atomic units:
                           1         2         3
     Eigenvalues --  1227.298243726.777234073.37803
           X            0.99996  -0.00594   0.00721
           Y            0.00582   0.99986   0.01597
           Z           -0.00730  -0.01593   0.99985
 This molecule is an asymmetric top.
 Rotational symmetry number  1.
 Warning -- assumption of classical behavior for rotation
           may cause significant error
 Rotational temperatures (Kelvin)      0.07057     0.02324     0.02126
 Rotational constants (GHZ):           1.47050     0.48426     0.44306
    6 imaginary frequencies ignored.
 Zero-point vibrational energy     427140.9 (Joules/Mol)
                                  102.08913 (Kcal/Mol)
 Warning -- explicit consideration of  14 degrees of freedom as
           vibrations may cause significant error
 Vibrational temperatures:     97.61   108.08   143.12   188.51   270.73
          (Kelvin)            321.90   437.64   517.35   536.83   638.92
                              744.22   767.38   790.21   809.32   896.45
                              918.66   934.11  1045.54  1102.08  1139.03
                             1228.04  1292.12  1356.26  1476.02  1530.24
                             1602.02  1610.75  1637.08  1739.07  1747.57
                             1842.43  1844.74  1906.64  1920.61  1948.64
                             1988.53  2045.65  2070.09  2280.36  2385.89
                             2393.68  2458.12  2502.69  3166.42  3242.44
                             3711.40  4599.57  4620.10  4641.20  4656.68
                             4670.49  4708.23  4748.33  4766.69
 
 Zero-point correction=                           0.162689 (Hartree/Particle)
 Thermal correction to Energy=                    0.172883
 Thermal correction to Enthalpy=                  0.173828
 Thermal correction to Gibbs Free Energy=         0.125638
 Sum of electronic and zero-point Energies=           -719.040288
 Sum of electronic and thermal Energies=              -719.030094
 Sum of electronic and thermal Enthalpies=            -719.029150
 Sum of electronic and thermal Free Energies=         -719.077340
 
                     E (Thermal)             CV                S
                      KCal/Mol        Cal/Mol-Kelvin    Cal/Mol-Kelvin
 Total                  108.486             37.791            101.424
 Electronic               0.000              0.000              0.000
 Translational            0.889              2.981             41.725
 Rotational               0.889              2.981             31.300
 Vibrational            106.709             31.829             28.400
 Vibration     1          0.598              1.970              4.215
 Vibration     2          0.599              1.966              4.014
 Vibration     3          0.604              1.949              3.465
 Vibration     4          0.612              1.922              2.931
 Vibration     5          0.633              1.856              2.246
 Vibration     6          0.649              1.805              1.929
 Vibration     7          0.695              1.666              1.394
 Vibration     8          0.734              1.556              1.124
 Vibration     9          0.745              1.527              1.067
 Vibration    10          0.804              1.374              0.814
 Vibration    11          0.872              1.212              0.616
 Vibration    12          0.888              1.176              0.580
 Vibration    13          0.904              1.141              0.546
 Vibration    14          0.918              1.112              0.519
                       Q            Log10(Q)             Ln(Q)
 Total Bot       0.162444D-57        -57.789295       -133.064770
 Total V=0       0.110296D+18         17.042561         39.241946
 Vib (Bot)       0.974409D-72        -72.011259       -165.812051
 Vib (Bot)    1  0.304102D+01          0.483020          1.112194
 Vib (Bot)    2  0.274344D+01          0.438296          1.009214
 Vib (Bot)    3  0.206335D+01          0.314574          0.724333
 Vib (Bot)    4  0.155556D+01          0.191886          0.441835
 Vib (Bot)    5  0.106435D+01          0.027084          0.062363
 Vib (Bot)    6  0.882716D+00         -0.054179         -0.124751
 Vib (Bot)    7  0.623743D+00         -0.204994         -0.472016
 Vib (Bot)    8  0.509882D+00         -0.292531         -0.673577
 Vib (Bot)    9  0.486902D+00         -0.312558         -0.719692
 Vib (Bot)   10  0.388021D+00         -0.411145         -0.946697
 Vib (Bot)   11  0.312837D+00         -0.504682         -1.162073
 Vib (Bot)   12  0.298915D+00         -0.524452         -1.207596
 Vib (Bot)   13  0.285947D+00         -0.543715         -1.251950
 Vib (Bot)   14  0.275629D+00         -0.559675         -1.288699
 Vib (V=0)       0.661602D+03          2.820597          6.494665
 Vib (V=0)    1  0.358185D+01          0.554108          1.275881
 Vib (V=0)    2  0.328863D+01          0.517016          1.190472
 Vib (V=0)    3  0.262307D+01          0.418810          0.964346
 Vib (V=0)    4  0.213394D+01          0.329182          0.757970
 Vib (V=0)    5  0.167594D+01          0.224259          0.516375
 Vib (V=0)    6  0.151449D+01          0.180266          0.415078
 Vib (V=0)    7  0.129941D+01          0.113746          0.261910
 Vib (V=0)    8  0.121413D+01          0.084265          0.194026
 Vib (V=0)    9  0.119791D+01          0.078423          0.180576
 Vib (V=0)   10  0.113290D+01          0.054191          0.124779
 Vib (V=0)   11  0.108980D+01          0.037348          0.085997
 Vib (V=0)   12  0.108254D+01          0.034443          0.079308
 Vib (V=0)   13  0.107599D+01          0.031809          0.073242
 Vib (V=0)   14  0.107094D+01          0.029765          0.068536
 Electronic      0.100000D+01          0.000000          0.000000
 Translational   0.107894D+09          8.032999         18.496663
 Rotational      0.154513D+07          6.188965         14.250618
 ***** Axes restored to original set *****
 -------------------------------------------------------------------
 Center     Atomic                   Forces (Hartrees/Bohr)
 Number     Number              X              Y              Z
 -------------------------------------------------------------------
      1        6          -0.000100440    0.000099430   -0.000033912
      2        6          -0.000015783   -0.000010749   -0.000081958
      3        6          -0.000062710   -0.000090142   -0.000072726
      4        6          -0.000101596   -0.000053324   -0.000216601
      5        7           0.000016871   -0.000073251   -0.000177946
      6        1           0.000004024   -0.000021166    0.000006519
      7        1           0.000004419   -0.000023350    0.000012439
      8        1           0.000011280    0.000021463   -0.000012690
      9        1          -0.000016418   -0.000063031    0.000018956
     10        8          -0.000444581   -0.000198914    0.000256219
     11        6          -0.001004419    0.001789747   -0.001256255
     12        8           0.001384902   -0.001803935    0.001594369
     13        6          -0.000177810    0.000407103   -0.002137816
     14        8          -0.000022099   -0.000007196    0.002717181
     15        8           0.000281915   -0.000258726   -0.000570246
     16        6          -0.000036629    0.000114622   -0.000067492
     17        1           0.000288439   -0.000141967   -0.000293197
     18        1           0.000019272    0.000348614    0.000042200
     19        1           0.000065312   -0.000198922    0.000237988
     20        6          -0.000047788    0.000052652    0.000038559
     21        7          -0.000050838    0.000050948    0.000001486
     22        1           0.000004679    0.000060096   -0.000005076
 -------------------------------------------------------------------
 Cartesian Forces:  Max     0.002717181 RMS     0.000639928


 REFRAIN FROM ILLUSIONS, INSIST ON WORK AND NOT WORDS,
 PATIENTLY SEEK DIVINE AND SCIENTIFIC TRUTH.
 LAST WORDS OF MARIA MENDELEEVA TO HER SON DMITRI, C. 1850
 Error termination request processed by link 9999.
 Error termination via Lnk1e in /apps/gaussian/g16/C.01/g16/l9999.exe at Mon May 20 14:51:56 2024.
 Job cpu time:       0 days  7 hours 14 minutes 38.3 seconds.
 Elapsed time:       0 days  1 hours  5 minutes 36.6 seconds.
 File lengths (MBytes):  RWF=      6 Int=      0 D2E=      0 Chk=      1 Scr=      1
