Unloading slurm/anatra/current
  ERROR: No such file or directory on
    '/cm/local/modulefiles/slurm/anatra/current'
environment: line 0: unalias: gv: not found
environment: line 0: unalias: sl: not found
 Entering Gaussian System, Link 0=g16
 Initial command:
 /apps/gaussian/g16/C.01/g16/l1.exe "/local/jobs/1176101/Gau-3202368.inp" -scrdir="/local/jobs/1176101/"
 Entering Link 1 = /apps/gaussian/g16/C.01/g16/l1.exe PID=   3202370.
  
 Copyright (c) 1988-2019, Gaussian, Inc.  All Rights Reserved.
  
 This is part of the Gaussian(R) 16 program.  It is based on
 the Gaussian(R) 09 system (copyright 2009, Gaussian, Inc.),
 the Gaussian(R) 03 system (copyright 2003, Gaussian, Inc.),
 the Gaussian(R) 98 system (copyright 1998, Gaussian, Inc.),
 the Gaussian(R) 94 system (copyright 1995, Gaussian, Inc.),
 the Gaussian 92(TM) system (copyright 1992, Gaussian, Inc.),
 the Gaussian 90(TM) system (copyright 1990, Gaussian, Inc.),
 the Gaussian 88(TM) system (copyright 1988, Gaussian, Inc.),
 the Gaussian 86(TM) system (copyright 1986, Carnegie Mellon
 University), and the Gaussian 82(TM) system (copyright 1983,
 Carnegie Mellon University). Gaussian is a federally registered
 trademark of Gaussian, Inc.
  
 This software contains proprietary and confidential information,
 including trade secrets, belonging to Gaussian, Inc.
  
 This software is provided under written license and may be
 used, copied, transmitted, or stored only in accord with that
 written license.
  
 The following legend is applicable only to US Government
 contracts under FAR:
  
                    RESTRICTED RIGHTS LEGEND
  
 Use, reproduction and disclosure by the US Government is
 subject to restrictions as set forth in subparagraphs (a)
 and (c) of the Commercial Computer Software - Restricted
 Rights clause in FAR 52.227-19.
  
 Gaussian, Inc.
 340 Quinnipiac St., Bldg. 40, Wallingford CT 06492
  
  
 ---------------------------------------------------------------
 Warning -- This program may not be used in any manner that
 competes with the business of Gaussian, Inc. or will provide
 assistance to any competitor of Gaussian, Inc.  The licensee
 of this program is prohibited from giving any competitor of
 Gaussian, Inc. access to this program.  By using this program,
 the user acknowledges that Gaussian, Inc. is engaged in the
 business of creating and licensing software in the field of
 computational chemistry and represents and warrants to the
 licensee that it is not a competitor of Gaussian, Inc. and that
 it will not use this program in any manner prohibited above.
 ---------------------------------------------------------------
  

 Cite this work as:
 Gaussian 16, Revision C.01,
 M. J. Frisch, G. W. Trucks, H. B. Schlegel, G. E. Scuseria, 
 M. A. Robb, J. R. Cheeseman, G. Scalmani, V. Barone, 
 G. A. Petersson, H. Nakatsuji, X. Li, M. Caricato, A. V. Marenich, 
 J. Bloino, B. G. Janesko, R. Gomperts, B. Mennucci, H. P. Hratchian, 
 J. V. Ortiz, A. F. Izmaylov, J. L. Sonnenberg, D. Williams-Young, 
 F. Ding, F. Lipparini, F. Egidi, J. Goings, B. Peng, A. Petrone, 
 T. Henderson, D. Ranasinghe, V. G. Zakrzewski, J. Gao, N. Rega, 
 G. Zheng, W. Liang, M. Hada, M. Ehara, K. Toyota, R. Fukuda, 
 J. Hasegawa, M. Ishida, T. Nakajima, Y. Honda, O. Kitao, H. Nakai, 
 T. Vreven, K. Throssell, J. A. Montgomery, Jr., J. E. Peralta, 
 F. Ogliaro, M. J. Bearpark, J. J. Heyd, E. N. Brothers, K. N. Kudin, 
 V. N. Staroverov, T. A. Keith, R. Kobayashi, J. Normand, 
 K. Raghavachari, A. P. Rendell, J. C. Burant, S. S. Iyengar, 
 J. Tomasi, M. Cossi, J. M. Millam, M. Klene, C. Adamo, R. Cammi, 
 J. W. Ochterski, R. L. Martin, K. Morokuma, O. Farkas, 
 J. B. Foresman, and D. J. Fox, Gaussian, Inc., Wallingford CT, 2019.
 
 ******************************************
 Gaussian 16:  ES64L-G16RevC.01  3-Jul-2019
                20-May-2024 
 ******************************************
 %nprocshared=12
 Will use up to   12 processors via shared memory.
 %mem=48GB
 ----------------------------------------------------------------------
 # external="~/scripts/MiMe -H 'am1' -EF 'wb97xd def2svp' -c 12 -m 48GB
 " opt=(calcall,ts,noeigen,maxcycles=50,maxstep=10,nomicro,cartesian)
 ----------------------------------------------------------------------
 1/5=1,6=50,8=10,10=4,11=1,18=10,26=1,38=1/1,3;
 2/12=2,17=6,18=5,29=2,40=1/2;
 3/11=9,25=1,30=1,41=9900000,43=2,71=2,140=1/1;
 4/20=17,22=2,24=3,113=1,114=1/2;
 6/7=2,8=2,9=2,10=2,18=1/1;
 7/7=1,25=1,44=-1/16;
 1/5=1,6=50,8=10,10=4,11=1,18=10,26=1/3(3);
 2/29=1/2;
 7/7=1,8=1,9=1,25=1,44=-1/16;
 99/12=1/99;
 2/29=1/2;
 3/11=9,25=1,30=1,41=9900000,43=2,71=2,140=1/1;
 4/16=2,20=17,22=2,24=3,113=1,114=1/2;
 7/7=1,25=1,44=-1/16;
 1/5=1,6=50,8=10,10=4,11=1,18=10,26=1/3(-4);
 2/29=1/2;
 6/7=2,8=2,9=2,10=2,18=1/1;
 7/7=1,8=1,9=1,25=1,44=-1/16;
 99/12=1/99;
 -----
 *****
 -----
 Symbolic Z-matrix:
 Charge =  0 Multiplicity = 1
 O                     1.4571    1.0277   -0.4703 
 C                    -0.2447    1.596     0.2715 
 C                     0.5243   -1.1064    1.1767 
 C                    -0.9704    0.443     0.8253 
 C                     1.7089   -0.117    -0.8424 
 C                     1.2547   -1.2973   -0.0698 
 H                     2.2458   -0.3433   -1.7784 
 H                     1.0475   -0.4791    1.9054 
 H                     1.2246   -2.2497   -0.583 
 H                     0.1869    2.2996    0.9795 
 H                    -0.5702    1.9784   -0.6958 
 H                    -1.207     0.503     1.8865 
 C                    -2.0063   -0.2391   -0.0068 
 O                    -1.9637   -0.3005   -1.2288 
 H                     0.0393   -1.9945    1.5795 
 H                    -2.818    -0.7085    0.5735 
 

 GradGradGradGradGradGradGradGradGradGradGradGradGradGradGradGradGradGrad
 Berny optimization.
 Initialization pass.
 No Z-matrix variables, so optimization will use Cartesian coordinates.
 Trust Radius=1.00D-01 FncErr=1.00D-07 GrdErr=1.00D-07 EigMax=2.50D+02 EigMin=1.00D-04
 Number of steps in this run=     50 maximum allowed number of steps=    100.
 Search for a saddle point of order  1.
 GradGradGradGradGradGradGradGradGradGradGradGradGradGradGradGradGradGrad

 ---------------------------------------------------------------------------------------------------
                            Z-MATRIX (ANGSTROMS AND DEGREES)
   CD    Cent   Atom    N1       Length/X        N2       Alpha/Y        N3        Beta/Z          J
 ---------------------------------------------------------------------------------------------------
      1      1  O        0   1.457100          1.027700         -0.470300
      2      2  C        0  -0.244700          1.596000          0.271500
      3      3  C        0   0.524300         -1.106400          1.176700
      4      4  C        0  -0.970400          0.443000          0.825300
      5      5  C        0   1.708900         -0.117000         -0.842400
      6      6  C        0   1.254700         -1.297300         -0.069800
      7      7  H        0   2.245800         -0.343300         -1.778400
      8      8  H        0   1.047500         -0.479100          1.905400
      9      9  H        0   1.224600         -2.249700         -0.583000
     10     10  H        0   0.186900          2.299600          0.979500
     11     11  H        0  -0.570200          1.978400         -0.695800
     12     12  H        0  -1.207000          0.503000          1.886500
     13     13  C        0  -2.006300         -0.239100         -0.006800
     14     14  O        0  -1.963700         -0.300500         -1.228800
     15     15  H        0   0.039300         -1.994500          1.579500
     16     16  H        0  -2.818000         -0.708500          0.573500
 ---------------------------------------------------------------------------------------------------
                         Z-Matrix orientation:                         
 ---------------------------------------------------------------------
 Center     Atomic      Atomic             Coordinates (Angstroms)
 Number     Number       Type             X           Y           Z
 ---------------------------------------------------------------------
      1          8           0        1.457100    1.027700   -0.470300
      2          6           0       -0.244700    1.596000    0.271500
      3          6           0        0.524300   -1.106400    1.176700
      4          6           0       -0.970400    0.443000    0.825300
      5          6           0        1.708900   -0.117000   -0.842400
      6          6           0        1.254700   -1.297300   -0.069800
      7          1           0        2.245800   -0.343300   -1.778400
      8          1           0        1.047500   -0.479100    1.905400
      9          1           0        1.224600   -2.249700   -0.583000
     10          1           0        0.186900    2.299600    0.979500
     11          1           0       -0.570200    1.978400   -0.695800
     12          1           0       -1.207000    0.503000    1.886500
     13          6           0       -2.006300   -0.239100   -0.006800
     14          8           0       -1.963700   -0.300500   -1.228800
     15          1           0        0.039300   -1.994500    1.579500
     16          1           0       -2.818000   -0.708500    0.573500
 ---------------------------------------------------------------------
                    Distance matrix (angstroms):
                    1          2          3          4          5
     1  O    0.000000
     2  C    1.941483   0.000000
     3  C    2.852562   2.951900   0.000000
     4  C    2.813043   1.470627   2.181341   0.000000
     5  C    1.229715   2.826959   2.541447   3.205226   0.000000
     6  C    2.367909   3.276564   1.457288   2.963261   1.481997
     7  H    2.052514   3.763717   3.504069   4.212062   1.102529
     8  H    2.842916   2.940315   1.094645   2.467550   2.849381
     9  H    3.287569   4.204571   2.212261   3.748595   2.202327
    10  H    2.309341   1.087472   3.428347   2.193190   3.387589
    11  H    2.250472   1.089885   3.770965   2.198035   3.099434
    12  H    3.595448   2.174602   2.468073   1.088910   4.041506
    13  C    3.716820   2.558960   2.925204   1.493566   3.809967
    14  O    3.747174   2.966913   3.553315   2.399742   3.697427
    15  H    3.917337   3.831868   1.089126   2.744033   3.489723
    16  H    4.730792   3.467535   3.419524   2.191570   4.779903
                    6          7          8          9         10
     6  C    0.000000
     7  H    2.193561   0.000000
     8  H    2.147975   3.876177   0.000000
     9  H    1.082287   2.471071   3.059170   0.000000
    10  H    3.896013   4.339355   3.052720   4.920809   0.000000
    11  H    3.801624   3.806858   3.927149   4.594656   1.866280
    12  H    3.623280   5.105834   2.459197   4.425886   2.448138
    13  C    3.428976   4.607578   3.611067   3.848796   3.496843
    14  O    3.563003   4.245443   4.349992   3.792321   4.032640
    15  H    2.164134   4.344030   1.849085   2.479207   4.338327
    16  H    4.165022   5.595255   4.094957   4.478326   4.271174
                   11         12         13         14         15
    11  H    0.000000
    12  H    3.041479   0.000000
    13  C    2.730277   2.184989   0.000000
    14  O    2.723842   3.305042   1.224283   0.000000
    15  H    4.618703   2.808028   3.127660   3.842941   0.000000
    16  H    3.726011   2.405623   1.102697   2.035824   3.290896
                   16
    16  H    0.000000
 Stoichiometry    C6H8O2
 Framework group  C1[X(C6H8O2)]
 Deg. of freedom    42
 Full point group                 C1      NOp   1
 Largest Abelian subgroup         C1      NOp   1
 Largest concise Abelian subgroup C1      NOp   1
                         Standard orientation:                         
 ---------------------------------------------------------------------
 Center     Atomic      Atomic             Coordinates (Angstroms)
 Number     Number       Type             X           Y           Z
 ---------------------------------------------------------------------
      1          8           0        1.456663    1.150187   -0.166589
      2          6           0       -0.295156    1.484708    0.600602
      3          6           0        0.577324   -1.309812    0.978956
      4          6           0       -0.980385    0.214072    0.881122
      5          6           0        1.777583    0.115798   -0.749039
      6          6           0        1.357444   -1.214233   -0.248222
      7          1           0        2.355984    0.105909   -1.687615
      8          1           0        1.043980   -0.820927    1.840043
      9          1           0        1.392065   -2.043889   -0.942352
     10          1           0        0.076943    2.048562    1.452780
     11          1           0       -0.606967    2.040330   -0.283653
     12          1           0       -1.254887    0.048655    1.921800
     13          6           0       -1.952636   -0.329229   -0.114011
     14          8           0       -1.866360   -0.140930   -1.320646
     15          1           0        0.124155   -2.280601    1.174920
     16          1           0       -2.758742   -0.939929    0.325510
 ---------------------------------------------------------------------
 Rotational constants (GHZ):           2.7622736           1.6518644           1.4942764
 Standard basis: STO-3G (5D, 7F)
 There are    48 symmetry adapted cartesian basis functions of A   symmetry.
 There are    48 symmetry adapted basis functions of A   symmetry.
    48 basis functions,   144 primitive gaussians,    48 cartesian basis functions
    30 alpha electrons       30 beta electrons
       nuclear repulsion energy       354.7323196843 Hartrees.
 NAtoms=   16 NActive=   16 NUniq=   16 SFac= 1.00D+00 NAtFMM=   60 NAOKFM=F Big=F
 Integral buffers will be    131072 words long.
 Raffenetti 1 integral format.
 Two-electron integral symmetry is turned on.
 External calculation of energy, first and second derivatives.
 Running external command "~/scripts/MiMe -H 'am1' -EF 'wb97xd def2svp' -c 12 -m 48GB R"
         input file       "/local/jobs/1176101/Gau-3202370.EIn"
         output file      "/local/jobs/1176101/Gau-3202370.EOu"
         message file     "/local/jobs/1176101/Gau-3202370.EMs"
         fchk file        "/local/jobs/1176101/Gau-3202370.EFC"
         mat. el file     "/local/jobs/1176101/Gau-3202370.EUF"
 Read checkpoint file Gau-3202370_H.chk type G16
 Write formatted file Gau-3202370_H.fchk

deriv: 2

spelevel: wb97xd def2svp
gradlevel: wb97xd def2svp
hesslevel: am1

runspe: False
runforce: True
runfreq: True

Running Gaussian ...

Parsing files ...
SPE file: Gau-3202370_F.out
FORCE file: Gau-3202370_F.out
HESS file: Gau-3202370_H.out

 ExternalExternalExternalExternalExternalExternalExternalExternalExternalExternal
 Output from external command:
 "~/scripts/MiMe -H 'am1' -EF 'wb97xd def2svp' -c 12 -m 48GB R /local/jobs/1176101/Gau-3202370.EIn /local/jobs/1176101/Gau-3202370.EOu /local/jobs/1176101/Gau-3202370.EMs /local/jobs/1176101/Gau-3202370.EFC /local/jobs/1176101/Gau-3202370.EUF"
  
 --------------------------------------------------
 Force calculation at wb97xd def2svp
 Hessian calculation at am1
 ExternalExternalExternalExternalExternalExternalExternalExternalExternalExternal

 Recovered energy= -383.350862788     dipole=      0.111200000000     -0.472700000000      2.721500000000
 Energy=    -383.350863     NIter=   0.
 Dipole moment=       0.111200      -0.472700       2.721500
 ***** Axes restored to original set *****
 -------------------------------------------------------------------
 Center     Atomic                   Forces (Hartrees/Bohr)
 Number     Number              X              Y              Z
 -------------------------------------------------------------------
      1        8          -0.000889665    0.042989829    0.009589756
      2        6          -0.017691260   -0.051241754    0.008575791
      3        6           0.032606798    0.006862943   -0.046765389
      4        6           0.013935932    0.018567655   -0.016312770
      5        6          -0.020384530   -0.081331990    0.036937832
      6        6          -0.011134781    0.049725083    0.007985470
      7        1          -0.002144649    0.007664424   -0.006353060
      8        1          -0.008803803    0.005326047    0.000881817
      9        1          -0.001567510   -0.006457468   -0.004267550
     10        1           0.003000679    0.001492007   -0.000928861
     11        1           0.002526325   -0.000292793   -0.001800962
     12        1           0.001019634    0.000014916    0.004672313
     13        6           0.024748504    0.010477005   -0.024056200
     14        8          -0.001929395    0.001653691    0.025999212
     15        1          -0.006487349    0.000170303    0.003095855
     16        1          -0.006804931   -0.005619897    0.002746746
 -------------------------------------------------------------------
 Cartesian Forces:  Max     0.081331990 RMS     0.021673989

 GradGradGradGradGradGradGradGradGradGradGradGradGradGradGradGradGradGrad
 Berny optimization.
 Search for a saddle point.
 Step number   1 out of a maximum of   50
 All quantities printed in internal units (Hartrees-Bohrs-Radians)
 Swapping is turned off.
 Second derivative matrix not updated -- analytic derivatives used.
 ITU=  0
     Eigenvalues ---   -0.31915  -0.00553  -0.00241   0.00231   0.00466
     Eigenvalues ---    0.00793   0.01030   0.01329   0.01594   0.02085
     Eigenvalues ---    0.02550   0.02949   0.03924   0.04568   0.04701
     Eigenvalues ---    0.05676   0.06664   0.07005   0.09183   0.10092
     Eigenvalues ---    0.12631   0.13318   0.14106   0.15943   0.17967
     Eigenvalues ---    0.18113   0.25540   0.26698   0.28797   0.34168
     Eigenvalues ---    0.50233   0.51412   0.71044   0.72046   0.77817
     Eigenvalues ---    0.84583   0.88512   0.93984   0.95882   1.01218
     Eigenvalues ---    2.02342   2.24836
 Eigenvectors required to have negative eigenvalues:
                          X2        Y4        X3        Y3        X4
   1                    0.49216  -0.40948  -0.34494   0.29907   0.29129
                          X1        Z2        X5        Y2        Z1
   1                   -0.28398  -0.21614  -0.16622  -0.15451   0.14132
 RFO step:  Lambda0=1.035077458D-04 Lambda=-3.15382649D-02.
 Linear search not attempted -- option 19 set.
 Maximum step size (   0.100) exceeded in Quadratic search.
    -- Step size scaled by   0.112
 B after Tr=     0.003136   -0.001395    0.002988
         Rot=    1.000000   -0.000314    0.000543    0.000028 Ang=  -0.07 deg.
 Variable       Old X    -DE/DX   Delta X   Delta X   Delta X     New X
                                 (Linear)    (Quad)   (Total)
    X1        2.75352  -0.00089   0.00000   0.03414   0.03831   2.79183
    Y1        1.94207   0.04299   0.00000   0.00203   0.00102   1.94309
    Z1       -0.88874   0.00959   0.00000   0.04077   0.04801  -0.84073
    X2       -0.46242  -0.01769   0.00000  -0.00176   0.00099  -0.46143
    Y2        3.01600  -0.05124   0.00000  -0.00947  -0.01116   3.00485
    Z2        0.51306   0.00858   0.00000  -0.00442  -0.00005   0.51301
    X3        0.99078   0.03261   0.00000   0.00476   0.00537   0.99616
    Y3       -2.09079   0.00686   0.00000   0.00542   0.00258  -2.08821
    Z3        2.22364  -0.04677   0.00000  -0.01222  -0.00946   2.21418
    X4       -1.83379   0.01394   0.00000   0.00149   0.00298  -1.83081
    Y4        0.83715   0.01857   0.00000   0.00636   0.00409   0.84124
    Z4        1.55959  -0.01631   0.00000  -0.00341  -0.00189   1.55770
    X5        3.22935  -0.02038   0.00000  -0.01627  -0.01142   3.21793
    Y5       -0.22110  -0.08133   0.00000  -0.00250  -0.00307  -0.22417
    Z5       -1.59191   0.03694   0.00000   0.00524   0.01158  -1.58032
    X6        2.37104  -0.01113   0.00000  -0.01737  -0.01422   2.35682
    Y6       -2.45154   0.04973   0.00000   0.00597   0.00453  -2.44701
    Z6       -0.13190   0.00799   0.00000  -0.01074  -0.00673  -0.13863
    X7        4.24395  -0.00214   0.00000  -0.04491  -0.03814   4.20581
    Y7       -0.64874   0.00766   0.00000   0.01801   0.01850  -0.63024
    Z7       -3.36069  -0.00635   0.00000  -0.01875  -0.01159  -3.37228
    X8        1.97949  -0.00880   0.00000  -0.00909  -0.00991   1.96958
    Y8       -0.90537   0.00533   0.00000   0.01817   0.01441  -0.89096
    Z8        3.60068   0.00088   0.00000  -0.01320  -0.00864   3.59205
    X9        2.31416  -0.00157   0.00000  -0.02304  -0.01893   2.29523
    Y9       -4.25132  -0.00646   0.00000   0.00327   0.00245  -4.24887
    Z9       -1.10171  -0.00427   0.00000  -0.01246  -0.00965  -1.11136
   X10        0.35319   0.00300   0.00000  -0.01103  -0.00966   0.34353
   Y10        4.34561   0.00149   0.00000   0.00719   0.00462   4.35024
   Z10        1.85099  -0.00093   0.00000  -0.01250  -0.00640   1.84458
   X11       -1.07752   0.00253   0.00000   0.01846   0.02325  -1.05427
   Y11        3.73863  -0.00029   0.00000  -0.01923  -0.01973   3.71890
   Z11       -1.31487  -0.00180   0.00000  -0.01576  -0.01158  -1.32646
   X12       -2.28090   0.00102   0.00000   0.00400   0.00331  -2.27759
   Y12        0.95053   0.00001   0.00000   0.00415   0.00064   0.95118
   Z12        3.56497   0.00467   0.00000  -0.00090   0.00021   3.56518
   X13       -3.79136   0.02475   0.00000   0.00903   0.01215  -3.77920
   Y13       -0.45183   0.01048   0.00000  -0.00456  -0.00573  -0.45757
   Z13       -0.01285  -0.02406   0.00000   0.00096  -0.00045  -0.01330
   X14       -3.71086  -0.00193   0.00000   0.00527   0.01090  -3.69996
   Y14       -0.56786   0.00165   0.00000  -0.01748  -0.01721  -0.58507
   Z14       -2.32210   0.02600   0.00000   0.00410   0.00270  -2.31940
   X15        0.07427  -0.00649   0.00000  -0.00326  -0.00358   0.07068
   Y15       -3.76906   0.00017   0.00000   0.01377   0.01049  -3.75857
   Z15        2.98482   0.00310   0.00000   0.00177   0.00248   2.98730
   X16       -5.32525  -0.00680   0.00000   0.00671   0.00859  -5.31666
   Y16       -1.33887  -0.00562   0.00000  -0.00465  -0.00643  -1.34531
   Z16        1.08376   0.00275   0.00000   0.00510   0.00146   1.08522
         Item               Value     Threshold  Converged?
 Maximum Force            0.081332     0.000450     NO 
 RMS     Force            0.021674     0.000300     NO 
 Maximum Displacement     0.048011     0.001800     NO 
 RMS     Displacement     0.014027     0.001200     NO 
 Predicted change in Energy=-3.772589D-03
 GradGradGradGradGradGradGradGradGradGradGradGradGradGradGradGradGradGrad

                          Input orientation:                          
 ---------------------------------------------------------------------
 Center     Atomic      Atomic             Coordinates (Angstroms)
 Number     Number       Type             X           Y           Z
 ---------------------------------------------------------------------
      1          8           0        1.477371    1.028237   -0.444894
      2          6           0       -0.244178    1.590097    0.271472
      3          6           0        0.527143   -1.105032    1.171693
      4          6           0       -0.968824    0.445165    0.824302
      5          6           0        1.702857   -0.118626   -0.836271
      6          6           0        1.247177   -1.294902   -0.073361
      7          1           0        2.225617   -0.333510   -1.784533
      8          1           0        1.042258   -0.471473    1.900830
      9          1           0        1.214584   -2.248404   -0.588104
     10          1           0        0.181790    2.302045    0.976111
     11          1           0       -0.557895    1.967958   -0.701930
     12          1           0       -1.205247    0.503341    1.886611
     13          6           0       -1.999868   -0.242134   -0.007036
     14          8           0       -1.957934   -0.309608   -1.227372
     15          1           0        0.037405   -1.988947    1.580811
     16          1           0       -2.813455   -0.711905    0.574272
 ---------------------------------------------------------------------
                    Distance matrix (angstroms):
                    1          2          3          4          5
     1  O    0.000000
     2  C    1.947459   0.000000
     3  C    2.840269   2.944326   0.000000
     4  C    2.816860   1.463421   2.182135   0.000000
     5  C    1.232605   2.817406   2.527295   3.195816   0.000000
     6  C    2.363895   3.265925   1.450745   2.957075   1.474212
     7  H    2.051551   3.745305   3.495616   4.197238   1.103927
     8  H    2.817956   2.925713   1.094706   2.458371   2.837713
     9  H    3.290280   4.195348   2.208339   3.743992   2.199080
    10  H    2.306593   1.088502   3.430117   2.189740   3.384970
    11  H    2.256425   1.090279   3.759128   2.194799   3.079429
    12  H    3.592753   2.171029   2.469645   1.089854   4.032121
    13  C    3.727835   2.552858   2.918867   1.492164   3.796453
    14  O    3.768743   2.965193   3.544548   2.399456   3.686573
    15  H    3.909013   3.821415   1.090196   2.740384   3.480534
    16  H    4.741095   3.462959   3.416294   2.191801   4.768510
                    6          7          8          9         10
     6  C    0.000000
     7  H    2.193109   0.000000
     8  H    2.148828   3.873148   0.000000
     9  H    1.084061   2.473954   3.063001   0.000000
    10  H    3.895442   4.329496   3.047609   4.921384   0.000000
    11  H    3.781486   3.770508   3.909690   4.575188   1.864020
    12  H    3.617948   5.093962   2.449845   4.421753   2.447084
    13  C    3.414092   4.585038   3.598205   3.833466   3.492715
    14  O    3.546164   4.220556   4.337396   3.772594   4.031686
    15  H    2.163685   4.342152   1.847937   2.481383   4.335796
    16  H    4.153077   5.576683   4.084616   4.465092   4.268122
                   11         12         13         14         15
    11  H    0.000000
    12  H    3.043799   0.000000
    13  C    2.728858   2.184732   0.000000
    14  O    2.724611   3.305195   1.222920   0.000000
    15  H    4.606776   2.801642   3.118188   3.832420   0.000000
    16  H    3.727989   2.405284   1.104775   2.034620   3.281975
                   16
    16  H    0.000000
 Stoichiometry    C6H8O2
 Framework group  C1[X(C6H8O2)]
 Deg. of freedom    42
 Full point group                 C1      NOp   1
 Largest Abelian subgroup         C1      NOp   1
 Largest concise Abelian subgroup C1      NOp   1
                         Standard orientation:                         
 ---------------------------------------------------------------------
 Center     Atomic      Atomic             Coordinates (Angstroms)
 Number     Number       Type             X           Y           Z
 ---------------------------------------------------------------------
      1          8           0        1.480132    1.134994   -0.174183
      2          6           0       -0.285047    1.495442    0.565289
      3          6           0        0.572708   -1.287727    0.998050
      4          6           0       -0.976751    0.243999    0.876795
      5          6           0        1.766332    0.086349   -0.755345
      6          6           0        1.338106   -1.223906   -0.232703
      7          1           0        2.326681    0.064942   -1.706242
      8          1           0        1.037638   -0.777416    1.847640
      9          1           0        1.362113   -2.069694   -0.910386
     10          1           0        0.088264    2.083964    1.401421
     11          1           0       -0.584571    2.030669   -0.336112
     12          1           0       -1.247968    0.101288    1.922671
     13          6           0       -1.951460   -0.319580   -0.102427
     14          8           0       -1.869210   -0.164661   -1.312703
     15          1           0        0.108847   -2.248143    1.223798
     16          1           0       -2.761706   -0.915729    0.354339
 ---------------------------------------------------------------------
 Rotational constants (GHZ):           2.7753010           1.6558787           1.4980794
 Standard basis: STO-3G (5D, 7F)
 There are    48 symmetry adapted cartesian basis functions of A   symmetry.
 There are    48 symmetry adapted basis functions of A   symmetry.
    48 basis functions,   144 primitive gaussians,    48 cartesian basis functions
    30 alpha electrons       30 beta electrons
       nuclear repulsion energy       355.2165679692 Hartrees.
 NAtoms=   16 NActive=   16 NUniq=   16 SFac= 1.00D+00 NAtFMM=   60 NAOKFM=F Big=F
 Integral buffers will be    131072 words long.
 Raffenetti 1 integral format.
 Two-electron integral symmetry is turned on.
 External calculation of energy, first and second derivatives.
 Running external command "~/scripts/MiMe -H 'am1' -EF 'wb97xd def2svp' -c 12 -m 48GB R"
         input file       "/local/jobs/1176101/Gau-3202370.EIn"
         output file      "/local/jobs/1176101/Gau-3202370.EOu"
         message file     "/local/jobs/1176101/Gau-3202370.EMs"
         fchk file        "/local/jobs/1176101/Gau-3202370.EFC"
         mat. el file     "/local/jobs/1176101/Gau-3202370.EUF"
 Read checkpoint file Gau-3202370_H.chk type G16
 Write formatted file Gau-3202370_H.fchk

deriv: 2

spelevel: wb97xd def2svp
gradlevel: wb97xd def2svp
hesslevel: am1

runspe: False
runforce: True
runfreq: True

Running Gaussian ...

Parsing files ...
SPE file: Gau-3202370_F.out
FORCE file: Gau-3202370_F.out
HESS file: Gau-3202370_H.out

 ExternalExternalExternalExternalExternalExternalExternalExternalExternalExternal
 Output from external command:
 "~/scripts/MiMe -H 'am1' -EF 'wb97xd def2svp' -c 12 -m 48GB R /local/jobs/1176101/Gau-3202370.EIn /local/jobs/1176101/Gau-3202370.EOu /local/jobs/1176101/Gau-3202370.EMs /local/jobs/1176101/Gau-3202370.EFC /local/jobs/1176101/Gau-3202370.EUF"
  
 --------------------------------------------------
 Force calculation at wb97xd def2svp
 Hessian calculation at am1
 ExternalExternalExternalExternalExternalExternalExternalExternalExternalExternal

 Recovered energy= -383.354604963     dipole=      0.084700000000     -0.478700000000      2.700400000000
 Energy=    -383.354605     NIter=   0.
 Dipole moment=       0.084700      -0.478700       2.700400
 ***** Axes restored to original set *****
 -------------------------------------------------------------------
 Center     Atomic                   Forces (Hartrees/Bohr)
 Number     Number              X              Y              Z
 -------------------------------------------------------------------
      1        8          -0.002062327    0.037984797    0.008799445
      2        6          -0.015766207   -0.045848177    0.008436768
      3        6           0.030170306    0.006087553   -0.042341829
      4        6           0.012934072    0.017056911   -0.014865288
      5        6          -0.017188230   -0.073981961    0.033749133
      6        6          -0.010769535    0.045242991    0.006696266
      7        1          -0.002508402    0.006952123   -0.005159664
      8        1          -0.008212653    0.005099586    0.000319373
      9        1          -0.001827632   -0.005166512   -0.003748199
     10        1           0.002406818    0.000895835   -0.001108737
     11        1           0.002474477   -0.000738882   -0.001628844
     12        1           0.001172871   -0.000110312    0.003960279
     13        6           0.022190456    0.009089525   -0.022120606
     14        8          -0.001346891    0.001934729    0.024130590
     15        1          -0.005840645    0.000518180    0.002514491
     16        1          -0.005826477   -0.005016384    0.002366821
 -------------------------------------------------------------------
 Cartesian Forces:  Max     0.073981961 RMS     0.019627743

 GradGradGradGradGradGradGradGradGradGradGradGradGradGradGradGradGradGrad
 Berny optimization.
 Search for a saddle point.
 Step number   2 out of a maximum of   50
 All quantities printed in internal units (Hartrees-Bohrs-Radians)
 Swapping is turned off.
 Second derivative matrix not updated -- analytic derivatives used.
 ITU=  0  0
     Eigenvalues ---   -0.30631  -0.00509  -0.00178   0.00217   0.00485
     Eigenvalues ---    0.00791   0.01033   0.01361   0.01592   0.02078
     Eigenvalues ---    0.02554   0.02976   0.04013   0.04615   0.04731
     Eigenvalues ---    0.05795   0.06732   0.07069   0.09230   0.10115
     Eigenvalues ---    0.12660   0.13533   0.14112   0.16016   0.17995
     Eigenvalues ---    0.18141   0.25633   0.26829   0.29128   0.34409
     Eigenvalues ---    0.50408   0.51535   0.71520   0.72208   0.79514
     Eigenvalues ---    0.84540   0.89289   0.94118   0.97727   1.03041
     Eigenvalues ---    2.00322   2.26194
 Eigenvectors required to have negative eigenvalues:
                          X2        Y4        X3        X1        Y3
   1                    0.49505  -0.40426  -0.34257  -0.30054   0.29772
                          X4        Z2        X5        Y2        Z1
   1                    0.29702  -0.20869  -0.16190  -0.15773   0.13871
 RFO step:  Lambda0=7.792129751D-05 Lambda=-2.61666839D-02.
 Linear search not attempted -- option 19 set.
 Maximum step size (   0.100) exceeded in Quadratic search.
    -- Step size scaled by   0.151
 B after Tr=     0.003019   -0.001087    0.002900
         Rot=    1.000000   -0.000336    0.000497    0.000074 Ang=  -0.07 deg.
 Variable       Old X    -DE/DX   Delta X   Delta X   Delta X     New X
                                 (Linear)    (Quad)   (Total)
    X1        2.79183  -0.00206   0.00000   0.02922   0.03332   2.82515
    Y1        1.94309   0.03798   0.00000   0.00217   0.00121   1.94429
    Z1       -0.84073   0.00880   0.00000   0.03517   0.04218  -0.79855
    X2       -0.46143  -0.01577   0.00000  -0.00148   0.00148  -0.45995
    Y2        3.00485  -0.04585   0.00000  -0.01358  -0.01494   2.98991
    Z2        0.51301   0.00844   0.00000  -0.00437   0.00008   0.51309
    X3        0.99616   0.03017   0.00000   0.00734   0.00786   1.00402
    Y3       -2.08821   0.00609   0.00000   0.00528   0.00257  -2.08564
    Z3        2.21418  -0.04234   0.00000  -0.01242  -0.00992   2.20426
    X4       -1.83081   0.01293   0.00000   0.00148   0.00309  -1.82773
    Y4        0.84124   0.01706   0.00000   0.00592   0.00406   0.84530
    Z4        1.55770  -0.01487   0.00000  -0.00276  -0.00111   1.55659
    X5        3.21793  -0.01719   0.00000  -0.01540  -0.01086   3.20707
    Y5       -0.22417  -0.07398   0.00000  -0.00385  -0.00436  -0.22853
    Z5       -1.58032   0.03375   0.00000   0.00961   0.01554  -1.56479
    X6        2.35682  -0.01077   0.00000  -0.01809  -0.01529   2.34153
    Y6       -2.44701   0.04524   0.00000   0.00700   0.00566  -2.44135
    Z6       -0.13863   0.00670   0.00000  -0.00923  -0.00564  -0.14428
    X7        4.20581  -0.00251   0.00000  -0.04444  -0.03815   4.16766
    Y7       -0.63024   0.00695   0.00000   0.01921   0.01978  -0.61046
    Z7       -3.37228  -0.00516   0.00000  -0.01477  -0.00814  -3.38042
    X8        1.96958  -0.00821   0.00000  -0.01359  -0.01425   1.95533
    Y8       -0.89096   0.00510   0.00000   0.02252   0.01874  -0.87222
    Z8        3.59205   0.00032   0.00000  -0.01307  -0.00881   3.58324
    X9        2.29523  -0.00183   0.00000  -0.02554  -0.02203   2.27320
    Y9       -4.24887  -0.00517   0.00000   0.00496   0.00429  -4.24458
    Z9       -1.11136  -0.00375   0.00000  -0.01326  -0.01096  -1.12231
   X10        0.34353   0.00241   0.00000  -0.00842  -0.00657   0.33697
   Y10        4.35024   0.00090   0.00000   0.00378   0.00142   4.35165
   Z10        1.84458  -0.00111   0.00000  -0.01465  -0.00849   1.83609
   X11       -1.05427   0.00247   0.00000   0.01929   0.02419  -1.03008
   Y11        3.71890  -0.00074   0.00000  -0.02310  -0.02313   3.69577
   Z11       -1.32646  -0.00163   0.00000  -0.01578  -0.01142  -1.33788
   X12       -2.27759   0.00117   0.00000   0.00578   0.00540  -2.27219
   Y12        0.95118  -0.00011   0.00000   0.00212  -0.00103   0.95015
   Z12        3.56518   0.00396   0.00000   0.00031   0.00160   3.56677
   X13       -3.77920   0.02219   0.00000   0.01134   0.01430  -3.76490
   Y13       -0.45757   0.00909   0.00000  -0.00481  -0.00532  -0.46289
   Z13       -0.01330  -0.02212   0.00000   0.00076  -0.00040  -0.01369
   X14       -3.69996  -0.00135   0.00000   0.00521   0.01044  -3.68952
   Y14       -0.58507   0.00193   0.00000  -0.01090  -0.00988  -0.59496
   Z14       -2.31940   0.02413   0.00000   0.00400   0.00283  -2.31657
   X15        0.07068  -0.00584   0.00000  -0.00485  -0.00535   0.06533
   Y15       -3.75857   0.00052   0.00000   0.01597   0.01287  -3.74570
   Z15        2.98730   0.00251   0.00000   0.00182   0.00227   2.98957
   X16       -5.31666  -0.00583   0.00000   0.01068   0.01241  -5.30425
   Y16       -1.34531  -0.00502   0.00000  -0.01090  -0.01193  -1.35723
   Z16        1.08522   0.00237   0.00000   0.00370   0.00041   1.08563
         Item               Value     Threshold  Converged?
 Maximum Force            0.073982     0.000450     NO 
 RMS     Force            0.019628     0.000300     NO 
 Maximum Displacement     0.042178     0.001800     NO 
 RMS     Displacement     0.014068     0.001200     NO 
 Predicted change in Energy=-3.978738D-03
 GradGradGradGradGradGradGradGradGradGradGradGradGradGradGradGradGradGrad

                          Input orientation:                          
 ---------------------------------------------------------------------
 Center     Atomic      Atomic             Coordinates (Angstroms)
 Number     Number       Type             X           Y           Z
 ---------------------------------------------------------------------
      1          8           0        1.495004    1.028876   -0.422574
      2          6           0       -0.243394    1.582190    0.271516
      3          6           0        0.531303   -1.103675    1.166444
      4          6           0       -0.967191    0.447315    0.823713
      5          6           0        1.697110   -0.120933   -0.828050
      6          6           0        1.239086   -1.291906   -0.076347
      7          1           0        2.205430   -0.323043   -1.788843
      8          1           0        1.034715   -0.461556    1.896168
      9          1           0        1.202925   -2.246133   -0.593903
     10          1           0        0.178314    2.302795    0.971617
     11          1           0       -0.545094    1.955716   -0.707976
     12          1           0       -1.202389    0.502797    1.887455
     13          6           0       -1.992299   -0.244951   -0.007247
     14          8           0       -1.952409   -0.314837   -1.225874
     15          1           0        0.034573   -1.982138    1.582011
     16          1           0       -2.806886   -0.718216    0.574490
 ---------------------------------------------------------------------
                    Distance matrix (angstroms):
                    1          2          3          4          5
     1  O    0.000000
     2  C    1.951909   0.000000
     3  C    2.828687   2.935119   0.000000
     4  C    2.820257   1.454904   2.183693   0.000000
     5  C    1.235847   2.806284   2.510556   3.185863   0.000000
     6  C    2.360380   3.252567   1.442539   2.950026   1.464930
     7  H    2.049165   3.724478   3.485083   4.181438   1.105605
     8  H    2.794605   2.906881   1.094640   2.446187   2.824208
     9  H    3.292468   4.182924   2.203431   3.738141   2.194428
    10  H    2.302240   1.089609   3.430247   2.185604   3.379348
    11  H    2.258868   1.090847   3.745924   2.190778   3.058490
    12  H    3.590115   2.167030   2.471092   1.090846   4.021206
    13  C    3.735829   2.544567   2.912649   1.490158   3.781644
    14  O    3.786227   2.960004   3.537552   2.398403   3.676255
    15  H    3.900951   3.807768   1.091390   2.735102   3.469366
    16  H    4.748971   3.457622   3.412110   2.192043   4.754981
                    6          7          8          9         10
     6  C    0.000000
     7  H    2.192067   0.000000
     8  H    2.149898   3.868987   0.000000
     9  H    1.086149   2.476120   3.068136   0.000000
    10  H    3.891701   4.315594   3.038067   4.918681   0.000000
    11  H    3.758896   3.731808   3.888516   4.552374   1.861401
    12  H    3.610856   5.080394   2.436121   4.415800   2.446445
    13  C    3.397461   4.560824   3.582278   3.815541   3.487226
    14  O    3.530116   4.195787   4.323376   3.753055   4.027524
    15  H    2.162735   4.339109   1.846929   2.483816   4.330576
    16  H    4.137946   5.555611   4.070701   4.447275   4.265634
                   11         12         13         14         15
    11  H    0.000000
    12  H    3.046190   0.000000
    13  C    2.725501   2.184715   0.000000
    14  O    2.721060   3.305129   1.221281   0.000000
    15  H    4.592030   2.792539   3.106729   3.822592   0.000000
    16  H    3.729656   2.406068   1.107226   2.033262   3.269019
                   16
    16  H    0.000000
 Stoichiometry    C6H8O2
 Framework group  C1[X(C6H8O2)]
 Deg. of freedom    42
 Full point group                 C1      NOp   1
 Largest Abelian subgroup         C1      NOp   1
 Largest concise Abelian subgroup C1      NOp   1
                         Standard orientation:                         
 ---------------------------------------------------------------------
 Center     Atomic      Atomic             Coordinates (Angstroms)
 Number     Number       Type             X           Y           Z
 ---------------------------------------------------------------------
      1          8           0        1.500174    1.122144   -0.179786
      2          6           0       -0.275881    1.500444    0.536082
      3          6           0        0.570844   -1.269470    1.011011
      4          6           0       -0.972988    0.268757    0.873329
      5          6           0        1.755224    0.060426   -0.758597
      6          6           0        1.319365   -1.230931   -0.221526
      7          1           0        2.297139    0.033191   -1.721897
      8          1           0        1.030018   -0.738970    1.851229
      9          1           0        1.332402   -2.089035   -0.887264
     10          1           0        0.099643    2.110595    1.357025
     11          1           0       -0.563568    2.018502   -0.379778
     12          1           0       -1.239598    0.143237    1.923619
     13          6           0       -1.948662   -0.311134   -0.092257
     14          8           0       -1.872314   -0.180786   -1.304160
     15          1           0        0.095038   -2.218947    1.262478
     16          1           0       -2.761373   -0.897985    0.377908
 ---------------------------------------------------------------------
 Rotational constants (GHZ):           2.7908871           1.6611057           1.5029343
 Standard basis: STO-3G (5D, 7F)
 There are    48 symmetry adapted cartesian basis functions of A   symmetry.
 There are    48 symmetry adapted basis functions of A   symmetry.
    48 basis functions,   144 primitive gaussians,    48 cartesian basis functions
    30 alpha electrons       30 beta electrons
       nuclear repulsion energy       355.8392708786 Hartrees.
 NAtoms=   16 NActive=   16 NUniq=   16 SFac= 1.00D+00 NAtFMM=   60 NAOKFM=F Big=F
 Integral buffers will be    131072 words long.
 Raffenetti 1 integral format.
 Two-electron integral symmetry is turned on.
 External calculation of energy, first and second derivatives.
 Running external command "~/scripts/MiMe -H 'am1' -EF 'wb97xd def2svp' -c 12 -m 48GB R"
         input file       "/local/jobs/1176101/Gau-3202370.EIn"
         output file      "/local/jobs/1176101/Gau-3202370.EOu"
         message file     "/local/jobs/1176101/Gau-3202370.EMs"
         fchk file        "/local/jobs/1176101/Gau-3202370.EFC"
         mat. el file     "/local/jobs/1176101/Gau-3202370.EUF"
 Read checkpoint file Gau-3202370_H.chk type G16
 Write formatted file Gau-3202370_H.fchk

deriv: 2

spelevel: wb97xd def2svp
gradlevel: wb97xd def2svp
hesslevel: am1

runspe: False
runforce: True
runfreq: True

Running Gaussian ...

Parsing files ...
SPE file: Gau-3202370_F.out
FORCE file: Gau-3202370_F.out
HESS file: Gau-3202370_H.out

 ExternalExternalExternalExternalExternalExternalExternalExternalExternalExternal
 Output from external command:
 "~/scripts/MiMe -H 'am1' -EF 'wb97xd def2svp' -c 12 -m 48GB R /local/jobs/1176101/Gau-3202370.EIn /local/jobs/1176101/Gau-3202370.EOu /local/jobs/1176101/Gau-3202370.EMs /local/jobs/1176101/Gau-3202370.EFC /local/jobs/1176101/Gau-3202370.EUF"
  
 --------------------------------------------------
 Force calculation at wb97xd def2svp
 Hessian calculation at am1
 ExternalExternalExternalExternalExternalExternalExternalExternalExternalExternal

 Recovered energy= -383.358579996     dipole=      0.074700000000     -0.506100000000      2.682900000000
 Energy=    -383.358580     NIter=   0.
 Dipole moment=       0.074700      -0.506100       2.682900
 ***** Axes restored to original set *****
 -------------------------------------------------------------------
 Center     Atomic                   Forces (Hartrees/Bohr)
 Number     Number              X              Y              Z
 -------------------------------------------------------------------
      1        8          -0.003069364    0.032379673    0.008173258
      2        6          -0.013520025   -0.039399431    0.007890969
      3        6           0.026862549    0.005256835   -0.036934207
      4        6           0.011542495    0.015103544   -0.013104211
      5        6          -0.013817853   -0.065154175    0.029230802
      6        6          -0.009962206    0.039736273    0.005372861
      7        1          -0.002837128    0.006007251   -0.003741058
      8        1          -0.007378534    0.004716292   -0.000287269
      9        1          -0.001978477   -0.003681137   -0.003071766
     10        1           0.001782034    0.000254495   -0.001272108
     11        1           0.002346540   -0.001231687   -0.001317544
     12        1           0.001294358   -0.000239960    0.003181660
     13        6           0.019109727    0.007687493   -0.019627262
     14        8          -0.000666524    0.002034516    0.021694716
     15        1          -0.005032359    0.000880930    0.001889698
     16        1          -0.004675233   -0.004350914    0.001921460
 -------------------------------------------------------------------
 Cartesian Forces:  Max     0.065154175 RMS     0.017146536

 GradGradGradGradGradGradGradGradGradGradGradGradGradGradGradGradGradGrad
 Berny optimization.
 Search for a saddle point.
 Step number   3 out of a maximum of   50
 All quantities printed in internal units (Hartrees-Bohrs-Radians)
 Swapping is turned off.
 Second derivative matrix not updated -- analytic derivatives used.
 ITU=  0  0  0
     Eigenvalues ---   -0.29233  -0.00528  -0.00091   0.00197   0.00504
     Eigenvalues ---    0.00785   0.01031   0.01387   0.01589   0.02075
     Eigenvalues ---    0.02567   0.03018   0.04122   0.04662   0.04768
     Eigenvalues ---    0.05929   0.06807   0.07143   0.09277   0.10159
     Eigenvalues ---    0.12699   0.13728   0.14140   0.16076   0.17986
     Eigenvalues ---    0.18232   0.25682   0.26963   0.29536   0.34652
     Eigenvalues ---    0.50549   0.51642   0.71553   0.72578   0.81654
     Eigenvalues ---    0.84540   0.90428   0.93971   1.00289   1.05848
     Eigenvalues ---    1.98033   2.27836
 Eigenvectors required to have negative eigenvalues:
                          X2        Y4        X3        X1        X4
   1                    0.49806  -0.39755  -0.33927  -0.31802   0.30283
                          Y3        Z2        Y2        X5        Z1
   1                    0.29519  -0.20186  -0.16190  -0.15772   0.13677
 RFO step:  Lambda0=6.297147509D-05 Lambda=-2.05141323D-02.
 Linear search not attempted -- option 19 set.
 Maximum step size (   0.100) exceeded in Quadratic search.
    -- Step size scaled by   0.155
 B after Tr=     0.003284   -0.001532    0.002977
         Rot=    1.000000   -0.000257    0.000505   -0.000030 Ang=  -0.07 deg.
 Variable       Old X    -DE/DX   Delta X   Delta X   Delta X     New X
                                 (Linear)    (Quad)   (Total)
    X1        2.82515  -0.00307   0.00000   0.02575   0.02969   2.85484
    Y1        1.94429   0.03238   0.00000   0.00130   0.00032   1.94462
    Z1       -0.79855   0.00817   0.00000   0.03395   0.04081  -0.75774
    X2       -0.45995  -0.01352   0.00000  -0.00061   0.00198  -0.45797
    Y2        2.98991  -0.03940   0.00000  -0.01206  -0.01388   2.97603
    Z2        0.51309   0.00789   0.00000  -0.00353   0.00051   0.51360
    X3        1.00402   0.02686   0.00000   0.00551   0.00670   1.01072
    Y3       -2.08564   0.00526   0.00000   0.00527   0.00267  -2.08297
    Z3        2.20426  -0.03693   0.00000  -0.01205  -0.00912   2.19514
    X4       -1.82773   0.01154   0.00000   0.00125   0.00292  -1.82481
    Y4        0.84530   0.01510   0.00000   0.00608   0.00364   0.84894
    Z4        1.55659  -0.01310   0.00000  -0.00113   0.00044   1.55703
    X5        3.20707  -0.01382   0.00000  -0.01411  -0.00924   3.19783
    Y5       -0.22853  -0.06515   0.00000  -0.00211  -0.00265  -0.23119
    Z5       -1.56479   0.02923   0.00000   0.00854   0.01462  -1.55016
    X6        2.34153  -0.00996   0.00000  -0.01905  -0.01547   2.32607
    Y6       -2.44135   0.03974   0.00000   0.00661   0.00529  -2.43606
    Z6       -0.14428   0.00537   0.00000  -0.01032  -0.00624  -0.15052
    X7        4.16766  -0.00284   0.00000  -0.04362  -0.03687   4.13079
    Y7       -0.61046   0.00601   0.00000   0.02059   0.02105  -0.58942
    Z7       -3.38042  -0.00374   0.00000  -0.01401  -0.00716  -3.38758
    X8        1.95533  -0.00738   0.00000  -0.01310  -0.01338   1.94195
    Y8       -0.87222   0.00472   0.00000   0.02168   0.01843  -0.85378
    Z8        3.58324  -0.00029   0.00000  -0.01420  -0.00970   3.57354
    X9        2.27320  -0.00198   0.00000  -0.02989  -0.02520   2.24800
    Y9       -4.24458  -0.00368   0.00000   0.00670   0.00589  -4.23869
    Z9       -1.12231  -0.00307   0.00000  -0.01638  -0.01330  -1.13562
   X10        0.33697   0.00178   0.00000  -0.00707  -0.00588   0.33108
   Y10        4.35165   0.00025   0.00000   0.00381   0.00136   4.35301
   Z10        1.83609  -0.00127   0.00000  -0.01380  -0.00826   1.82783
   X11       -1.03008   0.00235   0.00000   0.01953   0.02396  -1.00612
   Y11        3.69577  -0.00123   0.00000  -0.02373  -0.02463   3.67114
   Z11       -1.33788  -0.00132   0.00000  -0.01490  -0.01106  -1.34894
   X12       -2.27219   0.00129   0.00000   0.00572   0.00534  -2.26684
   Y12        0.95015  -0.00024   0.00000   0.00282  -0.00067   0.94947
   Z12        3.56677   0.00318   0.00000   0.00153   0.00270   3.56948
   X13       -3.76490   0.01911   0.00000   0.01124   0.01457  -3.75033
   Y13       -0.46289   0.00769   0.00000  -0.00419  -0.00593  -0.46882
   Z13       -0.01369  -0.01963   0.00000   0.00143   0.00038  -0.01332
   X14       -3.68952  -0.00067   0.00000   0.01189   0.01755  -3.67197
   Y14       -0.59496   0.00203   0.00000  -0.01624  -0.01681  -0.61176
   Z14       -2.31657   0.02169   0.00000   0.00499   0.00394  -2.31263
   X15        0.06533  -0.00503   0.00000  -0.00654  -0.00606   0.05928
   Y15       -3.74570   0.00088   0.00000   0.01597   0.01291  -3.73279
   Z15        2.98957   0.00189   0.00000   0.00048   0.00160   2.99116
   X16       -5.30425  -0.00468   0.00000   0.00712   0.00939  -5.29486
   Y16       -1.35723  -0.00435   0.00000  -0.00459  -0.00699  -1.36422
   Z16        1.08563   0.00192   0.00000   0.00293  -0.00015   1.08548
         Item               Value     Threshold  Converged?
 Maximum Force            0.065154     0.000450     NO 
 RMS     Force            0.017147     0.000300     NO 
 Maximum Displacement     0.040807     0.001800     NO 
 RMS     Displacement     0.014044     0.001200     NO 
 Predicted change in Energy=-3.179694D-03
 GradGradGradGradGradGradGradGradGradGradGradGradGradGradGradGradGradGrad

                          Input orientation:                          
 ---------------------------------------------------------------------
 Center     Atomic      Atomic             Coordinates (Angstroms)
 Number     Number       Type             X           Y           Z
 ---------------------------------------------------------------------
      1          8           0        1.510717    1.029048   -0.400979
      2          6           0       -0.242346    1.574847    0.271786
      3          6           0        0.534850   -1.102260    1.161617
      4          6           0       -0.965648    0.449240    0.823943
      5          6           0        1.692219   -0.122338   -0.820310
      6          6           0        1.230901   -1.289105   -0.079650
      7          1           0        2.185920   -0.311906   -1.792633
      8          1           0        1.027636   -0.451802    1.891034
      9          1           0        1.189588   -2.243018   -0.600944
     10          1           0        0.175201    2.303515    0.967248
     11          1           0       -0.532414    1.942683   -0.713829
     12          1           0       -1.199561    0.502440    1.888887
     13          6           0       -1.984588   -0.248090   -0.007046
     14          8           0       -1.943123   -0.323731   -1.223791
     15          1           0        0.031368   -1.975307    1.582856
     16          1           0       -2.801919   -0.721915    0.574411
 ---------------------------------------------------------------------
                    Distance matrix (angstroms):
                    1          2          3          4          5
     1  O    0.000000
     2  C    1.955439   0.000000
     3  C    2.817179   2.926215   0.000000
     4  C    2.822941   1.447423   2.184643   0.000000
     5  C    1.238737   2.795649   2.495553   3.177188   0.000000
     6  C    2.356986   3.239782   1.435320   2.943323   1.456962
     7  H    2.047133   3.703800   3.475382   4.166316   1.106836
     8  H    2.771211   2.888274   1.094524   2.433874   2.810980
     9  H    3.293862   4.169915   2.199235   3.731434   2.190444
    10  H    2.297807   1.090399   3.430223   2.181836   3.373643
    11  H    2.259865   1.091274   3.732027   2.186963   3.037209
    12  H    3.586978   2.163638   2.472279   1.091627   4.011544
    13  C    3.742115   2.536977   2.905675   1.488305   3.767774
    14  O    3.799479   2.955332   3.526560   2.397114   3.663204
    15  H    3.892329   3.794393   1.092313   2.729179   3.459354
    16  H    4.755637   3.452261   3.409325   2.192204   4.743628
                    6          7          8          9         10
     6  C    0.000000
     7  H    2.191184   0.000000
     8  H    2.150812   3.864013   0.000000
     9  H    1.087843   2.478305   3.073213   0.000000
    10  H    3.888113   4.301204   3.028498   4.915198   0.000000
    11  H    3.735762   3.692739   3.866863   4.527486   1.859284
    12  H    3.604431   5.067368   2.423013   4.409629   2.446070
    13  C    3.380585   4.537127   3.566189   3.795767   3.482043
    14  O    3.509335   4.168058   4.306269   3.726323   4.023725
    15  H    2.161869   4.336233   1.846237   2.486388   4.325272
    16  H    4.124698   5.536202   4.058565   4.430275   4.262720
                   11         12         13         14         15
    11  H    0.000000
    12  H    3.048526   0.000000
    13  C    2.721734   2.184977   0.000000
    14  O    2.717865   3.305178   1.219798   0.000000
    15  H    4.576380   2.783536   3.094373   3.808357   0.000000
    16  H    3.729651   2.407164   1.109339   2.032145   3.258138
                   16
    16  H    0.000000
 Stoichiometry    C6H8O2
 Framework group  C1[X(C6H8O2)]
 Deg. of freedom    42
 Full point group                 C1      NOp   1
 Largest Abelian subgroup         C1      NOp   1
 Largest concise Abelian subgroup C1      NOp   1
                         Standard orientation:                         
 ---------------------------------------------------------------------
 Center     Atomic      Atomic             Coordinates (Angstroms)
 Number     Number       Type             X           Y           Z
 ---------------------------------------------------------------------
      1          8           0        1.519224    1.107636   -0.186787
      2          6           0       -0.265949    1.506926    0.504204
      3          6           0        0.566178   -1.249386    1.026741
      4          6           0       -0.969961    0.295919    0.868707
      5          6           0        1.745249    0.033078   -0.760118
      6          6           0        1.299343   -1.238983   -0.207158
      7          1           0        2.269329   -0.002827   -1.734355
      8          1           0        1.020594   -0.697714    1.855685
      9          1           0        1.299569   -2.109223   -0.859909
     10          1           0        0.111869    2.138929    1.308440
     11          1           0       -0.541053    2.004537   -0.427235
     12          1           0       -1.232851    0.190238    1.922923
     13          6           0       -1.946119   -0.300933   -0.083099
     14          8           0       -1.870939   -0.200611   -1.296438
     15          1           0        0.077795   -2.186207    1.304222
     16          1           0       -2.763981   -0.873653    0.400354
 ---------------------------------------------------------------------
 Rotational constants (GHZ):           2.8054996           1.6676992           1.5088790
 Standard basis: STO-3G (5D, 7F)
 There are    48 symmetry adapted cartesian basis functions of A   symmetry.
 There are    48 symmetry adapted basis functions of A   symmetry.
    48 basis functions,   144 primitive gaussians,    48 cartesian basis functions
    30 alpha electrons       30 beta electrons
       nuclear repulsion energy       356.4839278070 Hartrees.
 NAtoms=   16 NActive=   16 NUniq=   16 SFac= 1.00D+00 NAtFMM=   60 NAOKFM=F Big=F
 Integral buffers will be    131072 words long.
 Raffenetti 1 integral format.
 Two-electron integral symmetry is turned on.
 External calculation of energy, first and second derivatives.
 Running external command "~/scripts/MiMe -H 'am1' -EF 'wb97xd def2svp' -c 12 -m 48GB R"
         input file       "/local/jobs/1176101/Gau-3202370.EIn"
         output file      "/local/jobs/1176101/Gau-3202370.EOu"
         message file     "/local/jobs/1176101/Gau-3202370.EMs"
         fchk file        "/local/jobs/1176101/Gau-3202370.EFC"
         mat. el file     "/local/jobs/1176101/Gau-3202370.EUF"
 Read checkpoint file Gau-3202370_H.chk type G16
 Write formatted file Gau-3202370_H.fchk

deriv: 2

spelevel: wb97xd def2svp
gradlevel: wb97xd def2svp
hesslevel: am1

runspe: False
runforce: True
runfreq: True

Running Gaussian ...

Parsing files ...
SPE file: Gau-3202370_F.out
FORCE file: Gau-3202370_F.out
HESS file: Gau-3202370_H.out

 ExternalExternalExternalExternalExternalExternalExternalExternalExternalExternal
 Output from external command:
 "~/scripts/MiMe -H 'am1' -EF 'wb97xd def2svp' -c 12 -m 48GB R /local/jobs/1176101/Gau-3202370.EIn /local/jobs/1176101/Gau-3202370.EOu /local/jobs/1176101/Gau-3202370.EMs /local/jobs/1176101/Gau-3202370.EFC /local/jobs/1176101/Gau-3202370.EUF"
  
 --------------------------------------------------
 Force calculation at wb97xd def2svp
 Hessian calculation at am1
 ExternalExternalExternalExternalExternalExternalExternalExternalExternalExternal

 Recovered energy= -383.361760087     dipole=      0.056900000000     -0.511200000000      2.664800000000
 Energy=    -383.361760     NIter=   0.
 Dipole moment=       0.056900      -0.511200       2.664800
 ***** Axes restored to original set *****
 -------------------------------------------------------------------
 Center     Atomic                   Forces (Hartrees/Bohr)
 Number     Number              X              Y              Z
 -------------------------------------------------------------------
      1        8          -0.003766144    0.027431781    0.007486557
      2        6          -0.011625495   -0.033727896    0.007324927
      3        6           0.023861243    0.004568076   -0.032131942
      4        6           0.010255972    0.013331772   -0.011576546
      5        6          -0.011075043   -0.057195814    0.025265502
      6        6          -0.009163261    0.034847524    0.004322611
      7        1          -0.002953117    0.005140834   -0.002596772
      8        1          -0.006542487    0.004281223   -0.000782856
      9        1          -0.002074265   -0.002486744   -0.002489841
     10        1           0.001275338   -0.000197320   -0.001350514
     11        1           0.002183826   -0.001569549   -0.001031617
     12        1           0.001332543   -0.000306989    0.002540625
     13        6           0.016535983    0.006327677   -0.017317328
     14        8          -0.000196388    0.002210405    0.019410050
     15        1          -0.004320747    0.001114646    0.001390058
     16        1          -0.003727958   -0.003769629    0.001537087
 -------------------------------------------------------------------
 Cartesian Forces:  Max     0.057195814 RMS     0.014948448

 GradGradGradGradGradGradGradGradGradGradGradGradGradGradGradGradGradGrad
 Berny optimization.
 Search for a saddle point.
 Step number   4 out of a maximum of   50
 All quantities printed in internal units (Hartrees-Bohrs-Radians)
 Swapping is turned off.
 Second derivative matrix not updated -- analytic derivatives used.
 ITU=  0  0  0  0
     Eigenvalues ---   -0.27996  -0.00569  -0.00018   0.00177   0.00523
     Eigenvalues ---    0.00776   0.01026   0.01406   0.01585   0.02073
     Eigenvalues ---    0.02577   0.03058   0.04223   0.04692   0.04805
     Eigenvalues ---    0.06049   0.06870   0.07205   0.09311   0.10200
     Eigenvalues ---    0.12711   0.13874   0.14169   0.16128   0.17965
     Eigenvalues ---    0.18321   0.25697   0.27064   0.29897   0.34823
     Eigenvalues ---    0.50628   0.51700   0.71434   0.72856   0.83308
     Eigenvalues ---    0.84582   0.91858   0.93867   1.02616   1.08804
     Eigenvalues ---    1.96050   2.29338
 Eigenvectors required to have negative eigenvalues:
                          X2        Y4        X3        X1        X4
   1                    0.50054  -0.39136  -0.33603  -0.33352   0.30782
                          Y3        Z2        Y2        X5        Z1
   1                    0.29264  -0.19528  -0.16540  -0.15409   0.13459
 RFO step:  Lambda0=5.115376799D-05 Lambda=-1.62078573D-02.
 Linear search not attempted -- option 19 set.
 Maximum step size (   0.100) exceeded in Quadratic search.
    -- Step size scaled by   0.155
 B after Tr=     0.001348    0.001166    0.002243
         Rot=    1.000000   -0.000559    0.000331    0.000457 Ang=  -0.09 deg.
 Variable       Old X    -DE/DX   Delta X   Delta X   Delta X     New X
                                 (Linear)    (Quad)   (Total)
    X1        2.85484  -0.00377   0.00000   0.01882   0.02243   2.87727
    Y1        1.94462   0.02743   0.00000  -0.00078  -0.00142   1.94320
    Z1       -0.75774   0.00749   0.00000   0.02367   0.02998  -0.72776
    X2       -0.45797  -0.01163   0.00000  -0.00218   0.00154  -0.45643
    Y2        2.97603  -0.03373   0.00000  -0.01366  -0.01264   2.96339
    Z2        0.51360   0.00732   0.00000  -0.00684  -0.00159   0.51201
    X3        1.01072   0.02386   0.00000   0.00778   0.00578   1.01650
    Y3       -2.08297   0.00457   0.00000   0.00547   0.00326  -2.07970
    Z3        2.19514  -0.03213   0.00000  -0.00571  -0.00512   2.19002
    X4       -1.82481   0.01026   0.00000   0.00148   0.00257  -1.82224
    Y4        0.84894   0.01333   0.00000   0.00172   0.00281   0.85175
    Z4        1.55703  -0.01158   0.00000  -0.00214  -0.00016   1.55687
    X5        3.19783  -0.01108   0.00000  -0.00679  -0.00464   3.19319
    Y5       -0.23119  -0.05720   0.00000  -0.00465  -0.00468  -0.23587
    Z5       -1.55016   0.02527   0.00000   0.01108   0.01517  -1.53499
    X6        2.32607  -0.00916   0.00000  -0.01311  -0.01388   2.31218
    Y6       -2.43606   0.03485   0.00000   0.00449   0.00372  -2.43233
    Z6       -0.15052   0.00432   0.00000  -0.00340  -0.00234  -0.15286
    X7        4.13079  -0.00295   0.00000  -0.02930  -0.02623   4.10456
    Y7       -0.58942   0.00514   0.00000   0.01231   0.01352  -0.57589
    Z7       -3.38758  -0.00260   0.00000  -0.00526  -0.00094  -3.38853
    X8        1.94195  -0.00654   0.00000  -0.01118  -0.01295   1.92900
    Y8       -0.85378   0.00428   0.00000   0.02410   0.01952  -0.83426
    Z8        3.57354  -0.00078   0.00000  -0.01033  -0.00774   3.56580
    X9        2.24800  -0.00207   0.00000  -0.02323  -0.02500   2.22300
    Y9       -4.23869  -0.00249   0.00000   0.00448   0.00489  -4.23380
    Z9       -1.13562  -0.00249   0.00000  -0.00768  -0.00870  -1.14432
   X10        0.33108   0.00128   0.00000  -0.00787  -0.00374   0.32734
   Y10        4.35301  -0.00020   0.00000   0.00218   0.00103   4.35404
   Z10        1.82783  -0.00135   0.00000  -0.01863  -0.01130   1.81653
   X11       -1.00612   0.00218   0.00000   0.01515   0.02073  -0.98539
   Y11        3.67114  -0.00157   0.00000  -0.02901  -0.02542   3.64572
   Z11       -1.34894  -0.00103   0.00000  -0.01830  -0.01264  -1.36158
   X12       -2.26684   0.00133   0.00000   0.00604   0.00589  -2.26095
   Y12        0.94947  -0.00031   0.00000  -0.00006  -0.00082   0.94866
   Z12        3.56948   0.00254   0.00000   0.00007   0.00188   3.57135
   X13       -3.75033   0.01654   0.00000   0.01247   0.01339  -3.73693
   Y13       -0.46882   0.00633   0.00000  -0.01007  -0.00547  -0.47430
   Z13       -0.01332  -0.01732   0.00000   0.00029  -0.00048  -0.01379
   X14       -3.67197  -0.00020   0.00000  -0.01008  -0.00774  -3.67971
   Y14       -0.61176   0.00221   0.00000   0.02027   0.02738  -0.58438
   Z14       -2.31263   0.01941   0.00000   0.00007  -0.00078  -2.31341
   X15        0.05928  -0.00432   0.00000  -0.00359  -0.00762   0.05166
   Y15       -3.73279   0.00111   0.00000   0.01635   0.01412  -3.71867
   Z15        2.99116   0.00139   0.00000   0.00631   0.00443   2.99559
   X16       -5.29486  -0.00373   0.00000   0.03013   0.02948  -5.26538
   Y16       -1.36422  -0.00377   0.00000  -0.04458  -0.03982  -1.40404
   Z16        1.08548   0.00154   0.00000   0.00315   0.00034   1.08582
         Item               Value     Threshold  Converged?
 Maximum Force            0.057196     0.000450     NO 
 RMS     Force            0.014948     0.000300     NO 
 Maximum Displacement     0.039819     0.001800     NO 
 RMS     Displacement     0.014078     0.001200     NO 
 Predicted change in Energy=-2.521393D-03
 GradGradGradGradGradGradGradGradGradGradGradGradGradGradGradGradGradGrad

                          Input orientation:                          
 ---------------------------------------------------------------------
 Center     Atomic      Atomic             Coordinates (Angstroms)
 Number     Number       Type             X           Y           Z
 ---------------------------------------------------------------------
      1          8           0        1.522585    1.028297   -0.385113
      2          6           0       -0.241534    1.568159    0.270945
      3          6           0        0.537908   -1.100532    1.158907
      4          6           0       -0.964286    0.450729    0.823860
      5          6           0        1.689761   -0.124816   -0.812283
      6          6           0        1.223554   -1.287136   -0.080890
      7          1           0        2.172038   -0.304749   -1.793131
      8          1           0        1.020782   -0.441473    1.886941
      9          1           0        1.176361   -2.240430   -0.605549
     10          1           0        0.173221    2.304058    0.961267
     11          1           0       -0.521446    1.929234   -0.720520
     12          1           0       -1.196443    0.502007    1.889879
     13          6           0       -1.977501   -0.250987   -0.007299
     14          8           0       -1.947217   -0.309240   -1.224205
     15          1           0        0.027336   -1.967834    1.585201
     16          1           0       -2.786320   -0.742986    0.574590
 ---------------------------------------------------------------------
                    Distance matrix (angstroms):
                    1          2          3          4          5
     1  O    0.000000
     2  C    1.958054   0.000000
     3  C    2.808114   2.918547   0.000000
     4  C    2.824841   1.441088   2.185235   0.000000
     5  C    1.241005   2.787373   2.482816   3.170518   0.000000
     6  C    2.354400   3.228464   1.428996   2.936902   1.450265
     7  H    2.044827   3.686939   3.466725   4.154024   1.107713
     8  H    2.752137   2.871150   1.094331   2.422119   2.798859
     9  H    3.294396   4.157405   2.195517   3.723965   2.186810
    10  H    2.293706   1.090924   3.429766   2.178906   3.368205
    11  H    2.258815   1.091663   3.719402   2.183390   3.019433
    12  H    3.584087   2.160897   2.471927   1.092210   4.003094
    13  C    3.745653   2.529880   2.899835   1.486552   3.756691
    14  O    3.812166   2.944394   3.532876   2.395470   3.664874
    15  H    3.885191   3.781905   1.092988   2.722573   3.450840
    16  H    4.756589   3.451018   3.394077   2.192464   4.726611
                    6          7          8          9         10
     6  C    0.000000
     7  H    2.190085   0.000000
     8  H    2.151423   3.858369   0.000000
     9  H    1.089157   2.479634   3.077817   0.000000
    10  H    3.884066   4.288106   3.018803   4.910557   0.000000
    11  H    3.714725   3.660058   3.846760   4.503538   1.857811
    12  H    3.597409   5.055895   2.409616   4.402081   2.446566
    13  C    3.365379   4.517826   3.551638   3.776589   3.477352
    14  O    3.509592   4.158360   4.301829   3.724106   4.012714
    15  H    2.161052   4.333442   1.846013   2.488764   4.319681
    16  H    4.099372   5.512120   4.038218   4.397488   4.265311
                   11         12         13         14         15
    11  H    0.000000
    12  H    3.050701   0.000000
    13  C    2.717010   2.185483   0.000000
    14  O    2.701350   3.304437   1.218676   0.000000
    15  H    4.561211   2.773190   3.082692   3.813470   0.000000
    16  H    3.734665   2.409918   1.111237   2.031722   3.230828
                   16
    16  H    0.000000
 Stoichiometry    C6H8O2
 Framework group  C1[X(C6H8O2)]
 Deg. of freedom    42
 Full point group                 C1      NOp   1
 Largest Abelian subgroup         C1      NOp   1
 Largest concise Abelian subgroup C1      NOp   1
                         Standard orientation:                         
 ---------------------------------------------------------------------
 Center     Atomic      Atomic             Coordinates (Angstroms)
 Number     Number       Type             X           Y           Z
 ---------------------------------------------------------------------
      1          8           0        1.529793    1.102785   -0.180550
      2          6           0       -0.262568    1.500312    0.500179
      3          6           0        0.571627   -1.247608    1.020731
      4          6           0       -0.965674    0.298169    0.870623
      5          6           0        1.738366    0.026637   -0.762356
      6          6           0        1.289017   -1.239017   -0.215112
      7          1           0        2.246695   -0.000010   -1.746185
      8          1           0        1.019956   -0.687176    1.846853
      9          1           0        1.279892   -2.108834   -0.870550
     10          1           0        0.116357    2.140470    1.298131
     11          1           0       -0.530832    1.991791   -0.436949
     12          1           0       -1.222299    0.191535    1.926888
     13          6           0       -1.940578   -0.302828   -0.077113
     14          8           0       -1.882223   -0.186587   -1.288828
     15          1           0        0.076334   -2.179016    1.306713
     16          1           0       -2.747799   -0.892330    0.408405
 ---------------------------------------------------------------------
 Rotational constants (GHZ):           2.8207722           1.6699370           1.5115281
 Standard basis: STO-3G (5D, 7F)
 There are    48 symmetry adapted cartesian basis functions of A   symmetry.
 There are    48 symmetry adapted basis functions of A   symmetry.
    48 basis functions,   144 primitive gaussians,    48 cartesian basis functions
    30 alpha electrons       30 beta electrons
       nuclear repulsion energy       356.9856663844 Hartrees.
 NAtoms=   16 NActive=   16 NUniq=   16 SFac= 1.00D+00 NAtFMM=   60 NAOKFM=F Big=F
 Integral buffers will be    131072 words long.
 Raffenetti 1 integral format.
 Two-electron integral symmetry is turned on.
 External calculation of energy, first and second derivatives.
 Running external command "~/scripts/MiMe -H 'am1' -EF 'wb97xd def2svp' -c 12 -m 48GB R"
         input file       "/local/jobs/1176101/Gau-3202370.EIn"
         output file      "/local/jobs/1176101/Gau-3202370.EOu"
         message file     "/local/jobs/1176101/Gau-3202370.EMs"
         fchk file        "/local/jobs/1176101/Gau-3202370.EFC"
         mat. el file     "/local/jobs/1176101/Gau-3202370.EUF"
 Read checkpoint file Gau-3202370_H.chk type G16
 Write formatted file Gau-3202370_H.fchk

deriv: 2

spelevel: wb97xd def2svp
gradlevel: wb97xd def2svp
hesslevel: am1

runspe: False
runforce: True
runfreq: True

Running Gaussian ...

Parsing files ...
SPE file: Gau-3202370_F.out
FORCE file: Gau-3202370_F.out
HESS file: Gau-3202370_H.out

 ExternalExternalExternalExternalExternalExternalExternalExternalExternalExternal
 Output from external command:
 "~/scripts/MiMe -H 'am1' -EF 'wb97xd def2svp' -c 12 -m 48GB R /local/jobs/1176101/Gau-3202370.EIn /local/jobs/1176101/Gau-3202370.EOu /local/jobs/1176101/Gau-3202370.EMs /local/jobs/1176101/Gau-3202370.EFC /local/jobs/1176101/Gau-3202370.EUF"
  
 --------------------------------------------------
 Force calculation at wb97xd def2svp
 Hessian calculation at am1
 ExternalExternalExternalExternalExternalExternalExternalExternalExternalExternal

 Recovered energy= -383.364270982     dipole=      0.075200000000     -0.591600000000      2.647900000000
 Energy=    -383.364271     NIter=   0.
 Dipole moment=       0.075200      -0.591600       2.647900
 ***** Axes restored to original set *****
 -------------------------------------------------------------------
 Center     Atomic                   Forces (Hartrees/Bohr)
 Number     Number              X              Y              Z
 -------------------------------------------------------------------
      1        8          -0.004139466    0.023525756    0.007125329
      2        6          -0.010056322   -0.028897505    0.006633761
      3        6           0.020991900    0.004067932   -0.028047368
      4        6           0.009159085    0.011794844   -0.010163089
      5        6          -0.009191871   -0.050453505    0.021585646
      6        6          -0.008100924    0.030601591    0.003485721
      7        1          -0.002910446    0.004357397   -0.001733416
      8        1          -0.005727163    0.003798972   -0.001132215
      9        1          -0.002047067   -0.001595348   -0.001982258
     10        1           0.000896928   -0.000532261   -0.001359728
     11        1           0.001950272   -0.001803043   -0.000711767
     12        1           0.001368804   -0.000495043    0.002054171
     13        6           0.013815034    0.006267949   -0.015610298
     14        8           0.000460945    0.001491139    0.017702886
     15        1          -0.003688347    0.001242062    0.001033846
     16        1          -0.002781363   -0.003370937    0.001118779
 -------------------------------------------------------------------
 Cartesian Forces:  Max     0.050453505 RMS     0.013081987

 GradGradGradGradGradGradGradGradGradGradGradGradGradGradGradGradGradGrad
 Berny optimization.
 Search for a saddle point.
 Step number   5 out of a maximum of   50
 All quantities printed in internal units (Hartrees-Bohrs-Radians)
 Swapping is turned off.
 Second derivative matrix not updated -- analytic derivatives used.
 ITU=  0  0  0  0  0
     Eigenvalues ---   -0.26895  -0.00605   0.00020   0.00164   0.00536
     Eigenvalues ---    0.00766   0.01024   0.01416   0.01581   0.02074
     Eigenvalues ---    0.02587   0.03099   0.04314   0.04713   0.04834
     Eigenvalues ---    0.06154   0.06920   0.07250   0.09342   0.10225
     Eigenvalues ---    0.12806   0.13936   0.14197   0.16149   0.17932
     Eigenvalues ---    0.18400   0.25705   0.27139   0.30215   0.34945
     Eigenvalues ---    0.50665   0.51710   0.71289   0.73041   0.84389
     Eigenvalues ---    0.84723   0.93443   0.93913   1.04634   1.11641
     Eigenvalues ---    1.94569   2.30473
 Eigenvectors required to have negative eigenvalues:
                          X2        Y4        X1        X3        X4
   1                    0.50213  -0.38611  -0.34555  -0.33334   0.31203
                          Y3        Z2        Y2        X5        Z1
   1                    0.29030  -0.18987  -0.16871  -0.15162   0.13273
 RFO step:  Lambda0=4.722683846D-05 Lambda=-1.29173179D-02.
 Linear search not attempted -- option 19 set.
 Maximum step size (   0.100) exceeded in Quadratic search.
    -- Step size scaled by   0.199
 B after Tr=     0.001023    0.001574    0.001805
         Rot=    1.000000   -0.000581    0.000263    0.000501 Ang=  -0.09 deg.
 Variable       Old X    -DE/DX   Delta X   Delta X   Delta X     New X
                                 (Linear)    (Quad)   (Total)
    X1        2.87727  -0.00414   0.00000   0.01194   0.01528   2.89255
    Y1        1.94320   0.02353   0.00000  -0.00121  -0.00171   1.94149
    Z1       -0.72776   0.00713   0.00000   0.01597   0.02155  -0.70621
    X2       -0.45643  -0.01006   0.00000  -0.00311   0.00060  -0.45584
    Y2        2.96339  -0.02890   0.00000  -0.01682  -0.01538   2.94801
    Z2        0.51201   0.00663   0.00000  -0.00433   0.00066   0.51267
    X3        1.01650   0.02099   0.00000   0.01098   0.00878   1.02528
    Y3       -2.07970   0.00407   0.00000   0.00693   0.00493  -2.07477
    Z3        2.19002  -0.02805   0.00000  -0.00452  -0.00458   2.18543
    X4       -1.82224   0.00916   0.00000   0.00015   0.00120  -1.82103
    Y4        0.85175   0.01179   0.00000  -0.00011   0.00149   0.85324
    Z4        1.55687  -0.01016   0.00000  -0.00041   0.00142   1.55829
    X5        3.19319  -0.00919   0.00000  -0.00590  -0.00432   3.18887
    Y5       -0.23587  -0.05045   0.00000  -0.00708  -0.00693  -0.24280
    Z5       -1.53499   0.02159   0.00000   0.01169   0.01489  -1.52010
    X6        2.31218  -0.00810   0.00000  -0.01207  -0.01340   2.29878
    Y6       -2.43233   0.03060   0.00000   0.00443   0.00388  -2.42846
    Z6       -0.15286   0.00349   0.00000  -0.00149  -0.00130  -0.15416
    X7        4.10456  -0.00291   0.00000  -0.02596  -0.02372   4.08083
    Y7       -0.57589   0.00436   0.00000   0.00874   0.01017  -0.56572
    Z7       -3.38853  -0.00173   0.00000  -0.00259   0.00070  -3.38782
    X8        1.92900  -0.00573   0.00000  -0.01241  -0.01406   1.91494
[...]
 Red. masses --      1.1716                 1.3373                 1.1510
 Frc consts  --      0.8043                 1.0623                 0.9701
 IR Inten    --      0.0000                 0.0000                 0.0000
  Atom  AN      X      Y      Z        X      Y      Z        X      Y      Z
     1   8    -0.03  -0.00  -0.00    -0.00  -0.00  -0.00     0.00   0.05  -0.00
     2   6    -0.08   0.03   0.00     0.00   0.02   0.01    -0.01   0.00   0.00
     3   6    -0.05   0.04  -0.02     0.02  -0.01   0.00    -0.02  -0.04  -0.00
     4   6     0.03  -0.00   0.00     0.04   0.01   0.12     0.00  -0.00  -0.00
     5   6    -0.02   0.01   0.03     0.00   0.00   0.00     0.04   0.03  -0.04
     6   6     0.02  -0.00   0.01    -0.00   0.00  -0.00     0.01  -0.05  -0.01
     7   1     0.01  -0.01   0.04     0.00   0.00   0.00     0.04   0.40  -0.08
     8   1     0.29  -0.22   0.06    -0.18   0.12  -0.02     0.02  -0.05  -0.03
     9   1     0.03   0.02  -0.03    -0.02   0.00  -0.00    -0.41  -0.39   0.69
    10   1     0.50  -0.25  -0.01     0.00   0.02   0.02     0.04  -0.02  -0.00
    11   1     0.58  -0.24  -0.19     0.14   0.07   0.00     0.02  -0.02  -0.01
    12   1     0.05  -0.00   0.01     0.58   0.60   0.24     0.00   0.02  -0.00
    13   6    -0.01  -0.00  -0.00    -0.07  -0.05  -0.04     0.00   0.00   0.00
    14   8    -0.00  -0.00  -0.00    -0.01  -0.02  -0.06     0.00   0.00   0.00
    15   1     0.27  -0.16   0.02    -0.09   0.04  -0.03    -0.00   0.02   0.12
    16   1    -0.00  -0.01  -0.01    -0.13  -0.17  -0.29     0.00   0.00   0.00
                     25                     26                     27
                      A                      A                      A
 Frequencies --   1268.4326              1292.3669              1367.6390
 Red. masses --      1.4691                 1.2322                 1.0925
 Frc consts  --      1.3926                 1.2125                 1.2040
 IR Inten    --      0.0000                 0.0000                 0.0000
  Atom  AN      X      Y      Z        X      Y      Z        X      Y      Z
     1   8    -0.01  -0.01   0.01     0.01  -0.00  -0.03     0.00  -0.00  -0.01
     2   6    -0.03  -0.07   0.10    -0.01  -0.01   0.02    -0.02  -0.05   0.02
     3   6    -0.01   0.01  -0.03    -0.01   0.05   0.07    -0.00  -0.00   0.01
     4   6    -0.03  -0.01  -0.15    -0.02  -0.00  -0.03    -0.03  -0.04   0.01
     5   6    -0.01   0.02   0.01     0.01  -0.02  -0.01    -0.00  -0.00   0.01
     6   6     0.00   0.02   0.02    -0.02  -0.09  -0.02    -0.00   0.01   0.01
     7   1    -0.03  -0.17   0.02     0.11   0.76  -0.08     0.01   0.09   0.00
     8   1     0.14  -0.07  -0.04    -0.15  -0.09   0.33     0.06   0.06  -0.12
     9   1    -0.02  -0.02   0.09     0.19   0.08  -0.38     0.00   0.01   0.01
    10   1    -0.03  -0.03   0.03    -0.00  -0.01   0.01     0.10   0.34  -0.49
    11   1    -0.28  -0.34   0.06    -0.04  -0.07   0.01     0.31   0.53   0.10
    12   1     0.39   0.55  -0.04     0.11   0.07   0.00     0.03   0.04   0.03
    13   6     0.03   0.02   0.00     0.01   0.00  -0.00    -0.01  -0.01  -0.02
    14   8     0.01   0.01   0.00     0.00   0.00  -0.00     0.01   0.01  -0.01
    15   1     0.07  -0.05  -0.04     0.03   0.04   0.14    -0.02  -0.07  -0.11
    16   1     0.17   0.19   0.40     0.03   0.05   0.09     0.13   0.14   0.38
                     28                     29                     30
                      A                      A                      A
 Frequencies --   1371.4455              1402.0953              1496.5444
 Red. masses --      1.1009                 1.6071                 3.3292
 Frc consts  --      1.2200                 1.8615                 4.3931
 IR Inten    --      0.0000                 0.0000                 0.0000
  Atom  AN      X      Y      Z        X      Y      Z        X      Y      Z
     1   8    -0.01   0.02   0.02     0.00   0.00   0.00     0.01  -0.12  -0.07
     2   6    -0.00  -0.01   0.00     0.02   0.05  -0.05    -0.00  -0.02   0.00
     3   6     0.01   0.00  -0.03     0.00  -0.01   0.01     0.06  -0.06  -0.22
     4   6    -0.01  -0.01   0.01     0.04   0.05   0.11     0.03   0.02   0.00
     5   6     0.02   0.03  -0.02     0.00  -0.01  -0.00    -0.11  -0.11   0.20
     6   6     0.01  -0.02  -0.06     0.00   0.00  -0.01     0.04   0.25   0.04
     7   1    -0.06  -0.39   0.01     0.00  -0.01   0.00     0.04   0.62   0.14
     8   1    -0.29  -0.26   0.51    -0.03   0.05  -0.04    -0.10  -0.20   0.11
     9   1    -0.02  -0.06   0.01    -0.02   0.00   0.00    -0.06   0.13   0.27
    10   1     0.03   0.07  -0.10    -0.06  -0.20   0.31    -0.05  -0.00   0.01
    11   1     0.08   0.11   0.02    -0.09  -0.18  -0.07    -0.04   0.02   0.02
    12   1     0.02  -0.00   0.01    -0.08  -0.13   0.07    -0.05   0.00  -0.01
    13   6    -0.00  -0.01  -0.01    -0.11  -0.10  -0.06    -0.01  -0.01  -0.00
    14   8     0.00   0.00  -0.00     0.03   0.02  -0.06     0.00  -0.00  -0.00
    15   1     0.06   0.31   0.51    -0.03  -0.01  -0.02     0.07   0.33   0.34
    16   1     0.04   0.04   0.11     0.21   0.26   0.78    -0.01  -0.01  -0.01
                     31                     32                     33
                      A                      A                      A
 Frequencies --   1535.3905              1669.7198              1891.4987
 Red. masses --      6.3414                 8.5908                11.1413
 Frc consts  --      8.8080                14.1113                23.4853
 IR Inten    --      0.0000                 0.0000                 0.0000
  Atom  AN      X      Y      Z        X      Y      Z        X      Y      Z
     1   8    -0.04  -0.03   0.00    -0.01   0.04   0.03    -0.01  -0.45  -0.19
     2   6    -0.10  -0.32   0.08     0.13   0.18  -0.09     0.12   0.07  -0.07
     3   6    -0.00   0.05  -0.13     0.13  -0.01  -0.38    -0.06   0.05   0.10
     4   6     0.35   0.34  -0.02    -0.14  -0.24   0.07    -0.06  -0.13   0.04
     5   6     0.03   0.17  -0.05     0.08   0.11  -0.16     0.00   0.68   0.23
     6   6    -0.10  -0.12   0.20    -0.24  -0.15   0.51     0.02  -0.09  -0.09
     7   1     0.04   0.04  -0.02     0.06   0.10  -0.13    -0.10   0.02   0.21
     8   1     0.10  -0.17   0.06     0.01  -0.30   0.07     0.09   0.01   0.02
     9   1     0.11  -0.00  -0.06     0.17   0.14  -0.12    -0.06  -0.16   0.16
    10   1    -0.22  -0.04  -0.14     0.05   0.06   0.10    -0.09   0.06   0.06
    11   1    -0.09   0.26   0.24    -0.04  -0.04  -0.11    -0.13   0.04  -0.03
    12   1    -0.35  -0.05  -0.18    -0.01   0.09   0.09    -0.04   0.05   0.05
    13   6    -0.10  -0.07  -0.03     0.02   0.03   0.02     0.01   0.01  -0.00
    14   8     0.00   0.00  -0.02     0.00  -0.00  -0.01    -0.00  -0.00   0.01
    15   1     0.14  -0.04  -0.08     0.15   0.15  -0.09    -0.03  -0.08  -0.04
    16   1    -0.10  -0.15  -0.19     0.06   0.04   0.12     0.03   0.00   0.03
                     34                     35                     36
                      A                      A                      A
 Frequencies --   2134.9797              3059.5050              3157.4921
 Red. masses --     11.6101                 1.0721                 1.0732
 Frc consts  --     31.1799                 5.9127                 6.3041
 IR Inten    --      0.0000                 0.0000                 0.0000
  Atom  AN      X      Y      Z        X      Y      Z        X      Y      Z
     1   8     0.00  -0.01  -0.00     0.00  -0.00  -0.00     0.00  -0.00  -0.00
     2   6    -0.01  -0.01   0.01     0.00   0.00  -0.00    -0.00   0.00   0.00
     3   6    -0.01   0.01   0.01     0.00  -0.00   0.00     0.00   0.00   0.00
     4   6    -0.00  -0.01  -0.05    -0.00  -0.00  -0.00    -0.00   0.00  -0.00
     5   6    -0.00   0.00   0.01     0.00   0.00  -0.00     0.03  -0.01  -0.07
     6   6     0.00   0.00  -0.01    -0.00  -0.00  -0.00     0.00   0.00  -0.00
     7   1    -0.01  -0.00   0.00    -0.00   0.00   0.00    -0.31   0.12   0.94
     8   1     0.02  -0.00   0.01    -0.00  -0.00  -0.00    -0.00  -0.00  -0.00
     9   1     0.01  -0.01   0.01     0.00   0.00   0.00    -0.01  -0.04  -0.03
    10   1     0.01   0.02  -0.03     0.00   0.00   0.00    -0.00  -0.00  -0.00
    11   1     0.02   0.02   0.00     0.00   0.00  -0.00     0.00  -0.00   0.00
    12   1    -0.11  -0.09  -0.02    -0.01  -0.00   0.02    -0.00  -0.00   0.00
    13   6    -0.05   0.04   0.74    -0.05  -0.04   0.04     0.00   0.00   0.00
    14   8     0.06  -0.00  -0.54    -0.00  -0.00   0.00    -0.00  -0.00  -0.00
    15   1    -0.00  -0.00   0.00     0.00   0.00  -0.00    -0.01  -0.01   0.01
    16   1    -0.23  -0.17   0.20     0.68   0.56  -0.47    -0.00  -0.00   0.00
                     37                     38                     39
                      A                      A                      A
 Frequencies --   3211.6411              3223.0072              3241.6364
 Red. masses --      1.1007                 1.0835                 1.0638
 Frc consts  --      6.6890                 6.6310                 6.5861
 IR Inten    --      0.0000                 0.0000                 0.0000
  Atom  AN      X      Y      Z        X      Y      Z        X      Y      Z
     1   8     0.00  -0.00  -0.00     0.00   0.00   0.00    -0.00  -0.00   0.00
     2   6    -0.00   0.00  -0.00     0.02   0.01   0.05     0.01   0.01   0.03
     3   6    -0.05  -0.07   0.01    -0.00  -0.00   0.00     0.00  -0.01  -0.05
     4   6    -0.00  -0.00   0.00     0.01   0.00  -0.06    -0.00  -0.00   0.01
     5   6     0.00   0.00  -0.00     0.00  -0.00  -0.00    -0.00   0.00   0.00
     6   6     0.00   0.01   0.01    -0.00  -0.00  -0.00     0.01   0.03   0.02
     7   1    -0.00   0.00   0.00     0.00   0.00   0.00     0.01  -0.00  -0.03
     8   1     0.18   0.32   0.30    -0.02  -0.04  -0.03     0.26   0.45   0.35
     9   1    -0.03  -0.20  -0.11     0.00   0.02   0.01    -0.07  -0.43  -0.24
    10   1     0.00   0.00   0.00    -0.11  -0.22  -0.17    -0.08  -0.15  -0.12
    11   1     0.00  -0.00   0.01    -0.09   0.14  -0.46    -0.04   0.07  -0.22
    12   1     0.01   0.00  -0.03    -0.18  -0.01   0.79     0.03   0.00  -0.13
    13   6    -0.00   0.00   0.00     0.00  -0.00  -0.00    -0.00  -0.00   0.00
    14   8    -0.00   0.00   0.00     0.00   0.00   0.00    -0.00  -0.00  -0.00
    15   1     0.42   0.60  -0.42     0.04   0.05  -0.03    -0.25  -0.36   0.23
    16   1     0.00   0.00  -0.00    -0.01  -0.01   0.01     0.00   0.00  -0.00
                     40                     41                     42
                      A                      A                      A
 Frequencies --   3244.0722              3255.0333              3260.0053
 Red. masses --      1.0956                 1.0771                 1.0491
 Frc consts  --      6.7936                 6.7237                 6.5689
 IR Inten    --      0.0000                 0.0000                 0.0000
  Atom  AN      X      Y      Z        X      Y      Z        X      Y      Z
     1   8    -0.00  -0.00  -0.00     0.00   0.00   0.00     0.00  -0.00  -0.00
     2   6    -0.02  -0.01  -0.07    -0.00  -0.01  -0.00    -0.02  -0.06   0.01
     3   6     0.00  -0.00  -0.02    -0.01  -0.03  -0.03     0.00   0.00   0.00
     4   6     0.01   0.00  -0.05    -0.00   0.00  -0.00    -0.00  -0.00   0.00
     5   6    -0.00   0.00   0.00     0.00  -0.00  -0.00    -0.00   0.00   0.00
     6   6     0.00   0.02   0.01    -0.01  -0.06  -0.03     0.00   0.01   0.00
     7   1     0.01  -0.00  -0.01    -0.01   0.00   0.03     0.00   0.00  -0.00
     8   1     0.08   0.14   0.11     0.24   0.41   0.34    -0.01  -0.02  -0.02
     9   1    -0.03  -0.19  -0.11     0.11   0.68   0.39    -0.01  -0.07  -0.04
    10   1     0.17   0.33   0.25     0.03   0.06   0.05     0.29   0.56   0.49
    11   1     0.10  -0.17   0.56    -0.01   0.01  -0.03    -0.11   0.14  -0.56
    12   1    -0.13  -0.01   0.56    -0.01   0.00   0.04     0.01   0.00  -0.05
    13   6     0.00   0.00  -0.00     0.00   0.00  -0.00     0.00   0.00  -0.00
    14   8     0.00   0.00   0.00     0.00   0.00   0.00    -0.00  -0.00   0.00
    15   1    -0.08  -0.12   0.08    -0.06  -0.10   0.05    -0.00  -0.00   0.00
    16   1    -0.01  -0.01   0.00    -0.00  -0.00   0.00    -0.00  -0.00   0.00

 -------------------
 - Thermochemistry -
 -------------------
 Temperature   298.150 Kelvin.  Pressure   1.00000 Atm.
 Atom     1 has atomic number  8 and mass  15.99491
 Atom     2 has atomic number  6 and mass  12.00000
 Atom     3 has atomic number  6 and mass  12.00000
 Atom     4 has atomic number  6 and mass  12.00000
 Atom     5 has atomic number  6 and mass  12.00000
 Atom     6 has atomic number  6 and mass  12.00000
 Atom     7 has atomic number  1 and mass   1.00783
 Atom     8 has atomic number  1 and mass   1.00783
 Atom     9 has atomic number  1 and mass   1.00783
 Atom    10 has atomic number  1 and mass   1.00783
 Atom    11 has atomic number  1 and mass   1.00783
 Atom    12 has atomic number  1 and mass   1.00783
 Atom    13 has atomic number  6 and mass  12.00000
 Atom    14 has atomic number  8 and mass  15.99491
 Atom    15 has atomic number  1 and mass   1.00783
 Atom    16 has atomic number  1 and mass   1.00783
 Molecular mass:   112.05243 amu.
 Principal axes and moments of inertia in atomic units:
                           1         2         3
     Eigenvalues --   630.44608 974.314521068.04833
           X            0.99901  -0.01673  -0.04134
           Y            0.01611   0.99975  -0.01522
           Z            0.04158   0.01454   0.99903
 This molecule is an asymmetric top.
 Rotational symmetry number  1.
 Warning -- assumption of classical behavior for rotation
           may cause significant error
 Rotational temperatures (Kelvin)      0.13739     0.08890     0.08110
 Rotational constants (GHZ):           2.86264     1.85232     1.68976
    3 imaginary frequencies ignored.
 Zero-point vibrational energy     336269.6 (Joules/Mol)
                                   80.37037 (Kcal/Mol)
 Warning -- explicit consideration of   7 degrees of freedom as
           vibrations may cause significant error
 Vibrational temperatures:    178.09   287.95   297.24   406.26   517.03
          (Kelvin)            530.49   703.65   945.79   978.35  1043.96
                             1099.84  1297.35  1308.12  1388.89  1413.30
                             1437.21  1479.05  1522.24  1553.08  1670.57
                             1720.88  1824.99  1859.43  1967.73  1973.20
                             2017.30  2153.19  2209.08  2402.35  2721.44
                             3071.76  4401.95  4542.93  4620.84  4637.19
                             4663.99  4667.50  4683.27  4690.42
 
 Zero-point correction=                           0.128078 (Hartree/Particle)
 Thermal correction to Energy=                    0.134935
 Thermal correction to Enthalpy=                  0.135879
 Thermal correction to Gibbs Free Energy=         0.096947
 Sum of electronic and zero-point Energies=           -383.246783
 Sum of electronic and thermal Energies=              -383.239927
 Sum of electronic and thermal Enthalpies=            -383.238983
 Sum of electronic and thermal Free Energies=         -383.277915
 
                     E (Thermal)             CV                S
                      KCal/Mol        Cal/Mol-Kelvin    Cal/Mol-Kelvin
 Total                   84.673             25.352             81.940
 Electronic               0.000              0.000              0.000
 Translational            0.889              2.981             40.057
 Rotational               0.889              2.981             27.975
 Vibrational             82.896             19.390             13.908
 Vibration     1          0.610              1.929              3.041
 Vibration     2          0.638              1.840              2.132
 Vibration     3          0.641              1.830              2.074
 Vibration     4          0.681              1.706              1.519
 Vibration     5          0.734              1.556              1.125
 Vibration     6          0.741              1.537              1.085
 Vibration     7          0.845              1.274              0.686
                       Q            Log10(Q)             Ln(Q)
 Total Bot       0.255627D-44        -44.592394       -102.677782
 Total V=0       0.208690D+15         14.319501         32.971870
 Vib (Bot)       0.189106D-57        -57.723294       -132.912797
 Vib (Bot)    1  0.164952D+01          0.217357          0.500482
 Vib (Bot)    2  0.996252D+00         -0.001631         -0.003755
 Vib (Bot)    3  0.962683D+00         -0.016517         -0.038031
 Vib (Bot)    4  0.680045D+00         -0.167462         -0.385596
 Vib (Bot)    5  0.510279D+00         -0.292192         -0.672798
 Vib (Bot)    6  0.494209D+00         -0.306089         -0.704796
 Vib (Bot)    7  0.339308D+00         -0.469406         -1.080848
 Vib (V=0)       0.154383D+02          1.188601          2.736854
 Vib (V=0)    1  0.222363D+01          0.347063          0.799142
 Vib (V=0)    2  0.161468D+01          0.208087          0.479139
 Vib (V=0)    3  0.158479D+01          0.199970          0.460449
 Vib (V=0)    4  0.134407D+01          0.128423          0.295706
 Vib (V=0)    5  0.121441D+01          0.084366          0.194260
 Vib (V=0)    6  0.120302D+01          0.080274          0.184838
 Vib (V=0)    7  0.110426D+01          0.043071          0.099175
 Electronic      0.100000D+01          0.000000          0.000000
 Translational   0.466215D+08          7.668586         17.657571
 Rotational      0.289944D+06          5.462315         12.577444
 ***** Axes restored to original set *****
 -------------------------------------------------------------------
 Center     Atomic                   Forces (Hartrees/Bohr)
 Number     Number              X              Y              Z
 -------------------------------------------------------------------
      1        8          -0.000020601   -0.000313154   -0.000322721
      2        6           0.000041911   -0.000059925    0.000122071
      3        6           0.000327362   -0.000039755    0.000012329
      4        6          -0.000260104   -0.000023146   -0.000279957
      5        6          -0.000065622    0.000052228    0.000227727
      6        6          -0.000075659    0.000203059    0.000190001
      7        1          -0.000088856    0.000027968    0.000033839
      8        1          -0.000069542   -0.000024198   -0.000124190
      9        1          -0.000020473    0.000097706    0.000008855
     10        1          -0.000018613   -0.000019384   -0.000052706
     11        1           0.000038532    0.000071435    0.000023027
     12        1          -0.000073158    0.000072887   -0.000028999
     13        6           0.000532715   -0.000971494   -0.002686744
     14        8          -0.000404153    0.000418670    0.003325899
     15        1          -0.000015686    0.000005079   -0.000042178
     16        1           0.000171949    0.000502026   -0.000406251
 -------------------------------------------------------------------
 Cartesian Forces:  Max     0.003325899 RMS     0.000661095


 "WOULD YOU TELL ME PLEASE, WHICH WAY I OUGHT TO WALK FROM HERE?"
 "THAT DEPENDS A GREAT DEAL ON WHERE YOU WANT TO GO," SAID THE CAT.
 "I DON'T MUCH CARE WHERE -- ", SAID ALICE.
 "THEN IT DOESN'T MATTER WHICH WAY YOU WALK," SAID THE CAT.

                                      -- LEWIS CARROLL
 Error termination request processed by link 9999.
 Error termination via Lnk1e in /apps/gaussian/g16/C.01/g16/l9999.exe at Mon May 20 13:20:33 2024.
 Job cpu time:       0 days  3 hours 53 minutes 22.9 seconds.
 Elapsed time:       0 days  0 hours 35 minutes 52.2 seconds.
 File lengths (MBytes):  RWF=      6 Int=      0 D2E=      0 Chk=      1 Scr=      1
