Unloading slurm/anatra/current
  ERROR: No such file or directory on
    '/cm/local/modulefiles/slurm/anatra/current'
environment: line 0: unalias: gv: not found
environment: line 0: unalias: sl: not found
 Entering Gaussian System, Link 0=g16
 Initial command:
 /apps/gaussian/g16/C.01/g16/l1.exe "/local/jobs/1176102/Gau-3202306.inp" -scrdir="/local/jobs/1176102/"
 Entering Link 1 = /apps/gaussian/g16/C.01/g16/l1.exe PID=   3202308.
  
 Copyright (c) 1988-2019, Gaussian, Inc.  All Rights Reserved.
  
 This is part of the Gaussian(R) 16 program.  It is based on
 the Gaussian(R) 09 system (copyright 2009, Gaussian, Inc.),
 the Gaussian(R) 03 system (copyright 2003, Gaussian, Inc.),
 the Gaussian(R) 98 system (copyright 1998, Gaussian, Inc.),
 the Gaussian(R) 94 system (copyright 1995, Gaussian, Inc.),
 the Gaussian 92(TM) system (copyright 1992, Gaussian, Inc.),
 the Gaussian 90(TM) system (copyright 1990, Gaussian, Inc.),
 the Gaussian 88(TM) system (copyright 1988, Gaussian, Inc.),
 the Gaussian 86(TM) system (copyright 1986, Carnegie Mellon
 University), and the Gaussian 82(TM) system (copyright 1983,
 Carnegie Mellon University). Gaussian is a federally registered
 trademark of Gaussian, Inc.
  
 This software contains proprietary and confidential information,
 including trade secrets, belonging to Gaussian, Inc.
  
 This software is provided under written license and may be
 used, copied, transmitted, or stored only in accord with that
 written license.
  
 The following legend is applicable only to US Government
 contracts under FAR:
  
                    RESTRICTED RIGHTS LEGEND
  
 Use, reproduction and disclosure by the US Government is
 subject to restrictions as set forth in subparagraphs (a)
 and (c) of the Commercial Computer Software - Restricted
 Rights clause in FAR 52.227-19.
  
 Gaussian, Inc.
 340 Quinnipiac St., Bldg. 40, Wallingford CT 06492
  
  
 ---------------------------------------------------------------
 Warning -- This program may not be used in any manner that
 competes with the business of Gaussian, Inc. or will provide
 assistance to any competitor of Gaussian, Inc.  The licensee
 of this program is prohibited from giving any competitor of
 Gaussian, Inc. access to this program.  By using this program,
 the user acknowledges that Gaussian, Inc. is engaged in the
 business of creating and licensing software in the field of
 computational chemistry and represents and warrants to the
 licensee that it is not a competitor of Gaussian, Inc. and that
 it will not use this program in any manner prohibited above.
 ---------------------------------------------------------------
  

 Cite this work as:
 Gaussian 16, Revision C.01,
 M. J. Frisch, G. W. Trucks, H. B. Schlegel, G. E. Scuseria, 
 M. A. Robb, J. R. Cheeseman, G. Scalmani, V. Barone, 
 G. A. Petersson, H. Nakatsuji, X. Li, M. Caricato, A. V. Marenich, 
 J. Bloino, B. G. Janesko, R. Gomperts, B. Mennucci, H. P. Hratchian, 
 J. V. Ortiz, A. F. Izmaylov, J. L. Sonnenberg, D. Williams-Young, 
 F. Ding, F. Lipparini, F. Egidi, J. Goings, B. Peng, A. Petrone, 
 T. Henderson, D. Ranasinghe, V. G. Zakrzewski, J. Gao, N. Rega, 
 G. Zheng, W. Liang, M. Hada, M. Ehara, K. Toyota, R. Fukuda, 
 J. Hasegawa, M. Ishida, T. Nakajima, Y. Honda, O. Kitao, H. Nakai, 
 T. Vreven, K. Throssell, J. A. Montgomery, Jr., J. E. Peralta, 
 F. Ogliaro, M. J. Bearpark, J. J. Heyd, E. N. Brothers, K. N. Kudin, 
 V. N. Staroverov, T. A. Keith, R. Kobayashi, J. Normand, 
 K. Raghavachari, A. P. Rendell, J. C. Burant, S. S. Iyengar, 
 J. Tomasi, M. Cossi, J. M. Millam, M. Klene, C. Adamo, R. Cammi, 
 J. W. Ochterski, R. L. Martin, K. Morokuma, O. Farkas, 
 J. B. Foresman, and D. J. Fox, Gaussian, Inc., Wallingford CT, 2019.
 
 ******************************************
 Gaussian 16:  ES64L-G16RevC.01  3-Jul-2019
                20-May-2024 
 ******************************************
 %nprocshared=12
 Will use up to   12 processors via shared memory.
 %mem=48GB
 ----------------------------------------------------------------------
 # external="~/scripts/MiMe -H 'am1' -EF 'wb97xd def2svp' -c 12 -m 48GB
 " opt=(calcall,ts,noeigen,maxcycles=50,maxstep=10,nomicro,cartesian)
 ----------------------------------------------------------------------
 1/5=1,6=50,8=10,10=4,11=1,18=10,26=1,38=1/1,3;
 2/12=2,17=6,18=5,29=2,40=1/2;
 3/11=9,25=1,30=1,41=9900000,43=2,71=2,140=1/1;
 4/20=17,22=2,24=3,113=1,114=1/2;
 6/7=2,8=2,9=2,10=2,18=1/1;
 7/7=1,25=1,44=-1/16;
 1/5=1,6=50,8=10,10=4,11=1,18=10,26=1/3(3);
 2/29=1/2;
 7/7=1,8=1,9=1,25=1,44=-1/16;
 99/12=1/99;
 2/29=1/2;
 3/11=9,25=1,30=1,41=9900000,43=2,71=2,140=1/1;
 4/16=2,20=17,22=2,24=3,113=1,114=1/2;
 7/7=1,25=1,44=-1/16;
 1/5=1,6=50,8=10,10=4,11=1,18=10,26=1/3(-4);
 2/29=1/2;
 6/7=2,8=2,9=2,10=2,18=1/1;
 7/7=1,8=1,9=1,25=1,44=-1/16;
 99/12=1/99;
 -----
 *****
 -----
 Symbolic Z-matrix:
 Charge =  0 Multiplicity = 1
 C                    -1.7636    0.7699    0.2683 
 C                    -0.1675   -0.738     1.1357 
 C                     0.7533    2.4397    0.2956 
 C                     1.1138   -0.1249    1.2214 
 C                    -1.0805    1.2934   -0.9068 
 C                     0.0402    2.0307   -0.887 
 H                     1.791     2.7443    0.2033 
 H                     0.2454    2.5838    1.2414 
 H                     0.5118    2.2904   -1.8343 
 H                    -1.4816    0.9954   -1.8757 
 H                    -1.6872    1.3437    1.1913 
 H                    -0.8179   -0.9253    1.9752 
 H                     1.5485    0.3896    2.0581 
 O                     1.1261   -1.5056   -0.5878 
 C                    -0.0814   -1.6867    0.0162 
 C                     1.8935   -0.602     0.0816 
 O                    -0.9323   -2.5015   -0.2865 
 O                     3.0294   -0.2639   -0.1903 
 C                    -3.0576    0.0356    0.0627 
 H                    -3.2259   -0.6598    0.891 
 H                    -3.8936    0.741     0.0377 
 H                    -3.0574   -0.5413   -0.8673 
 

 GradGradGradGradGradGradGradGradGradGradGradGradGradGradGradGradGradGrad
 Berny optimization.
 Initialization pass.
 No Z-matrix variables, so optimization will use Cartesian coordinates.
 Trust Radius=1.00D-01 FncErr=1.00D-07 GrdErr=1.00D-07 EigMax=2.50D+02 EigMin=1.00D-04
 Number of steps in this run=     50 maximum allowed number of steps=    132.
 Search for a saddle point of order  1.
 GradGradGradGradGradGradGradGradGradGradGradGradGradGradGradGradGradGrad

 ---------------------------------------------------------------------------------------------------
                            Z-MATRIX (ANGSTROMS AND DEGREES)
   CD    Cent   Atom    N1       Length/X        N2       Alpha/Y        N3        Beta/Z          J
 ---------------------------------------------------------------------------------------------------
      1      1  C        0  -1.763600          0.769900          0.268300
      2      2  C        0  -0.167500         -0.738000          1.135700
      3      3  C        0   0.753300          2.439700          0.295600
      4      4  C        0   1.113800         -0.124900          1.221400
      5      5  C        0  -1.080500          1.293400         -0.906800
      6      6  C        0   0.040200          2.030700         -0.887000
      7      7  H        0   1.791000          2.744300          0.203300
      8      8  H        0   0.245400          2.583800          1.241400
      9      9  H        0   0.511800          2.290400         -1.834300
     10     10  H        0  -1.481600          0.995400         -1.875700
     11     11  H        0  -1.687200          1.343700          1.191300
     12     12  H        0  -0.817900         -0.925300          1.975200
     13     13  H        0   1.548500          0.389600          2.058100
     14     14  O        0   1.126100         -1.505600         -0.587800
     15     15  C        0  -0.081400         -1.686700          0.016200
     16     16  C        0   1.893500         -0.602000          0.081600
     17     17  O        0  -0.932300         -2.501500         -0.286500
     18     18  O        0   3.029400         -0.263900         -0.190300
     19     19  C        0  -3.057600          0.035600          0.062700
     20     20  H        0  -3.225900         -0.659800          0.891000
     21     21  H        0  -3.893600          0.741000          0.037700
     22     22  H        0  -3.057400         -0.541300         -0.867300
 ---------------------------------------------------------------------------------------------------
                         Z-Matrix orientation:                         
 ---------------------------------------------------------------------
 Center     Atomic      Atomic             Coordinates (Angstroms)
 Number     Number       Type             X           Y           Z
 ---------------------------------------------------------------------
      1          6           0       -1.763600    0.769900    0.268300
      2          6           0       -0.167500   -0.738000    1.135700
      3          6           0        0.753300    2.439700    0.295600
      4          6           0        1.113800   -0.124900    1.221400
      5          6           0       -1.080500    1.293400   -0.906800
      6          6           0        0.040200    2.030700   -0.887000
      7          1           0        1.791000    2.744300    0.203300
      8          1           0        0.245400    2.583800    1.241400
      9          1           0        0.511800    2.290400   -1.834300
     10          1           0       -1.481600    0.995400   -1.875700
     11          1           0       -1.687200    1.343700    1.191300
     12          1           0       -0.817900   -0.925300    1.975200
     13          1           0        1.548500    0.389600    2.058100
     14          8           0        1.126100   -1.505600   -0.587800
     15          6           0       -0.081400   -1.686700    0.016200
     16          6           0        1.893500   -0.602000    0.081600
     17          8           0       -0.932300   -2.501500   -0.286500
     18          8           0        3.029400   -0.263900   -0.190300
     19          6           0       -3.057600    0.035600    0.062700
     20          1           0       -3.225900   -0.659800    0.891000
     21          1           0       -3.893600    0.741000    0.037700
     22          1           0       -3.057400   -0.541300   -0.867300
 ---------------------------------------------------------------------
                    Distance matrix (angstroms):
                    1          2          3          4          5
     1  C    0.000000
     2  C    2.360864   0.000000
     3  C    3.020557   3.413417   0.000000
     4  C    3.160458   1.423013   2.750316   0.000000
     5  C    1.456550   3.021914   2.474387   3.369831   0.000000
     6  C    2.485564   3.435135   1.440255   3.200715   1.341630
     7  H    4.066652   4.102622   1.085413   3.118884   3.403373
     8  H    2.876324   3.349032   1.083174   2.844569   2.835120
     9  H    3.451129   4.295760   2.148741   3.941241   2.095157
    10  H    2.174192   3.714844   3.434432   4.193233   1.090162
    11  H    1.089501   2.577994   2.821265   3.162798   2.184637
    12  H    2.584871   1.078361   4.075899   2.222683   3.646575
    13  H    3.783916   2.250991   2.818095   1.074123   4.064373
    14  O    3.776397   2.287589   4.060144   2.275893   3.578442
    15  C    2.988015   1.469941   4.219238   2.306562   3.275840
    16  C    3.910415   2.318910   3.255425   1.461061   3.662534
    17  O    3.420661   2.391130   5.253146   3.479729   3.848117
    18  O    4.924622   3.493310   3.567378   2.383640   4.453070
    19  C    1.501967   3.178437   4.511862   4.332312   2.535925
    20  H    2.137784   3.069170   5.078921   4.385006   3.413183
    21  H    2.142641   4.156545   4.954369   5.217757   3.018403
    22  H    2.163967   3.521679   4.975955   4.683478   2.697372
                    6          7          8          9         10
     6  C    0.000000
     7  H    2.182494   0.000000
     8  H    2.208645   1.868767   0.000000
     9  H    1.089600   2.448304   3.101126   0.000000
    10  H    2.089318   4.253328   3.901520   2.377474   0.000000
    11  H    2.788406   3.877589   2.296802   3.858251   3.093553
    12  H    4.203149   4.838590   3.739365   5.159566   4.354195
    13  H    3.693480   3.007275   2.679474   4.454050   5.002328
    14  O    3.711350   4.373738   4.565610   4.042368   3.835855
    15  C    3.827482   4.814006   4.454782   4.426461   3.568404
    16  C    3.362145   3.350081   3.769707   3.734400   4.215923
    17  O    4.674098   5.930825   5.438909   5.238646   3.880154
    18  O    3.832218   3.276862   4.231999   3.945313   4.977502
    19  C    3.805091   5.555695   4.335028   4.628536   2.676264
    20  H    4.589933   6.101648   4.763785   5.486469   3.665638
    21  H    4.241837   6.029537   4.687870   5.031160   3.089266
    22  H    4.026251   5.953850   5.012121   4.657553   2.421046
                   11         12         13         14         15
    11  H    0.000000
    12  H    2.553144   0.000000
    13  H    3.483016   2.708447   0.000000
    14  O    4.381594   3.268769   3.281919   0.000000
    15  C    3.625297   2.227071   3.337207   1.362230   0.000000
    16  C    4.223576   3.322941   2.238046   1.361430   2.254125
    17  O    4.187998   2.759127   4.473251   2.306428   1.216370
    18  O    5.171026   4.464141   2.770457   2.307028   3.426963
    19  C    2.205189   3.097941   5.032206   4.505751   3.438931
    20  H    2.543971   2.654137   5.025759   4.673557   3.421649
    21  H    2.561687   3.998799   5.815664   5.534966   4.519630
    22  H    3.109422   3.639041   5.535238   4.302286   3.308941
                   16         17         18         19         20
    16  C    0.000000
    17  O    3.424725   0.000000
    18  O    1.215940   4.550953   0.000000
    19  C    4.992022   3.328020   6.099613   0.000000
    20  H    5.183312   3.168433   6.360403   1.094526   0.000000
    21  H    5.941052   4.403204   6.999267   1.094125   1.770928
    22  H    5.041379   2.948858   6.130613   1.094401   1.770326
                   21         22
    21  H    0.000000
    22  H    1.778356   0.000000
 Stoichiometry    C9H10O3
 Framework group  C1[X(C9H10O3)]
 Deg. of freedom    60
 Full point group                 C1      NOp   1
 Largest Abelian subgroup         C1      NOp   1
 Largest concise Abelian subgroup C1      NOp   1
                         Standard orientation:                         
 ---------------------------------------------------------------------
 Center     Atomic      Atomic             Coordinates (Angstroms)
 Number     Number       Type             X           Y           Z
 ---------------------------------------------------------------------
      1          6           0       -1.863769    0.578273    0.323083
      2          6           0       -0.066985   -0.753794    1.078623
      3          6           0        0.423099    2.550827    0.378113
      4          6           0        1.129016    0.012251    1.166500
      5          6           0       -1.285318    1.238571   -0.839216
      6          6           0       -0.266047    2.110378   -0.807390
      7          1           0        1.411272    2.988616    0.278232
      8          1           0       -0.071980    2.584946    1.340920
      9          1           0        0.142248    2.471813   -1.750729
     10          1           0       -1.672979    0.937702   -1.812689
     11          1           0       -1.834058    1.113353    1.271671
     12          1           0       -0.664732   -1.061144    1.921889
     13          1           0        1.519059    0.538074    2.018039
     14          8           0        1.263650   -1.269638   -0.709219
     15          6           0        0.106016   -1.630526   -0.088483
     16          6           0        1.930002   -0.308253   -0.012652
     17          8           0       -0.643948   -2.531663   -0.412618
     18          8           0        3.006277    0.183584   -0.292361
     19          6           0       -3.060518   -0.303866    0.109713
     20          1           0       -3.116646   -1.052952    0.905771
     21          1           0       -3.978906    0.290144    0.138447
     22          1           0       -3.014076   -0.831971   -0.847712
 ---------------------------------------------------------------------
 Rotational constants (GHZ):           1.1711735           0.9350118           0.6241298
 Standard basis: STO-3G (5D, 7F)
 There are    70 symmetry adapted cartesian basis functions of A   symmetry.
 There are    70 symmetry adapted basis functions of A   symmetry.
    70 basis functions,   210 primitive gaussians,    70 cartesian basis functions
    44 alpha electrons       44 beta electrons
       nuclear repulsion energy       695.2888441617 Hartrees.
 NAtoms=   22 NActive=   22 NUniq=   22 SFac= 1.00D+00 NAtFMM=   60 NAOKFM=F Big=F
 Integral buffers will be    131072 words long.
 Raffenetti 1 integral format.
 Two-electron integral symmetry is turned on.
 External calculation of energy, first and second derivatives.
 Running external command "~/scripts/MiMe -H 'am1' -EF 'wb97xd def2svp' -c 12 -m 48GB R"
         input file       "/local/jobs/1176102/Gau-3202308.EIn"
         output file      "/local/jobs/1176102/Gau-3202308.EOu"
         message file     "/local/jobs/1176102/Gau-3202308.EMs"
         fchk file        "/local/jobs/1176102/Gau-3202308.EFC"
         mat. el file     "/local/jobs/1176102/Gau-3202308.EUF"
 Read checkpoint file Gau-3202308_H.chk type G16
 Write formatted file Gau-3202308_H.fchk

deriv: 2

spelevel: wb97xd def2svp
gradlevel: wb97xd def2svp
hesslevel: am1

runspe: False
runforce: True
runfreq: True

Running Gaussian ...

Parsing files ...
SPE file: Gau-3202308_F.out
FORCE file: Gau-3202308_F.out
HESS file: Gau-3202308_H.out

 ExternalExternalExternalExternalExternalExternalExternalExternalExternalExternal
 Output from external command:
 "~/scripts/MiMe -H 'am1' -EF 'wb97xd def2svp' -c 12 -m 48GB R /local/jobs/1176102/Gau-3202308.EIn /local/jobs/1176102/Gau-3202308.EOu /local/jobs/1176102/Gau-3202308.EMs /local/jobs/1176102/Gau-3202308.EFC /local/jobs/1176102/Gau-3202308.EUF"
  
 --------------------------------------------------
 Force calculation at wb97xd def2svp
 Hessian calculation at am1
 ExternalExternalExternalExternalExternalExternalExternalExternalExternalExternal

 Recovered energy= -573.941726387     dipole=     -3.222100000000      3.139800000000      2.688900000000
 Energy=    -573.941726     NIter=   0.
 Dipole moment=      -3.222100       3.139800       2.688900
 ***** Axes restored to original set *****
 -------------------------------------------------------------------
 Center     Atomic                   Forces (Hartrees/Bohr)
 Number     Number              X              Y              Z
 -------------------------------------------------------------------
      1        6           0.012273947    0.025258595   -0.059938500
      2        6           0.052378418    0.028526631    0.009739413
      3        6          -0.026814780   -0.025624729   -0.049211987
      4        6          -0.057689340   -0.015490685   -0.002001586
      5        6          -0.079741623   -0.048744934    0.048668419
      6        6           0.082553465    0.052195939    0.048884367
      7        1           0.002325957    0.007386340    0.000027821
      8        1          -0.000612829   -0.005516827    0.006994137
      9        1           0.004874828   -0.005375675   -0.003303508
     10        1          -0.000122781   -0.005027901   -0.002029151
     11        1           0.007925370   -0.004009035    0.005647462
     12        1          -0.008986867    0.001338317    0.003109308
     13        1           0.004392131    0.005755217    0.006211963
     14        8           0.004451073   -0.014813358   -0.029321671
     15        6          -0.041183683   -0.018769492    0.006150786
     16        6           0.038119703    0.030265849    0.012923938
     17        8           0.037581314    0.021740138   -0.003330862
     18        8          -0.034972153   -0.023044354   -0.006259621
     19        6           0.010235194   -0.005241796    0.006779912
     20        1          -0.003633732   -0.003166072    0.001769250
     21        1          -0.003990841    0.003748943    0.000598038
     22        1           0.000637229   -0.001391111   -0.002107930
 -------------------------------------------------------------------
 Cartesian Forces:  Max     0.082553465 RMS     0.027140098

 GradGradGradGradGradGradGradGradGradGradGradGradGradGradGradGradGradGrad
 Berny optimization.
 Search for a saddle point.
 Step number   1 out of a maximum of   50
 All quantities printed in internal units (Hartrees-Bohrs-Radians)
 Swapping is turned off.
 Second derivative matrix not updated -- analytic derivatives used.
 ITU=  0
     Eigenvalues ---   -0.03943  -0.00897  -0.00739  -0.00340  -0.00131
     Eigenvalues ---    0.00031   0.00178   0.00396   0.00411   0.00534
     Eigenvalues ---    0.00799   0.01145   0.01356   0.01497   0.02082
     Eigenvalues ---    0.03346   0.03478   0.04206   0.04813   0.05101
     Eigenvalues ---    0.05343   0.05766   0.06435   0.07526   0.07727
     Eigenvalues ---    0.08510   0.10200   0.10606   0.12230   0.13288
     Eigenvalues ---    0.15746   0.17061   0.17621   0.18265   0.19933
     Eigenvalues ---    0.20735   0.25251   0.26727   0.27453   0.28454
     Eigenvalues ---    0.36216   0.39630   0.54006   0.62643   0.63280
     Eigenvalues ---    0.75450   0.80415   0.81119   0.85795   0.91303
     Eigenvalues ---    0.93392   0.96058   1.01414   1.04727   1.09188
     Eigenvalues ---    1.13357   1.25364   1.54640   2.28149   2.48035
 Eigenvectors required to have negative eigenvalues:
                          Y4        Y2        Z2        Z4        X2
   1                    0.42097   0.35896  -0.30535  -0.28999  -0.26678
                          Y3        Y1        Y14       Z14       X4
   1                   -0.24668  -0.20201  -0.18290   0.16809  -0.16705
 RFO step:  Lambda0=1.144342994D-02 Lambda=-5.75773572D-02.
 Linear search not attempted -- option 19 set.
 Maximum step size (   0.100) exceeded in Quadratic search.
    -- Step size scaled by   0.126
 B after Tr=     0.000818   -0.000465   -0.000261
         Rot=    1.000000    0.000175    0.000052   -0.000036 Ang=   0.02 deg.
 Variable       Old X    -DE/DX   Delta X   Delta X   Delta X     New X
                                 (Linear)    (Quad)   (Total)
    X1       -3.33272   0.01227   0.00000  -0.00911  -0.00845  -3.34117
    Y1        1.45490   0.02526   0.00000   0.01232   0.01179   1.46669
    Z1        0.50701  -0.05994   0.00000  -0.00755  -0.00866   0.49835
    X2       -0.31653   0.05238   0.00000  -0.00295  -0.00226  -0.31879
    Y2       -1.39462   0.02853   0.00000   0.02319   0.02344  -1.37118
    Z2        2.14616   0.00974   0.00000  -0.01636  -0.01617   2.12999
    X3        1.42353  -0.02681   0.00000   0.00091   0.00134   1.42487
    Y3        4.61036  -0.02562   0.00000  -0.01774  -0.01790   4.59246
    Z3        0.55860  -0.04921   0.00000   0.00476   0.00304   0.56164
    X4        2.10478  -0.05769   0.00000  -0.01976  -0.01917   2.08561
    Y4       -0.23603  -0.01549   0.00000   0.03083   0.03131  -0.20471
    Z4        2.30811  -0.00200   0.00000  -0.02166  -0.02164   2.28647
    X5       -2.04185  -0.07974   0.00000  -0.01389  -0.01307  -2.05492
    Y5        2.44417  -0.04874   0.00000   0.00553   0.00432   2.44850
    Z5       -1.71360   0.04867   0.00000   0.01154   0.01021  -1.70339
    X6        0.07597   0.08255   0.00000   0.00963   0.01035   0.08631
    Y6        3.83747   0.05220   0.00000  -0.00366  -0.00470   3.83277
    Z6       -1.67619   0.04888   0.00000   0.01614   0.01455  -1.66164
    X7        3.38450   0.00233   0.00000  -0.00026   0.00014   3.38464
    Y7        5.18598   0.00739   0.00000  -0.00337  -0.00345   5.18252
    Z7        0.38418   0.00003   0.00000   0.01112   0.00940   0.39358
    X8        0.46374  -0.00061   0.00000   0.00313   0.00335   0.46709
    Y8        4.88267  -0.00552   0.00000  -0.01563  -0.01524   4.86744
    Z8        2.34591   0.00699   0.00000   0.00940   0.00749   2.35339
    X9        0.96716   0.00487   0.00000   0.00730   0.00816   0.97532
    Y9        4.32823  -0.00538   0.00000  -0.01535  -0.01695   4.31128
    Z9       -3.46632  -0.00330   0.00000   0.00988   0.00822  -3.45811
   X10       -2.79982  -0.00012   0.00000  -0.00556  -0.00452  -2.80434
   Y10        1.88103  -0.00503   0.00000   0.01072   0.00882   1.88985
   Z10       -3.54456  -0.00203   0.00000   0.00488   0.00367  -3.54089
   X11       -3.18835   0.00793   0.00000   0.00595   0.00635  -3.18199
   Y11        2.53922  -0.00401   0.00000  -0.00871  -0.00861   2.53061
   Z11        2.25123   0.00565   0.00000   0.00680   0.00533   2.25656
   X12       -1.54561  -0.00899   0.00000  -0.00664  -0.00607  -1.55168
   Y12       -1.74856   0.00134   0.00000   0.01463   0.01535  -1.73322
   Z12        3.73259   0.00311   0.00000  -0.01678  -0.01660   3.71599
   X13        2.92624   0.00439   0.00000  -0.01034  -0.00998   2.91627
   Y13        0.73624   0.00576   0.00000   0.01950   0.02059   0.75683
   Z13        3.88925   0.00621   0.00000  -0.01477  -0.01499   3.87426
   X14        2.12802   0.00445   0.00000   0.02288   0.02402   2.15204
   Y14       -2.84517  -0.01481   0.00000  -0.03690  -0.03758  -2.88276
   Z14       -1.11078  -0.02932   0.00000   0.02428   0.02525  -1.08553
   X15       -0.15382  -0.04118   0.00000   0.00192   0.00297  -0.15085
   Y15       -3.18740  -0.01877   0.00000   0.00172   0.00125  -3.18615
   Z15        0.03061   0.00615   0.00000  -0.00124  -0.00041   0.03020
   X16        3.57820   0.03812   0.00000  -0.00121  -0.00033   3.57787
   Y16       -1.13762   0.03027   0.00000   0.00957   0.00942  -1.12820
   Z16        0.15420   0.01292   0.00000  -0.00339  -0.00289   0.15131
   X17       -1.76179   0.03758   0.00000   0.01739   0.01860  -1.74319
   Y17       -4.72715   0.02174   0.00000  -0.00467  -0.00545  -4.73260
   Z17       -0.54141  -0.00333   0.00000  -0.00918  -0.00797  -0.54938
   X18        5.72474  -0.03497   0.00000  -0.00173  -0.00084   5.72390
   Y18       -0.49870  -0.02304   0.00000  -0.01256  -0.01274  -0.51144
   Z18       -0.35961  -0.00626   0.00000  -0.01181  -0.01131  -0.37092
   X19       -5.77803   0.01024   0.00000  -0.00294  -0.00214  -5.78017
   Y19        0.06727  -0.00524   0.00000   0.00007  -0.00077   0.06650
   Z19        0.11849   0.00678   0.00000   0.00473   0.00385   0.12234
   X20       -6.09607  -0.00363   0.00000  -0.00066   0.00007  -6.09599
   Y20       -1.24684  -0.00317   0.00000  -0.00596  -0.00627  -1.25312
   Z20        1.68375   0.00177   0.00000   0.00061   0.00016   1.68391
   X21       -7.35784  -0.00399   0.00000  -0.00569  -0.00499  -7.36282
   Y21        1.40029   0.00375   0.00000  -0.00028  -0.00125   1.39904
   Z21        0.07124   0.00060   0.00000   0.01153   0.01002   0.08126
   X22       -5.77765   0.00064   0.00000  -0.00461  -0.00355  -5.78120
   Y22       -1.02291  -0.00139   0.00000   0.00607   0.00462  -1.01829
   Z22       -1.63896  -0.00211   0.00000  -0.00006  -0.00056  -1.63952
         Item               Value     Threshold  Converged?
 Maximum Force            0.082553     0.000450     NO 
 RMS     Force            0.027140     0.000300     NO 
 Maximum Displacement     0.037584     0.001800     NO 
 RMS     Displacement     0.012273     0.001200     NO 
 Predicted change in Energy=-5.755128D-03
 GradGradGradGradGradGradGradGradGradGradGradGradGradGradGradGradGradGrad

                          Input orientation:                          
 ---------------------------------------------------------------------
 Center     Atomic      Atomic             Coordinates (Angstroms)
 Number     Number       Type             X           Y           Z
 ---------------------------------------------------------------------
      1          6           0       -1.768072    0.776139    0.263715
      2          6           0       -0.168694   -0.725596    1.127142
      3          6           0        0.754008    2.430227    0.297209
      4          6           0        1.103658   -0.108329    1.209950
      5          6           0       -1.087416    1.295688   -0.901395
      6          6           0        0.045675    2.028215   -0.879301
      7          1           0        1.791074    2.742472    0.208275
      8          1           0        0.247173    2.575736    1.245362
      9          1           0        0.516119    2.281430   -1.829952
     10          1           0       -1.483990    1.000068   -1.873757
     11          1           0       -1.683838    1.339143    1.194119
     12          1           0       -0.821115   -0.917179    1.966417
     13          1           0        1.543221    0.400498    2.050168
     14          8           0        1.138811   -1.525489   -0.574439
     15          6           0       -0.079829   -1.686037    0.015984
     16          6           0        1.893326   -0.597016    0.080071
     17          8           0       -0.922456   -2.504384   -0.290717
     18          8           0        3.028957   -0.270641   -0.196283
     19          6           0       -3.058732    0.035191    0.064738
     20          1           0       -3.225861   -0.663120    0.891086
     21          1           0       -3.896238    0.740340    0.043002
     22          1           0       -3.059280   -0.538856   -0.867595
 ---------------------------------------------------------------------
                    Distance matrix (angstroms):
                    1          2          3          4          5
     1  C    0.000000
     2  C    2.357694   0.000000
     3  C    3.016292   3.391074   0.000000
     4  C    3.150314   1.416600   2.720224   0.000000
     5  C    1.445928   3.007425   2.472787   3.351097   0.000000
     6  C    2.482712   3.413977   1.430917   3.170035   1.349437
     7  H    4.066578   4.088093   1.086697   3.098865   3.407383
     8  H    2.874612   3.329521   1.084920   2.817628   2.833411
     9  H    3.444833   4.272655   2.145587   3.911158   2.098864
    10  H    2.167864   3.703149   3.430318   4.175371   1.090940
    11  H    1.090743   2.561892   2.817447   3.140949   2.179171
    12  H    2.581327   1.080157   4.058620   2.220637   3.632086
    13  H    3.781161   2.247380   2.795625   1.076144   4.053806
    14  O    3.801311   2.290148   4.068849   2.278952   3.608605
    15  C    2.995638   1.471400   4.209275   2.305506   3.278338
    16  C    3.914731   2.316208   3.241819   1.462538   3.664755
    17  O    3.432826   2.396366   5.244671   3.478250   3.852362
    18  O    4.931413   3.490474   3.565615   2.389689   4.460392
    19  C    1.501465   3.171721   4.508572   4.319444   2.531472
    20  H    2.142478   3.066903   5.075515   4.376552   3.409233
    21  H    2.139880   4.149567   4.954304   5.203938   3.014926
    22  H    2.162473   3.517006   4.971256   4.672429   2.693499
                    6          7          8          9         10
     6  C    0.000000
     7  H    2.177017   0.000000
     8  H    2.203310   1.867346   0.000000
     9  H    1.090492   2.447945   3.101049   0.000000
    10  H    2.094255   4.254042   3.899815   2.375762   0.000000
    11  H    2.786594   3.875079   2.293598   3.856517   3.093020
    12  H    4.186261   4.827798   3.723118   5.141178   4.343061
    13  H    3.670680   2.989790   2.656899   4.432625   4.992061
    14  O    3.730509   4.387890   4.574575   4.056684   3.865973
    15  C    3.822689   4.811335   4.447584   4.416268   3.571827
    16  C    3.350529   3.343512   3.759532   3.718916   4.215968
    17  O    4.672062   5.928047   5.434629   5.229030   3.886196
    18  O    3.827692   3.282510   4.233028   3.936533   4.979489
    19  C    3.807978   5.556130   4.333272   4.627634   2.677417
    20  H    4.591351   6.101961   4.762107   5.484236   3.666697
    21  H    4.248287   6.031697   4.688518   5.035058   3.091984
    22  H    4.028738   5.954035   5.009780   4.654419   2.421195
                   11         12         13         14         15
    11  H    0.000000
    12  H    2.536084   0.000000
    13  H    3.468110   2.708020   0.000000
    14  O    4.393320   3.266083   3.280478   0.000000
    15  C    3.621127   2.223699   3.335539   1.363619   0.000000
    16  C    4.217335   3.320993   2.235819   1.363722   2.254643
    17  O    4.190124   2.761186   4.471873   2.299469   1.213993
    18  O    5.170595   4.462996   2.775676   2.300064   3.422419
    19  C    2.205929   3.087122   5.025271   4.523675   3.440765
    20  H    2.545333   2.646449   5.021843   4.684208   3.421941
    21  H    2.564829   3.987891   5.807919   5.555802   4.522501
    22  H    3.109563   3.630997   5.529805   4.322424   3.312682
                   16         17         18         19         20
    16  C    0.000000
    17  O    3.421136   0.000000
    18  O    1.213486   4.540065   0.000000
    19  C    4.992274   3.337584   6.100952   0.000000
    20  H    5.183454   3.176884   6.360752   1.094725   0.000000
    21  H    5.942133   4.413953   7.002690   1.095045   1.771539
    22  H    5.042793   2.960085   6.131005   1.094886   1.770918
                   21         22
    21  H    0.000000
    22  H    1.779333   0.000000
 Stoichiometry    C9H10O3
 Framework group  C1[X(C9H10O3)]
 Deg. of freedom    60
 Full point group                 C1      NOp   1
 Largest Abelian subgroup         C1      NOp   1
 Largest concise Abelian subgroup C1      NOp   1
                         Standard orientation:                         
 ---------------------------------------------------------------------
 Center     Atomic      Atomic             Coordinates (Angstroms)
 Number     Number       Type             X           Y           Z
 ---------------------------------------------------------------------
      1          6           0       -1.875583    0.569682    0.313449
      2          6           0       -0.066655   -0.737471    1.073617
      3          6           0        0.401603    2.546831    0.371136
      4          6           0        1.113064    0.042147    1.158539
      5          6           0       -1.302112    1.226022   -0.840265
      6          6           0       -0.277434    2.103495   -0.807799
      7          1           0        1.384623    3.000045    0.275330
      8          1           0       -0.094743    2.581637    1.335232
      9          1           0        0.129270    2.458559   -1.755266
     10          1           0       -1.681168    0.921429   -1.816835
     11          1           0       -1.842941    1.098490    1.266872
     12          1           0       -0.664863   -1.051374    1.916441
     13          1           0        1.502563    0.569272    2.012071
     14          8           0        1.290607   -1.279400   -0.689599
     15          6           0        0.120713   -1.628522   -0.082211
     16          6           0        1.930811   -0.286302   -0.008692
     17          8           0       -0.612294   -2.539444   -0.408862
     18          8           0        3.004580    0.202271   -0.293060
     19          6           0       -3.059927   -0.329862    0.107185
     20          1           0       -3.109729   -1.079148    0.903748
     21          1           0       -3.984795    0.255763    0.135228
     22          1           0       -3.008240   -0.858196   -0.850399
 ---------------------------------------------------------------------
 Rotational constants (GHZ):           1.1745583           0.9354796           0.6237525
 Standard basis: STO-3G (5D, 7F)
 There are    70 symmetry adapted cartesian basis functions of A   symmetry.
 There are    70 symmetry adapted basis functions of A   symmetry.
    70 basis functions,   210 primitive gaussians,    70 cartesian basis functions
    44 alpha electrons       44 beta electrons
       nuclear repulsion energy       695.7590641182 Hartrees.
 NAtoms=   22 NActive=   22 NUniq=   22 SFac= 1.00D+00 NAtFMM=   60 NAOKFM=F Big=F
 Integral buffers will be    131072 words long.
 Raffenetti 1 integral format.
 Two-electron integral symmetry is turned on.
 External calculation of energy, first and second derivatives.
 Running external command "~/scripts/MiMe -H 'am1' -EF 'wb97xd def2svp' -c 12 -m 48GB R"
         input file       "/local/jobs/1176102/Gau-3202308.EIn"
         output file      "/local/jobs/1176102/Gau-3202308.EOu"
         message file     "/local/jobs/1176102/Gau-3202308.EMs"
         fchk file        "/local/jobs/1176102/Gau-3202308.EFC"
         mat. el file     "/local/jobs/1176102/Gau-3202308.EUF"
 Read checkpoint file Gau-3202308_H.chk type G16
 Write formatted file Gau-3202308_H.fchk

deriv: 2

spelevel: wb97xd def2svp
gradlevel: wb97xd def2svp
hesslevel: am1

runspe: False
runforce: True
runfreq: True

Running Gaussian ...

Parsing files ...
SPE file: Gau-3202308_F.out
FORCE file: Gau-3202308_F.out
HESS file: Gau-3202308_H.out

 ExternalExternalExternalExternalExternalExternalExternalExternalExternalExternal
 Output from external command:
 "~/scripts/MiMe -H 'am1' -EF 'wb97xd def2svp' -c 12 -m 48GB R /local/jobs/1176102/Gau-3202308.EIn /local/jobs/1176102/Gau-3202308.EOu /local/jobs/1176102/Gau-3202308.EMs /local/jobs/1176102/Gau-3202308.EFC /local/jobs/1176102/Gau-3202308.EUF"
  
 --------------------------------------------------
 Force calculation at wb97xd def2svp
 Hessian calculation at am1
 ExternalExternalExternalExternalExternalExternalExternalExternalExternalExternal

 Recovered energy= -573.947394681     dipole=     -3.264200000000      3.141900000000      2.698100000000
 Energy=    -573.947395     NIter=   0.
 Dipole moment=      -3.264200       3.141900       2.698100
 ***** Axes restored to original set *****
 -------------------------------------------------------------------
 Center     Atomic                   Forces (Hartrees/Bohr)
 Number     Number              X              Y              Z
 -------------------------------------------------------------------
      1        6           0.010459667    0.023669467   -0.054152821
      2        6           0.047431887    0.025244484    0.009893619
      3        6          -0.023828748   -0.022821583   -0.044187394
      4        6          -0.051794209   -0.013862740   -0.000701019
      5        6          -0.071540132   -0.043035149    0.043827444
      6        6           0.073523836    0.046750835    0.043973159
      7        1           0.001582408    0.006777143   -0.000036649
      8        1          -0.000329708   -0.005735326    0.005798829
      9        1           0.004835663   -0.005390822   -0.002551005
     10        1          -0.000064597   -0.004776423   -0.001561143
     11        1           0.007498275   -0.004135960    0.004522933
     12        1          -0.008149227    0.002124153    0.002294270
     13        1           0.003370368    0.005469603    0.005040561
     14        8           0.003190666   -0.011766822   -0.027314388
     15        6          -0.036171652   -0.018706316    0.005150215
     16        6           0.035988863    0.025120640    0.011127507
     17        8           0.033826659    0.020635277   -0.002425135
     18        8          -0.032526175   -0.020128640   -0.005006541
     19        6           0.009074516   -0.004451753    0.005776251
     20        1          -0.003101417   -0.002870144    0.001771117
     21        1          -0.003754693    0.003132959    0.000587349
     22        1           0.000477748   -0.001242881   -0.001827159
 -------------------------------------------------------------------
 Cartesian Forces:  Max     0.073523836 RMS     0.024381764

 GradGradGradGradGradGradGradGradGradGradGradGradGradGradGradGradGradGrad
 Berny optimization.
 Search for a saddle point.
 Step number   2 out of a maximum of   50
 All quantities printed in internal units (Hartrees-Bohrs-Radians)
 Swapping is turned off.
 Second derivative matrix not updated -- analytic derivatives used.
 ITU=  0  0
     Eigenvalues ---   -0.03606  -0.00865  -0.00685  -0.00284  -0.00121
     Eigenvalues ---    0.00027   0.00175   0.00341   0.00408   0.00558
     Eigenvalues ---    0.00804   0.01203   0.01408   0.01524   0.02146
     Eigenvalues ---    0.03405   0.03526   0.04236   0.04845   0.05077
     Eigenvalues ---    0.05390   0.05803   0.06471   0.07525   0.07634
     Eigenvalues ---    0.08633   0.10086   0.10661   0.12344   0.13301
     Eigenvalues ---    0.15798   0.17099   0.17641   0.18324   0.19807
     Eigenvalues ---    0.20746   0.25500   0.26822   0.27558   0.28735
     Eigenvalues ---    0.36254   0.39742   0.54121   0.62446   0.63295
     Eigenvalues ---    0.75342   0.80366   0.80988   0.86118   0.90873
     Eigenvalues ---    0.94213   0.98696   1.00597   1.07829   1.09006
     Eigenvalues ---    1.12907   1.26822   1.51500   2.30634   2.50231
 Eigenvectors required to have negative eigenvalues:
                          Y4        Y2        Z2        Z4        Y3
   1                    0.42130   0.35329  -0.30578  -0.29683  -0.25688
                          X2        Y1        Z14       Y14       Y7
   1                   -0.25529  -0.18960   0.17671  -0.17638  -0.17462
 RFO step:  Lambda0=1.090285550D-02 Lambda=-4.74902273D-02.
 Linear search not attempted -- option 19 set.
 Maximum step size (   0.100) exceeded in Quadratic search.
    -- Step size scaled by   0.124
 B after Tr=     0.001030   -0.000510   -0.000186
         Rot=    1.000000    0.000168    0.000068   -0.000067 Ang=   0.02 deg.
 Variable       Old X    -DE/DX   Delta X   Delta X   Delta X     New X
                                 (Linear)    (Quad)   (Total)
    X1       -3.34117   0.01046   0.00000  -0.00942  -0.00866  -3.34983
    Y1        1.46669   0.02367   0.00000   0.01197   0.01117   1.47786
    Z1        0.49835  -0.05415   0.00000  -0.00618  -0.00732   0.49103
    X2       -0.31879   0.04743   0.00000  -0.00368  -0.00276  -0.32154
    Y2       -1.37118   0.02524   0.00000   0.02130   0.02145  -1.34972
    Z2        2.12999   0.00989   0.00000  -0.01698  -0.01676   2.11323
    X3        1.42487  -0.02383   0.00000   0.00171   0.00205   1.42692
    Y3        4.59246  -0.02282   0.00000  -0.01794  -0.01806   4.57440
    Z3        0.56164  -0.04419   0.00000   0.00520   0.00367   0.56531
    X4        2.08561  -0.05179   0.00000  -0.01892  -0.01817   2.06744
    Y4       -0.20471  -0.01386   0.00000   0.02971   0.03024  -0.17447
    Z4        2.28647  -0.00070   0.00000  -0.02162  -0.02147   2.26500
    X5       -2.05492  -0.07154   0.00000  -0.01322  -0.01229  -2.06721
    Y5        2.44850  -0.04304   0.00000   0.00614   0.00478   2.45327
    Z5       -1.70339   0.04383   0.00000   0.01002   0.00873  -1.69466
    X6        0.08631   0.07352   0.00000   0.00868   0.00941   0.09573
    Y6        3.83277   0.04675   0.00000  -0.00409  -0.00514   3.82763
    Z6       -1.66164   0.04397   0.00000   0.01434   0.01288  -1.64876
    X7        3.38464   0.00158   0.00000   0.00013   0.00041   3.38505
    Y7        5.18252   0.00678   0.00000  -0.00433  -0.00425   5.17827
    Z7        0.39358  -0.00004   0.00000   0.01065   0.00918   0.40276
    X8        0.46709  -0.00033   0.00000   0.00349   0.00355   0.47064
    Y8        4.86744  -0.00574   0.00000  -0.01717  -0.01682   4.85062
    Z8        2.35339   0.00580   0.00000   0.00914   0.00739   2.36078
    X9        0.97532   0.00484   0.00000   0.00829   0.00921   0.98454
    Y9        4.31128  -0.00539   0.00000  -0.01644  -0.01798   4.29329
    Z9       -3.45811  -0.00255   0.00000   0.00943   0.00793  -3.45018
   X10       -2.80434  -0.00006   0.00000  -0.00633  -0.00508  -2.80941
   Y10        1.88985  -0.00478   0.00000   0.01060   0.00852   1.89838
   Z10       -3.54089  -0.00156   0.00000   0.00465   0.00344  -3.53745
   X11       -3.18199   0.00750   0.00000   0.00651   0.00689  -3.17510
   Y11        2.53061  -0.00414   0.00000  -0.00837  -0.00854   2.52207
   Z11        2.25656   0.00452   0.00000   0.00663   0.00517   2.26173
   X12       -1.55168  -0.00815   0.00000  -0.00858  -0.00782  -1.55950
   Y12       -1.73322   0.00212   0.00000   0.01596   0.01648  -1.71673
   Z12        3.71599   0.00229   0.00000  -0.01847  -0.01829   3.69770
   X13        2.91627   0.00337   0.00000  -0.01290  -0.01249   2.90377
   Y13        0.75683   0.00547   0.00000   0.02191   0.02309   0.77992
   Z13        3.87426   0.00504   0.00000  -0.01597  -0.01602   3.85823
   X14        2.15204   0.00319   0.00000   0.02203   0.02359   2.17564
   Y14       -2.88276  -0.01177   0.00000  -0.03342  -0.03400  -2.91676
   Z14       -1.08553  -0.02731   0.00000   0.02380   0.02489  -1.06064
   X15       -0.15085  -0.03617   0.00000   0.00359   0.00505  -0.14581
   Y15       -3.18615  -0.01871   0.00000  -0.00040  -0.00092  -3.18707
   Z15        0.03020   0.00515   0.00000  -0.00095  -0.00008   0.03012
   X16        3.57787   0.03599   0.00000  -0.00031   0.00085   3.57872
   Y16       -1.12820   0.02512   0.00000   0.00799   0.00801  -1.12018
   Z16        0.15131   0.01113   0.00000  -0.00248  -0.00181   0.14951
   X17       -1.74319   0.03383   0.00000   0.01836   0.02011  -1.72308
   Y17       -4.73260   0.02064   0.00000  -0.00654  -0.00747  -4.74007
   Z17       -0.54938  -0.00243   0.00000  -0.00892  -0.00775  -0.55712
   X18        5.72390  -0.03253   0.00000  -0.00139  -0.00023   5.72366
   Y18       -0.51144  -0.02013   0.00000  -0.01088  -0.01075  -0.52219
   Z18       -0.37092  -0.00501   0.00000  -0.01052  -0.00976  -0.38068
   X19       -5.78017   0.00907   0.00000  -0.00400  -0.00299  -5.78316
   Y19        0.06650  -0.00445   0.00000   0.00151   0.00027   0.06677
   Z19        0.12234   0.00578   0.00000   0.00515   0.00416   0.12650
   X20       -6.09599  -0.00310   0.00000   0.00026   0.00123  -6.09477
   Y20       -1.25312  -0.00287   0.00000  -0.00633  -0.00709  -1.26021
   Z20        1.68391   0.00177   0.00000  -0.00002  -0.00061   1.68330
   X21       -7.36282  -0.00375   0.00000  -0.00668  -0.00586  -7.36868
   Y21        1.39904   0.00313   0.00000   0.00093  -0.00054   1.39850
   Z21        0.08126   0.00059   0.00000   0.01532   0.01367   0.09493
   X22       -5.78120   0.00048   0.00000  -0.00739  -0.00601  -5.78721
   Y22       -1.01829  -0.00124   0.00000   0.00938   0.00754  -1.01075
   Z22       -1.63952  -0.00183   0.00000  -0.00061  -0.00124  -1.64076
         Item               Value     Threshold  Converged?
 Maximum Force            0.073524     0.000450     NO 
 RMS     Force            0.024382     0.000300     NO 
 Maximum Displacement     0.034000     0.001800     NO 
 RMS     Displacement     0.012265     0.001200     NO 
 Predicted change in Energy=-4.463676D-03
 GradGradGradGradGradGradGradGradGradGradGradGradGradGradGradGradGradGrad

                          Input orientation:                          
 ---------------------------------------------------------------------
 Center     Atomic      Atomic             Coordinates (Angstroms)
 Number     Number       Type             X           Y           Z
 ---------------------------------------------------------------------
      1          6           0       -1.772653    0.782051    0.259841
      2          6           0       -0.170153   -0.714242    1.118274
      3          6           0        0.755092    2.420668    0.299149
      4          6           0        1.094041   -0.092325    1.198589
      5          6           0       -1.093919    1.298217   -0.896775
      6          6           0        0.050656    2.025493   -0.872485
      7          1           0        1.791290    2.740223    0.213133
      8          1           0        0.249051    2.566835    1.249270
      9          1           0        0.520994    2.271913   -1.825754
     10          1           0       -1.486678    1.004578   -1.871936
     11          1           0       -1.680192    1.334623    1.196854
     12          1           0       -0.825252   -0.908456    1.956741
     13          1           0        1.536610    0.412716    2.041690
     14          8           0        1.151297   -1.543481   -0.561268
     15          6           0       -0.077159   -1.686523    0.015940
     16          6           0        1.893778   -0.592776    0.079115
     17          8           0       -0.911816   -2.508336   -0.294816
     18          8           0        3.028833   -0.276329   -0.201447
     19          6           0       -3.060316    0.035334    0.066940
     20          1           0       -3.225211   -0.666874    0.890763
     21          1           0       -3.899337    0.740056    0.050235
     22          1           0       -3.062457   -0.534866   -0.868254
 ---------------------------------------------------------------------
                    Distance matrix (angstroms):
                    1          2          3          4          5
     1  C    0.000000
     2  C    2.354529   0.000000
     3  C    3.012658   3.369675   0.000000
     4  C    3.140655   1.411176   2.690542   0.000000
     5  C    1.436965   2.993953   2.471633   3.333365   0.000000
     6  C    2.480477   3.393822   1.423067   3.140566   1.356309
     7  H    4.066732   4.074294   1.087759   3.079060   3.411115
     8  H    2.872580   3.310342   1.086358   2.790647   2.831691
     9  H    3.439508   4.249954   2.142928   3.881322   2.102149
    10  H    2.162354   3.691739   3.427018   4.158296   1.091523
    11  H    1.091732   2.546417   2.813534   3.119703   2.174471
    12  H    2.575821   1.081619   4.040812   2.219132   3.617200
    13  H    3.776588   2.244053   2.771117   1.077847   4.042075
    14  O    3.825154   2.292320   4.075754   2.281716   3.637142
    15  C    3.004671   1.472793   4.200222   2.304741   3.282609
    16  C    3.919889   2.313962   3.228911   1.463985   3.668044
    17  O    3.446061   2.401179   5.237027   3.477186   3.858155
    18  O    4.938342   3.488114   3.562904   2.395282   4.467634
    19  C    1.500957   3.165471   4.505672   4.307622   2.527912
    20  H    2.146479   3.063884   5.072055   4.368158   3.405772
    21  H    2.137400   4.142764   4.954808   5.190895   3.013095
    22  H    2.161125   3.513387   4.967061   4.663063   2.690009
                    6          7          8          9         10
     6  C    0.000000
     7  H    2.172375   0.000000
     8  H    2.198695   1.866050   0.000000
     9  H    1.091175   2.447453   3.101082   0.000000
    10  H    2.098706   4.255003   3.898119   2.374661   0.000000
    11  H    2.784834   3.872287   2.289776   3.854853   3.092548
    12  H    4.168908   4.816567   3.705710   5.121952   4.330814
    13  H    3.647126   2.970820   2.631723   4.409673   4.980667
    14  O    3.747778   4.399933   4.581135   4.068592   3.894787
    15  C    3.818992   4.808957   4.440560   4.406681   3.576709
    16  C    3.340356   3.337266   3.749338   3.703986   4.217301
    17  O    4.670724   5.925552   5.430394   5.219914   3.893372
    18  O    3.823377   3.286788   4.232652   3.926979   4.982077
    19  C    3.810696   5.556607   4.331087   4.627133   2.678622
    20  H    4.592297   6.101867   4.759822   5.481787   3.667255
    21  H    4.255139   6.034106   4.688702   5.040362   3.096068
    22  H    4.030749   5.954366   5.007050   4.651445   2.420816
                   11         12         13         14         15
    11  H    0.000000
    12  H    2.517886   0.000000
    13  H    3.451300   2.707601   0.000000
    14  O    4.403612   3.263491   3.278805   0.000000
    15  C    3.618231   2.220752   3.333874   1.364820   0.000000
    16  C    4.211587   3.319376   2.233893   1.365727   2.254965
    17  O    4.193306   2.763443   4.470637   2.293115   1.211858
    18  O    5.169654   4.462211   2.780858   2.293531   3.418053
    19  C    2.206718   3.075321   5.017348   4.541473   3.444796
    20  H    2.546913   2.637134   5.016482   4.693683   3.422753
    21  H    2.567654   3.975217   5.798496   5.576502   4.527527
    22  H    3.109713   3.622879   5.524229   4.343647   3.319657
                   16         17         18         19         20
    16  C    0.000000
    17  O    3.417683   0.000000
    18  O    1.211281   4.529821   0.000000
    19  C    4.993768   3.349205   6.103023   0.000000
    20  H    5.183466   3.185652   6.360701   1.094975   0.000000
    21  H    5.944531   4.426781   7.006847   1.095841   1.772112
    22  H    5.046299   2.974672   6.133130   1.095317   1.771455
                   21         22
    21  H    0.000000
    22  H    1.780285   0.000000
 Stoichiometry    C9H10O3
 Framework group  C1[X(C9H10O3)]
 Deg. of freedom    60
 Full point group                 C1      NOp   1
 Largest Abelian subgroup         C1      NOp   1
 Largest concise Abelian subgroup C1      NOp   1
                         Standard orientation:                         
 ---------------------------------------------------------------------
 Center     Atomic      Atomic             Coordinates (Angstroms)
 Number     Number       Type             X           Y           Z
 ---------------------------------------------------------------------
      1          6           0       -1.887490    0.560588    0.304807
      2          6           0       -0.066777   -0.722581    1.067885
      3          6           0        0.380674    2.542482    0.365133
      4          6           0        1.097320    0.070836    1.150245
      5          6           0       -1.318647    1.213970   -0.841656
      6          6           0       -0.289351    2.096593   -0.808481
      7          1           0        1.358161    3.010699    0.272874
      8          1           0       -0.117022    2.576972    1.330163
      9          1           0        0.116905    2.445307   -1.759279
     10          1           0       -1.689842    0.905531   -1.820687
     11          1           0       -1.851338    1.083437    1.262513
     12          1           0       -0.666178   -1.041697    1.909778
     13          1           0        1.484309    0.600668    2.005389
     14          8           0        1.316893   -1.286716   -0.670487
     15          6           0        0.136323   -1.627318   -0.076370
     16          6           0        1.931926   -0.265139   -0.004660
     17          8           0       -0.580030   -2.547642   -0.405677
     18          8           0        3.002783    0.221854   -0.293286
     19          6           0       -3.059823   -0.355183    0.105128
     20          1           0       -3.102057   -1.105637    0.901372
     21          1           0       -3.990992    0.221817    0.134532
     22          1           0       -3.004047   -0.882560   -0.853246
 ---------------------------------------------------------------------
 Rotational constants (GHZ):           1.1777387           0.9357018           0.6232483
 Standard basis: STO-3G (5D, 7F)
 There are    70 symmetry adapted cartesian basis functions of A   symmetry.
 There are    70 symmetry adapted basis functions of A   symmetry.
    70 basis functions,   210 primitive gaussians,    70 cartesian basis functions
    44 alpha electrons       44 beta electrons
       nuclear repulsion energy       696.1713257644 Hartrees.
 NAtoms=   22 NActive=   22 NUniq=   22 SFac= 1.00D+00 NAtFMM=   60 NAOKFM=F Big=F
 Integral buffers will be    131072 words long.
 Raffenetti 1 integral format.
 Two-electron integral symmetry is turned on.
 External calculation of energy, first and second derivatives.
 Running external command "~/scripts/MiMe -H 'am1' -EF 'wb97xd def2svp' -c 12 -m 48GB R"
         input file       "/local/jobs/1176102/Gau-3202308.EIn"
         output file      "/local/jobs/1176102/Gau-3202308.EOu"
         message file     "/local/jobs/1176102/Gau-3202308.EMs"
         fchk file        "/local/jobs/1176102/Gau-3202308.EFC"
         mat. el file     "/local/jobs/1176102/Gau-3202308.EUF"
 Read checkpoint file Gau-3202308_H.chk type G16
 Write formatted file Gau-3202308_H.fchk

deriv: 2

spelevel: wb97xd def2svp
gradlevel: wb97xd def2svp
hesslevel: am1

runspe: False
runforce: True
runfreq: True

Running Gaussian ...

Parsing files ...
SPE file: Gau-3202308_F.out
FORCE file: Gau-3202308_F.out
HESS file: Gau-3202308_H.out

 ExternalExternalExternalExternalExternalExternalExternalExternalExternalExternal
 Output from external command:
 "~/scripts/MiMe -H 'am1' -EF 'wb97xd def2svp' -c 12 -m 48GB R /local/jobs/1176102/Gau-3202308.EIn /local/jobs/1176102/Gau-3202308.EOu /local/jobs/1176102/Gau-3202308.EMs /local/jobs/1176102/Gau-3202308.EFC /local/jobs/1176102/Gau-3202308.EUF"
  
 --------------------------------------------------
 Force calculation at wb97xd def2svp
 Hessian calculation at am1
 ExternalExternalExternalExternalExternalExternalExternalExternalExternalExternal

 Recovered energy= -573.951782190     dipole=     -3.308300000000      3.144100000000      2.704100000000
 Energy=    -573.951782     NIter=   0.
 Dipole moment=      -3.308300       3.144100       2.704100
 ***** Axes restored to original set *****
 -------------------------------------------------------------------
 Center     Atomic                   Forces (Hartrees/Bohr)
 Number     Number              X              Y              Z
 -------------------------------------------------------------------
      1        6           0.009001578    0.022068460   -0.048950132
      2        6           0.042976204    0.022315985    0.009949581
      3        6          -0.021237910   -0.020339316   -0.039755007
      4        6          -0.046444131   -0.012560063    0.000461710
      5        6          -0.064283349   -0.038111342    0.039479635
      6        6           0.065585594    0.042033988    0.039563201
      7        1           0.001007687    0.006168561   -0.000070659
      8        1          -0.000123444   -0.005811019    0.004780842
      9        1           0.004760585   -0.005308456   -0.001951798
     10        1          -0.000036963   -0.004534027   -0.001222740
     11        1           0.007014700   -0.004146645    0.003561528
     12        1          -0.007397397    0.002742390    0.001674975
     13        1           0.002533845    0.005210626    0.004073275
     14        8           0.002116755   -0.009170693   -0.025554848
     15        6          -0.031809949   -0.018435591    0.004244882
     16        6           0.033948518    0.020708160    0.009535160
     17        8           0.030377325    0.019543164   -0.001609623
     18        8          -0.030159786   -0.017507365   -0.003873928
     19        6           0.008029783   -0.003773602    0.004930601
     20        1          -0.002633998   -0.002580239    0.001742824
     21        1          -0.003561375    0.002588412    0.000573599
     22        1           0.000335729   -0.001101391   -0.001583076
 -------------------------------------------------------------------
 Cartesian Forces:  Max     0.065585594 RMS     0.021942546

 GradGradGradGradGradGradGradGradGradGradGradGradGradGradGradGradGradGrad
 Berny optimization.
 Search for a saddle point.
 Step number   3 out of a maximum of   50
 All quantities printed in internal units (Hartrees-Bohrs-Radians)
 Swapping is turned off.
 Second derivative matrix not updated -- analytic derivatives used.
 ITU=  0  0  0
     Eigenvalues ---   -0.03362  -0.00841  -0.00643  -0.00253  -0.00127
     Eigenvalues ---    0.00041   0.00166   0.00278   0.00413   0.00578
     Eigenvalues ---    0.00810   0.01259   0.01455   0.01549   0.02205
     Eigenvalues ---    0.03456   0.03566   0.04256   0.04866   0.05050
     Eigenvalues ---    0.05428   0.05834   0.06496   0.07459   0.07611
     Eigenvalues ---    0.08734   0.09970   0.10704   0.12445   0.13299
     Eigenvalues ---    0.15836   0.17120   0.17645   0.18368   0.19697
     Eigenvalues ---    0.20749   0.25700   0.26894   0.27621   0.28952
     Eigenvalues ---    0.36279   0.39812   0.54189   0.62237   0.63281
     Eigenvalues ---    0.75250   0.80235   0.80929   0.86158   0.90393
     Eigenvalues ---    0.94323   0.99913   1.01700   1.06845   1.12389
     Eigenvalues ---    1.12657   1.28152   1.48971   2.32900   2.52232
 Eigenvectors required to have negative eigenvalues:
                          Y4        Y2        Z2        Z4        Y3
   1                    0.42081   0.34883  -0.30623  -0.30211  -0.26646
                          X2        Y7        Z14       Y1        Y14
   1                   -0.24665  -0.18688   0.18228  -0.18126  -0.16632
 RFO step:  Lambda0=1.071619147D-02 Lambda=-3.96732199D-02.
 Linear search not attempted -- option 19 set.
 Maximum step size (   0.100) exceeded in Quadratic search.
    -- Step size scaled by   0.122
 B after Tr=     0.000323    0.001423   -0.000460
         Rot=    1.000000    0.000115    0.000025   -0.000185 Ang=   0.03 deg.
 Variable       Old X    -DE/DX   Delta X   Delta X   Delta X     New X
                                 (Linear)    (Quad)   (Total)
    X1       -3.34983   0.00900   0.00000  -0.00424  -0.00449  -3.35432
    Y1        1.47786   0.02207   0.00000   0.00369   0.00399   1.48185
    Z1        0.49103  -0.04895   0.00000  -0.00519  -0.00615   0.48488
    X2       -0.32154   0.04298   0.00000  -0.00690  -0.00619  -0.32774
    Y2       -1.34972   0.02232   0.00000   0.02216   0.02395  -1.32577
    Z2        2.11323   0.00995   0.00000  -0.01086  -0.01103   2.10220
    X3        1.42692  -0.02124   0.00000   0.00828   0.00689   1.43381
    Y3        4.57440  -0.02034   0.00000  -0.03207  -0.02999   4.54441
    Z3        0.56531  -0.03976   0.00000   0.00538   0.00395   0.56926
    X4        2.06744  -0.04644   0.00000  -0.01922  -0.01895   2.04848
    Y4       -0.17447  -0.01256   0.00000   0.03173   0.03443  -0.14004
    Z4        2.26500   0.00046   0.00000  -0.01567  -0.01600   2.24901
    X5       -2.06721  -0.06428   0.00000  -0.00792  -0.00842  -2.07563
    Y5        2.45327  -0.03811   0.00000  -0.00086  -0.00059   2.45268
    Z5       -1.69466   0.03948   0.00000   0.00624   0.00512  -1.68954
    X6        0.09573   0.06559   0.00000   0.01358   0.01258   0.10830
    Y6        3.82763   0.04203   0.00000  -0.01588  -0.01480   3.81283
    Z6       -1.64876   0.03956   0.00000   0.01030   0.00897  -1.63979
    X7        3.38505   0.00101   0.00000   0.00734   0.00574   3.39078
    Y7        5.17827   0.00617   0.00000  -0.02200  -0.01922   5.15905
    Z7        0.40276  -0.00007   0.00000   0.01102   0.00955   0.41231
    X8        0.47064  -0.00012   0.00000   0.00608   0.00450   0.47514
    Y8        4.85062  -0.00581   0.00000  -0.02381  -0.02167   4.82895
    Z8        2.36078   0.00478   0.00000   0.00565   0.00411   2.36488
    X9        0.98454   0.00476   0.00000   0.01626   0.01517   0.99971
    Y9        4.29329  -0.00531   0.00000  -0.02813  -0.02713   4.26616
    Z9       -3.45018  -0.00195   0.00000   0.00740   0.00601  -3.44417
   X10       -2.80941  -0.00004   0.00000  -0.00485  -0.00506  -2.81447
   Y10        1.89838  -0.00453   0.00000   0.00427   0.00384   1.90222
   Z10       -3.53745  -0.00122   0.00000   0.00257   0.00154  -3.53591
   X11       -3.17510   0.00701   0.00000   0.00830   0.00758  -3.16752
   Y11        2.52207  -0.00415   0.00000  -0.00966  -0.00889   2.51319
   Z11        2.26173   0.00356   0.00000   0.00328   0.00208   2.26381
   X12       -1.55950  -0.00740   0.00000  -0.00667  -0.00590  -1.56540
   Y12       -1.71673   0.00274   0.00000   0.01293   0.01462  -1.70211
   Z12        3.69770   0.00167   0.00000  -0.00982  -0.00997   3.68773
   X13        2.90377   0.00253   0.00000  -0.01325  -0.01341   2.89036
   Y13        0.77992   0.00521   0.00000   0.01891   0.02229   0.80221
   Z13        3.85823   0.00407   0.00000  -0.00774  -0.00824   3.84999
   X14        2.17564   0.00212   0.00000   0.00444   0.00589   2.18153
   Y14       -2.91676  -0.00917   0.00000   0.00091   0.00289  -2.91386
   Z14       -1.06064  -0.02555   0.00000   0.00467   0.00499  -1.05565
   X15       -0.14581  -0.03181   0.00000   0.00010   0.00160  -0.14421
   Y15       -3.18707  -0.01844   0.00000   0.00653   0.00790  -3.17916
   Z15        0.03012   0.00424   0.00000   0.00082   0.00108   0.03120
   X16        3.57872   0.03395   0.00000  -0.00520  -0.00448   3.57425
   Y16       -1.12018   0.02071   0.00000   0.01676   0.01954  -1.10064
   Z16        0.14951   0.00954   0.00000  -0.00163  -0.00166   0.14785
   X17       -1.72308   0.03038   0.00000   0.01909   0.02120  -1.70189
   Y17       -4.74007   0.01954   0.00000  -0.00660  -0.00593  -4.74600
   Z17       -0.55712  -0.00161   0.00000  -0.00151  -0.00096  -0.55809
   X18        5.72366  -0.03016   0.00000  -0.00419  -0.00365   5.72001
   Y18       -0.52219  -0.01751   0.00000  -0.00453  -0.00108  -0.52327
   Z18       -0.38068  -0.00387   0.00000  -0.00583  -0.00589  -0.38657
   X19       -5.78316   0.00803   0.00000  -0.00207  -0.00178  -5.78494
   Y19        0.06677  -0.00377   0.00000  -0.00102  -0.00171   0.06506
   Z19        0.12650   0.00493   0.00000   0.00399   0.00323   0.12972
   X20       -6.09477  -0.00263   0.00000   0.00494   0.00566  -6.08911
   Y20       -1.26021  -0.00258   0.00000  -0.01631  -0.01676  -1.27697
   Z20        1.68330   0.00174   0.00000  -0.00706  -0.00753   1.67577
   X21       -7.36868  -0.00356   0.00000  -0.00293  -0.00313  -7.37181
   Y21        1.39850   0.00259   0.00000   0.00060  -0.00068   1.39783
   Z21        0.09493   0.00057   0.00000   0.02565   0.02451   0.11944
   X22       -5.78721   0.00034   0.00000  -0.01210  -0.01133  -5.79853
   Y22       -1.01075  -0.00110   0.00000   0.01608   0.01499  -0.99576
   Z22       -1.64076  -0.00158   0.00000  -0.00716  -0.00768  -1.64844
         Item               Value     Threshold  Converged?
 Maximum Force            0.065586     0.000450     NO 
 RMS     Force            0.021943     0.000300     NO 
 Maximum Displacement     0.034426     0.001800     NO 
 RMS     Displacement     0.012239     0.001200     NO 
 Predicted change in Energy=-3.471794D-03
 GradGradGradGradGradGradGradGradGradGradGradGradGradGradGradGradGradGrad

                          Input orientation:                          
 ---------------------------------------------------------------------
 Center     Atomic      Atomic             Coordinates (Angstroms)
 Number     Number       Type             X           Y           Z
 ---------------------------------------------------------------------
      1          6           0       -1.775029    0.784162    0.256585
      2          6           0       -0.173430   -0.701569    1.112435
      3          6           0        0.758739    2.404798    0.301238
      4          6           0        1.084011   -0.074108    1.190123
      5          6           0       -1.098376    1.297903   -0.894068
      6          6           0        0.057311    2.017663   -0.867740
      7          1           0        1.794326    2.730050    0.218186
      8          1           0        0.251431    2.555370    1.251443
      9          1           0        0.529023    2.257557   -1.822574
     10          1           0       -1.489355    1.006612   -1.871122
     11          1           0       -1.676181    1.329920    1.197957
     12          1           0       -0.828373   -0.900720    1.951465
     13          1           0        1.529512    0.424510    2.037328
     14          8           0        1.154416   -1.541950   -0.558628
     15          6           0       -0.076312   -1.682340    0.016511
     16          6           0        1.891409   -0.582434    0.078236
     17          8           0       -0.900600   -2.511475   -0.295326
     18          8           0        3.026899   -0.276901   -0.204565
     19          6           0       -3.061259    0.034431    0.068647
     20          1           0       -3.222218   -0.675741    0.886781
     21          1           0       -3.900992    0.739698    0.063204
     22          1           0       -3.068451   -0.526936   -0.872315
 ---------------------------------------------------------------------
                    Distance matrix (angstroms):
                    1          2          3          4          5
     1  C    0.000000
     2  C    2.346272   0.000000
     3  C    3.008062   3.343127   0.000000
     4  C    3.127656   1.407445   2.653468   0.000000
     5  C    1.430311   2.979844   2.470394   3.314978   0.000000
     6  C    2.478528   3.371730   1.417175   3.108765   1.361749
     7  H    4.065495   4.055584   1.088636   3.051641   3.414071
     8  H    2.869401   3.287474   1.087622   2.758823   2.829562
     9  H    3.435470   4.226600   2.141267   3.849807   2.105110
    10  H    2.158294   3.681189   3.424616   4.142631   1.091948
    11  H    1.092614   2.528344   2.808612   3.096775   2.170588
    12  H    2.570526   1.082858   4.021023   2.218140   3.606092
    13  H    3.770993   2.241315   2.744020   1.079281   4.032579
    14  O    3.828448   2.293877   4.058664   2.284217   3.640379
    15  C    3.004481   1.473905   4.181278   2.304371   3.279576
    16  C    3.916907   2.312428   3.202535   1.465120   3.663313
    17  O    3.454049   2.405479   5.222934   3.476492   3.861213
    18  O    4.939335   3.486680   3.548507   2.400227   4.469152
    19  C    1.500601   3.157648   4.501680   4.295667   2.525092
    20  H    2.150074   3.057236   5.067603   4.358622   3.402557
    21  H    2.135203   4.131931   4.954020   5.175180   3.013739
    22  H    2.160169   3.514381   4.961821   4.658503   2.685461
                    6          7          8          9         10
     6  C    0.000000
     7  H    2.168859   0.000000
     8  H    2.194937   1.865116   0.000000
     9  H    1.091682   2.447231   3.100860   0.000000
    10  H    2.102659   4.256525   3.896075   2.375094   0.000000
    11  H    2.783000   3.868427   2.284792   3.853186   3.091712
    12  H    4.153229   4.802635   3.687895   5.104959   4.322844
    13  H    3.625595   2.948716   2.606084   4.388609   4.972764
    14  O    3.737651   4.388953   4.569439   4.052768   3.899658
    15  C    3.806545   4.796786   4.426134   4.389927   3.576355
    16  C    3.319532   3.316861   3.729847   3.678957   4.213624
    17  O    4.664584   5.916072   5.421494   5.207684   3.899577
    18  O    3.810942   3.277150   4.224327   3.909069   4.982105
    19  C    3.812546   5.555666   4.327593   4.627000   2.679313
    20  H    4.592176   6.100176   4.758077   5.478745   3.665945
    21  H    4.262396   6.035078   4.685211   5.048276   3.103040
    22  H    4.030557   5.953465   5.003257   4.647387   2.417215
                   11         12         13         14         15
    11  H    0.000000
    12  H    2.502461   0.000000
    13  H    3.435226   2.706146   0.000000
    14  O    4.398353   3.262391   3.278209   0.000000
    15  C    3.609586   2.218236   3.331845   1.365718   0.000000
    16  C    4.199830   3.317756   2.232252   1.367269   2.255112
    17  O    4.193774   2.765468   4.468414   2.287443   1.210023
    18  O    5.164097   4.461024   2.785719   2.287335   3.413803
    19  C    2.207278   3.066804   5.010293   4.544267   3.443824
    20  H    2.551419   2.629574   5.011312   4.689824   3.415748
    21  H    2.566284   3.962006   5.786785   5.581196   4.527320
    22  H    3.110042   3.623727   5.523815   4.354452   3.328343
                   16         17         18         19         20
    16  C    0.000000
    17  O    3.414097   0.000000
    18  O    1.209406   4.519602   0.000000
    19  C    4.990945   3.358952   6.102232   0.000000
    20  H    5.177995   3.187037   6.356223   1.095260   0.000000
    21  H    5.941395   4.438584   7.007200   1.096624   1.772704
    22  H    5.050429   2.995145   6.136912   1.095716   1.772062
                   21         22
    21  H    0.000000
    22  H    1.781203   0.000000
 Stoichiometry    C9H10O3
 Framework group  C1[X(C9H10O3)]
 Deg. of freedom    60
 Full point group                 C1      NOp   1
 Largest Abelian subgroup         C1      NOp   1
 Largest concise Abelian subgroup C1      NOp   1
                         Standard orientation:                         
 ---------------------------------------------------------------------
 Center     Atomic      Atomic             Coordinates (Angstroms)
 Number     Number       Type             X           Y           Z
 ---------------------------------------------------------------------
      1          6           0       -1.889278    0.567226    0.297637
      2          6           0       -0.075792   -0.708684    1.064655
      3          6           0        0.392837    2.525877    0.361448
      4          6           0        1.082827    0.086357    1.144742
      5          6           0       -1.318339    1.213366   -0.843557
      6          6           0       -0.274573    2.087286   -0.809272
      7          1           0        1.370427    2.996621    0.272872
      8          1           0       -0.108213    2.568237    1.325853
      9          1           0        0.136439    2.426385   -1.762084
     10          1           0       -1.687386    0.906233   -1.824283
     11          1           0       -1.845879    1.086278    1.258110
     12          1           0       -0.676591   -1.029005    1.906685
     13          1           0        1.473767    0.611087    2.003037
     14          8           0        1.317260   -1.291244   -0.662163
     15          6           0        0.132113   -1.624787   -0.071094
     16          6           0        1.927261   -0.261688   -0.000848
     17          8           0       -0.574965   -2.549670   -0.400925
     18          8           0        3.001834    0.211009   -0.291560
     19          6           0       -3.061843   -0.348759    0.103043
     20          1           0       -3.102571   -1.104288    0.894947
     21          1           0       -3.991985    0.230891    0.140811
     22          1           0       -3.012319   -0.870355   -0.859287
 ---------------------------------------------------------------------
 Rotational constants (GHZ):           1.1841273           0.9374892           0.6249740
 Standard basis: STO-3G (5D, 7F)
 There are    70 symmetry adapted cartesian basis functions of A   symmetry.
 There are    70 symmetry adapted basis functions of A   symmetry.
    70 basis functions,   210 primitive gaussians,    70 cartesian basis functions
    44 alpha electrons       44 beta electrons
       nuclear repulsion energy       697.1028530503 Hartrees.
 NAtoms=   22 NActive=   22 NUniq=   22 SFac= 1.00D+00 NAtFMM=   60 NAOKFM=F Big=F
 Integral buffers will be    131072 words long.
 Raffenetti 1 integral format.
 Two-electron integral symmetry is turned on.
 External calculation of energy, first and second derivatives.
 Running external command "~/scripts/MiMe -H 'am1' -EF 'wb97xd def2svp' -c 12 -m 48GB R"
         input file       "/local/jobs/1176102/Gau-3202308.EIn"
         output file      "/local/jobs/1176102/Gau-3202308.EOu"
         message file     "/local/jobs/1176102/Gau-3202308.EMs"
         fchk file        "/local/jobs/1176102/Gau-3202308.EFC"
         mat. el file     "/local/jobs/1176102/Gau-3202308.EUF"
 Read checkpoint file Gau-3202308_H.chk type G16
 Write formatted file Gau-3202308_H.fchk

deriv: 2

spelevel: wb97xd def2svp
gradlevel: wb97xd def2svp
hesslevel: am1

runspe: False
runforce: True
runfreq: True

Running Gaussian ...

Parsing files ...
SPE file: Gau-3202308_F.out
FORCE file: Gau-3202308_F.out
HESS file: Gau-3202308_H.out

 ExternalExternalExternalExternalExternalExternalExternalExternalExternalExternal
 Output from external command:
 "~/scripts/MiMe -H 'am1' -EF 'wb97xd def2svp' -c 12 -m 48GB R /local/jobs/1176102/Gau-3202308.EIn /local/jobs/1176102/Gau-3202308.EOu /local/jobs/1176102/Gau-3202308.EMs /local/jobs/1176102/Gau-3202308.EFC /local/jobs/1176102/Gau-3202308.EUF"
  
 --------------------------------------------------
 Force calculation at wb97xd def2svp
 Hessian calculation at am1
 ExternalExternalExternalExternalExternalExternalExternalExternalExternalExternal

 Recovered energy= -573.955214296     dipole=     -3.325700000000      3.194900000000      2.710900000000
 Energy=    -573.955214     NIter=   0.
 Dipole moment=      -3.325700       3.194900       2.710900
 ***** Axes restored to original set *****
 -------------------------------------------------------------------
 Center     Atomic                   Forces (Hartrees/Bohr)
 Number     Number              X              Y              Z
 -------------------------------------------------------------------
      1        6           0.008003061    0.020318902   -0.043969889
      2        6           0.038501827    0.019806637    0.009709323
      3        6          -0.019007214   -0.018404534   -0.035610668
      4        6          -0.041493835   -0.011174413    0.001403957
      5        6          -0.057634412   -0.033811116    0.035528795
      6        6           0.058434967    0.037901523    0.035533765
      7        1           0.000595279    0.005516354   -0.000045616
      8        1           0.000052698   -0.005736885    0.003869001
      9        1           0.004624281   -0.005196293   -0.001499125
     10        1           0.000010893   -0.004290260   -0.000995223
     11        1           0.006481700   -0.004103720    0.002731571
     12        1          -0.006669031    0.003127767    0.001253165
     13        1           0.001922169    0.004830679    0.003345116
     14        8           0.001468925   -0.007473015   -0.023504518
     15        6          -0.028299789   -0.017790467    0.003213880
     16        6           0.032008488    0.017318688    0.007813372
     17        8           0.027180785    0.018640882   -0.000989329
     18        8          -0.027934674   -0.015091321   -0.002922286
     19        6           0.007073706   -0.003167677    0.004236765
     20        1          -0.002217579   -0.002305594    0.001683807
     21        1          -0.003339785    0.002074787    0.000559653
     22        1           0.000237538   -0.000990926   -0.001345515
 -------------------------------------------------------------------
 Cartesian Forces:  Max     0.058434967 RMS     0.019726662

 GradGradGradGradGradGradGradGradGradGradGradGradGradGradGradGradGradGrad
 Berny optimization.
 Search for a saddle point.
 Step number   4 out of a maximum of   50
 All quantities printed in internal units (Hartrees-Bohrs-Radians)
 Swapping is turned off.
 Second derivative matrix not updated -- analytic derivatives used.
 ITU=  0  0  0  0
     Eigenvalues ---   -0.03467  -0.00822  -0.00621  -0.00237  -0.00147
     Eigenvalues ---    0.00066   0.00135   0.00245   0.00421   0.00598
     Eigenvalues ---    0.00826   0.01312   0.01497   0.01579   0.02257
     Eigenvalues ---    0.03503   0.03601   0.04269   0.04874   0.05029
     Eigenvalues ---    0.05446   0.05858   0.06500   0.07381   0.07621
     Eigenvalues ---    0.08804   0.09871   0.10738   0.12525   0.13269
     Eigenvalues ---    0.15863   0.17023   0.17578   0.18393   0.19600
     Eigenvalues ---    0.20720   0.25830   0.26954   0.27619   0.29083
     Eigenvalues ---    0.36276   0.39852   0.54213   0.62045   0.63240
     Eigenvalues ---    0.75162   0.80056   0.80884   0.86000   0.89963
     Eigenvalues ---    0.94271   0.99464   1.03902   1.06022   1.11951
     Eigenvalues ---    1.15591   1.28814   1.47006   2.34874   2.53955
[...]
 IR Inten    --      0.0000                 0.0000                 0.0000
  Atom  AN      X      Y      Z        X      Y      Z        X      Y      Z
     1   6    -0.11  -0.00   0.01    -0.20  -0.12   0.22    -0.30  -0.16   0.28
     2   6    -0.34  -0.27   0.00    -0.13  -0.09  -0.01     0.26   0.14   0.03
     3   6     0.06   0.11   0.07    -0.18  -0.10  -0.32     0.05   0.05   0.04
     4   6     0.41   0.13   0.02     0.14   0.09  -0.01    -0.25  -0.15   0.02
     5   6     0.19   0.11  -0.02     0.05   0.03  -0.24     0.42   0.24  -0.28
     6   6    -0.23  -0.12  -0.12     0.31   0.16   0.37    -0.25  -0.13  -0.06
     7   1     0.12  -0.08   0.11    -0.20  -0.02   0.05     0.04   0.01   0.11
     8   1    -0.03  -0.25   0.09     0.19   0.13  -0.13    -0.03  -0.10   0.03
     9   1     0.08  -0.02   0.07    -0.28  -0.11  -0.05    -0.12  -0.09  -0.01
    10   1     0.05  -0.02   0.05    -0.28  -0.18  -0.02    -0.08  -0.10   0.00
    11   1     0.20  -0.09   0.01     0.06   0.05   0.08     0.22   0.04   0.09
    12   1    -0.24   0.20   0.18    -0.07   0.02   0.08     0.05   0.03  -0.18
    13   1    -0.05   0.36   0.17     0.03   0.01   0.11    -0.05  -0.05  -0.17
    14   8     0.00  -0.01   0.00     0.00  -0.00  -0.01    -0.00   0.01   0.01
    15   6     0.03   0.02  -0.03     0.00   0.01   0.00    -0.01  -0.00  -0.00
    16   6    -0.03  -0.01  -0.03    -0.01  -0.00  -0.00     0.01   0.00  -0.00
    17   8     0.00   0.01   0.01     0.00   0.00   0.00    -0.00  -0.01  -0.01
    18   8    -0.01   0.00   0.01    -0.00   0.00   0.00     0.01  -0.00  -0.01
    19   6     0.02   0.01   0.01     0.05   0.03  -0.02     0.05   0.03  -0.01
    20   1     0.01  -0.00   0.01     0.12   0.06   0.04     0.14   0.05   0.05
    21   1     0.03   0.04  -0.00     0.04   0.04   0.01     0.04   0.07   0.00
    22   1    -0.01   0.00  -0.00    -0.01  -0.01   0.01    -0.01  -0.02   0.02
                     49                     50                     51
                      A                      A                      A
 Frequencies --   2221.4636              2310.5527              3162.3366
 Red. masses --     13.1805                12.8881                 1.0891
 Frc consts  --     38.3232                40.5387                 6.4169
 IR Inten    --      0.0000                 0.0000                 0.0000
  Atom  AN      X      Y      Z        X      Y      Z        X      Y      Z
     1   6     0.00  -0.00  -0.00    -0.00  -0.00   0.00    -0.00   0.00  -0.00
     2   6    -0.02  -0.04  -0.04    -0.03   0.02   0.04     0.00  -0.00  -0.00
     3   6    -0.00   0.00  -0.00     0.00   0.00   0.00    -0.00  -0.00   0.00
     4   6    -0.04  -0.01   0.02    -0.01   0.04   0.04    -0.00   0.00   0.00
     5   6    -0.00  -0.00   0.00     0.01   0.00  -0.00     0.00   0.00   0.00
     6   6     0.00   0.00   0.00    -0.00  -0.00  -0.01    -0.00  -0.00  -0.00
     7   1     0.00  -0.01  -0.00    -0.00  -0.00  -0.00     0.00   0.00   0.00
     8   1     0.00  -0.01  -0.00    -0.00  -0.00  -0.00    -0.00   0.00   0.00
     9   1     0.00  -0.00   0.00    -0.00   0.00   0.00     0.00  -0.00  -0.00
    10   1     0.00   0.00  -0.00    -0.00   0.00   0.00    -0.00  -0.00  -0.00
    11   1    -0.01   0.01   0.00     0.00  -0.00  -0.00    -0.00   0.00   0.01
    12   1     0.02   0.02   0.02    -0.07  -0.03   0.04    -0.00  -0.00   0.00
    13   1     0.01   0.00  -0.04     0.07   0.03   0.03    -0.00  -0.00  -0.00
    14   8    -0.02  -0.01   0.00     0.01  -0.02  -0.04    -0.00  -0.00   0.00
    15   6     0.40   0.45   0.22    -0.37  -0.37  -0.15     0.00   0.00  -0.00
    16   6     0.50   0.08  -0.16     0.62   0.14  -0.16    -0.00  -0.00   0.00
    17   8    -0.28  -0.29  -0.13     0.21   0.22   0.10    -0.00  -0.00   0.00
    18   8    -0.34  -0.06   0.09    -0.37  -0.07   0.10     0.00  -0.00   0.00
    19   6     0.00   0.00   0.00     0.00   0.00  -0.00    -0.05   0.07  -0.02
    20   1    -0.00   0.01   0.00     0.00  -0.00  -0.00    -0.08  -0.20   0.34
    21   1    -0.01  -0.00  -0.00     0.00   0.00   0.00     0.71  -0.51   0.07
    22   1    -0.01   0.00  -0.01     0.00  -0.00   0.01    -0.02  -0.12  -0.20
                     52                     53                     54
                      A                      A                      A
 Frequencies --   3186.0115              3209.1912              3213.3889
 Red. masses --      1.0895                 1.0964                 1.0761
 Frc consts  --      6.5159                 6.6528                 6.5467
 IR Inten    --      0.0000                 0.0000                 0.0000
  Atom  AN      X      Y      Z        X      Y      Z        X      Y      Z
     1   6     0.00   0.01   0.01    -0.00  -0.00  -0.00    -0.01  -0.02  -0.05
     2   6     0.00   0.00  -0.00     0.00  -0.00  -0.00    -0.00  -0.00   0.00
     3   6    -0.00  -0.00   0.00    -0.07  -0.01   0.04     0.02   0.00  -0.01
     4   6    -0.00  -0.00  -0.00    -0.00  -0.00  -0.00     0.00   0.00   0.00
     5   6    -0.00  -0.00  -0.00     0.00   0.00   0.01     0.02   0.02   0.05
     6   6    -0.00  -0.00   0.00     0.02   0.00  -0.03     0.00   0.00  -0.00
     7   1     0.00   0.00   0.00     0.55   0.23   0.02    -0.15  -0.06  -0.01
     8   1     0.00   0.00  -0.00     0.32  -0.11  -0.54    -0.06   0.02   0.10
     9   1     0.00   0.00  -0.00    -0.23  -0.06   0.38    -0.03  -0.01   0.05
    10   1     0.02   0.02   0.05    -0.04  -0.05  -0.13    -0.21  -0.21  -0.59
    11   1    -0.03  -0.11  -0.21     0.01   0.03   0.06     0.10   0.33   0.59
    12   1    -0.00  -0.00   0.00    -0.00  -0.00   0.00     0.01   0.00  -0.02
    13   1     0.00   0.00   0.00     0.01   0.01   0.01    -0.01  -0.00  -0.01
    14   8    -0.00  -0.00  -0.00     0.00   0.00  -0.00     0.00   0.00   0.00
    15   6     0.00   0.00   0.00     0.00   0.00   0.00    -0.00  -0.00  -0.00
    16   6    -0.00   0.00   0.00    -0.00  -0.00  -0.00     0.00  -0.00  -0.00
    17   8    -0.00  -0.00  -0.00    -0.00  -0.00  -0.00     0.00   0.00   0.00
    18   8     0.00  -0.00  -0.00     0.00   0.00  -0.00    -0.00  -0.00   0.00
    19   6     0.01  -0.01  -0.08     0.00  -0.00  -0.00     0.00  -0.00  -0.02
    20   1    -0.07  -0.37   0.50    -0.00  -0.01   0.02    -0.02  -0.10   0.14
    21   1    -0.07   0.05  -0.05    -0.00   0.00  -0.00    -0.04   0.03  -0.01
    22   1    -0.01   0.47   0.56     0.00   0.01   0.01     0.00   0.08   0.09
                     55                     56                     57
                      A                      A                      A
 Frequencies --   3231.2555              3238.3422              3247.0018
 Red. masses --      1.0807                 1.0833                 1.0536
 Frc consts  --      6.6483                 6.6937                 6.5450
 IR Inten    --      0.0000                 0.0000                 0.0000
  Atom  AN      X      Y      Z        X      Y      Z        X      Y      Z
     1   6    -0.01  -0.02  -0.04    -0.00  -0.01  -0.02    -0.00  -0.00  -0.00
     2   6    -0.00  -0.00   0.00     0.00  -0.00  -0.00     0.00   0.00  -0.00
     3   6    -0.02  -0.01   0.01     0.03   0.01   0.00    -0.01  -0.03  -0.05
     4   6     0.00   0.00   0.00    -0.00  -0.00  -0.00     0.01   0.00   0.01
     5   6    -0.01  -0.01  -0.04    -0.01  -0.01  -0.04     0.00  -0.00  -0.00
     6   6    -0.02  -0.01   0.03     0.03   0.01  -0.05     0.01   0.00  -0.02
     7   1     0.27   0.11   0.01    -0.41  -0.16  -0.01     0.53   0.20  -0.02
     8   1     0.04  -0.02  -0.08     0.02   0.01   0.00    -0.40   0.12   0.62
     9   1     0.22   0.06  -0.38    -0.36  -0.09   0.60    -0.16  -0.04   0.26
    10   1     0.17   0.17   0.50     0.15   0.15   0.42     0.02   0.02   0.04
    11   1     0.09   0.30   0.53     0.04   0.13   0.23     0.00   0.01   0.02
    12   1     0.02   0.00  -0.02    -0.00  -0.00   0.00    -0.01  -0.00   0.01
    13   1    -0.00  -0.00   0.00     0.01   0.01   0.02    -0.06  -0.05  -0.10
    14   8    -0.00  -0.00  -0.00     0.00   0.00  -0.00    -0.00  -0.00  -0.00
    15   6    -0.00  -0.00  -0.00     0.00   0.00   0.00    -0.00  -0.00  -0.00
    16   6     0.00   0.00   0.00    -0.00  -0.00   0.00     0.00   0.00   0.00
    17   8     0.00   0.00   0.00    -0.00  -0.00  -0.00     0.00   0.00   0.00
    18   8    -0.00  -0.00   0.00     0.00   0.00  -0.00    -0.00  -0.00   0.00
    19   6     0.00  -0.00  -0.01     0.00   0.00  -0.00     0.00  -0.00  -0.00
    20   1    -0.01  -0.07   0.10    -0.01  -0.03   0.05    -0.00  -0.00   0.00
    21   1    -0.04   0.03  -0.01    -0.02   0.01  -0.00    -0.00   0.00  -0.00
    22   1     0.00   0.03   0.03     0.00   0.01   0.00     0.00   0.00   0.00
                     58                     59                     60
                      A                      A                      A
 Frequencies --   3259.6233              3270.4598              3280.3725
 Red. masses --      1.0813                 1.0882                 1.0304
 Frc consts  --      6.7690                 6.8576                 6.5328
 IR Inten    --      0.0000                 0.0000                 0.0000
  Atom  AN      X      Y      Z        X      Y      Z        X      Y      Z
     1   6     0.00  -0.00   0.00    -0.00  -0.00  -0.00     0.01   0.01   0.01
     2   6    -0.02  -0.00   0.02     0.05   0.01  -0.06    -0.00  -0.00   0.00
     3   6    -0.00  -0.00  -0.01    -0.00  -0.00  -0.00    -0.00  -0.00  -0.00
     4   6    -0.03  -0.03  -0.06    -0.02  -0.01  -0.03    -0.00  -0.00  -0.00
     5   6     0.00   0.00   0.00     0.00   0.00  -0.00    -0.00   0.00   0.00
     6   6     0.00   0.00  -0.00    -0.00  -0.00   0.00    -0.00   0.00   0.00
     7   1     0.07   0.03  -0.00     0.03   0.01  -0.00     0.00   0.00  -0.00
     8   1    -0.06   0.02   0.09    -0.02   0.01   0.03    -0.00   0.00   0.00
     9   1    -0.01  -0.00   0.02     0.01   0.00  -0.01     0.00   0.00  -0.00
    10   1    -0.00  -0.00  -0.01    -0.00  -0.00  -0.00    -0.01  -0.01  -0.02
    11   1    -0.00  -0.00  -0.01     0.00   0.02   0.03    -0.01  -0.04  -0.08
    12   1     0.25   0.06  -0.30    -0.57  -0.13   0.70     0.01   0.00  -0.01
    13   1     0.41   0.36   0.72     0.18   0.16   0.31     0.00   0.00   0.00
    14   8     0.00   0.00   0.00    -0.00   0.00   0.00     0.00   0.00   0.00
    15   6     0.00   0.00   0.00     0.00   0.00  -0.00    -0.00  -0.00  -0.00
    16   6     0.00  -0.00  -0.00    -0.00  -0.00  -0.00     0.00  -0.00  -0.00
    17   8    -0.00  -0.00  -0.00    -0.00  -0.00  -0.00     0.00   0.00   0.00
    18   8    -0.00  -0.00  -0.00     0.00   0.00  -0.00    -0.00  -0.00   0.00
    19   6    -0.00  -0.00   0.00     0.00   0.00  -0.00     0.03   0.03   0.00
    20   1     0.00   0.00  -0.01    -0.00  -0.00   0.01    -0.06  -0.33   0.53
    21   1     0.00  -0.00   0.00    -0.01   0.00  -0.00    -0.36   0.29  -0.04
    22   1    -0.00   0.00   0.00     0.00  -0.00  -0.01     0.03  -0.38  -0.49

 -------------------
 - Thermochemistry -
 -------------------
 Temperature   298.150 Kelvin.  Pressure   1.00000 Atm.
 Atom     1 has atomic number  6 and mass  12.00000
 Atom     2 has atomic number  6 and mass  12.00000
 Atom     3 has atomic number  6 and mass  12.00000
 Atom     4 has atomic number  6 and mass  12.00000
 Atom     5 has atomic number  6 and mass  12.00000
 Atom     6 has atomic number  6 and mass  12.00000
 Atom     7 has atomic number  1 and mass   1.00783
 Atom     8 has atomic number  1 and mass   1.00783
 Atom     9 has atomic number  1 and mass   1.00783
 Atom    10 has atomic number  1 and mass   1.00783
 Atom    11 has atomic number  1 and mass   1.00783
 Atom    12 has atomic number  1 and mass   1.00783
 Atom    13 has atomic number  1 and mass   1.00783
 Atom    14 has atomic number  8 and mass  15.99491
 Atom    15 has atomic number  6 and mass  12.00000
 Atom    16 has atomic number  6 and mass  12.00000
 Atom    17 has atomic number  8 and mass  15.99491
 Atom    18 has atomic number  8 and mass  15.99491
 Atom    19 has atomic number  6 and mass  12.00000
 Atom    20 has atomic number  1 and mass   1.00783
 Atom    21 has atomic number  1 and mass   1.00783
 Atom    22 has atomic number  1 and mass   1.00783
 Molecular mass:   166.06299 amu.
 Principal axes and moments of inertia in atomic units:
                           1         2         3
     Eigenvalues --  1335.303271898.587312642.28548
           X            0.99939   0.03478   0.00167
           Y           -0.03478   0.99939  -0.00091
           Z           -0.00170   0.00086   1.00000
 This molecule is an asymmetric top.
 Rotational symmetry number  1.
 Warning -- assumption of classical behavior for rotation
           may cause significant error
 Rotational temperatures (Kelvin)      0.06486     0.04562     0.03278
 Rotational constants (GHZ):           1.35156     0.95057     0.68302
    6 imaginary frequencies ignored.
 Zero-point vibrational energy     457476.9 (Joules/Mol)
                                  109.33960 (Kcal/Mol)
 Warning -- explicit consideration of  10 degrees of freedom as
           vibrations may cause significant error
 Vibrational temperatures:    210.23   268.46   378.71   387.61   451.69
          (Kelvin)            462.12   583.76   604.37   696.22   825.76
                              898.80   964.50   999.64  1014.74  1127.41
                             1168.60  1219.46  1308.58  1366.36  1374.62
                             1385.78  1462.25  1472.56  1483.28  1557.80
                             1570.20  1660.71  1669.35  1787.48  1813.64
                             1860.24  1874.68  1931.05  1936.03  1945.31
                             1972.77  2003.17  2082.86  2108.62  2247.06
                             2434.32  2482.69  3196.19  3324.37  4549.90
                             4583.96  4617.31  4623.35  4649.06  4659.25
                             4671.71  4689.87  4705.46  4719.72
 
 Zero-point correction=                           0.174244 (Hartree/Particle)
 Thermal correction to Energy=                    0.182250
 Thermal correction to Enthalpy=                  0.183194
 Thermal correction to Gibbs Free Energy=         0.141098
 Sum of electronic and zero-point Energies=           -573.799714
 Sum of electronic and thermal Energies=              -573.791707
 Sum of electronic and thermal Enthalpies=            -573.790763
 Sum of electronic and thermal Free Energies=         -573.832859
 
                     E (Thermal)             CV                S
                      KCal/Mol        Cal/Mol-Kelvin    Cal/Mol-Kelvin
 Total                  114.364             32.589             88.599
 Electronic               0.000              0.000              0.000
 Translational            0.889              2.981             41.230
 Rotational               0.889              2.981             30.283
 Vibrational            112.586             26.627             17.085
 Vibration     1          0.617              1.907              2.722
 Vibration     2          0.632              1.858              2.261
 Vibration     3          0.670              1.740              1.640
 Vibration     4          0.674              1.729              1.600
 Vibration     5          0.702              1.647              1.341
 Vibration     6          0.707              1.633              1.304
 Vibration     7          0.771              1.458              0.942
 Vibration     8          0.783              1.427              0.892
 Vibration     9          0.840              1.286              0.700
 Vibration    10          0.930              1.088              0.497
                       Q            Log10(Q)             Ln(Q)
 Total Bot       0.125682D-64        -64.900726       -149.439445
 Total V=0       0.176101D+16         15.245761         35.104662
 Vib (Bot)       0.161276D-78        -78.792430       -181.426275
 Vib (Bot)    1  0.138924D+01          0.142778          0.328758
 Vib (Bot)    2  0.107393D+01          0.030974          0.071320
 Vib (Bot)    3  0.736751D+00         -0.132680         -0.305506
 Vib (Bot)    4  0.717590D+00         -0.144124         -0.331857
 Vib (Bot)    5  0.600938D+00         -0.221171         -0.509264
 Vib (Bot)    6  0.584848D+00         -0.232957         -0.536404
 Vib (Bot)    7  0.437438D+00         -0.359084         -0.826821
 Vib (Bot)    8  0.417988D+00         -0.378836         -0.872302
 Vib (Bot)    9  0.344466D+00         -0.462854         -1.065761
 Vib (Bot)   10  0.267119D+00         -0.573296         -1.320062
 Vib (V=0)       0.225973D+02          1.354057          3.117832
 Vib (V=0)    1  0.197648D+01          0.295892          0.681318
 Vib (V=0)    2  0.168462D+01          0.226501          0.521538
 Vib (V=0)    3  0.139039D+01          0.143138          0.329587
 Vib (V=0)    4  0.137461D+01          0.138178          0.318167
 Vib (V=0)    5  0.128175D+01          0.107802          0.248223
 Vib (V=0)    6  0.126945D+01          0.103614          0.238580
 Vib (V=0)    7  0.116434D+01          0.066081          0.152157
 Vib (V=0)    8  0.115170D+01          0.061340          0.141240
 Vib (V=0)    9  0.110717D+01          0.044215          0.101808
 Vib (V=0)   10  0.106688D+01          0.028115          0.064738
 Electronic      0.100000D+01          0.000000          0.000000
 Translational   0.841130D+08          7.924863         18.247672
 Rotational      0.926490D+06          5.966841         13.739158
 ***** Axes restored to original set *****
 -------------------------------------------------------------------
 Center     Atomic                   Forces (Hartrees/Bohr)
 Number     Number              X              Y              Z
 -------------------------------------------------------------------
      1        6          -0.000411444    0.000333115   -0.000077609
      2        6           0.000282697   -0.000683815    0.000130077
      3        6           0.000033385   -0.000457328    0.000266792
      4        6          -0.000123277    0.000393396   -0.000230041
      5        6           0.000134504   -0.000194245    0.000039543
      6        6           0.000214906   -0.000183139    0.000015658
      7        1           0.000068525   -0.000357500    0.000023359
      8        1           0.000072752   -0.000091990   -0.000093370
      9        1           0.000228750   -0.000502703    0.000044178
     10        1           0.000163863   -0.000297779    0.000057051
     11        1           0.000044154    0.000009960   -0.000034873
     12        1          -0.000124970   -0.000046896    0.000278991
     13        1           0.000037759   -0.000052153    0.000153018
     14        8          -0.000201861    0.000734212    0.000348276
     15        6          -0.003306902   -0.001381826   -0.002346117
     16        6           0.001314680    0.000646746   -0.001063127
     17        8           0.003587876    0.002242459    0.001798784
     18        8          -0.002125847   -0.000205179    0.000595020
     19        6          -0.000099696   -0.000176462   -0.000062812
     20        1          -0.000000423    0.000160434   -0.000293343
     21        1           0.000307794   -0.000186532    0.000095705
     22        1          -0.000097224    0.000297221    0.000354837
 -------------------------------------------------------------------
 Cartesian Forces:  Max     0.003587876 RMS     0.000879903


 TOM, TOM, THE BURGLAR'S SON
 STOLE A MACHINE AND AWAY HE RUN
 THE JOB WAS NEAT, BUT TOM GOT BEAT
 BY THE TIME HE GOT HOME IT WAS OBSOLETE.
 Error termination request processed by link 9999.
 Error termination via Lnk1e in /apps/gaussian/g16/C.01/g16/l9999.exe at Mon May 20 13:42:32 2024.
 Job cpu time:       0 days  6 hours 12 minutes 19.8 seconds.
 Elapsed time:       0 days  0 hours 57 minutes 50.8 seconds.
 File lengths (MBytes):  RWF=      6 Int=      0 D2E=      0 Chk=      1 Scr=      1
