Unloading slurm/anatra/current
  ERROR: No such file or directory on
    '/cm/local/modulefiles/slurm/anatra/current'
environment: line 0: unalias: gv: not found
environment: line 0: unalias: sl: not found
 Entering Gaussian System, Link 0=g16
 Initial command:
 /apps/gaussian/g16/C.01/g16/l1.exe "/local/jobs/1176105/Gau-587156.inp" -scrdir="/local/jobs/1176105/"
 Entering Link 1 = /apps/gaussian/g16/C.01/g16/l1.exe PID=    587161.
  
 Copyright (c) 1988-2019, Gaussian, Inc.  All Rights Reserved.
  
 This is part of the Gaussian(R) 16 program.  It is based on
 the Gaussian(R) 09 system (copyright 2009, Gaussian, Inc.),
 the Gaussian(R) 03 system (copyright 2003, Gaussian, Inc.),
 the Gaussian(R) 98 system (copyright 1998, Gaussian, Inc.),
 the Gaussian(R) 94 system (copyright 1995, Gaussian, Inc.),
 the Gaussian 92(TM) system (copyright 1992, Gaussian, Inc.),
 the Gaussian 90(TM) system (copyright 1990, Gaussian, Inc.),
 the Gaussian 88(TM) system (copyright 1988, Gaussian, Inc.),
 the Gaussian 86(TM) system (copyright 1986, Carnegie Mellon
 University), and the Gaussian 82(TM) system (copyright 1983,
 Carnegie Mellon University). Gaussian is a federally registered
 trademark of Gaussian, Inc.
  
 This software contains proprietary and confidential information,
 including trade secrets, belonging to Gaussian, Inc.
  
 This software is provided under written license and may be
 used, copied, transmitted, or stored only in accord with that
 written license.
  
 The following legend is applicable only to US Government
 contracts under FAR:
  
                    RESTRICTED RIGHTS LEGEND
  
 Use, reproduction and disclosure by the US Government is
 subject to restrictions as set forth in subparagraphs (a)
 and (c) of the Commercial Computer Software - Restricted
 Rights clause in FAR 52.227-19.
  
 Gaussian, Inc.
 340 Quinnipiac St., Bldg. 40, Wallingford CT 06492
  
  
 ---------------------------------------------------------------
 Warning -- This program may not be used in any manner that
 competes with the business of Gaussian, Inc. or will provide
 assistance to any competitor of Gaussian, Inc.  The licensee
 of this program is prohibited from giving any competitor of
 Gaussian, Inc. access to this program.  By using this program,
 the user acknowledges that Gaussian, Inc. is engaged in the
 business of creating and licensing software in the field of
 computational chemistry and represents and warrants to the
 licensee that it is not a competitor of Gaussian, Inc. and that
 it will not use this program in any manner prohibited above.
 ---------------------------------------------------------------
  

 Cite this work as:
 Gaussian 16, Revision C.01,
 M. J. Frisch, G. W. Trucks, H. B. Schlegel, G. E. Scuseria, 
 M. A. Robb, J. R. Cheeseman, G. Scalmani, V. Barone, 
 G. A. Petersson, H. Nakatsuji, X. Li, M. Caricato, A. V. Marenich, 
 J. Bloino, B. G. Janesko, R. Gomperts, B. Mennucci, H. P. Hratchian, 
 J. V. Ortiz, A. F. Izmaylov, J. L. Sonnenberg, D. Williams-Young, 
 F. Ding, F. Lipparini, F. Egidi, J. Goings, B. Peng, A. Petrone, 
 T. Henderson, D. Ranasinghe, V. G. Zakrzewski, J. Gao, N. Rega, 
 G. Zheng, W. Liang, M. Hada, M. Ehara, K. Toyota, R. Fukuda, 
 J. Hasegawa, M. Ishida, T. Nakajima, Y. Honda, O. Kitao, H. Nakai, 
 T. Vreven, K. Throssell, J. A. Montgomery, Jr., J. E. Peralta, 
 F. Ogliaro, M. J. Bearpark, J. J. Heyd, E. N. Brothers, K. N. Kudin, 
 V. N. Staroverov, T. A. Keith, R. Kobayashi, J. Normand, 
 K. Raghavachari, A. P. Rendell, J. C. Burant, S. S. Iyengar, 
 J. Tomasi, M. Cossi, J. M. Millam, M. Klene, C. Adamo, R. Cammi, 
 J. W. Ochterski, R. L. Martin, K. Morokuma, O. Farkas, 
 J. B. Foresman, and D. J. Fox, Gaussian, Inc., Wallingford CT, 2019.
 
 ******************************************
 Gaussian 16:  ES64L-G16RevC.01  3-Jul-2019
                20-May-2024 
 ******************************************
 %nprocshared=12
 Will use up to   12 processors via shared memory.
 %mem=48GB
 ----------------------------------------------------------------------
 # external="~/scripts/MiMe -H 'am1' -EF 'wb97xd def2svp' -c 12 -m 48GB
 " opt=(calcall,ts,noeigen,maxcycles=50,maxstep=10,nomicro,cartesian)
 ----------------------------------------------------------------------
 1/5=1,6=50,8=10,10=4,11=1,18=10,26=1,38=1/1,3;
 2/12=2,17=6,18=5,29=2,40=1/2;
 3/11=9,25=1,30=1,41=9900000,43=2,71=2,140=1/1;
 4/20=17,22=2,24=3,113=1,114=1/2;
 6/7=2,8=2,9=2,10=2,18=1/1;
 7/7=1,25=1,44=-1/16;
 1/5=1,6=50,8=10,10=4,11=1,18=10,26=1/3(3);
 2/29=1/2;
 7/7=1,8=1,9=1,25=1,44=-1/16;
 99/12=1/99;
 2/29=1/2;
 3/11=9,25=1,30=1,41=9900000,43=2,71=2,140=1/1;
 4/16=2,20=17,22=2,24=3,113=1,114=1/2;
 7/7=1,25=1,44=-1/16;
 1/5=1,6=50,8=10,10=4,11=1,18=10,26=1/3(-4);
 2/29=1/2;
 6/7=2,8=2,9=2,10=2,18=1/1;
 7/7=1,8=1,9=1,25=1,44=-1/16;
 99/12=1/99;
 ----------
 TS-249.out
 ----------
 Symbolic Z-matrix:
 Charge =  0 Multiplicity = 1
 C                    -0.98025   0.69195  -0.20894 
 C                    -1.92168  -0.31      0.32291 
 O                    -3.01226  -0.50219  -0.2006 
 C                     0.22829   0.86754   0.36619 
 C                     2.98171  -0.36432   0.09422 
 H                     3.0227   -0.73989   1.12039 
 H                     3.50996  -1.0641   -0.55969 
 H                     3.48667   0.6048    0.05611 
 N                     1.58522  -0.22082  -0.33301 
 H                     1.18839  -1.16551  -0.35932 
 H                     1.60848   0.04987  -1.32227 
 H                     0.80126   1.75285   0.06792 
 H                     0.42254   0.43147   1.35258 
 H                    -1.29964   1.25724  -1.0751 
 H                    -1.5872   -0.87442   1.20893 
 

 GradGradGradGradGradGradGradGradGradGradGradGradGradGradGradGradGradGrad
 Berny optimization.
 Initialization pass.
 No Z-matrix variables, so optimization will use Cartesian coordinates.
 Trust Radius=1.00D-01 FncErr=1.00D-07 GrdErr=1.00D-07 EigMax=2.50D+02 EigMin=1.00D-04
 Number of steps in this run=     50 maximum allowed number of steps=    100.
 Search for a saddle point of order  1.
 GradGradGradGradGradGradGradGradGradGradGradGradGradGradGradGradGradGrad

 ---------------------------------------------------------------------------------------------------
                            Z-MATRIX (ANGSTROMS AND DEGREES)
   CD    Cent   Atom    N1       Length/X        N2       Alpha/Y        N3        Beta/Z          J
 ---------------------------------------------------------------------------------------------------
      1      1  C        0  -0.980250          0.691950         -0.208940
      2      2  C        0  -1.921680         -0.310000          0.322910
      3      3  O        0  -3.012260         -0.502190         -0.200600
      4      4  C        0   0.228290          0.867540          0.366190
      5      5  C        0   2.981710         -0.364320          0.094220
      6      6  H        0   3.022700         -0.739890          1.120390
      7      7  H        0   3.509960         -1.064100         -0.559690
      8      8  H        0   3.486670          0.604800          0.056110
      9      9  N        0   1.585220         -0.220820         -0.333010
     10     10  H        0   1.188390         -1.165510         -0.359320
     11     11  H        0   1.608480          0.049870         -1.322270
     12     12  H        0   0.801260          1.752850          0.067920
     13     13  H        0   0.422540          0.431470          1.352580
     14     14  H        0  -1.299640          1.257240         -1.075100
     15     15  H        0  -1.587200         -0.874420          1.208930
 ---------------------------------------------------------------------------------------------------
                         Z-Matrix orientation:                         
 ---------------------------------------------------------------------
 Center     Atomic      Atomic             Coordinates (Angstroms)
 Number     Number       Type             X           Y           Z
 ---------------------------------------------------------------------
      1          6           0       -0.980250    0.691950   -0.208940
      2          6           0       -1.921680   -0.310000    0.322910
      3          8           0       -3.012260   -0.502190   -0.200600
      4          6           0        0.228290    0.867540    0.366190
      5          6           0        2.981710   -0.364320    0.094220
      6          1           0        3.022700   -0.739890    1.120390
      7          1           0        3.509960   -1.064100   -0.559690
      8          1           0        3.486670    0.604800    0.056110
      9          7           0        1.585220   -0.220820   -0.333010
     10          1           0        1.188390   -1.165510   -0.359320
     11          1           0        1.608480    0.049870   -1.322270
     12          1           0        0.801260    1.752850    0.067920
     13          1           0        0.422540    0.431470    1.352580
     14          1           0       -1.299640    1.257240   -1.075100
     15          1           0       -1.587200   -0.874420    1.208930
 ---------------------------------------------------------------------
                    Distance matrix (angstroms):
                    1          2          3          4          5
     1  C    0.000000
     2  C    1.474130   0.000000
     3  O    2.356927   1.224894   0.000000
     4  C    1.349880   2.451702   3.563506   0.000000
     5  C    4.111537   4.909021   6.002800   3.028658   0.000000
     6  H    4.454312   5.026696   6.182415   3.310797   1.093507
     7  H    4.834121   5.554310   6.556222   3.918909   1.093773
     8  H    4.475625   5.491656   6.597531   3.283629   1.093449
     9  N    2.725835   3.568828   4.607985   1.874745   1.467413
    10  H    2.859331   3.296949   4.255660   2.362509   2.015837
    11  H    2.890206   3.911285   4.786873   2.329035   2.015876
    12  H    2.091874   3.425605   4.438496   1.095917   3.039319
    13  H    2.115187   2.665589   3.883547   1.095835   2.960760
    14  H    1.082495   2.190344   2.606417   2.136294   4.725116
    15  H    2.198240   1.102487   2.038658   2.653420   4.730509
                    6          7          8          9         10
     6  H    0.000000
     7  H    1.779102   0.000000
     8  H    1.776556   1.779039   0.000000
     9  N    2.109065   2.113558   2.109164   0.000000
    10  H    2.394867   2.332406   2.930643   1.024990   0.000000
    11  H    2.930926   2.331970   2.394885   1.025890   1.606517
    12  H    3.500892   3.958050   2.920545   2.161183   2.974765
    13  H    2.861263   3.927552   3.331632   2.149074   2.463224
    14  H    5.243217   5.365307   4.961258   3.325323   3.545751
    15  H    4.612712   5.398614   5.409366   3.587342   3.201256
                   11         12         13         14         15
    11  H    0.000000
    12  H    2.341874   0.000000
    13  H    2.950745   1.881442   0.000000
    14  H    3.158480   2.442520   3.088921   0.000000
    15  H    4.180150   3.729503   2.401050   3.137429   0.000000
 Stoichiometry    C4H9NO
 Framework group  C1[X(C4H9NO)]
 Deg. of freedom    39
 Full point group                 C1      NOp   1
 Largest Abelian subgroup         C1      NOp   1
 Largest concise Abelian subgroup C1      NOp   1
                         Standard orientation:                         
 ---------------------------------------------------------------------
 Center     Atomic      Atomic             Coordinates (Angstroms)
 Number     Number       Type             X           Y           Z
 ---------------------------------------------------------------------
      1          6           0       -0.980252    0.691948   -0.208939
      2          6           0       -1.921681   -0.310003    0.322911
      3          8           0       -3.012260   -0.502195   -0.200599
      4          6           0        0.228288    0.867539    0.366191
      5          6           0        2.981710   -0.364318    0.094221
      6          1           0        3.022700   -0.739888    1.120391
      7          1           0        3.509960   -1.064098   -0.559689
      8          1           0        3.486669    0.604802    0.056111
      9          7           0        1.585219   -0.220820   -0.333009
     10          1           0        1.188390   -1.165510   -0.359319
     11          1           0        1.608479    0.049870   -1.322269
     12          1           0        0.801257    1.752849    0.067921
     13          1           0        0.422539    0.431469    1.352581
     14          1           0       -1.299642    1.257237   -1.075099
     15          1           0       -1.587200   -0.874423    1.208931
 ---------------------------------------------------------------------
 Rotational constants (GHZ):          11.2493120           1.2678582           1.2133754
 Standard basis: STO-3G (5D, 7F)
 There are    39 symmetry adapted cartesian basis functions of A   symmetry.
 There are    39 symmetry adapted basis functions of A   symmetry.
    39 basis functions,   117 primitive gaussians,    39 cartesian basis functions
    24 alpha electrons       24 beta electrons
       nuclear repulsion energy       225.5433525727 Hartrees.
 NAtoms=   15 NActive=   15 NUniq=   15 SFac= 1.00D+00 NAtFMM=   60 NAOKFM=F Big=F
 Integral buffers will be    131072 words long.
 Raffenetti 1 integral format.
 Two-electron integral symmetry is turned on.
 External calculation of energy, first and second derivatives.
 Running external command "~/scripts/MiMe -H 'am1' -EF 'wb97xd def2svp' -c 12 -m 48GB R"
         input file       "/local/jobs/1176105/Gau-587161.EIn"
         output file      "/local/jobs/1176105/Gau-587161.EOu"
         message file     "/local/jobs/1176105/Gau-587161.EMs"
         fchk file        "/local/jobs/1176105/Gau-587161.EFC"
         mat. el file     "/local/jobs/1176105/Gau-587161.EUF"
 Read checkpoint file Gau-587161_H.chk type G16
 Write formatted file Gau-587161_H.fchk

deriv: 2

spelevel: wb97xd def2svp
gradlevel: wb97xd def2svp
hesslevel: am1

runspe: False
runforce: True
runfreq: True

Running Gaussian ...

Parsing files ...
SPE file: Gau-587161_F.out
FORCE file: Gau-587161_F.out
HESS file: Gau-587161_H.out

 ExternalExternalExternalExternalExternalExternalExternalExternalExternalExternal
 Output from external command:
 "~/scripts/MiMe -H 'am1' -EF 'wb97xd def2svp' -c 12 -m 48GB R /local/jobs/1176105/Gau-587161.EIn /local/jobs/1176105/Gau-587161.EOu /local/jobs/1176105/Gau-587161.EMs /local/jobs/1176105/Gau-587161.EFC /local/jobs/1176105/Gau-587161.EUF"
  
 --------------------------------------------------
 Force calculation at wb97xd def2svp
 Hessian calculation at am1
 ExternalExternalExternalExternalExternalExternalExternalExternalExternalExternal

 Recovered energy= -287.426760468     dipole=      8.415600000000     -0.577200000000     -0.120000000000
 Energy=    -287.426760     NIter=   0.
 Dipole moment=       8.415600      -0.577200      -0.120000
 ***** Axes restored to original set *****
 -------------------------------------------------------------------
 Center     Atomic                   Forces (Hartrees/Bohr)
 Number     Number              X              Y              Z
 -------------------------------------------------------------------
      1        6          -0.029535983   -0.026595630    0.010298304
      2        6          -0.009035727    0.028900797   -0.043154025
      3        8           0.008860569   -0.007357827    0.015452622
      4        6           0.011655787    0.021171765    0.018317996
      5        6          -0.003867037    0.003316247    0.002181510
      6        1          -0.000045462   -0.000595644    0.003631452
      7        1           0.006034692   -0.002672707   -0.000695759
      8        1           0.001406577    0.003444236    0.000465617
      9        7           0.029103802   -0.031928544   -0.030626883
     10        1          -0.006355600    0.003774919    0.001432871
     11        1          -0.005256800    0.000904813    0.002447337
     12        1          -0.000803377    0.003067415    0.010436860
     13        1          -0.002982058    0.008275508    0.004241660
     14        1          -0.002349430    0.002750514   -0.005852073
     15        1           0.003170046   -0.006455863    0.011422512
 -------------------------------------------------------------------
 Cartesian Forces:  Max     0.043154025 RMS     0.014296742

 GradGradGradGradGradGradGradGradGradGradGradGradGradGradGradGradGradGrad
 Berny optimization.
 Search for a saddle point.
 Step number   1 out of a maximum of   50
 All quantities printed in internal units (Hartrees-Bohrs-Radians)
 Swapping is turned off.
 Second derivative matrix not updated -- analytic derivatives used.
 ITU=  0
     Eigenvalues ---   -0.05599  -0.00832  -0.00476  -0.00140   0.00028
     Eigenvalues ---    0.00246   0.00962   0.01393   0.02313   0.03795
     Eigenvalues ---    0.04325   0.04766   0.05121   0.05680   0.07521
     Eigenvalues ---    0.07733   0.07838   0.08342   0.09255   0.11806
     Eigenvalues ---    0.15217   0.15721   0.16582   0.17823   0.21927
     Eigenvalues ---    0.25420   0.34179   0.43340   0.57300   0.61566
     Eigenvalues ---    0.65900   0.71761   0.80048   0.84282   0.90195
     Eigenvalues ---    0.94197   0.96395   1.52576   2.26484
 Eigenvectors required to have negative eigenvalues:
                          X4        Y4        X9        X7        Z4
   1                    0.47678  -0.43966  -0.33946  -0.26648  -0.24917
                          X5        Y9        X1        Y1        X10
   1                   -0.22499   0.20844   0.18990  -0.16067  -0.15104
 RFO step:  Lambda0=1.100222511D-02 Lambda=-2.28080939D-02.
 Linear search not attempted -- option 19 set.
 Maximum step size (   0.100) exceeded in Quadratic search.
    -- Step size scaled by   0.125
 B after Tr=     0.001214   -0.001284   -0.000031
         Rot=    1.000000    0.000310   -0.000424    0.000075 Ang=   0.06 deg.
 Variable       Old X    -DE/DX   Delta X   Delta X   Delta X     New X
                                 (Linear)    (Quad)   (Total)
    X1       -1.85240  -0.02954   0.00000   0.01540   0.01647  -1.83594
    Y1        1.30760  -0.02660   0.00000  -0.01716  -0.01842   1.28918
    Z1       -0.39484   0.01030   0.00000  -0.00682  -0.00609  -0.40093
    X2       -3.63145  -0.00904   0.00000   0.01142   0.01305  -3.61839
    Y2       -0.58582   0.02890   0.00000  -0.00016  -0.00053  -0.58634
    Z2        0.61021  -0.04315   0.00000  -0.01457  -0.01117   0.59905
    X3       -5.69235   0.00886   0.00000  -0.00631  -0.00554  -5.69788
    Y3       -0.94900  -0.00736   0.00000   0.00576   0.00511  -0.94389
    Z3       -0.37908   0.01545   0.00000   0.02289   0.02827  -0.35080
    X4        0.43141   0.01166   0.00000   0.02416   0.02620   0.45760
    Y4        1.63941   0.02117   0.00000  -0.01449  -0.01542   1.62400
    Z4        0.69200   0.01832   0.00000  -0.00276  -0.00419   0.68781
    X5        5.63462  -0.00387   0.00000  -0.01829  -0.01702   5.61760
    Y5       -0.68847   0.00332   0.00000   0.00729   0.00528  -0.68319
    Z5        0.17805   0.00218   0.00000   0.00746   0.00309   0.18114
    X6        5.71208  -0.00005   0.00000  -0.03731  -0.03449   5.67759
    Y6       -1.39819  -0.00060   0.00000   0.02322   0.02241  -1.37578
    Z6        2.11723   0.00363   0.00000   0.01548   0.01148   2.12871
    X7        6.63286   0.00603   0.00000  -0.00652  -0.00648   6.62638
    Y7       -2.01086  -0.00267   0.00000  -0.00724  -0.01016  -2.02102
    Z7       -1.05766  -0.00070   0.00000   0.03018   0.02578  -1.03188
    X8        6.58885   0.00141   0.00000  -0.00955  -0.00808   6.58077
    Y8        1.14291   0.00344   0.00000   0.00381   0.00160   1.14451
    Z8        0.10603   0.00047   0.00000   0.00155  -0.00477   0.10126
    X9        2.99563   0.02910   0.00000  -0.01012  -0.00952   2.98611
    Y9       -0.41729  -0.03193   0.00000   0.00216   0.00002  -0.41727
    Z9       -0.62930  -0.03063   0.00000  -0.02108  -0.02338  -0.65268
   X10        2.24573  -0.00636   0.00000  -0.02132  -0.02103   2.22470
   Y10       -2.20249   0.00377   0.00000   0.00807   0.00602  -2.19648
   Z10       -0.67902   0.00143   0.00000  -0.01864  -0.01920  -0.69821
   X11        3.03959  -0.00526   0.00000  -0.00611  -0.00701   3.03257
   Y11        0.09424   0.00090   0.00000   0.01042   0.00712   0.10136
   Z11       -2.49873   0.00245   0.00000  -0.01641  -0.01907  -2.51780
   X12        1.51416  -0.00080   0.00000   0.00285   0.00469   1.51885
   Y12        3.31241   0.00307   0.00000   0.00908   0.00766   3.32007
   Z12        0.12835   0.01044   0.00000   0.02653   0.02316   0.15151
   X13        0.79848  -0.00298   0.00000   0.00440   0.00791   0.80640
   Y13        0.81536   0.00828   0.00000   0.00710   0.00728   0.82264
   Z13        2.55601   0.00424   0.00000   0.01119   0.00997   2.56598
   X14       -2.45596  -0.00235   0.00000   0.01859   0.01843  -2.43753
   Y14        2.37584   0.00275   0.00000  -0.00451  -0.00669   2.36915
   Z14       -2.03164  -0.00585   0.00000  -0.00262  -0.00205  -2.03370
   X15       -2.99937   0.00317   0.00000   0.01953   0.02242  -2.97695
   Y15       -1.65241  -0.00646   0.00000  -0.01186  -0.01129  -1.66371
   Z15        2.28455   0.01142   0.00000  -0.01536  -0.01183   2.27272
         Item               Value     Threshold  Converged?
 Maximum Force            0.043154     0.000450     NO 
 RMS     Force            0.014297     0.000300     NO 
 Maximum Displacement     0.034489     0.001800     NO 
 RMS     Displacement     0.014705     0.001200     NO 
 Predicted change in Energy=-1.439811D-03
 GradGradGradGradGradGradGradGradGradGradGradGradGradGradGradGradGradGrad

                          Input orientation:                          
 ---------------------------------------------------------------------
 Center     Atomic      Atomic             Coordinates (Angstroms)
 Number     Number       Type             X           Y           Z
 ---------------------------------------------------------------------
      1          6           0       -0.971537    0.682204   -0.212165
      2          6           0       -1.914772   -0.310280    0.317002
      3          8           0       -3.015189   -0.499487   -0.185638
      4          6           0        0.242153    0.859382    0.363973
      5          6           0        2.972704   -0.361528    0.095855
      6          1           0        3.004449   -0.728032    1.126466
      7          1           0        3.506530   -1.069475   -0.546047
      8          1           0        3.482395    0.605649    0.053584
      9          7           0        1.580180   -0.220808   -0.345383
     10          1           0        1.177262   -1.162326   -0.369478
     11          1           0        1.604769    0.053639   -1.332364
     12          1           0        0.803741    1.756905    0.080174
     13          1           0        0.426726    0.435323    1.357856
     14          1           0       -1.289887    1.253700   -1.076186
     15          1           0       -1.575335   -0.880396    1.202671
 ---------------------------------------------------------------------
                    Distance matrix (angstroms):
                    1          2          3          4          5
     1  C    0.000000
     2  C    1.467901   0.000000
     3  O    2.360850   1.224485   0.000000
     4  C    1.355127   2.454107   3.571957   0.000000
     5  C    4.091612   4.892745   5.996094   3.003069   0.000000
     6  H    4.425965   5.002848   6.165216   3.275906   1.094300
     7  H    4.820056   5.541818   6.556493   3.899331   1.094622
     8  H    4.462509   5.480668   6.595237   3.264948   1.094076
     9  N    2.710062   3.558293   4.606582   1.860192   1.467521
    10  H    2.836261   3.279926   4.248506   2.345140   2.020253
    11  H    2.878765   3.903846   4.792175   2.320238   2.020747
    12  H    2.095723   3.423398   4.443668   1.096116   3.031898
    13  H    2.116851   2.668692   3.886261   1.096219   2.951207
    14  H    1.083738   2.185746   2.615991   2.139321   4.706626
    15  H    2.192727   1.106643   2.036092   2.652075   4.709451
                    6          7          8          9         10
     6  H    0.000000
     7  H    1.779317   0.000000
     8  H    1.777136   1.779376   0.000000
     9  N    2.110014   2.114551   2.112019   0.000000
    10  H    2.401056   2.337795   2.935702   1.024392   0.000000
    11  H    2.935295   2.344434   2.398133   1.024723   1.608875
    12  H    3.480339   3.960511   2.915696   2.166865   2.977182
    13  H    2.837533   3.921027   3.326747   2.159164   2.469711
    14  H    5.217305   5.355727   4.946820   3.308403   3.524691
    15  H    4.582951   5.377650   5.395309   3.576143   3.182441
                   11         12         13         14         15
    11  H    0.000000
    12  H    2.353300   0.000000
    13  H    2.961546   1.876484   0.000000
    14  H    3.144012   2.444108   3.088862   0.000000
    15  H    4.172755   3.724964   2.400718   3.135129   0.000000
 Stoichiometry    C4H9NO
 Framework group  C1[X(C4H9NO)]
 Deg. of freedom    39
 Full point group                 C1      NOp   1
 Largest Abelian subgroup         C1      NOp   1
 Largest concise Abelian subgroup C1      NOp   1
                         Standard orientation:                         
 ---------------------------------------------------------------------
 Center     Atomic      Atomic             Coordinates (Angstroms)
 Number     Number       Type             X           Y           Z
 ---------------------------------------------------------------------
      1          6           0       -0.971423    0.685493   -0.210515
      2          6           0       -1.916698   -0.307804    0.313462
      3          8           0       -3.016643   -0.493628   -0.191466
      4          6           0        0.241674    0.858855    0.368026
      5          6           0        2.971018   -0.364565    0.099047
      6          1           0        3.000820   -0.735101    1.128274
      7          1           0        3.504836   -1.070714   -0.544838
      8          1           0        3.482022    0.602104    0.061249
      9          7           0        1.579306   -0.220321   -0.343616
     10          1           0        1.175202   -1.161212   -0.371932
     11          1           0        1.605656    0.057917   -1.329489
     12          1           0        0.804830    1.756738    0.088505
     13          1           0        0.424283    0.430707    1.360518
     14          1           0       -1.287803    1.260747   -1.072764
     15          1           0       -1.579261   -0.881790    1.197395
 ---------------------------------------------------------------------
 Rotational constants (GHZ):          11.3454401           1.2717508           1.2182376
 Standard basis: STO-3G (5D, 7F)
 There are    39 symmetry adapted cartesian basis functions of A   symmetry.
 There are    39 symmetry adapted basis functions of A   symmetry.
    39 basis functions,   117 primitive gaussians,    39 cartesian basis functions
    24 alpha electrons       24 beta electrons
       nuclear repulsion energy       225.8125849391 Hartrees.
 NAtoms=   15 NActive=   15 NUniq=   15 SFac= 1.00D+00 NAtFMM=   60 NAOKFM=F Big=F
 Integral buffers will be    131072 words long.
 Raffenetti 1 integral format.
 Two-electron integral symmetry is turned on.
 External calculation of energy, first and second derivatives.
 Running external command "~/scripts/MiMe -H 'am1' -EF 'wb97xd def2svp' -c 12 -m 48GB R"
         input file       "/local/jobs/1176105/Gau-587161.EIn"
         output file      "/local/jobs/1176105/Gau-587161.EOu"
         message file     "/local/jobs/1176105/Gau-587161.EMs"
         fchk file        "/local/jobs/1176105/Gau-587161.EFC"
         mat. el file     "/local/jobs/1176105/Gau-587161.EUF"
 Read checkpoint file Gau-587161_H.chk type G16
 Write formatted file Gau-587161_H.fchk

deriv: 2

spelevel: wb97xd def2svp
gradlevel: wb97xd def2svp
hesslevel: am1

runspe: False
runforce: True
runfreq: True

Running Gaussian ...

Parsing files ...
SPE file: Gau-587161_F.out
FORCE file: Gau-587161_F.out
HESS file: Gau-587161_H.out

 ExternalExternalExternalExternalExternalExternalExternalExternalExternalExternal
 Output from external command:
 "~/scripts/MiMe -H 'am1' -EF 'wb97xd def2svp' -c 12 -m 48GB R /local/jobs/1176105/Gau-587161.EIn /local/jobs/1176105/Gau-587161.EOu /local/jobs/1176105/Gau-587161.EMs /local/jobs/1176105/Gau-587161.EFC /local/jobs/1176105/Gau-587161.EUF"
  
 --------------------------------------------------
 Force calculation at wb97xd def2svp
 Hessian calculation at am1
 ExternalExternalExternalExternalExternalExternalExternalExternalExternalExternal

 Recovered energy= -287.428137654     dipole=      8.660300000000     -0.568300000000     -0.158400000000
 Energy=    -287.428138     NIter=   0.
 Dipole moment=       8.660300      -0.568300      -0.158400
 ***** Axes restored to original set *****
 -------------------------------------------------------------------
 Center     Atomic                   Forces (Hartrees/Bohr)
 Number     Number              X              Y              Z
 -------------------------------------------------------------------
      1        6          -0.027318225   -0.023470863    0.008282523
      2        6          -0.008690553    0.025228706   -0.036679695
      3        8           0.008633703   -0.006390223    0.013022795
      4        6           0.009738197    0.019530242    0.016982575
      5        6          -0.003164899    0.002704324    0.002041684
      6        1          -0.000370745   -0.000378407    0.003117204
      7        1           0.005413154   -0.002277354   -0.000450726
      8        1           0.000788688    0.003169043    0.000340204
      9        7           0.027621968   -0.029265236   -0.027208141
     10        1          -0.006135715    0.003385441    0.001206277
     11        1          -0.005006459    0.000943620    0.001579889
     12        1          -0.000441802    0.002552688    0.009518899
     13        1          -0.002214466    0.007082653    0.003734335
     14        1          -0.002016018    0.002539375   -0.005203877
     15        1           0.003163170   -0.005354010    0.009716056
 -------------------------------------------------------------------
 Cartesian Forces:  Max     0.036679695 RMS     0.012758886

 GradGradGradGradGradGradGradGradGradGradGradGradGradGradGradGradGradGrad
 Berny optimization.
 Search for a saddle point.
 Step number   2 out of a maximum of   50
 All quantities printed in internal units (Hartrees-Bohrs-Radians)
 Swapping is turned off.
 Second derivative matrix not updated -- analytic derivatives used.
 ITU=  0  0
     Eigenvalues ---   -0.06044  -0.00810  -0.00476  -0.00126   0.00062
     Eigenvalues ---    0.00259   0.00963   0.01438   0.02347   0.03830
     Eigenvalues ---    0.04334   0.04838   0.05146   0.05712   0.07528
     Eigenvalues ---    0.07737   0.07838   0.08468   0.09252   0.11828
     Eigenvalues ---    0.15213   0.15802   0.16550   0.17915   0.21855
     Eigenvalues ---    0.25360   0.34250   0.43178   0.57178   0.61422
     Eigenvalues ---    0.65684   0.71818   0.79772   0.84257   0.90506
     Eigenvalues ---    0.94715   0.97432   1.49468   2.26674
 Eigenvectors required to have negative eigenvalues:
                          X4        Y4        X9        X7        Z4
   1                    0.48317  -0.44387  -0.34144  -0.26239  -0.25799
                          X5        Y9        X1        Y1        X10
   1                   -0.21799   0.21463   0.18132  -0.15879  -0.14522
 RFO step:  Lambda0=9.871432443D-03 Lambda=-1.89833447D-02.
 Linear search not attempted -- option 19 set.
 Maximum step size (   0.100) exceeded in Quadratic search.
    -- Step size scaled by   0.129
 B after Tr=     0.002375   -0.002714   -0.002904
         Rot=    1.000000   -0.000282    0.000149   -0.000117 Ang=  -0.04 deg.
 Variable       Old X    -DE/DX   Delta X   Delta X   Delta X     New X
                                 (Linear)    (Quad)   (Total)
    X1       -1.83594  -0.02732   0.00000   0.01544   0.01763  -1.81830
    Y1        1.28918  -0.02347   0.00000  -0.00645  -0.00937   1.27981
    Z1       -0.40093   0.00828   0.00000   0.00225  -0.00048  -0.40141
    X2       -3.61839  -0.00869   0.00000   0.00782   0.01016  -3.60824
    Y2       -0.58634   0.02523   0.00000   0.00944   0.00555  -0.58079
    Z2        0.59905  -0.03668   0.00000  -0.01057  -0.01488   0.58417
    X3       -5.69788   0.00863   0.00000   0.01058   0.01329  -5.68459
    Y3       -0.94389  -0.00639   0.00000  -0.01053  -0.01438  -0.95827
    Z3       -0.35080   0.01302   0.00000  -0.00678  -0.01192  -0.36272
    X4        0.45760   0.00974   0.00000   0.02549   0.02728   0.48489
    Y4        1.62400   0.01953   0.00000  -0.01514  -0.01813   1.60587
    Z4        0.68781   0.01698   0.00000   0.00691   0.00506   0.69287
    X5        5.61760  -0.00316   0.00000  -0.01807  -0.01559   5.60201
    Y5       -0.68319   0.00270   0.00000   0.01016   0.00866  -0.67453
    Z5        0.18114   0.00204   0.00000  -0.00279  -0.00440   0.17674
    X6        5.67759  -0.00037   0.00000  -0.01501  -0.01296   5.66463
    Y6       -1.37578  -0.00038   0.00000   0.03118   0.02859  -1.34719
    Z6        2.12871   0.00312   0.00000   0.00571   0.00373   2.13244
    X7        6.62638   0.00541   0.00000  -0.00846  -0.00531   6.62107
    Y7       -2.02102  -0.00228   0.00000   0.00076   0.00018  -2.02084
    Z7       -1.03188  -0.00045   0.00000   0.01345   0.01138  -1.02050
    X8        6.58077   0.00079   0.00000  -0.02330  -0.02122   6.55955
    Y8        1.14451   0.00317   0.00000   0.01346   0.01224   1.15675
    Z8        0.10126   0.00034   0.00000  -0.02145  -0.02175   0.07951
    X9        2.98611   0.02762   0.00000  -0.01745  -0.01478   2.97133
    Y9       -0.41727  -0.02927   0.00000  -0.00894  -0.01058  -0.42785
    Z9       -0.65268  -0.02721   0.00000  -0.01153  -0.01379  -0.66647
   X10        2.22470  -0.00614   0.00000  -0.02367  -0.02057   2.20413
   Y10       -2.19648   0.00339   0.00000  -0.00543  -0.00724  -2.20371
   Z10       -0.69821   0.00121   0.00000   0.00394   0.00045  -0.69776
   X11        3.03257  -0.00501   0.00000  -0.02772  -0.02462   3.00796
   Y11        0.10136   0.00094   0.00000  -0.01002  -0.01061   0.09076
   Z11       -2.51780   0.00158   0.00000  -0.01063  -0.01259  -2.53039
   X12        1.51885  -0.00044   0.00000   0.01347   0.01501   1.53386
   Y12        3.32007   0.00255   0.00000   0.00215  -0.00031   3.31976
   Z12        0.15151   0.00952   0.00000   0.03751   0.03694   0.18845
   X13        0.80640  -0.00221   0.00000   0.00283   0.00424   0.81063
   Y13        0.82264   0.00708   0.00000   0.00149  -0.00249   0.82015
   Z13        2.56598   0.00373   0.00000   0.01897   0.01677   2.58275
   X14       -2.43753  -0.00202   0.00000   0.02487   0.02729  -2.41024
   Y14        2.36915   0.00254   0.00000   0.00628   0.00415   2.37330
   Z14       -2.03370  -0.00520   0.00000   0.00471   0.00243  -2.03127
   X15       -2.97695   0.00316   0.00000  -0.00195   0.00013  -2.97682
   Y15       -1.66371  -0.00535   0.00000   0.01844   0.01374  -1.64996
   Z15        2.27272   0.00972   0.00000   0.00775   0.00304   2.27576
         Item               Value     Threshold  Converged?
 Maximum Force            0.036680     0.000450     NO 
 RMS     Force            0.012759     0.000300     NO 
 Maximum Displacement     0.036939     0.001800     NO 
 RMS     Displacement     0.014667     0.001200     NO 
 Predicted change in Energy=-1.145267D-03
 GradGradGradGradGradGradGradGradGradGradGradGradGradGradGradGradGradGrad

                          Input orientation:                          
 ---------------------------------------------------------------------
 Center     Atomic      Atomic             Coordinates (Angstroms)
 Number     Number       Type             X           Y           Z
 ---------------------------------------------------------------------
      1          6           0       -0.962205    0.677245   -0.212417
      2          6           0       -1.909397   -0.307343    0.309130
      3          8           0       -3.008157   -0.507096   -0.191943
      4          6           0        0.256591    0.849788    0.366650
      5          6           0        2.964456   -0.356945    0.093525
      6          1           0        2.997591   -0.712904    1.128441
      7          1           0        3.503720   -1.069382   -0.540027
      8          1           0        3.471166    0.612128    0.042075
      9          7           0        1.572360   -0.226407   -0.352680
     10          1           0        1.166378   -1.166155   -0.369238
     11          1           0        1.591743    0.048026   -1.339024
     12          1           0        0.811685    1.756740    0.099721
     13          1           0        0.428969    0.434005    1.366731
     14          1           0       -1.275444    1.255894   -1.074902
     15          1           0       -1.575267   -0.873123    1.204278
 ---------------------------------------------------------------------
                    Distance matrix (angstroms):
                    1          2          3          4          5
     1  C    0.000000
     2  C    1.462395   0.000000
     3  O    2.364108   1.224031   0.000000
     4  C    1.360350   2.456372   3.579349   0.000000
     5  C    4.072077   4.878871   5.981317   2.977135   0.000000
     6  H    4.405724   4.991421   6.152625   3.245830   1.094923
     7  H    4.806508   5.532052   6.545370   3.879320   1.095336
     8  H    4.441147   5.465090   6.579443   3.239649   1.094763
     9  N    2.694491   3.545021   4.591924   1.845774   1.467675
    10  H    2.820210   3.264679   4.229957   2.330937   2.025353
    11  H    2.861434   3.885959   4.773158   2.309713   2.024979
    12  H    2.099863   3.421779   4.449856   1.096332   3.016973
    13  H    2.118547   2.671343   3.889598   1.096700   2.945394
    14  H    1.084819   2.182006   2.624890   2.142458   4.684359
    15  H    2.187810   1.110423   2.033860   2.650612   4.702052
                    6          7          8          9         10
     6  H    0.000000
     7  H    1.779615   0.000000
     8  H    1.777688   1.779713   0.000000
     9  N    2.112269   2.115622   2.112922   0.000000
    10  H    2.408697   2.345570   2.939986   1.023827   0.000000
    11  H    2.940036   2.354284   2.399558   1.023994   1.611104
    12  H    3.454792   3.955160   2.895911   2.171673   2.981450
    13  H    2.823119   3.917906   3.322861   2.167916   2.473433
    14  H    5.195163   5.341667   4.918575   3.290716   3.510951
    15  H    4.576292   5.373753   5.387316   3.570702   3.174655
                   11         12         13         14         15
    11  H    0.000000
    12  H    2.366047   0.000000
    13  H    2.970207   1.871206   0.000000
    14  H    3.122413   2.446772   3.089029   0.000000
    15  H    4.164955   3.719376   2.398319   3.133252   0.000000
 Stoichiometry    C4H9NO
 Framework group  C1[X(C4H9NO)]
 Deg. of freedom    39
 Full point group                 C1      NOp   1
 Largest Abelian subgroup         C1      NOp   1
 Largest concise Abelian subgroup C1      NOp   1
                         Standard orientation:                         
 ---------------------------------------------------------------------
 Center     Atomic      Atomic             Coordinates (Angstroms)
 Number     Number       Type             X           Y           Z
 ---------------------------------------------------------------------
      1          6           0       -0.963151    0.681615   -0.218046
      2          6           0       -1.913880   -0.293713    0.314350
      3          8           0       -3.012952   -0.495770   -0.185114
      4          6           0        0.255815    0.856989    0.359810
      5          6           0        2.959927   -0.361632    0.102752
      6          1           0        2.991222   -0.705531    1.141795
      7          1           0        3.497293   -1.083195   -0.522024
      8          1           0        3.469816    0.605125    0.040294
      9          7           0        1.568558   -0.231828   -0.345927
     10          1           0        1.159537   -1.170385   -0.351746
     11          1           0        1.589484    0.030952   -1.335408
     12          1           0        0.814029    1.758944    0.082650
     13          1           0        0.426181    0.452410    1.364819
     14          1           0       -1.273938    1.251118   -1.087478
     15          1           0       -1.582182   -0.850033    1.216306
 ---------------------------------------------------------------------
 Rotational constants (GHZ):          11.3727680           1.2784302           1.2250778
 Standard basis: STO-3G (5D, 7F)
 There are    39 symmetry adapted cartesian basis functions of A   symmetry.
 There are    39 symmetry adapted basis functions of A   symmetry.
    39 basis functions,   117 primitive gaussians,    39 cartesian basis functions
    24 alpha electrons       24 beta electrons
       nuclear repulsion energy       226.1210440997 Hartrees.
 NAtoms=   15 NActive=   15 NUniq=   15 SFac= 1.00D+00 NAtFMM=   60 NAOKFM=F Big=F
 Integral buffers will be    131072 words long.
 Raffenetti 1 integral format.
 Two-electron integral symmetry is turned on.
 External calculation of energy, first and second derivatives.
 Running external command "~/scripts/MiMe -H 'am1' -EF 'wb97xd def2svp' -c 12 -m 48GB R"
         input file       "/local/jobs/1176105/Gau-587161.EIn"
         output file      "/local/jobs/1176105/Gau-587161.EOu"
         message file     "/local/jobs/1176105/Gau-587161.EMs"
         fchk file        "/local/jobs/1176105/Gau-587161.EFC"
         mat. el file     "/local/jobs/1176105/Gau-587161.EUF"
 Read checkpoint file Gau-587161_H.chk type G16
 Write formatted file Gau-587161_H.fchk

deriv: 2

spelevel: wb97xd def2svp
gradlevel: wb97xd def2svp
hesslevel: am1

runspe: False
runforce: True
runfreq: True

Running Gaussian ...

Parsing files ...
SPE file: Gau-587161_F.out
FORCE file: Gau-587161_F.out
HESS file: Gau-587161_H.out

 ExternalExternalExternalExternalExternalExternalExternalExternalExternalExternal
 Output from external command:
 "~/scripts/MiMe -H 'am1' -EF 'wb97xd def2svp' -c 12 -m 48GB R /local/jobs/1176105/Gau-587161.EIn /local/jobs/1176105/Gau-587161.EOu /local/jobs/1176105/Gau-587161.EMs /local/jobs/1176105/Gau-587161.EFC /local/jobs/1176105/Gau-587161.EUF"
  
 --------------------------------------------------
 Force calculation at wb97xd def2svp
 Hessian calculation at am1
 ExternalExternalExternalExternalExternalExternalExternalExternalExternalExternal

 Recovered energy= -287.429236566     dipole=      8.871900000000     -0.563200000000     -0.161800000000
 Energy=    -287.429237     NIter=   0.
 Dipole moment=       8.871900      -0.563200      -0.161800
 ***** Axes restored to original set *****
 -------------------------------------------------------------------
 Center     Atomic                   Forces (Hartrees/Bohr)
 Number     Number              X              Y              Z
 -------------------------------------------------------------------
      1        6          -0.025260974   -0.020363790    0.006851303
      2        6          -0.007493097    0.021286306   -0.031694881
      3        8           0.007706075   -0.005129963    0.011286837
      4        6           0.007885049    0.017969885    0.015793575
      5        6          -0.002448136    0.002401465    0.001726441
      6        1          -0.000790491   -0.000215503    0.002667187
      7        1           0.004839442   -0.001925467   -0.000277118
      8        1           0.000337007    0.002811036    0.000275433
      9        7           0.026121787   -0.026617402   -0.024086508
     10        1          -0.005940075    0.002932260    0.001077110
     11        1          -0.004821767    0.000910798    0.001076506
     12        1          -0.000030688    0.002060156    0.008538581
     13        1          -0.001547923    0.005988092    0.003252071
     14        1          -0.001657478    0.002231849   -0.004767690
     15        1           0.003101269   -0.004339720    0.008281155
 -------------------------------------------------------------------
 Cartesian Forces:  Max     0.031694881 RMS     0.011366370

 GradGradGradGradGradGradGradGradGradGradGradGradGradGradGradGradGradGrad
 Berny optimization.
 Search for a saddle point.
 Step number   3 out of a maximum of   50
 All quantities printed in internal units (Hartrees-Bohrs-Radians)
 Swapping is turned off.
 Second derivative matrix not updated -- analytic derivatives used.
 ITU=  0  0  0
     Eigenvalues ---   -0.06380  -0.00791  -0.00483  -0.00113   0.00093
     Eigenvalues ---    0.00274   0.00962   0.01480   0.02389   0.03860
     Eigenvalues ---    0.04335   0.04917   0.05174   0.05748   0.07518
     Eigenvalues ---    0.07739   0.07838   0.08590   0.09274   0.11883
     Eigenvalues ---    0.15205   0.15855   0.16525   0.17993   0.21815
     Eigenvalues ---    0.25289   0.34284   0.43047   0.57010   0.61280
     Eigenvalues ---    0.65467   0.71810   0.79574   0.84170   0.90780
     Eigenvalues ---    0.95171   0.98401   1.46484   2.26965
 Eigenvectors required to have negative eigenvalues:
                          X4        Y4        X9        Z4        X7
   1                    0.48695  -0.44699  -0.34109  -0.26509  -0.25917
                          Y9        X5        X1        Y1        X10
   1                    0.22160  -0.21107   0.17421  -0.15868  -0.14156
 RFO step:  Lambda0=8.867118755D-03 Lambda=-1.58494276D-02.
 Linear search not attempted -- option 19 set.
 Maximum step size (   0.100) exceeded in Quadratic search.
    -- Step size scaled by   0.131
 B after Tr=     0.000810   -0.000160   -0.000746
         Rot=    1.000000    0.000057   -0.000206    0.000307 Ang=   0.04 deg.
 Variable       Old X    -DE/DX   Delta X   Delta X   Delta X     New X
                                 (Linear)    (Quad)   (Total)
    X1       -1.81830  -0.02526   0.00000   0.01489   0.01631  -1.80199
    Y1        1.27981  -0.02036   0.00000  -0.01374  -0.01284   1.26697
    Z1       -0.40141   0.00685   0.00000  -0.00606  -0.00620  -0.40761
    X2       -3.60824  -0.00749   0.00000   0.00736   0.00805  -3.60019
    Y2       -0.58079   0.02129   0.00000   0.00219   0.00431  -0.57649
    Z2        0.58417  -0.03169   0.00000  -0.01614  -0.01534   0.56883
    X3       -5.68459   0.00771   0.00000  -0.00767  -0.00758  -5.69217
    Y3       -0.95827  -0.00513   0.00000   0.01415   0.01744  -0.94083
    Z3       -0.36272   0.01129   0.00000   0.01420   0.01590  -0.34682
    X4        0.48489   0.00789   0.00000   0.02258   0.02465   0.50954
    Y4        1.60587   0.01797   0.00000  -0.02020  -0.02059   1.58527
    Z4        0.69287   0.01579   0.00000   0.00200   0.00087   0.69374
    X5        5.60201  -0.00245   0.00000  -0.01319  -0.01272   5.58929
    Y5       -0.67453   0.00240   0.00000   0.01417   0.01060  -0.66393
    Z5        0.17674   0.00173   0.00000   0.00138  -0.00159   0.17514
    X6        5.66463  -0.00079   0.00000  -0.01472  -0.01384   5.65079
    Y6       -1.34719  -0.00022   0.00000   0.03786   0.03447  -1.31272
    Z6        2.13244   0.00267   0.00000   0.01057   0.00764   2.14009
    X7        6.62107   0.00484   0.00000   0.00092   0.00008   6.62115
    Y7       -2.02084  -0.00193   0.00000   0.00531   0.00098  -2.01986
    Z7       -1.02050  -0.00028   0.00000   0.02162   0.01838  -1.00212
    X8        6.55955   0.00034   0.00000  -0.02220  -0.02064   6.53891
    Y8        1.15675   0.00281   0.00000   0.01904   0.01488   1.17163
    Z8        0.07951   0.00028   0.00000  -0.01755  -0.02112   0.05839
    X9        2.97133   0.02612   0.00000  -0.01141  -0.01115   2.96018
    Y9       -0.42785  -0.02662   0.00000  -0.00868  -0.01074  -0.43858
    Z9       -0.66647  -0.02409   0.00000  -0.01079  -0.01270  -0.67917
   X10        2.20413  -0.00594   0.00000  -0.01542  -0.01626   2.18788
   Y10       -2.20371   0.00293   0.00000  -0.00636  -0.00794  -2.21165
   Z10       -0.69776   0.00108   0.00000   0.00308   0.00169  -0.69607
   X11        3.00796  -0.00482   0.00000  -0.02071  -0.02090   2.98706
   Y11        0.09076   0.00091   0.00000  -0.01013  -0.01241   0.07835
   Z11       -2.53039   0.00108   0.00000  -0.01026  -0.01225  -2.54264
   X12        1.53386  -0.00003   0.00000   0.00979   0.01273   1.54659
   Y12        3.31976   0.00206   0.00000  -0.00228  -0.00336   3.31639
   Z12        0.18845   0.00854   0.00000   0.03532   0.03356   0.22200
   X13        0.81063  -0.00155   0.00000  -0.00034   0.00204   0.81268
   Y13        0.82015   0.00599   0.00000  -0.00608  -0.00644   0.81371
   Z13        2.58275   0.00325   0.00000   0.01281   0.01164   2.59438
   X14       -2.41024  -0.00166   0.00000   0.02390   0.02533  -2.38491
   Y14        2.37330   0.00223   0.00000   0.00046   0.00153   2.37483
   Z14       -2.03127  -0.00477   0.00000  -0.00190  -0.00194  -2.03321
   X15       -2.97682   0.00310   0.00000   0.01317   0.01389  -2.96293
   Y15       -1.64996  -0.00434   0.00000  -0.01180  -0.00989  -1.65985
   Z15        2.27576   0.00828   0.00000  -0.01919  -0.01852   2.25723
         Item               Value     Threshold  Converged?
 Maximum Force            0.031695     0.000450     NO 
 RMS     Force            0.011366     0.000300     NO 
 Maximum Displacement     0.034474     0.001800     NO 
 RMS     Displacement     0.014770     0.001200     NO 
 Predicted change in Energy=-9.004754D-04
 GradGradGradGradGradGradGradGradGradGradGradGradGradGradGradGradGradGrad

                          Input orientation:                          
 ---------------------------------------------------------------------
 Center     Atomic      Atomic             Coordinates (Angstroms)
 Number     Number       Type             X           Y           Z
 ---------------------------------------------------------------------
      1          6           0       -0.953573    0.670450   -0.215700
      2          6           0       -1.905136   -0.305063    0.301013
      3          8           0       -3.012168   -0.497866   -0.183529
      4          6           0        0.269636    0.838890    0.367109
      5          6           0        2.957726   -0.351334    0.092681
      6          1           0        2.990270   -0.694661    1.132486
      7          1           0        3.503762   -1.068865   -0.530301
      8          1           0        3.460243    0.620002    0.030896
      9          7           0        1.566461   -0.232089   -0.359401
     10          1           0        1.157776   -1.170356   -0.368345
     11          1           0        1.580683    0.041458   -1.345505
     12          1           0        0.818420    1.754960    0.117480
     13          1           0        0.430050    0.430594    1.372888
     14          1           0       -1.262042    1.256706   -1.075927
     15          1           0       -1.567917   -0.878355    1.194475
 ---------------------------------------------------------------------
                    Distance matrix (angstroms):
                    1          2          3          4          5
     1  C    0.000000
     2  C    1.457426   0.000000
     3  O    2.367237   1.223713   0.000000
     4  C    1.365386   2.458176   3.586134   0.000000
     5  C    4.054307   4.867543   5.978077   2.952587   0.000000
     6  H    4.385776   4.980777   6.148161   3.215498   1.095502
     7  H    4.795000   5.525455   6.550087   3.860628   1.095953
     8  H    4.420987   5.451238   6.571736   3.215730   1.095369
     9  N    2.680634   3.534609   4.589707   1.832094   1.467725
    10  H    2.805292   3.252415   4.227864   2.316626   2.030558
    11  H    2.845091   3.870663   4.768159   2.299519   2.029511
    12  H    2.104075   3.419816   4.454126   1.096660   3.002286
    13  H    2.120273   2.672678   3.890159   1.097283   2.939300
    14  H    1.085744   2.179141   2.633978   2.145451   4.664534
    15  H    2.182844   1.113848   2.032124   2.647653   4.687552
                    6          7          8          9         10
     6  H    0.000000
     7  H    1.780046   0.000000
     8  H    1.778401   1.780199   0.000000
     9  N    2.113512   2.117200   2.113007   0.000000
    10  H    2.415950   2.353759   2.943829   1.023450   0.000000
    11  H    2.944359   2.365504   2.400404   1.023441   1.613130
    12  H    3.427508   3.950275   2.876604   2.176084   2.984738
    13  H    2.806905   3.913849   3.319470   2.175179   2.474777
    14  H    5.173691   5.330936   4.891873   3.275721   3.499546
    15  H    4.562308   5.360324   5.374140   3.557600   3.155483
                   11         12         13         14         15
    11  H    0.000000
    12  H    2.378541   0.000000
    13  H    2.977422   1.865697   0.000000
    14  H    3.103318   2.449653   3.089067   0.000000
    15  H    4.148643   3.713337   2.395214   3.131577   0.000000
 Stoichiometry    C4H9NO
 Framework group  C1[X(C4H9NO)]
 Deg. of freedom    39
 Full point group                 C1      NOp   1
 Largest Abelian subgroup         C1      NOp   1
 Largest concise Abelian subgroup C1      NOp   1
                         Standard orientation:                         
 ---------------------------------------------------------------------
 Center     Atomic      Atomic             Coordinates (Angstroms)
 Number     Number       Type             X           Y           Z
 ---------------------------------------------------------------------
      1          6           0       -0.954943    0.674955   -0.222190
      2          6           0       -1.910508   -0.290083    0.306666
      3          8           0       -3.017648   -0.485637   -0.176523
      4          6           0        0.268176    0.847086    0.359730
      5          6           0        2.952400   -0.356132    0.104822
      6          1           0        2.982544   -0.685322    1.149261
      7          1           0        3.496640   -1.084011   -0.507639
      8          1           0        3.458383    0.612512    0.030370
      9          7           0        1.562083   -0.238234   -0.350517
     10          1           0        1.150128   -1.175108   -0.347126
     11          1           0        1.578397    0.021754   -1.340250
     12          1           0        0.820449    1.757741    0.098263
     13          1           0        0.426002    0.452024    1.371188
     14          1           0       -1.260367    1.250465   -1.090719
     15          1           0       -1.576326   -0.852277    1.208285
 ---------------------------------------------------------------------
 Rotational constants (GHZ):          11.5085884           1.2812837           1.2291789
 Standard basis: STO-3G (5D, 7F)
 There are    39 symmetry adapted cartesian basis functions of A   symmetry.
 There are    39 symmetry adapted basis functions of A   symmetry.
    39 basis functions,   117 primitive gaussians,    39 cartesian basis functions
    24 alpha electrons       24 beta electrons
       nuclear repulsion energy       226.3796705191 Hartrees.
 NAtoms=   15 NActive=   15 NUniq=   15 SFac= 1.00D+00 NAtFMM=   60 NAOKFM=F Big=F
 Integral buffers will be    131072 words long.
 Raffenetti 1 integral format.
 Two-electron integral symmetry is turned on.
 External calculation of energy, first and second derivatives.
 Running external command "~/scripts/MiMe -H 'am1' -EF 'wb97xd def2svp' -c 12 -m 48GB R"
         input file       "/local/jobs/1176105/Gau-587161.EIn"
         output file      "/local/jobs/1176105/Gau-587161.EOu"
         message file     "/local/jobs/1176105/Gau-587161.EMs"
         fchk file        "/local/jobs/1176105/Gau-587161.EFC"
         mat. el file     "/local/jobs/1176105/Gau-587161.EUF"
 Read checkpoint file Gau-587161_H.chk type G16
 Write formatted file Gau-587161_H.fchk

deriv: 2

spelevel: wb97xd def2svp
gradlevel: wb97xd def2svp
hesslevel: am1

runspe: False
runforce: True
runfreq: True

Running Gaussian ...

Parsing files ...
SPE file: Gau-587161_F.out
FORCE file: Gau-587161_F.out
HESS file: Gau-587161_H.out

 ExternalExternalExternalExternalExternalExternalExternalExternalExternalExternal
 Output from external command:
 "~/scripts/MiMe -H 'am1' -EF 'wb97xd def2svp' -c 12 -m 48GB R /local/jobs/1176105/Gau-587161.EIn /local/jobs/1176105/Gau-587161.EOu /local/jobs/1176105/Gau-587161.EMs /local/jobs/1176105/Gau-587161.EFC /local/jobs/1176105/Gau-587161.EUF"
  
 --------------------------------------------------
 Force calculation at wb97xd def2svp
 Hessian calculation at am1
 ExternalExternalExternalExternalExternalExternalExternalExternalExternalExternal

 Recovered energy= -287.430085299     dipole=      9.091200000000     -0.572900000000     -0.186600000000
 Energy=    -287.430085     NIter=   0.
 Dipole moment=       9.091200      -0.572900      -0.186600
 ***** Axes restored to original set *****
 -------------------------------------------------------------------
 Center     Atomic                   Forces (Hartrees/Bohr)
 Number     Number              X              Y              Z
 -------------------------------------------------------------------
      1        6          -0.023168430   -0.017816839    0.005367664
      2        6          -0.007135126    0.018691175   -0.026597772
      3        8           0.007358945   -0.004545055    0.009324162
      4        6           0.006344367    0.016413527    0.014655308
      5        6          -0.001858295    0.002171886    0.001495326
      6        1          -0.001083852   -0.000072044    0.002246690
      7        1           0.004268516   -0.001610519   -0.000157780
      8        1           0.000003840    0.002451467    0.000247278
      9        7           0.024624406   -0.024199605   -0.021266049
     10        1          -0.005648986    0.002583555    0.000965685
     11        1          -0.004586365    0.000869247    0.000690828
     12        1           0.000257591    0.001564746    0.007578470
     13        1          -0.000969874    0.004964002    0.002695168
     14        1          -0.001464883    0.002119917   -0.004254866
     15        1           0.003058146   -0.003585462    0.007009887
 -------------------------------------------------------------------
 Cartesian Forces:  Max     0.026597772 RMS     0.010127372

 GradGradGradGradGradGradGradGradGradGradGradGradGradGradGradGradGradGrad
 Berny optimization.
 Search for a saddle point.
 Step number   4 out of a maximum of   50
 All quantities printed in internal units (Hartrees-Bohrs-Radians)
 Swapping is turned off.
 Second derivative matrix not updated -- analytic derivatives used.
 ITU=  0  0  0  0
     Eigenvalues ---   -0.06596  -0.00772  -0.00483  -0.00101   0.00118
     Eigenvalues ---    0.00289   0.00967   0.01524   0.02431   0.03885
     Eigenvalues ---    0.04339   0.04988   0.05199   0.05785   0.07526
     Eigenvalues ---    0.07741   0.07838   0.08707   0.09295   0.11914
     Eigenvalues ---    0.15199   0.15915   0.16505   0.18084   0.21780
     Eigenvalues ---    0.25214   0.34314   0.42932   0.56800   0.61117
     Eigenvalues ---    0.65292   0.71785   0.79429   0.84032   0.91010
     Eigenvalues ---    0.95618   0.99300   1.43665   2.27157
 Eigenvectors required to have negative eigenvalues:
                          X4        Y4        X9        Z4        X7
   1                    0.48962  -0.44815  -0.34110  -0.26970  -0.25741
                          Y9        X5        X1        Y1        X10
   1                    0.22675  -0.20572   0.16771  -0.15877  -0.13934
 RFO step:  Lambda0=7.899109239D-03 Lambda=-1.31267481D-02.
 Linear search not attempted -- option 19 set.
 Maximum step size (   0.100) exceeded in Quadratic search.
    -- Step size scaled by   0.134
 B after Tr=     0.002691   -0.003492   -0.001828
         Rot=    1.000000    0.000021   -0.000075   -0.000363 Ang=   0.04 deg.
 Variable       Old X    -DE/DX   Delta X   Delta X   Delta X     New X
                                 (Linear)    (Quad)   (Total)
    X1       -1.80199  -0.02317   0.00000   0.01194   0.01366  -1.78834
    Y1        1.26697  -0.01782   0.00000  -0.00276  -0.00757   1.25940
    Z1       -0.40761   0.00537   0.00000   0.00053  -0.00109  -0.40870
    X2       -3.60019  -0.00714   0.00000   0.01210   0.01529  -3.58490
    Y2       -0.57649   0.01869   0.00000   0.00706   0.00099  -0.57550
    Z2        0.56883  -0.02660   0.00000  -0.00472  -0.00598   0.56285
    X3       -5.69217   0.00736   0.00000   0.01523   0.01857  -5.67360
    Y3       -0.94083  -0.00455   0.00000  -0.02060  -0.02823  -0.96907
    Z3       -0.34682   0.00932   0.00000   0.00107   0.00013  -0.34669
    X4        0.50954   0.00634   0.00000   0.02365   0.02530   0.53484
    Y4        1.58527   0.01641   0.00000  -0.00918  -0.01226   1.57301
    Z4        0.69374   0.01466   0.00000  -0.00022  -0.00220   0.69154
    X5        5.58929  -0.00186   0.00000  -0.02213  -0.01894   5.57036
    Y5       -0.66393   0.00217   0.00000   0.00227   0.00284  -0.66109
    Z5        0.17514   0.00150   0.00000   0.00341   0.00078   0.17592
    X6        5.65079  -0.00108   0.00000  -0.04219  -0.03824   5.61255
    Y6       -1.31272  -0.00007   0.00000   0.01882   0.01950  -1.29322
    Z6        2.14009   0.00225   0.00000   0.01049   0.00788   2.14796
    X7        6.62115   0.00427   0.00000  -0.01418  -0.01016   6.61099
    Y7       -2.01986  -0.00161   0.00000  -0.01211  -0.01084  -2.03070
    Z7       -1.00212  -0.00016   0.00000   0.02541   0.02268  -0.97944
    X8        6.53891   0.00000   0.00000  -0.01361  -0.01177   6.52715
    Y8        1.17163   0.00245   0.00000  -0.00168  -0.00043   1.17120
    Z8        0.05839   0.00025   0.00000  -0.00350  -0.00635   0.05204
    X9        2.96018   0.02462   0.00000  -0.01518  -0.01228   2.94790
    Y9       -0.43858  -0.02420   0.00000   0.00174   0.00035  -0.43823
    Z9       -0.67917  -0.02127   0.00000  -0.01869  -0.02094  -0.70011
   X10        2.18788  -0.00565   0.00000  -0.02866  -0.02448   2.16340
   Y10       -2.21165   0.00258   0.00000   0.00781   0.00585  -2.20580
   Z10       -0.69607   0.00097   0.00000  -0.01861  -0.02067  -0.71674
   X11        2.98706  -0.00459   0.00000  -0.01402  -0.01178   2.97528
   Y11        0.07835   0.00087   0.00000   0.00993   0.00849   0.08684
   Z11       -2.54264   0.00069   0.00000  -0.01546  -0.01773  -2.56037
   X12        1.54659   0.00026   0.00000   0.01028   0.01060   1.55719
   Y12        3.31639   0.00156   0.00000   0.00672   0.00436   3.32076
   Z12        0.22200   0.00758   0.00000   0.02724   0.02504   0.24705
   X13        0.81268  -0.00097   0.00000   0.00911   0.01159   0.82427
   Y13        0.81371   0.00496   0.00000   0.00379   0.00100   0.81471
   Z13        2.59438   0.00270   0.00000   0.00853   0.00654   2.60092
   X14       -2.38491  -0.00146   0.00000   0.01588   0.01654  -2.36838
   Y14        2.37483   0.00212   0.00000   0.00673   0.00143   2.37626
   Z14       -2.03321  -0.00425   0.00000   0.00381   0.00223  -2.03098
   X15       -2.96293   0.00306   0.00000   0.01187   0.01609  -2.94684
   Y15       -1.65985  -0.00359   0.00000   0.02005   0.01451  -1.64534
   Z15        2.25723   0.00701   0.00000   0.01100   0.00968   2.26691
         Item               Value     Threshold  Converged?
 Maximum Force            0.026598     0.000450     NO 
 RMS     Force            0.010127     0.000300     NO 
 Maximum Displacement     0.038241     0.001800     NO 
 RMS     Displacement     0.014602     0.001200     NO 
 Predicted change in Energy=-6.886830D-04
 GradGradGradGradGradGradGradGradGradGradGradGradGradGradGradGradGradGrad

                          Input orientation:                          
 ---------------------------------------------------------------------
 Center     Atomic      Atomic             Coordinates (Angstroms)
 Number     Number       Type             X           Y           Z
 ---------------------------------------------------------------------
      1          6           0       -0.946347    0.666446   -0.216276
      2          6           0       -1.897047   -0.304540    0.297846
      3          8           0       -3.002340   -0.512807   -0.183461
      4          6           0        0.283025    0.832402    0.365947
      5          6           0        2.947705   -0.349834    0.093092
      6          1           0        2.970034   -0.684342    1.136653
      7          1           0        3.498386   -1.074601   -0.518299
      8          1           0        3.454016    0.619773    0.027536
      9          7           0        1.559964   -0.231901   -0.370483
     10          1           0        1.144824   -1.167259   -0.379282
     11          1           0        1.574451    0.045954   -1.354888
     12          1           0        0.824027    1.757269    0.130733
     13          1           0        0.436186    0.431124    1.376350
     14          1           0       -1.253291    1.257465   -1.074746
     15          1           0       -1.559403   -0.870678    1.199598
 ---------------------------------------------------------------------
                    Distance matrix (angstroms):
                    1          2          3          4          5
     1  C    0.000000
     2  C    1.452916   0.000000
     3  O    2.370405   1.223399   0.000000
     4  C    1.370358   2.459672   3.592361   0.000000
     5  C    4.036356   4.849288   5.958697   2.927909   0.000000
     6  H    4.358106   4.953415   6.118935   3.180333   1.096091
     7  H    4.783107   5.510878   6.533542   3.841497   1.096511
     8  H    4.407360   5.437030   6.558338   3.196079   1.095804
     9  N    2.666908   3.521769   4.574768   1.818142   1.467868
    10  H    2.786044   3.233537   4.203049   2.301458   2.035118
    11  H    2.834761   3.860786   4.757254   2.290754   2.034483
    12  H    2.108207   3.418074   4.460163   1.096991   2.991873
    13  H    2.122082   2.673639   3.891976   1.097906   2.926495
    14  H    1.086503   2.176761   2.643374   2.148614   4.647109
    15  H    2.177909   1.116993   2.030515   2.643860   4.670081
                    6          7          8          9         10
     6  H    0.000000
     7  H    1.780541   0.000000
     8  H    1.779072   1.780677   0.000000
     9  N    2.112927   2.118838   2.114522   0.000000
    10  H    2.421293   2.359484   2.948111   1.023383   0.000000
    11  H    2.947671   2.378456   2.402735   1.022970   1.615014
    12  H    3.402747   3.948788   2.867297   2.179362   2.985949
    13  H    2.778867   3.903072   3.310920   2.180345   2.477749
    14  H    5.147560   5.322274   4.876517   3.260153   3.480504
    15  H    4.533705   5.345464   5.359995   3.550160   3.145420
                   11         12         13         14         15
    11  H    0.000000
    12  H    2.387217   0.000000
    13  H    2.983901   1.860281   0.000000
    14  H    3.089071   2.453209   3.089505   0.000000
    15  H    4.145679   3.705310   2.389206   3.129750   0.000000
 Stoichiometry    C4H9NO
 Framework group  C1[X(C4H9NO)]
 Deg. of freedom    39
 Full point group                 C1      NOp   1
 Largest Abelian subgroup         C1      NOp   1
 Largest concise Abelian subgroup C1      NOp   1
                         Standard orientation:                         
 ---------------------------------------------------------------------
 Center     Atomic      Atomic             Coordinates (Angstroms)
 Number     Number       Type             X           Y           Z
 ---------------------------------------------------------------------
      1          6           0       -0.948376    0.675002   -0.225974
      2          6           0       -1.905811   -0.279043    0.307017
      3          8           0       -3.011772   -0.490433   -0.171385
      4          6           0        0.281267    0.845428    0.354383
      5          6           0        2.938819   -0.358894    0.110103
      6          1           0        2.957710   -0.671608    1.160468
      7          1           0        3.485723   -1.099734   -0.485203
      8          1           0        3.451292    0.605945    0.024979
      9          7           0        1.552441   -0.242024   -0.357800
     10          1           0        1.131449   -1.174749   -0.347604
     11          1           0        1.569934    0.015058   -1.347784
     12          1           0        0.828366    1.761767    0.100625
     13          1           0        0.430610    0.464448    1.373181
     14          1           0       -1.250502    1.249820   -1.097061
     15          1           0       -1.572884   -0.828272    1.220900
 ---------------------------------------------------------------------
 Rotational constants (GHZ):          11.4786476           1.2893410           1.2369327
 Standard basis: STO-3G (5D, 7F)
 There are    39 symmetry adapted cartesian basis functions of A   symmetry.
 There are    39 symmetry adapted basis functions of A   symmetry.
    39 basis functions,   117 primitive gaussians,    39 cartesian basis functions
    24 alpha electrons       24 beta electrons
       nuclear repulsion energy       226.6999415213 Hartrees.
 NAtoms=   15 NActive=   15 NUniq=   15 SFac= 1.00D+00 NAtFMM=   60 NAOKFM=F Big=F
 Integral buffers will be    131072 words long.
 Raffenetti 1 integral format.
 Two-electron integral symmetry is turned on.
 External calculation of energy, first and second derivatives.
 Running external command "~/scripts/MiMe -H 'am1' -EF 'wb97xd def2svp' -c 12 -m 48GB R"
         input file       "/local/jobs/1176105/Gau-587161.EIn"
         output file      "/local/jobs/1176105/Gau-587161.EOu"
         message file     "/local/jobs/1176105/Gau-587161.EMs"
         fchk file        "/local/jobs/1176105/Gau-587161.EFC"
         mat. el file     "/local/jobs/1176105/Gau-587161.EUF"
 Read checkpoint file Gau-587161_H.chk type G16
 Write formatted file Gau-587161_H.fchk

deriv: 2

spelevel: wb97xd def2svp
gradlevel: wb97xd def2svp
hesslevel: am1

runspe: False
runforce: True
runfreq: True

Running Gaussian ...

Parsing files ...
SPE file: Gau-587161_F.out
FORCE file: Gau-587161_F.out
HESS file: Gau-587161_H.out

 ExternalExternalExternalExternalExternalExternalExternalExternalExternalExternal
 Output from external command:
 "~/scripts/MiMe -H 'am1' -EF 'wb97xd def2svp' -c 12 -m 48GB R /local/jobs/1176105/Gau-587161.EIn /local/jobs/1176105/Gau-587161.EOu /local/jobs/1176105/Gau-587161.EMs /local/jobs/1176105/Gau-587161.EFC /local/jobs/1176105/Gau-587161.EUF"
  
 --------------------------------------------------
 Force calculation at wb97xd def2svp
 Hessian calculation at am1
 ExternalExternalExternalExternalExternalExternalExternalExternalExternalExternal

 Recovered energy= -287.430729147     dipole=      9.282100000000     -0.557500000000     -0.206100000000
 Energy=    -287.430729     NIter=   0.
 Dipole moment=       9.282100      -0.557500      -0.206100
 ***** Axes restored to original set *****
 -------------------------------------------------------------------
 Center     Atomic                   Forces (Hartrees/Bohr)
 Number     Number              X              Y              Z
 -------------------------------------------------------------------
      1        6          -0.021273293   -0.015330793    0.004476589
      2        6          -0.006197781    0.015278738   -0.022807222
      3        8           0.006549606   -0.003368963    0.007989651
      4        6           0.004874421    0.015208641    0.013533029
      5        6          -0.001420381    0.001720604    0.001476765
      6        1          -0.001174504    0.000053162    0.001840007
      7        1           0.003707177   -0.001326083   -0.000060416
      8        1          -0.000390698    0.002218092    0.000171555
      9        7           0.023131991   -0.022019396   -0.018694524
     10        1          -0.005312300    0.002463006    0.000867371
     11        1          -0.004327069    0.000879818    0.000322032
     12        1           0.000593352    0.001119242    0.006662121
     13        1          -0.000531155    0.004033683    0.002221246
     14        1          -0.001235745    0.001899879   -0.003964213
     15        1           0.003006378   -0.002829632    0.005966012
 -------------------------------------------------------------------
 Cartesian Forces:  Max     0.023131991 RMS     0.009010492

 GradGradGradGradGradGradGradGradGradGradGradGradGradGradGradGradGradGrad
 Berny optimization.
 Search for a saddle point.
 Step number   5 out of a maximum of   50
 All quantities printed in internal units (Hartrees-Bohrs-Radians)
 Swapping is turned off.
 Second derivative matrix not updated -- analytic derivatives used.
 ITU=  0  0  0  0  0
     Eigenvalues ---   -0.06679  -0.00757  -0.00487  -0.00091   0.00141
     Eigenvalues ---    0.00306   0.00971   0.01573   0.02473   0.03909
     Eigenvalues ---    0.04337   0.05063   0.05230   0.05829   0.07517
     Eigenvalues ---    0.07746   0.07839   0.08827   0.09329   0.11980
     Eigenvalues ---    0.15187   0.15951   0.16491   0.18159   0.21767
     Eigenvalues ---    0.25139   0.34322   0.42836   0.56570   0.60940
     Eigenvalues ---    0.65142   0.71750   0.79307   0.83892   0.91208
     Eigenvalues ---    0.96000   1.00136   1.40960   2.27386
 Eigenvectors required to have negative eigenvalues:
                          X4        Y4        X9        Z4        X7
   1                    0.49107  -0.44738  -0.34013  -0.27357  -0.25587
                          Y9        X5        X1        Y1        X10
   1                    0.22989  -0.20054   0.16333  -0.15987  -0.13781
 RFO step:  Lambda0=7.135059554D-03 Lambda=-1.09568664D-02.
 Linear search not attempted -- option 19 set.
 Maximum step size (   0.100) exceeded in Quadratic search.
    -- Step size scaled by   0.136
 B after Tr=     0.000588    0.000262   -0.000031
         Rot=    1.000000    0.000377   -0.000289    0.000402 Ang=   0.07 deg.
 Variable       Old X    -DE/DX   Delta X   Delta X   Delta X     New X
                                 (Linear)    (Quad)   (Total)
    X1       -1.78834  -0.02127   0.00000   0.01310   0.01445  -1.77388
    Y1        1.25940  -0.01533   0.00000  -0.01160  -0.01023   1.24917
    Z1       -0.40870   0.00448   0.00000  -0.01005  -0.00999  -0.41870
    X2       -3.58490  -0.00620   0.00000   0.00732   0.00777  -3.57713
    Y2       -0.57550   0.01528   0.00000   0.00411   0.00766  -0.56783
    Z2        0.56285  -0.02281   0.00000  -0.01261  -0.01015   0.55270
    X3       -5.67360   0.00655   0.00000  -0.00757  -0.00793  -5.68153
    Y3       -0.96907  -0.00337   0.00000   0.01545   0.02003  -0.94903
    Z3       -0.34669   0.00799   0.00000   0.01841   0.02238  -0.32431
    X4        0.53484   0.00487   0.00000   0.02108   0.02332   0.55816
    Y4        1.57301   0.01521   0.00000  -0.01865  -0.01832   1.55469
    Z4        0.69154   0.01353   0.00000  -0.00399  -0.00551   0.68603
    X5        5.57036  -0.00142   0.00000  -0.01251  -0.01235   5.55801
    Y5       -0.66109   0.00172   0.00000   0.01373   0.00966  -0.65143
    Z5        0.17592   0.00148   0.00000   0.00344   0.00068   0.17660
    X6        5.61255  -0.00117   0.00000  -0.01311  -0.01231   5.60024
    Y6       -1.29322   0.00005   0.00000   0.00482   0.00220  -1.29102
    Z6        2.14796   0.00184   0.00000   0.00129  -0.00100   2.14696
    X7        6.61099   0.00371   0.00000   0.01380   0.01222   6.62321
    Y7       -2.03070  -0.00133   0.00000   0.03400   0.02820  -2.00250
    Z7       -0.97944  -0.00006   0.00000   0.00200  -0.00035  -0.97980
    X8        6.52715  -0.00039   0.00000  -0.03816  -0.03657   6.49058
    Y8        1.17120   0.00222   0.00000   0.02891   0.02400   1.19520
    Z8        0.05204   0.00017   0.00000   0.01661   0.01192   0.06396
    X9        2.94790   0.02313   0.00000  -0.01102  -0.01120   2.93670
    Y9       -0.43823  -0.02202   0.00000  -0.01264  -0.01527  -0.45350
    Z9       -0.70011  -0.01869   0.00000  -0.00731  -0.00869  -0.70880
   X10        2.16340  -0.00531   0.00000  -0.01386  -0.01547   2.14794
   Y10       -2.20580   0.00246   0.00000  -0.01106  -0.01306  -2.21886
   Z10       -0.71674   0.00087   0.00000   0.00769   0.00808  -0.70866
   X11        2.97528  -0.00433   0.00000  -0.02094  -0.02179   2.95349
   Y11        0.08684   0.00088   0.00000  -0.01735  -0.02140   0.06544
   Z11       -2.56037   0.00032   0.00000  -0.00849  -0.01028  -2.57065
   X12        1.55719   0.00059   0.00000   0.01284   0.01624   1.57343
   Y12        3.32076   0.00112   0.00000  -0.00637  -0.00717   3.31359
   Z12        0.24705   0.00666   0.00000   0.02325   0.01981   0.26686
   X13        0.82427  -0.00053   0.00000   0.00035   0.00310   0.82737
   Y13        0.81471   0.00403   0.00000  -0.00447  -0.00291   0.81180
   Z13        2.60092   0.00222   0.00000   0.00606   0.00494   2.60587
   X14       -2.36838  -0.00124   0.00000   0.02196   0.02327  -2.34510
   Y14        2.37626   0.00190   0.00000  -0.00230  -0.00169   2.37457
   Z14       -2.03098  -0.00396   0.00000  -0.00829  -0.00876  -2.03973
   X15       -2.94684   0.00301   0.00000   0.01669   0.01725  -2.92959
   Y15       -1.64534  -0.00283   0.00000  -0.00601  -0.00169  -1.64704
   Z15        2.26691   0.00597   0.00000  -0.01599  -0.01308   2.25383
         Item               Value     Threshold  Converged?
 Maximum Force            0.023132     0.000450     NO 
 RMS     Force            0.009010     0.000300     NO 
 Maximum Displacement     0.036567     0.001800     NO 
 RMS     Displacement     0.014685     0.001200     NO 
 Predicted change in Energy=-5.228328D-04
 GradGradGradGradGradGradGradGradGradGradGradGradGradGradGradGradGradGrad

                          Input orientation:                          
 ---------------------------------------------------------------------
 Center     Atomic      Atomic             Coordinates (Angstroms)
 Number     Number       Type             X           Y           Z
 ---------------------------------------------------------------------
      1          6           0       -0.938699    0.661033   -0.221564
      2          6           0       -1.892937   -0.300485    0.292476
      3          8           0       -3.006539   -0.502207   -0.171619
      4          6           0        0.295364    0.822706    0.363030
      5          6           0        2.941172   -0.344722    0.093453
      6          1           0        2.963518   -0.683180    1.136123
      7          1           0        3.504852   -1.059680   -0.518485
      8          1           0        3.434666    0.632473    0.033844
      9          7           0        1.554034   -0.239983   -0.375083
     10          1           0        1.136639   -1.174172   -0.375004
     11          1           0        1.562921    0.034630   -1.360328
     12          1           0        0.832623    1.753475    0.141216
     13          1           0        0.437826    0.429586    1.378967
     14          1           0       -1.240975    1.256569   -1.079380
     15          1           0       -1.550274   -0.871574    1.192675
 ---------------------------------------------------------------------
                    Distance matrix (angstroms):
[...]
  Atom  AN      X      Y      Z        X      Y      Z        X      Y      Z
     1   6     0.00  -0.01   0.01    -0.02   0.00   0.02    -0.00   0.01  -0.00
     2   6    -0.01   0.03   0.01     0.01   0.01  -0.01    -0.01  -0.06   0.06
     3   8     0.00  -0.00  -0.00     0.00   0.00   0.00    -0.00   0.00  -0.01
     4   6     0.01   0.05  -0.04     0.05  -0.02  -0.01    -0.02   0.02  -0.06
     5   6     0.01   0.04  -0.03     0.03   0.02   0.03    -0.02   0.00  -0.02
     6   1    -0.25  -0.06  -0.06     0.08  -0.02   0.01    -0.07  -0.01  -0.02
     7   1    -0.01  -0.07   0.05    -0.08  -0.03  -0.05    -0.02  -0.00  -0.01
     8   1     0.19  -0.05   0.14     0.11  -0.02   0.03    -0.02   0.00  -0.01
     9   7    -0.02  -0.07   0.06    -0.00  -0.06  -0.06     0.02  -0.01   0.02
    10   1     0.20  -0.19  -0.17    -0.00  -0.06  -0.07     0.03  -0.01  -0.02
    11   1    -0.18   0.21   0.14     0.00  -0.04  -0.06     0.09   0.00   0.02
    12   1    -0.40   0.31   0.18    -0.47   0.33   0.39    -0.06   0.05   0.05
    13   1     0.41  -0.34  -0.21    -0.42   0.47   0.23    -0.20   0.01  -0.05
    14   1     0.01  -0.10  -0.07    -0.08  -0.03   0.02     0.87   0.38   0.03
    15   1     0.06  -0.06  -0.08     0.00   0.02   0.00    -0.05  -0.07   0.06
                     19                     20                     21
                      A                      A                      A
 Frequencies --   1268.9015              1302.0245              1319.2594
 Red. masses --      2.3570                 1.2049                 1.8390
 Frc consts  --      2.2360                 1.2035                 1.8858
 IR Inten    --      0.0000                 0.0000                 0.0000
  Atom  AN      X      Y      Z        X      Y      Z        X      Y      Z
     1   6     0.05  -0.02   0.08    -0.00   0.03  -0.04    -0.05   0.11  -0.15
     2   6     0.01   0.05  -0.05    -0.01  -0.03   0.03    -0.02  -0.09   0.09
     3   8     0.01  -0.00   0.01    -0.01  -0.00  -0.01    -0.04  -0.00  -0.02
     4   6    -0.00  -0.02  -0.04     0.02   0.00   0.00     0.06  -0.05   0.05
     5   6    -0.20  -0.01  -0.10    -0.03  -0.06   0.04    -0.05   0.02  -0.03
     6   1    -0.38  -0.03  -0.09     0.27   0.02   0.08    -0.27  -0.02  -0.05
     7   1    -0.25  -0.03  -0.15    -0.08  -0.08   0.01    -0.11   0.04  -0.12
     8   1    -0.37   0.07  -0.16    -0.31   0.05  -0.04    -0.02   0.01  -0.08
     9   7     0.20   0.02   0.10     0.04   0.05  -0.04     0.08  -0.03   0.03
    10   1     0.28  -0.03   0.14     0.59  -0.21   0.13    -0.16   0.09   0.03
    11   1     0.29   0.01   0.09    -0.58   0.09  -0.02     0.27  -0.01   0.03
    12   1    -0.21   0.09  -0.11     0.01   0.03   0.09     0.10  -0.01   0.38
    13   1    -0.38  -0.03  -0.02     0.11   0.08   0.03     0.58   0.37   0.19
    14   1    -0.24  -0.14   0.06     0.02   0.03  -0.04    -0.11   0.07  -0.14
    15   1    -0.03   0.02  -0.03    -0.02  -0.04   0.02     0.00  -0.06   0.05
                     22                     23                     24
                      A                      A                      A
 Frequencies --   1329.2136              1334.1566              1379.9598
 Red. masses --      1.0965                 1.0770                 1.2657
 Frc consts  --      1.1414                 1.1295                 1.4201
 IR Inten    --      0.0000                 0.0000                 0.0000
  Atom  AN      X      Y      Z        X      Y      Z        X      Y      Z
     1   6     0.00  -0.00   0.00    -0.00   0.00  -0.00    -0.00   0.02  -0.01
     2   6     0.00   0.00  -0.00    -0.00  -0.00   0.00     0.00  -0.01   0.01
     3   8     0.00  -0.00   0.00    -0.00   0.00  -0.00    -0.00  -0.00  -0.00
     4   6    -0.00   0.00  -0.00     0.00  -0.00   0.00     0.02   0.00   0.02
     5   6    -0.01  -0.08   0.04     0.02  -0.03  -0.07     0.11   0.02   0.07
     6   1    -0.25   0.43   0.19     0.08   0.56   0.19    -0.38  -0.09  -0.01
     7   1     0.13   0.57  -0.46    -0.23  -0.19  -0.11    -0.37  -0.11  -0.30
     8   1     0.30  -0.15  -0.12    -0.18   0.05   0.70    -0.31   0.16  -0.18
     9   7     0.00   0.00  -0.01     0.01  -0.01   0.00     0.03  -0.03  -0.03
    10   1     0.08  -0.03   0.02    -0.09   0.04   0.00    -0.35   0.17   0.11
    11   1    -0.11   0.02   0.00     0.05   0.01   0.01    -0.35   0.21   0.07
    12   1    -0.02   0.01  -0.01     0.00  -0.00  -0.01    -0.07   0.02  -0.21
    13   1    -0.01  -0.01  -0.01     0.00  -0.00   0.00    -0.13  -0.16  -0.05
    14   1     0.01  -0.00   0.00    -0.00   0.00  -0.00     0.01   0.01  -0.02
    15   1     0.00   0.00  -0.00    -0.00  -0.00   0.00    -0.06  -0.04   0.02
                     25                     26                     27
                      A                      A                      A
 Frequencies --   1388.0261              1406.4701              1457.1828
 Red. masses --      1.5183                 1.3597                 1.2914
 Frc consts  --      1.7234                 1.5848                 1.6157
 IR Inten    --      0.0000                 0.0000                 0.0000
  Atom  AN      X      Y      Z        X      Y      Z        X      Y      Z
     1   6    -0.07  -0.11   0.08     0.04   0.03  -0.03    -0.05  -0.00  -0.02
     2   6     0.01   0.05  -0.06     0.00  -0.01   0.02    -0.03  -0.06   0.05
     3   8     0.03   0.01  -0.00    -0.01  -0.01   0.00    -0.04   0.01  -0.04
     4   6    -0.08   0.01  -0.07     0.01   0.01   0.04     0.09   0.02   0.06
     5   6     0.06  -0.01   0.02     0.10  -0.02   0.01    -0.01  -0.00  -0.00
     6   1    -0.25  -0.02  -0.00    -0.30   0.00  -0.01    -0.00   0.00  -0.00
     7   1    -0.16  -0.06  -0.14    -0.10  -0.06  -0.14     0.00   0.00   0.00
     8   1    -0.25   0.10  -0.09    -0.27   0.10  -0.08    -0.01  -0.00  -0.00
     9   7    -0.01   0.01   0.01    -0.10   0.05   0.02    -0.00   0.00   0.00
    10   1     0.10  -0.04  -0.02     0.42  -0.24  -0.27     0.09  -0.05  -0.06
    11   1     0.03  -0.03  -0.00     0.41  -0.41  -0.14     0.08  -0.08  -0.03
    12   1     0.31  -0.16   0.46    -0.08   0.05  -0.09    -0.07   0.07  -0.23
    13   1     0.29   0.27   0.04    -0.05  -0.04   0.01    -0.21  -0.19  -0.01
    14   1     0.12  -0.01   0.09    -0.06   0.00  -0.02    -0.01   0.01  -0.01
    15   1     0.40   0.27  -0.07    -0.21  -0.14   0.02     0.79   0.42  -0.04
                     28                     29                     30
                      A                      A                      A
 Frequencies --   1580.6459              1699.8721              2108.4409
 Red. masses --      5.2556                 1.1242                12.3728
 Frc consts  --      7.7365                 1.9139                32.4073
 IR Inten    --      0.0000                 0.0000                 0.0000
  Atom  AN      X      Y      Z        X      Y      Z        X      Y      Z
     1   6     0.47   0.16   0.06     0.01   0.00  -0.00    -0.06  -0.06   0.04
     2   6    -0.07  -0.12   0.10     0.00  -0.00   0.00     0.75   0.20   0.18
     3   8    -0.10  -0.02  -0.04    -0.00  -0.00  -0.00    -0.50  -0.09  -0.17
     4   6    -0.24  -0.09  -0.15     0.00   0.00   0.00    -0.06   0.00  -0.01
     5   6     0.03   0.00   0.02     0.02  -0.01  -0.00    -0.00  -0.00  -0.00
     6   1    -0.00  -0.00   0.01    -0.02  -0.00  -0.00    -0.00   0.00   0.00
     7   1    -0.01  -0.01  -0.01     0.02  -0.00  -0.00     0.01   0.00   0.01
     8   1     0.01   0.01   0.00    -0.02   0.00  -0.01    -0.00   0.00  -0.00
     9   7    -0.04   0.02   0.00    -0.07  -0.02  -0.06     0.01  -0.00   0.00
    10   1    -0.16   0.09   0.02     0.22  -0.09   0.66     0.00  -0.00  -0.01
    11   1    -0.13   0.05   0.02     0.44   0.53   0.14    -0.00  -0.02  -0.00
    12   1    -0.20  -0.05   0.14    -0.01   0.01  -0.02     0.01  -0.06  -0.00
    13   1     0.06   0.23  -0.02    -0.01  -0.01  -0.00     0.00  -0.02  -0.01
    14   1    -0.20  -0.12   0.04    -0.00   0.00   0.00     0.06  -0.00   0.04
    15   1     0.57   0.25  -0.00     0.01  -0.00   0.00     0.04  -0.14   0.19
                     31                     32                     33
                      A                      A                      A
 Frequencies --   2888.0556              3138.0202              3187.4350
 Red. masses --      1.0629                 1.0982                 1.0931
 Frc consts  --      5.2235                 6.3717                 6.5433
 IR Inten    --      0.0000                 0.0000                 0.0000
  Atom  AN      X      Y      Z        X      Y      Z        X      Y      Z
     1   6     0.00   0.00  -0.00     0.00  -0.00   0.00     0.00  -0.00   0.00
     2   6    -0.03   0.03  -0.06    -0.00  -0.00   0.00    -0.00  -0.00   0.00
     3   8    -0.00   0.00  -0.00     0.00  -0.00   0.00     0.00   0.00  -0.00
     4   6    -0.00   0.00  -0.00     0.02   0.06  -0.06    -0.00   0.00  -0.00
     5   6    -0.00  -0.00  -0.00     0.00   0.00  -0.00    -0.01  -0.08   0.03
     6   1     0.00  -0.00   0.00    -0.00  -0.00   0.01     0.01   0.15  -0.50
     7   1     0.00   0.00   0.00     0.00   0.00  -0.00    -0.16   0.11   0.16
     8   1    -0.00   0.00  -0.00    -0.01  -0.01  -0.00     0.29   0.74   0.03
     9   7     0.00   0.00  -0.00    -0.00  -0.00   0.00     0.00   0.01  -0.01
    10   1     0.00  -0.00  -0.00     0.02   0.04  -0.00    -0.05  -0.12   0.01
    11   1    -0.00  -0.00   0.00    -0.00   0.02  -0.04    -0.00  -0.03   0.10
    12   1     0.00   0.00  -0.00    -0.32  -0.54   0.02     0.01   0.03  -0.00
    13   1     0.00  -0.00   0.00     0.06  -0.27   0.71     0.00  -0.02   0.05
    14   1    -0.01   0.02  -0.03    -0.02   0.07  -0.08    -0.00   0.01  -0.01
    15   1     0.36  -0.50   0.78    -0.00   0.00  -0.00    -0.00   0.00  -0.00
                     34                     35                     36
                      A                      A                      A
 Frequencies --   3190.7735              3192.6953              3228.3135
 Red. masses --      1.0498                 1.0943                 1.0781
 Frc consts  --      6.2974                 6.5720                 6.6201
 IR Inten    --      0.0000                 0.0000                 0.0000
  Atom  AN      X      Y      Z        X      Y      Z        X      Y      Z
     1   6     0.00  -0.01   0.01     0.00  -0.00   0.00    -0.02   0.05  -0.06
     2   6     0.00  -0.00   0.00     0.00  -0.00   0.00    -0.00   0.00  -0.00
     3   8    -0.00   0.00  -0.00     0.00   0.00   0.00    -0.00   0.00  -0.00
     4   6    -0.04  -0.03  -0.04    -0.00  -0.00  -0.00    -0.00   0.00  -0.01
     5   6    -0.00   0.01   0.00     0.03  -0.03  -0.08    -0.00  -0.00   0.00
     6   1    -0.00   0.00  -0.00    -0.00  -0.23   0.53    -0.00   0.00  -0.01
     7   1     0.04  -0.04  -0.04    -0.48   0.46   0.43     0.01  -0.01  -0.00
     8   1    -0.02  -0.05   0.00     0.07   0.12  -0.03     0.01   0.02   0.00
     9   7     0.00  -0.00  -0.00    -0.00  -0.00   0.00    -0.00  -0.00   0.00
    10   1    -0.01  -0.01   0.00     0.01   0.02   0.00     0.02   0.04  -0.00
    11   1    -0.00   0.00  -0.01     0.00   0.02  -0.08    -0.00   0.01  -0.05
    12   1     0.38   0.66  -0.08     0.03   0.05  -0.01     0.01   0.02  -0.01
    13   1     0.03  -0.25   0.57     0.00  -0.01   0.03     0.01  -0.05   0.13
    14   1    -0.02   0.06  -0.08    -0.00   0.00  -0.00     0.23  -0.59   0.75
    15   1    -0.00   0.00  -0.01    -0.00   0.00  -0.00     0.01  -0.02   0.02
                     37                     38                     39
                      A                      A                      A
 Frequencies --   3243.4666              3279.5717              3318.9853
 Red. masses --      1.0889                 1.0256                 1.0448
 Frc consts  --      6.7495                 6.4992                 6.7810
 IR Inten    --      0.0000                 0.0000                 0.0000
  Atom  AN      X      Y      Z        X      Y      Z        X      Y      Z
     1   6     0.00  -0.00   0.00     0.00  -0.00   0.00    -0.00  -0.00  -0.00
     2   6     0.00   0.00   0.00    -0.00  -0.00   0.00     0.00   0.00   0.00
     3   8    -0.00  -0.00   0.00     0.00   0.00   0.00    -0.00  -0.00  -0.00
     4   6    -0.00  -0.01   0.00    -0.00   0.00   0.00     0.00  -0.00  -0.00
     5   6    -0.00  -0.01   0.01    -0.04  -0.00  -0.02    -0.00  -0.00  -0.01
     6   1    -0.00   0.04  -0.12    -0.03  -0.22   0.56     0.00  -0.03   0.07
     7   1     0.01  -0.02  -0.01     0.32  -0.32  -0.32     0.01  -0.01  -0.01
     8   1     0.05   0.11   0.01     0.19   0.54   0.00     0.03   0.07   0.00
     9   7    -0.02  -0.06   0.05    -0.00   0.00   0.00    -0.02  -0.02  -0.04
    10   1     0.31   0.64  -0.01    -0.03  -0.06   0.01     0.30   0.60  -0.06
    11   1    -0.02   0.17  -0.64     0.00   0.02  -0.07     0.00  -0.24   0.69
    12   1     0.02   0.04   0.00    -0.00  -0.01   0.00     0.01   0.01  -0.00
    13   1    -0.00   0.01  -0.04    -0.00   0.00  -0.01    -0.00  -0.00   0.01
    14   1    -0.02   0.04  -0.05    -0.00   0.00  -0.01    -0.00   0.00   0.00
    15   1     0.00  -0.00   0.00    -0.00   0.00  -0.00     0.00  -0.00   0.00

 -------------------
 - Thermochemistry -
 -------------------
 Temperature   298.150 Kelvin.  Pressure   1.00000 Atm.
 Atom     1 has atomic number  6 and mass  12.00000
 Atom     2 has atomic number  6 and mass  12.00000
 Atom     3 has atomic number  8 and mass  15.99491
 Atom     4 has atomic number  6 and mass  12.00000
 Atom     5 has atomic number  6 and mass  12.00000
 Atom     6 has atomic number  1 and mass   1.00783
 Atom     7 has atomic number  1 and mass   1.00783
 Atom     8 has atomic number  1 and mass   1.00783
 Atom     9 has atomic number  7 and mass  14.00307
 Atom    10 has atomic number  1 and mass   1.00783
 Atom    11 has atomic number  1 and mass   1.00783
 Atom    12 has atomic number  1 and mass   1.00783
 Atom    13 has atomic number  1 and mass   1.00783
 Atom    14 has atomic number  1 and mass   1.00783
 Atom    15 has atomic number  1 and mass   1.00783
 Molecular mass:    87.06841 amu.
 Principal axes and moments of inertia in atomic units:
                           1         2         3
     Eigenvalues --   146.009321347.383181393.30523
           X            0.99997  -0.00803   0.00120
           Y            0.00811   0.99526  -0.09695
           Z           -0.00042   0.09696   0.99529
 This molecule is an asymmetric top.
 Rotational symmetry number  1.
 Rotational temperatures (Kelvin)      0.59321     0.06428     0.06216
 Rotational constants (GHZ):          12.36045     1.33944     1.29529
    4 imaginary frequencies ignored.
 Zero-point vibrational energy     341673.2 (Joules/Mol)
                                   81.66184 (Kcal/Mol)
 Warning -- explicit consideration of   5 degrees of freedom as
           vibrations may cause significant error
 Vibrational temperatures:    186.34   353.56   464.79   662.46   874.84
          (Kelvin)           1105.38  1170.98  1331.10  1435.83  1453.27
                             1498.22  1574.67  1746.77  1798.31  1825.67
                             1873.32  1898.12  1912.44  1919.55  1985.45
                             1997.06  2023.60  2096.56  2274.20  2445.74
                             3033.58  4155.27  4514.91  4586.01  4590.81
                             4593.58  4644.82  4666.62  4718.57  4775.28
 
 Zero-point correction=                           0.130136 (Hartree/Particle)
 Thermal correction to Energy=                    0.135403
 Thermal correction to Enthalpy=                  0.136348
 Thermal correction to Gibbs Free Energy=         0.100810
 Sum of electronic and zero-point Energies=           -287.301541
 Sum of electronic and thermal Energies=              -287.296274
 Sum of electronic and thermal Enthalpies=            -287.295329
 Sum of electronic and thermal Free Energies=         -287.330867
 
                     E (Thermal)             CV                S
                      KCal/Mol        Cal/Mol-Kelvin    Cal/Mol-Kelvin
 Total                   84.967             18.403             74.795
 Electronic               0.000              0.000              0.000
 Translational            0.889              2.981             39.305
 Rotational               0.889              2.981             27.108
 Vibrational             83.189             12.442              8.382
 Vibration     1          0.612              1.924              2.953
 Vibration     2          0.660              1.770              1.761
 Vibration     3          0.708              1.629              1.295
 Vibration     4          0.818              1.338              0.765
 Vibration     5          0.967              1.015              0.436
                       Q            Log10(Q)             Ln(Q)
 Total Bot       0.427236D-46        -46.369333       -106.769334
 Total V=0       0.308473D+14         13.489217         31.060071
 Vib (Bot)       0.713868D-59        -59.146382       -136.189577
 Vib (Bot)    1  0.157428D+01          0.197083          0.453800
 Vib (Bot)    2  0.795835D+00         -0.099177         -0.228364
 Vib (Bot)    3  0.580839D+00         -0.235945         -0.543282
 Vib (Bot)    4  0.369275D+00         -0.432650         -0.996214
 Vib (Bot)    5  0.243538D+00         -0.613433         -1.412482
 Vib (V=0)       0.515428D+01          0.712168          1.639828
 Vib (V=0)    1  0.215178D+01          0.332797          0.766294
 Vib (V=0)    2  0.143987D+01          0.158323          0.364552
 Vib (V=0)    3  0.126640D+01          0.102572          0.236181
 Vib (V=0)    4  0.112158D+01          0.049831          0.114740
 Vib (V=0)    5  0.105616D+01          0.023729          0.054637
 Electronic      0.100000D+01          0.000000          0.000000
 Translational   0.319334D+08          7.504245         17.279162
 Rotational      0.187415D+06          5.272805         12.141081
 ***** Axes restored to original set *****
 -------------------------------------------------------------------
 Center     Atomic                   Forces (Hartrees/Bohr)
 Number     Number              X              Y              Z
 -------------------------------------------------------------------
      1        6          -0.001894895    0.000965096    0.000412834
      2        6          -0.003831919   -0.001246881   -0.001290794
      3        8           0.004357863    0.000455827    0.001316406
      4        6          -0.003915798    0.004496280    0.003352226
      5        6           0.000686713   -0.000085415   -0.000340673
      6        1           0.000152180    0.000050679   -0.000364497
      7        1           0.000772317   -0.000348713    0.000332919
      8        1           0.000483510   -0.000634676   -0.000202472
      9        7           0.004662135   -0.003327685   -0.002382129
     10        1           0.000286926   -0.000821571   -0.000144962
     11        1           0.000478329   -0.000096761   -0.000405935
     12        1          -0.000472473   -0.000241819   -0.000071210
     13        1          -0.000359868    0.000294231   -0.000137841
     14        1          -0.000445878    0.000108899    0.000221796
     15        1          -0.000959143    0.000432508   -0.000295665
 -------------------------------------------------------------------
 Cartesian Forces:  Max     0.004662135 RMS     0.001727020


 WHEN HAVING A MEETING OF THE MINDS,
 MAKE SURE YOU HAVE THE EQUIPMENT FOR IT.
 Error termination request processed by link 9999.
 Error termination via Lnk1e in /apps/gaussian/g16/C.01/g16/l9999.exe at Mon May 20 13:14:57 2024.
 Job cpu time:       0 days  3 hours 23 minutes 28.0 seconds.
 Elapsed time:       0 days  0 hours 30 minutes 15.4 seconds.
 File lengths (MBytes):  RWF=      6 Int=      0 D2E=      0 Chk=      1 Scr=      1
