Unloading slurm/anatra/current
  ERROR: No such file or directory on
    '/cm/local/modulefiles/slurm/anatra/current'
environment: line 0: unalias: gv: not found
environment: line 0: unalias: sl: not found
 Entering Gaussian System, Link 0=g16
 Initial command:
 /apps/gaussian/g16/C.01/g16/l1.exe "/local/jobs/1176106/Gau-587155.inp" -scrdir="/local/jobs/1176106/"
 Entering Link 1 = /apps/gaussian/g16/C.01/g16/l1.exe PID=    587163.
  
 Copyright (c) 1988-2019, Gaussian, Inc.  All Rights Reserved.
  
 This is part of the Gaussian(R) 16 program.  It is based on
 the Gaussian(R) 09 system (copyright 2009, Gaussian, Inc.),
 the Gaussian(R) 03 system (copyright 2003, Gaussian, Inc.),
 the Gaussian(R) 98 system (copyright 1998, Gaussian, Inc.),
 the Gaussian(R) 94 system (copyright 1995, Gaussian, Inc.),
 the Gaussian 92(TM) system (copyright 1992, Gaussian, Inc.),
 the Gaussian 90(TM) system (copyright 1990, Gaussian, Inc.),
 the Gaussian 88(TM) system (copyright 1988, Gaussian, Inc.),
 the Gaussian 86(TM) system (copyright 1986, Carnegie Mellon
 University), and the Gaussian 82(TM) system (copyright 1983,
 Carnegie Mellon University). Gaussian is a federally registered
 trademark of Gaussian, Inc.
  
 This software contains proprietary and confidential information,
 including trade secrets, belonging to Gaussian, Inc.
  
 This software is provided under written license and may be
 used, copied, transmitted, or stored only in accord with that
 written license.
  
 The following legend is applicable only to US Government
 contracts under FAR:
  
                    RESTRICTED RIGHTS LEGEND
  
 Use, reproduction and disclosure by the US Government is
 subject to restrictions as set forth in subparagraphs (a)
 and (c) of the Commercial Computer Software - Restricted
 Rights clause in FAR 52.227-19.
  
 Gaussian, Inc.
 340 Quinnipiac St., Bldg. 40, Wallingford CT 06492
  
  
 ---------------------------------------------------------------
 Warning -- This program may not be used in any manner that
 competes with the business of Gaussian, Inc. or will provide
 assistance to any competitor of Gaussian, Inc.  The licensee
 of this program is prohibited from giving any competitor of
 Gaussian, Inc. access to this program.  By using this program,
 the user acknowledges that Gaussian, Inc. is engaged in the
 business of creating and licensing software in the field of
 computational chemistry and represents and warrants to the
 licensee that it is not a competitor of Gaussian, Inc. and that
 it will not use this program in any manner prohibited above.
 ---------------------------------------------------------------
  

 Cite this work as:
 Gaussian 16, Revision C.01,
 M. J. Frisch, G. W. Trucks, H. B. Schlegel, G. E. Scuseria, 
 M. A. Robb, J. R. Cheeseman, G. Scalmani, V. Barone, 
 G. A. Petersson, H. Nakatsuji, X. Li, M. Caricato, A. V. Marenich, 
 J. Bloino, B. G. Janesko, R. Gomperts, B. Mennucci, H. P. Hratchian, 
 J. V. Ortiz, A. F. Izmaylov, J. L. Sonnenberg, D. Williams-Young, 
 F. Ding, F. Lipparini, F. Egidi, J. Goings, B. Peng, A. Petrone, 
 T. Henderson, D. Ranasinghe, V. G. Zakrzewski, J. Gao, N. Rega, 
 G. Zheng, W. Liang, M. Hada, M. Ehara, K. Toyota, R. Fukuda, 
 J. Hasegawa, M. Ishida, T. Nakajima, Y. Honda, O. Kitao, H. Nakai, 
 T. Vreven, K. Throssell, J. A. Montgomery, Jr., J. E. Peralta, 
 F. Ogliaro, M. J. Bearpark, J. J. Heyd, E. N. Brothers, K. N. Kudin, 
 V. N. Staroverov, T. A. Keith, R. Kobayashi, J. Normand, 
 K. Raghavachari, A. P. Rendell, J. C. Burant, S. S. Iyengar, 
 J. Tomasi, M. Cossi, J. M. Millam, M. Klene, C. Adamo, R. Cammi, 
 J. W. Ochterski, R. L. Martin, K. Morokuma, O. Farkas, 
 J. B. Foresman, and D. J. Fox, Gaussian, Inc., Wallingford CT, 2019.
 
 ******************************************
 Gaussian 16:  ES64L-G16RevC.01  3-Jul-2019
                20-May-2024 
 ******************************************
 %nprocshared=12
 Will use up to   12 processors via shared memory.
 %mem=48GB
 ----------------------------------------------------------------------
 # external="~/scripts/MiMe -H 'am1' -EF 'wb97xd def2svp' -c 12 -m 48GB
 " opt=(calcall,ts,noeigen,maxcycles=50,maxstep=10,nomicro,cartesian)
 ----------------------------------------------------------------------
 1/5=1,6=50,8=10,10=4,11=1,18=10,26=1,38=1/1,3;
 2/12=2,17=6,18=5,29=2,40=1/2;
 3/11=9,25=1,30=1,41=9900000,43=2,71=2,140=1/1;
 4/20=17,22=2,24=3,113=1,114=1/2;
 6/7=2,8=2,9=2,10=2,18=1/1;
 7/7=1,25=1,44=-1/16;
 1/5=1,6=50,8=10,10=4,11=1,18=10,26=1/3(3);
 2/29=1/2;
 7/7=1,8=1,9=1,25=1,44=-1/16;
 99/12=1/99;
 2/29=1/2;
 3/11=9,25=1,30=1,41=9900000,43=2,71=2,140=1/1;
 4/16=2,20=17,22=2,24=3,113=1,114=1/2;
 7/7=1,25=1,44=-1/16;
 1/5=1,6=50,8=10,10=4,11=1,18=10,26=1/3(-4);
 2/29=1/2;
 6/7=2,8=2,9=2,10=2,18=1/1;
 7/7=1,8=1,9=1,25=1,44=-1/16;
 99/12=1/99;
 ----------
 TS-325.out
 ----------
 Symbolic Z-matrix:
 Charge =  0 Multiplicity = 1
 C                     0.06177   0.16222  -0.05987 
 C                    -0.40074   1.45584   0.53163 
 O                    -1.15429   1.50254   1.49781 
 C                    -0.85367  -0.80502  -0.34582 
 C                    -0.17766  -2.94069   1.77398 
 H                    -0.63118  -3.30064   2.7018 
 H                    -0.07938  -3.77989   1.08005 
 H                     0.82018  -2.55382   1.99723 
 N                    -1.00546  -1.89012   1.17544 
 H                    -1.95493  -2.2718    1.0865 
 H                    -1.12869  -1.1636    1.89783 
 H                    -0.54188  -1.70552  -0.88485 
 Br                   -2.6779   -0.38746  -0.7648 
 C                     1.50834  -0.10668  -0.22143 
 C                     2.39043   0.13335   0.84219 
 C                     3.76031  -0.0945    0.69505 
 C                     4.26366  -0.56034  -0.51778 
 C                     3.39924  -0.79839  -1.58439 
 C                     2.02876  -0.57131  -1.43866 
 H                     2.01427   0.49002   1.7996 
 H                     4.43291   0.08937   1.52903 
 H                     5.33005  -0.7391   -0.63114 
 H                     3.79175  -1.16099  -2.5311 
 H                     1.37285  -0.75516  -2.28698 
 N                     0.13935   2.56268  -0.08207 
 C                    -0.10745   3.88962   0.41632 
 H                     0.84287   2.43119  -0.79729 
 H                    -1.14152   3.98435   0.75836 
 H                     0.57131   4.07921   1.25198 
 H                     0.08687   4.60465  -0.38633 
 

 GradGradGradGradGradGradGradGradGradGradGradGradGradGradGradGradGradGrad
 Berny optimization.
 Initialization pass.
 No Z-matrix variables, so optimization will use Cartesian coordinates.
 Trust Radius=1.00D-01 FncErr=1.00D-07 GrdErr=1.00D-07 EigMax=2.50D+02 EigMin=1.00D-04
 Number of steps in this run=     50 maximum allowed number of steps=    180.
 Search for a saddle point of order  1.
 GradGradGradGradGradGradGradGradGradGradGradGradGradGradGradGradGradGrad

 ---------------------------------------------------------------------------------------------------
                            Z-MATRIX (ANGSTROMS AND DEGREES)
   CD    Cent   Atom    N1       Length/X        N2       Alpha/Y        N3        Beta/Z          J
 ---------------------------------------------------------------------------------------------------
      1      1  C        0   0.061770          0.162220         -0.059870
      2      2  C        0  -0.400740          1.455840          0.531630
      3      3  O        0  -1.154290          1.502540          1.497810
      4      4  C        0  -0.853670         -0.805020         -0.345820
      5      5  C        0  -0.177660         -2.940690          1.773980
      6      6  H        0  -0.631180         -3.300640          2.701800
      7      7  H        0  -0.079380         -3.779890          1.080050
      8      8  H        0   0.820180         -2.553820          1.997230
      9      9  N        0  -1.005460         -1.890120          1.175440
     10     10  H        0  -1.954930         -2.271800          1.086500
     11     11  H        0  -1.128690         -1.163600          1.897830
     12     12  H        0  -0.541880         -1.705520         -0.884850
     13     13  Br       0  -2.677900         -0.387460         -0.764800
     14     14  C        0   1.508340         -0.106680         -0.221430
     15     15  C        0   2.390430          0.133350          0.842190
     16     16  C        0   3.760310         -0.094500          0.695050
     17     17  C        0   4.263660         -0.560340         -0.517780
     18     18  C        0   3.399240         -0.798390         -1.584390
     19     19  C        0   2.028760         -0.571310         -1.438660
     20     20  H        0   2.014270          0.490020          1.799600
     21     21  H        0   4.432910          0.089370          1.529030
     22     22  H        0   5.330050         -0.739100         -0.631140
     23     23  H        0   3.791750         -1.160990         -2.531100
     24     24  H        0   1.372850         -0.755160         -2.286980
     25     25  N        0   0.139350          2.562680         -0.082070
     26     26  C        0  -0.107450          3.889620          0.416320
     27     27  H        0   0.842870          2.431190         -0.797290
     28     28  H        0  -1.141520          3.984350          0.758360
     29     29  H        0   0.571310          4.079210          1.251980
     30     30  H        0   0.086870          4.604650         -0.386330
 ---------------------------------------------------------------------------------------------------
                         Z-Matrix orientation:                         
 ---------------------------------------------------------------------
 Center     Atomic      Atomic             Coordinates (Angstroms)
 Number     Number       Type             X           Y           Z
 ---------------------------------------------------------------------
      1          6           0        0.061770    0.162220   -0.059870
      2          6           0       -0.400740    1.455840    0.531630
      3          8           0       -1.154290    1.502540    1.497810
      4          6           0       -0.853670   -0.805020   -0.345820
      5          6           0       -0.177660   -2.940690    1.773980
      6          1           0       -0.631180   -3.300640    2.701800
      7          1           0       -0.079380   -3.779890    1.080050
      8          1           0        0.820180   -2.553820    1.997230
      9          7           0       -1.005460   -1.890120    1.175440
     10          1           0       -1.954930   -2.271800    1.086500
     11          1           0       -1.128690   -1.163600    1.897830
     12          1           0       -0.541880   -1.705520   -0.884850
     13         35           0       -2.677900   -0.387460   -0.764800
     14          6           0        1.508340   -0.106680   -0.221430
     15          6           0        2.390430    0.133350    0.842190
     16          6           0        3.760310   -0.094500    0.695050
     17          6           0        4.263660   -0.560340   -0.517780
     18          6           0        3.399240   -0.798390   -1.584390
     19          6           0        2.028760   -0.571310   -1.438660
     20          1           0        2.014270    0.490020    1.799600
     21          1           0        4.432910    0.089370    1.529030
     22          1           0        5.330050   -0.739100   -0.631140
     23          1           0        3.791750   -1.160990   -2.531100
     24          1           0        1.372850   -0.755160   -2.286980
     25          7           0        0.139350    2.562680   -0.082070
     26          6           0       -0.107450    3.889620    0.416320
     27          1           0        0.842870    2.431190   -0.797290
     28          1           0       -1.141520    3.984350    0.758360
     29          1           0        0.571310    4.079210    1.251980
     30          1           0        0.086870    4.604650   -0.386330
 ---------------------------------------------------------------------
                    Distance matrix (angstroms):
                    1          2          3          4          5
     1  C    0.000000
     2  C    1.495741   0.000000
     3  O    2.387808   1.226182   0.000000
     4  C    1.362113   2.467094   2.968868   0.000000
     5  C    3.612255   4.574131   4.557671   3.084093   0.000000
     6  H    4.483124   5.233244   4.979335   3.945327   1.093661
     7  H    4.106041   5.274173   5.406850   3.388581   1.093368
     8  H    3.490519   4.440271   4.538944   3.368970   1.093249
     9  N    2.622417   3.460582   3.411190   1.874757   1.465333
    10  H    3.362394   4.076602   3.880186   2.327178   2.019587
    11  H    2.647184   3.042676   2.696103   2.288707   2.019368
    12  H    2.129187   3.467064   4.042742   1.094836   2.954264
    13  Br   2.881816   3.203739   3.318568   1.917737   4.383559
    14  C    1.480194   2.579371   3.554571   2.466220   3.854331
    15  C    2.497439   3.104200   3.856107   3.579957   4.112547
    16  C    3.783518   4.443489   5.229556   4.782997   4.977198
    17  C    4.288083   5.188725   6.137773   5.126061   5.535662
    18  C    3.792840   4.898871   5.960610   4.429599   5.353719
    19  C    2.511609   3.727446   4.801616   3.091492   4.561064
    20  H    2.716126   2.893584   3.340067   3.808548   4.071239
    21  H    4.651535   5.121154   5.763231   5.680046   5.522556
    22  H    5.375268   6.245939   7.183595   6.190650   6.400505
    23  H    4.665899   5.814214   6.913018   5.146075   6.120234
    24  H    2.742360   3.997337   5.080185   2.954315   4.865390
    25  N    2.401816   1.376016   2.300744   3.520945   5.816571
    26  C    3.761503   2.454099   2.821993   4.814286   6.964288
    27  H    2.510404   2.064922   3.180963   3.681729   6.042351
    28  H    4.089754   2.644527   2.589658   4.923427   7.065174
    29  H    4.162138   2.888919   3.110845   5.332845   7.079014
    30  H    4.454480   3.315934   3.835824   5.490973   7.852966
                    6          7          8          9         10
     6  H    0.000000
     7  H    1.778830   0.000000
     8  H    1.777809   1.775859   0.000000
     9  N    2.111736   2.106645   2.109217   0.000000
    10  H    2.328094   2.406671   2.934314   1.027172   0.000000
    11  H    2.336841   2.935096   2.395973   1.031923   1.602821
    12  H    3.926378   2.894434   3.298667   2.119853   2.490704
    13  Br   4.969205   4.654499   4.955652   2.969777   2.738747
    14  C    4.829513   4.207990   3.374094   3.383947   4.288667
    15  C    4.937668   4.633572   3.319742   3.967059   4.972584
    16  C    5.795823   5.336061   4.048246   5.115427   6.128445
    17  C    6.467952   5.637425   4.707100   5.692006   6.646328
    18  C    6.393510   5.299941   4.749851   5.311301   6.162120
    19  C    5.627427   4.591638   4.146848   4.216547   5.013770
    20  H    4.709721   4.809704   3.275648   3.895306   4.887812
    21  H    6.205849   5.961000   4.500831   5.798213   6.824621
    22  H    7.294261   6.437120   5.526343   6.687845   7.640052
    23  H    7.177998   5.906326   5.592493   6.106005   6.880789
    24  H    5.948406   4.753405   4.679218   4.351189   4.975408
    25  N    6.536220   6.451865   5.564673   4.766482   5.396644
    26  C    7.562906   7.698228   6.699081   5.898142   6.467258
    27  H    6.875342   6.553813   5.714909   5.097225   5.787440
    28  H    7.557016   7.843153   6.937632   5.890829   6.317335
    29  H    7.616439   7.887865   6.679403   6.174541   6.837002
    30  H    8.517379   8.513426   7.580422   6.768630   7.322823
                   11         12         13         14         15
    11  H    0.000000
    12  H    2.895053   0.000000
    13  Br   3.176798   2.512822   0.000000
    14  C    3.544329   2.683248   4.230685   0.000000
    15  C    3.896237   3.868146   5.342437   1.402492   0.000000
    16  C    5.147036   4.858015   6.608142   2.431348   1.396473
    17  C    5.939405   4.953725   6.948105   2.808099   2.416550
    18  C    5.723756   4.104226   6.145911   2.431383   2.788212
    19  C    4.631680   2.863796   4.758207   1.402985   2.414462
    20  H    3.552788   4.308198   5.418725   2.167159   1.088735
    21  H    5.712910   5.813517   7.486831   3.414038   2.155321
    22  H    6.949188   5.956333   8.016781   3.895290   3.401946
    23  H    6.620133   4.667655   6.750891   3.414690   3.875319
    24  H    4.892562   2.556432   4.342903   2.169189   3.408317
    25  N    4.406029   4.396142   4.135982   3.003171   3.438497
    26  C    5.364032   5.760848   5.127930   4.357513   4.531041
    27  H    4.906448   4.363206   4.510173   2.686122   3.219147
    28  H    5.272565   5.952674   4.877828   4.971747   5.226079
    29  H    5.549250   6.266445   5.880128   4.535486   4.364280
    30  H    6.322000   6.360982   5.719122   4.923860   5.177661
                   16         17         18         19         20
    16  C    0.000000
    17  C    1.393314   0.000000
    18  C    2.412816   1.393394   0.000000
    19  C    2.788966   2.417213   1.396788   0.000000
    20  H    2.147173   3.396066   3.876794   3.407779   0.000000
    21  H    1.087070   2.154112   3.398526   3.876031   2.466485
    22  H    2.153688   1.087195   2.154119   3.402757   4.291111
    23  H    3.398004   2.153355   1.087107   2.156219   4.963893
    24  H    3.876718   3.394820   2.145171   1.087964   4.319957
    25  N    4.558056   5.191631   4.917381   3.902832   3.369262
    26  C    5.559719   6.307241   6.186853   5.282446   4.239391
    27  H    4.137348   4.552931   4.193416   3.291306   3.447341
    28  H    6.377222   7.176260   6.998684   5.969222   4.822192
    29  H    5.282021   6.187966   6.311352   5.566960   3.906956
    30  H    6.061811   6.643792   6.449805   5.627513   5.042156
                   21         22         23         24         25
    21  H    0.000000
    22  H    2.481443   0.000000
    23  H    4.296410   2.480767   0.000000
    24  H    4.963782   4.289696   2.464827   0.000000
    25  N    5.210332   6.176293   5.762247   4.170277   0.000000
    26  C    6.024524   7.217245   7.028492   5.574325   1.438775
    27  H    4.876912   5.496647   4.960418   3.557089   1.011815
    28  H    6.843908   8.131599   7.850619   6.169206   2.089999
    29  H    5.559455   7.029072   7.220985   6.044654   2.065464
    30  H    6.553199   7.490429   7.181140   5.830418   2.065180
                   26         27         28         29         30
    26  C    0.000000
    27  H    2.122022   0.000000
    28  H    1.093282   2.961445   0.000000
    29  H    1.093155   2.643714   1.785062   0.000000
    30  H    1.092371   2.337595   1.789980   1.787408   0.000000
 Stoichiometry    C11H15BrN2O
 Framework group  C1[X(C11H15BrN2O)]
 Deg. of freedom    84
 Full point group                 C1      NOp   1
 Largest Abelian subgroup         C1      NOp   1
 Largest concise Abelian subgroup C1      NOp   1
                         Standard orientation:                         
 ---------------------------------------------------------------------
 Center     Atomic      Atomic             Coordinates (Angstroms)
 Number     Number       Type             X           Y           Z
 ---------------------------------------------------------------------
      1          6           0        0.061771    0.162220   -0.059871
      2          6           0       -0.400741    1.455839    0.531629
      3          8           0       -1.154291    1.502538    1.497809
      4          6           0       -0.853668   -0.805021   -0.345821
      5          6           0       -0.177655   -2.940690    1.773979
      6          1           0       -0.631175   -3.300641    2.701799
      7          1           0       -0.079374   -3.779890    1.080049
      8          1           0        0.820184   -2.553819    1.997229
      9          7           0       -1.005456   -1.890121    1.175439
     10          1           0       -1.954926   -2.271803    1.086499
     11          1           0       -1.128687   -1.163601    1.897829
     12          1           0       -0.541877   -1.705521   -0.884851
     13         35           0       -2.677898   -0.387463   -0.764801
     14          6           0        1.508341   -0.106678   -0.221431
     15          6           0        2.390431    0.133353    0.842189
     16          6           0        3.760311   -0.094495    0.695049
     17          6           0        4.263662   -0.560335   -0.517781
     18          6           0        3.399242   -0.798386   -1.584391
     19          6           0        2.028762   -0.571308   -1.438661
     20          1           0        2.014271    0.490022    1.799599
     21          1           0        4.432911    0.089375    1.529029
     22          1           0        5.330052   -0.739093   -0.631141
     23          1           0        3.791753   -1.160985   -2.531101
     24          1           0        1.372852   -0.755158   -2.286981
     25          7           0        0.139348    2.562680   -0.082071
     26          6           0       -0.107454    3.889620    0.416319
     27          1           0        0.842868    2.431191   -0.797291
     28          1           0       -1.141524    3.984349    0.758359
     29          1           0        0.571306    4.079211    1.251979
     30          1           0        0.086865    4.604650   -0.386331
 ---------------------------------------------------------------------
 Rotational constants (GHZ):           0.5707058           0.3130453           0.2543192
 Standard basis: STO-3G (5D, 7F)
 There are   104 symmetry adapted cartesian basis functions of A   symmetry.
 There are   103 symmetry adapted basis functions of A   symmetry.
   103 basis functions,   312 primitive gaussians,   104 cartesian basis functions
    69 alpha electrons       69 beta electrons
       nuclear repulsion energy      1347.9991246151 Hartrees.
 NAtoms=   30 NActive=   30 NUniq=   30 SFac= 1.00D+00 NAtFMM=   60 NAOKFM=F Big=F
 Integral buffers will be    131072 words long.
 Raffenetti 1 integral format.
 Two-electron integral symmetry is turned on.
 External calculation of energy, first and second derivatives.
 Running external command "~/scripts/MiMe -H 'am1' -EF 'wb97xd def2svp' -c 12 -m 48GB R"
         input file       "/local/jobs/1176106/Gau-587163.EIn"
         output file      "/local/jobs/1176106/Gau-587163.EOu"
         message file     "/local/jobs/1176106/Gau-587163.EMs"
         fchk file        "/local/jobs/1176106/Gau-587163.EFC"
         mat. el file     "/local/jobs/1176106/Gau-587163.EUF"
 Read checkpoint file Gau-587163_H.chk type G16
 Write formatted file Gau-587163_H.fchk

deriv: 2

spelevel: wb97xd def2svp
gradlevel: wb97xd def2svp
hesslevel: am1

runspe: False
runforce: True
runfreq: True

Running Gaussian ...

Parsing files ...
SPE file: Gau-587163_F.out
FORCE file: Gau-587163_F.out
HESS file: Gau-587163_H.out

 ExternalExternalExternalExternalExternalExternalExternalExternalExternalExternal
 Output from external command:
 "~/scripts/MiMe -H 'am1' -EF 'wb97xd def2svp' -c 12 -m 48GB R /local/jobs/1176106/Gau-587163.EIn /local/jobs/1176106/Gau-587163.EOu /local/jobs/1176106/Gau-587163.EMs /local/jobs/1176106/Gau-587163.EFC /local/jobs/1176106/Gau-587163.EUF"
  
 --------------------------------------------------
 Force calculation at wb97xd def2svp
 Hessian calculation at am1
 ExternalExternalExternalExternalExternalExternalExternalExternalExternalExternal

 Recovered energy= -3186.12941520     dipole=      1.200900000000     -3.104500000000      0.376200000000
 Energy=    -3186.12942     NIter=   0.
 Dipole moment=       1.200900      -3.104500       0.376200
 ***** Axes restored to original set *****
 -------------------------------------------------------------------
 Center     Atomic                   Forces (Hartrees/Bohr)
 Number     Number              X              Y              Z
 -------------------------------------------------------------------
      1        6          -0.001720372    0.021014517   -0.012066100
      2        6           0.018747369   -0.009361337   -0.001782190
      3        8          -0.002427398    0.008060121   -0.006357442
      4        6           0.022972178   -0.002259832   -0.024519171
      5        6           0.004553538    0.003164048   -0.009007489
      6        1           0.000023169   -0.003614399    0.004773783
      7        1           0.001140051   -0.002945186   -0.002416408
      8        1           0.003391391    0.002005216   -0.000592329
      9        7          -0.040868928   -0.021046559    0.053559972
     10        1           0.002033591    0.000183013   -0.000333819
     11        1           0.002047528    0.002885873   -0.009297876
     12        1           0.000818244    0.007896110   -0.009008446
     13       35           0.000196220   -0.003137862    0.004975389
     14        6          -0.011077958    0.004107306   -0.002121278
     15        6           0.010643485   -0.001658333   -0.001884103
     16        6          -0.006059152    0.000699692   -0.002989362
     17        6           0.000616557   -0.000349538   -0.000047287
     18        6          -0.005080430    0.000096115    0.004789660
     19        6           0.011465596   -0.003685447    0.001094326
     20        1          -0.003482082    0.001421633    0.001667977
     21        1           0.002391962    0.000713404    0.003013846
     22        1           0.003705661   -0.000411738   -0.000499207
     23        1           0.001292009   -0.000959245   -0.003576982
     24        1          -0.004188348    0.001177728   -0.001282472
     25        7          -0.013916840   -0.007728269    0.008792708
     26        6           0.007391777   -0.006510149   -0.002173872
     27        1          -0.002856317   -0.003042485    0.000239075
     28        1          -0.002366730   -0.000466849    0.001270424
     29        1           0.000934091    0.008793299    0.006859288
     30        1          -0.000319866    0.004959152   -0.001080613
 -------------------------------------------------------------------
 Cartesian Forces:  Max     0.053559972 RMS     0.009953923

 GradGradGradGradGradGradGradGradGradGradGradGradGradGradGradGradGradGrad
 Berny optimization.
 Search for a saddle point.
 Step number   1 out of a maximum of   50
 All quantities printed in internal units (Hartrees-Bohrs-Radians)
 Swapping is turned off.
 Second derivative matrix not updated -- analytic derivatives used.
 ITU=  0
     Eigenvalues ---   -0.07883  -0.00995  -0.00922  -0.00460  -0.00133
     Eigenvalues ---   -0.00112  -0.00072  -0.00062   0.00011   0.00138
     Eigenvalues ---    0.00343   0.00550   0.00634   0.00856   0.01115
     Eigenvalues ---    0.01274   0.01647   0.01871   0.02140   0.02795
     Eigenvalues ---    0.02926   0.03431   0.04036   0.04764   0.04889
     Eigenvalues ---    0.05141   0.05211   0.05625   0.05757   0.05933
     Eigenvalues ---    0.06621   0.07123   0.07694   0.07798   0.07880
     Eigenvalues ---    0.08466   0.08738   0.09107   0.09294   0.10816
     Eigenvalues ---    0.11038   0.12601   0.12899   0.14347   0.15386
     Eigenvalues ---    0.15744   0.17487   0.19696   0.20260   0.21704
     Eigenvalues ---    0.21893   0.22224   0.23813   0.25273   0.28579
     Eigenvalues ---    0.31209   0.33941   0.39263   0.44682   0.47837
     Eigenvalues ---    0.48051   0.60697   0.64198   0.68005   0.74421
     Eigenvalues ---    0.75068   0.76454   0.81102   0.81747   0.83096
     Eigenvalues ---    0.83977   0.88416   0.89827   0.94595   0.98240
     Eigenvalues ---    1.11737   1.21105   1.23933   1.25280   1.29106
     Eigenvalues ---    1.42566   1.44202   1.44371   2.21925
 Eigenvectors required to have negative eigenvalues:
                          Z4        Y4        Y9        Z9        Z5
   1                    0.65795  -0.44446   0.27986  -0.26436  -0.19821
                          Z6        Y6        Y5        Z1        Y11
   1                   -0.17930   0.17057   0.15928   0.10639   0.10119
 RFO step:  Lambda0=1.119874023D-02 Lambda=-3.21598737D-02.
 Linear search not attempted -- option 19 set.
 Maximum step size (   0.100) exceeded in Quadratic search.
    -- Step size scaled by   0.120
 B after Tr=     0.000514   -0.002473    0.000995
         Rot=    1.000000    0.000133    0.000027   -0.000134 Ang=   0.02 deg.
 Variable       Old X    -DE/DX   Delta X   Delta X   Delta X     New X
                                 (Linear)    (Quad)   (Total)
    X1        0.11673  -0.00172   0.00000   0.00327   0.00371   0.12043
    Y1        0.30655   0.02101   0.00000   0.00002  -0.00245   0.30410
    Z1       -0.11314  -0.01207   0.00000   0.00150   0.00242  -0.11072
    X2       -0.75729   0.01875   0.00000   0.00353   0.00326  -0.75403
    Y2        2.75114  -0.00936   0.00000  -0.00626  -0.00867   2.74247
    Z2        1.00464  -0.00178   0.00000   0.00233   0.00255   1.00719
    X3       -2.18129  -0.00243   0.00000  -0.02121  -0.02160  -2.20290
    Y3        2.83939   0.00806   0.00000   0.00530   0.00299   2.84238
    Z3        2.83045  -0.00636   0.00000  -0.01681  -0.01669   2.81376
    X4       -1.61320   0.02297   0.00000   0.01488   0.01584  -1.59736
    Y4       -1.52127  -0.00226   0.00000  -0.02173  -0.02480  -1.54607
    Z4       -0.65351  -0.02452   0.00000   0.01867   0.01999  -0.63352
    X5       -0.33573   0.00455   0.00000  -0.00481  -0.00300  -0.33873
    Y5       -5.55710   0.00316   0.00000   0.01540   0.01373  -5.54337
    Z5        3.35234  -0.00901   0.00000  -0.01359  -0.01114   3.34120
    X6       -1.19276   0.00002   0.00000   0.01914   0.02104  -1.17172
    Y6       -6.23731  -0.00361   0.00000   0.01391   0.01249  -6.22481
    Z6        5.10566   0.00477   0.00000  -0.00022   0.00237   5.10803
    X7       -0.15001   0.00114   0.00000  -0.01167  -0.00936  -0.15936
    Y7       -7.14296  -0.00295   0.00000   0.00936   0.00739  -7.13557
    Z7        2.04100  -0.00242   0.00000  -0.00915  -0.00626   2.03474
    X8        1.54992   0.00339   0.00000  -0.00110   0.00050   1.55041
    Y8       -4.82602   0.00201   0.00000   0.02165   0.02059  -4.80543
    Z8        3.77422  -0.00059   0.00000  -0.03491  -0.03255   3.74166
    X9       -1.90004  -0.04087   0.00000  -0.03300  -0.03165  -1.93170
    Y9       -3.57181  -0.02105   0.00000   0.00688   0.00449  -3.56732
    Z9        2.22126   0.05356   0.00000   0.00893   0.01077   2.23203
   X10       -3.69428   0.00203   0.00000  -0.02510  -0.02355  -3.71783
   Y10       -4.29308   0.00018   0.00000  -0.00179  -0.00471  -4.29779
   Z10        2.05319  -0.00033   0.00000   0.00525   0.00719   2.06037
   X11       -2.13291   0.00205   0.00000  -0.02276  -0.02185  -2.15477
   Y11       -2.19889   0.00289   0.00000   0.01316   0.01107  -2.18781
   Z11        3.58638  -0.00930   0.00000  -0.00023   0.00123   3.58761
   X12       -1.02400   0.00082   0.00000   0.01727   0.01874  -1.00526
   Y12       -3.22297   0.00790   0.00000   0.00060  -0.00260  -3.22556
   Z12       -1.67212  -0.00901   0.00000  -0.01340  -0.01160  -1.68373
   X13       -5.06050   0.00020   0.00000   0.00864   0.00943  -5.05107
   Y13       -0.73219  -0.00314   0.00000  -0.01215  -0.01636  -0.74855
   Z13       -1.44526   0.00498   0.00000   0.00563   0.00655  -1.43871
   X14        2.85035  -0.01108   0.00000   0.00142   0.00201   2.85236
   Y14       -0.20160   0.00411   0.00000   0.00456   0.00274  -0.19886
   Z14       -0.41844  -0.00212   0.00000  -0.00348  -0.00227  -0.42072
   X15        4.51726   0.01064   0.00000   0.00363   0.00399   4.52125
   Y15        0.25199  -0.00166   0.00000   0.00189   0.00105   0.25304
   Z15        1.59151  -0.00188   0.00000  -0.00323  -0.00206   1.58945
   X16        7.10596  -0.00606   0.00000   0.00205   0.00254   7.10850
   Y16       -0.17858   0.00070   0.00000   0.00050   0.00028  -0.17830
   Z16        1.31345  -0.00299   0.00000  -0.00283  -0.00140   1.31206
   X17        8.05715   0.00062   0.00000   0.00249   0.00334   8.06049
   Y17       -1.05889  -0.00035   0.00000  -0.00083  -0.00141  -1.06030
   Z17       -0.97846  -0.00005   0.00000  -0.00249  -0.00077  -0.97923
   X18        6.42363  -0.00508   0.00000   0.00109   0.00217   6.42581
   Y18       -1.50874   0.00010   0.00000  -0.00093  -0.00249  -1.51123
   Z18       -2.99406   0.00479   0.00000  -0.00148   0.00026  -2.99380
   X19        3.83380   0.01147   0.00000   0.00259   0.00354   3.83734
   Y19       -1.07962  -0.00369   0.00000   0.00080  -0.00137  -1.08099
   Z19       -2.71867   0.00109   0.00000  -0.00187  -0.00038  -2.71905
   X20        3.80642  -0.00348   0.00000  -0.00085  -0.00076   3.80565
   Y20        0.92600   0.00142   0.00000   0.00179   0.00124   0.92724
   Z20        3.40075   0.00167   0.00000  -0.00361  -0.00265   3.39810
   X21        8.37699   0.00239   0.00000   0.00210   0.00241   8.37940
   Y21        0.16888   0.00071   0.00000  -0.00065  -0.00011   0.16878
   Z21        2.88945   0.00301   0.00000  -0.00108   0.00032   2.88977
   X22       10.07233   0.00371   0.00000   0.00312   0.00407  10.07641
   Y22       -1.39670  -0.00041   0.00000  -0.00073  -0.00083  -1.39753
   Z22       -1.19268  -0.00050   0.00000  -0.00282  -0.00090  -1.19358
   X23        7.16537   0.00129   0.00000   0.00019   0.00155   7.16692
   Y23       -2.19395  -0.00096   0.00000   0.00039  -0.00144  -2.19539
   Z23       -4.78309  -0.00358   0.00000  -0.00356  -0.00159  -4.78468
   X24        2.59431  -0.00419   0.00000  -0.00238  -0.00125   2.59306
   Y24       -1.42705   0.00118   0.00000   0.00531   0.00238  -1.42467
   Z24       -4.32177  -0.00128   0.00000  -0.00047   0.00104  -4.32072
   X25        0.26333  -0.01392   0.00000   0.00738   0.00660   0.26994
   Y25        4.84276  -0.00773   0.00000  -0.00370  -0.00613   4.83663
   Z25       -0.15509   0.00879   0.00000   0.01313   0.01285  -0.14224
   X26       -0.20305   0.00739   0.00000   0.00651   0.00501  -0.19804
   Y26        7.35032  -0.00651   0.00000  -0.00203  -0.00434   7.34597
   Z26        0.78673  -0.00217   0.00000   0.00594   0.00496   0.79169
   X27        1.59279  -0.00286   0.00000   0.00174   0.00111   1.59390
   Y27        4.59428  -0.00304   0.00000  -0.00467  -0.00712   4.58716
   Z27       -1.50666   0.00024   0.00000   0.00770   0.00756  -1.49910
   X28       -2.15716  -0.00237   0.00000   0.00836   0.00678  -2.15038
   Y28        7.52933  -0.00047   0.00000  -0.00767  -0.01033   7.51900
   Z28        1.43309   0.00127   0.00000   0.01736   0.01623   1.44933
   X29        1.07962   0.00093   0.00000   0.01173   0.01005   1.08967
   Y29        7.70859   0.00879   0.00000   0.02188   0.02033   7.72892
   Z29        2.36590   0.00686   0.00000  -0.00196  -0.00297   2.36293
   X30        0.16416  -0.00032   0.00000  -0.01290  -0.01467   0.14949
   Y30        8.70153   0.00496   0.00000  -0.00297  -0.00560   8.69593
   Z30       -0.73006  -0.00108   0.00000  -0.00175  -0.00307  -0.73313
         Item               Value     Threshold  Converged?
 Maximum Force            0.053560     0.000450     NO 
 RMS     Force            0.009954     0.000300     NO 
 Maximum Displacement     0.032554     0.001800     NO 
 RMS     Displacement     0.010404     0.001200     NO 
 Predicted change in Energy=-2.533432D-03
 GradGradGradGradGradGradGradGradGradGradGradGradGradGradGradGradGradGrad

                          Input orientation:                          
 ---------------------------------------------------------------------
 Center     Atomic      Atomic             Coordinates (Angstroms)
 Number     Number       Type             X           Y           Z
 ---------------------------------------------------------------------
      1          6           0        0.063731    0.160923   -0.058588
      2          6           0       -0.399015    1.451254    0.532980
      3          8           0       -1.165723    1.504122    1.488978
      4          6           0       -0.845285   -0.818144   -0.335244
      5          6           0       -0.179248   -2.933424    1.768085
      6          1           0       -0.620049   -3.294030    2.703054
      7          1           0       -0.084331   -3.775981    1.076739
      8          1           0        0.820444   -2.542926    1.980003
      9          7           0       -1.022211   -1.887745    1.181139
     10          1           0       -1.967391   -2.274292    1.090302
     11          1           0       -1.140255   -1.157740    1.898483
     12          1           0       -0.531963   -1.706894   -0.890991
     13         35           0       -2.672911   -0.396118   -0.761335
     14          6           0        1.509405   -0.105232   -0.222633
     15          6           0        2.392540    0.133904    0.841102
     16          6           0        3.761656   -0.094354    0.694310
     17          6           0        4.265427   -0.561085   -0.518188
     18          6           0        3.400391   -0.799706   -1.584250
     19          6           0        2.030631   -0.572035   -1.438860
     20          1           0        2.013865    0.490677    1.798197
     21          1           0        4.434187    0.089313    1.529202
     22          1           0        5.332205   -0.739540   -0.631616
     23          1           0        3.792571   -1.161753   -2.531943
     24          1           0        1.372186   -0.753901   -2.286427
     25          7           0        0.142845    2.559434   -0.075270
     26          6           0       -0.104797    3.887322    0.418945
     27          1           0        0.843457    2.427422   -0.793291
     28          1           0       -1.137931    3.978881    0.766950
     29          1           0        0.576630    4.089968    1.250411
     30          1           0        0.079108    4.601689   -0.387955
 ---------------------------------------------------------------------
                    Distance matrix (angstroms):
                    1          2          3          4          5
     1  C    0.000000
     2  C    1.492997   0.000000
     3  O    2.389707   1.226608   0.000000
     4  C    1.364339   2.470453   2.970418   0.000000
     5  C    3.601494   4.560613   4.554432   3.056471   0.000000
     6  H    4.475592   5.222624   4.979357   3.925812   1.094764
     7  H    4.100013   5.264854   5.405445   3.364751   1.094016
     8  H    3.469765   4.419777   4.534816   3.333151   1.093975
     9  N    2.629303   3.457948   3.408830   1.864073   1.465789
    10  H    3.372785   4.080455   3.883043   2.326300   2.022697
    11  H    2.649261   3.036592   2.693298   2.278567   2.023263
    12  H    2.129902   3.466881   4.046792   1.094030   2.949487
    13  Br   2.879818   3.202911   3.308540   1.923505   4.365117
    14  C    1.479095   2.575979   3.560329   2.462822   3.848789
    15  C    2.496703   3.102117   3.867619   3.574031   4.108758
    16  C    3.782416   4.441409   5.240771   4.775747   4.974337
    17  C    4.287981   5.187627   6.147453   5.120442   5.532646
    18  C    3.792592   4.897445   5.966720   4.425621   5.348338
    19  C    2.512185   3.726263   4.806178   3.090216   4.554582
    20  H    2.712824   2.888853   3.351487   3.799911   4.066340
    21  H    4.650493   5.119295   5.776010   5.672077   5.520668
    22  H    5.375501   6.245217   7.194025   6.185095   6.399047
    23  H    4.665962   5.812998   6.918046   5.143273   6.115914
    24  H    2.740844   3.993610   5.078714   2.954390   4.857607
    25  N    2.399873   1.375370   2.296280   3.528742   5.802861
    26  C    3.760650   2.456419   2.819606   4.822710   6.953295
    27  H    2.506946   2.062919   3.177741   3.687188   6.028702
    28  H    4.086846   2.643792   2.578087   4.930712   7.049916
    29  H    4.173001   2.903342   3.127188   5.350299   7.082893
    30  H    4.452990   3.316921   3.829805   5.498351   7.841759
                    6          7          8          9         10
     6  H    0.000000
     7  H    1.778812   0.000000
     8  H    1.778196   1.776213   0.000000
     9  N    2.110829   2.110913   2.112539   0.000000
    10  H    2.335844   2.408562   2.938666   1.025200   0.000000
    11  H    2.341299   2.940310   2.402025   1.030254   1.607482
    12  H    3.929876   2.890235   3.281853   2.137001   2.511557
    13  Br   4.961263   4.637104   4.932266   2.953467   2.730175
    14  C    4.823137   4.207465   3.356877   3.399560   4.303108
    15  C    4.928823   4.634396   3.306660   3.982866   4.987035
    16  C    5.785526   5.337813   4.037231   5.132118   6.142550
    17  C    6.458581   5.639127   4.694311   5.710241   6.661107
    18  C    6.384870   5.299280   4.732742   5.328284   6.175817
    19  C    5.620571   4.589834   4.127661   4.232651   5.027775
    20  H    4.698965   4.809085   3.264973   3.905817   4.898630
    21  H    6.194371   5.963407   4.493444   5.813964   6.838089
    22  H    7.285243   6.440288   5.516225   6.706941   7.655362
    23  H    7.170984   5.906534   5.576633   6.123411   6.894604
    24  H    5.942742   4.750295   4.659127   4.363801   4.986649
    25  N    6.524119   6.443308   5.542324   4.765849   5.401533
    26  C    7.553440   7.691511   6.681397   5.896948   6.471899
    27  H    6.863038   6.545229   5.691753   5.098996   5.792660
    28  H    7.544000   7.832237   6.916697   5.882368   6.316228
    29  H    7.620081   7.895580   6.677352   6.188226   6.855763
    30  H    8.507969   8.506316   7.563222   6.766662   7.324788
                   11         12         13         14         15
    11  H    0.000000
    12  H    2.907362   0.000000
    13  Br   3.162868   2.513683   0.000000
    14  C    3.553534   2.679404   4.226888   0.000000
    15  C    3.907307   3.865410   5.339243   1.403084   0.000000
    16  C    5.158445   4.852692   6.604060   2.431776   1.395753
    17  C    5.951277   4.946393   6.944556   2.809059   2.416274
    18  C    5.733680   4.094753   6.142073   2.431486   2.787422
    19  C    4.640628   2.855688   4.755344   1.403136   2.414032
    20  H    3.560311   4.306075   5.413268   2.166412   1.089364
    21  H    5.724152   5.809159   7.482849   3.414838   2.154945
    22  H    6.961970   5.949076   8.013528   3.896589   3.401974
    23  H    6.630344   4.657412   6.747125   3.414966   3.875079
    24  H    4.897849   2.545824   4.337824   2.167683   3.407456
    25  N    4.399935   4.395716   4.139378   2.998274   3.432792
    26  C    5.358532   5.761393   5.131874   4.354051   4.528030
    27  H    4.902464   4.358198   4.509794   2.680201   3.214207
    28  H    5.259777   5.953486   4.881848   4.966653   5.220496
    29  H    5.559328   6.278390   5.893352   4.543086   4.372128
    30  H    6.315510   6.358040   5.717613   4.922213   5.179155
                   16         17         18         19         20
    16  C    0.000000
    17  C    1.393476   0.000000
    18  C    2.412441   1.393455   0.000000
    19  C    2.788376   2.417037   1.396142   0.000000
    20  H    2.148394   3.397259   3.876660   3.407077   0.000000
    21  H    1.087693   2.154832   3.398922   3.876061   2.468078
    22  H    2.154290   1.087532   2.154771   3.402952   4.292878
    23  H    3.398382   2.153974   1.087660   2.155696   4.964315
    24  H    3.876772   3.396276   2.146803   1.088575   4.317972
    25  N    4.553091   5.189364   4.916548   3.902463   3.360112
    26  C    5.556890   6.305981   6.186062   5.281795   4.234179
    27  H    4.133788   4.551564   4.192599   3.289816   3.440444
    28  H    6.372007   7.173503   6.997100   5.967933   4.812989
    29  H    5.287929   6.194147   6.318057   5.574995   3.914155
    30  H    6.065087   6.648042   6.452682   5.628523   5.042119
                   21         22         23         24         25
    21  H    0.000000
    22  H    2.482451   0.000000
    23  H    4.297643   2.481931   0.000000
    24  H    4.964462   4.291894   2.466756   0.000000
    25  N    5.204944   6.174318   5.762202   4.168775   0.000000
    26  C    6.021621   7.216129   7.027828   5.571487   1.438354
    27  H    4.873815   5.495875   4.960077   3.553847   1.011849
    28  H    6.838002   8.129092   7.849755   6.166281   2.089151
    29  H    5.564505   7.034320   7.226967   6.050223   2.070781
    30  H    6.557723   7.495540   7.183575   5.827400   2.067037
                   26         27         28         29         30
    26  C    0.000000
    27  H    2.121323   0.000000
    28  H    1.094009   2.960959   0.000000
    29  H    1.093958   2.648013   1.784879   0.000000
    30  H    1.093265   2.340078   1.789659   1.787072   0.000000
 Stoichiometry    C11H15BrN2O
 Framework group  C1[X(C11H15BrN2O)]
 Deg. of freedom    84
 Full point group                 C1      NOp   1
 Largest Abelian subgroup         C1      NOp   1
 Largest concise Abelian subgroup C1      NOp   1
                         Standard orientation:                         
 ---------------------------------------------------------------------
 Center     Atomic      Atomic             Coordinates (Angstroms)
 Number     Number       Type             X           Y           Z
 ---------------------------------------------------------------------
      1          6           0        0.063427    0.163207   -0.060081
      2          6           0       -0.396435    1.456391    0.527493
      3          8           0       -1.164519    1.513940    1.482115
      4          6           0       -0.848046   -0.813853   -0.335742
      5          6           0       -0.191676   -2.925794    1.773972
      6          1           0       -0.635049   -3.282735    2.709132
      7          1           0       -0.098150   -3.770368    1.084901
      8          1           0        0.808829   -2.537729    1.986523
      9          7           0       -1.030585   -1.879102    1.183038
     10          1           0       -1.976762   -2.263072    1.091647
     11          1           0       -1.147615   -1.146946    1.898352
     12          1           0       -0.536471   -1.704926   -0.888746
     13         35           0       -2.673723   -0.387484   -0.765844
     14          6           0        1.508567   -0.107646   -0.221120
     15          6           0        2.390697    0.131549    0.843435
     16          6           0        3.759362   -0.101137    0.699430
     17          6           0        4.263694   -0.572413   -0.511075
     18          6           0        3.399669   -0.811153   -1.577931
     19          6           0        2.030359   -0.579055   -1.435326
     20          1           0        2.011544    0.491853    1.799017
     21          1           0        4.431092    0.082637    1.534942
     22          1           0        5.330118   -0.754316   -0.622331
     23          1           0        3.792295   -1.176747   -2.524075
     24          1           0        1.372740   -0.761102   -2.283496
     25          7           0        0.149690    2.561423   -0.082665
     26          6           0       -0.094802    3.891281    0.407809
     27          1           0        0.851060    2.425526   -0.799220
     28          1           0       -1.128218    3.986780    0.753913
     29          1           0        0.585886    4.093999    1.239862
     30          1           0        0.092521    4.603065   -0.400586
 ---------------------------------------------------------------------
 Rotational constants (GHZ):           0.5716418           0.3133482           0.2544549
 Standard basis: STO-3G (5D, 7F)
 There are   104 symmetry adapted cartesian basis functions of A   symmetry.
 There are   103 symmetry adapted basis functions of A   symmetry.
   103 basis functions,   312 primitive gaussians,   104 cartesian basis functions
    69 alpha electrons       69 beta electrons
       nuclear repulsion energy      1348.6081635157 Hartrees.
 NAtoms=   30 NActive=   30 NUniq=   30 SFac= 1.00D+00 NAtFMM=   60 NAOKFM=F Big=F
 Integral buffers will be    131072 words long.
 Raffenetti 1 integral format.
 Two-electron integral symmetry is turned on.
 External calculation of energy, first and second derivatives.
 Running external command "~/scripts/MiMe -H 'am1' -EF 'wb97xd def2svp' -c 12 -m 48GB R"
         input file       "/local/jobs/1176106/Gau-587163.EIn"
         output file      "/local/jobs/1176106/Gau-587163.EOu"
         message file     "/local/jobs/1176106/Gau-587163.EMs"
         fchk file        "/local/jobs/1176106/Gau-587163.EFC"
         mat. el file     "/local/jobs/1176106/Gau-587163.EUF"
 Read checkpoint file Gau-587163_H.chk type G16
 Write formatted file Gau-587163_H.fchk

deriv: 2

spelevel: wb97xd def2svp
gradlevel: wb97xd def2svp
hesslevel: am1

runspe: False
runforce: True
runfreq: True

Running Gaussian ...

Parsing files ...
SPE file: Gau-587163_F.out
FORCE file: Gau-587163_F.out
HESS file: Gau-587163_H.out

 ExternalExternalExternalExternalExternalExternalExternalExternalExternalExternal
 Output from external command:
 "~/scripts/MiMe -H 'am1' -EF 'wb97xd def2svp' -c 12 -m 48GB R /local/jobs/1176106/Gau-587163.EIn /local/jobs/1176106/Gau-587163.EOu /local/jobs/1176106/Gau-587163.EMs /local/jobs/1176106/Gau-587163.EFC /local/jobs/1176106/Gau-587163.EUF"
  
 --------------------------------------------------
 Force calculation at wb97xd def2svp
 Hessian calculation at am1
 ExternalExternalExternalExternalExternalExternalExternalExternalExternalExternal

 Recovered energy= -3186.13191720     dipole=      1.158800000000     -3.281800000000      0.482900000000
 Energy=    -3186.13192     NIter=   0.
 Dipole moment=       1.158800      -3.281800       0.482900
 ***** Axes restored to original set *****
 -------------------------------------------------------------------
 Center     Atomic                   Forces (Hartrees/Bohr)
 Number     Number              X              Y              Z
 -------------------------------------------------------------------
      1        6          -0.000827735    0.018482733   -0.010554577
      2        6           0.016019284   -0.007788381   -0.001540108
      3        8          -0.001971528    0.006489472   -0.005637963
      4        6           0.019968229   -0.001037418   -0.022443050
      5        6           0.004331998    0.003009898   -0.008006835
      6        1           0.000279041   -0.003159304    0.004047592
      7        1           0.000736258   -0.002186503   -0.002533342
      8        1           0.002761659    0.002289059   -0.000907275
      9        7          -0.036851939   -0.019548239    0.048441140
     10        1           0.000658605   -0.000013699   -0.000134752
     11        1           0.001356946    0.003335971   -0.008132515
     12        1           0.001267713    0.006361133   -0.007707241
     13       35           0.000359506   -0.003557321    0.004556871
     14        6          -0.009543475    0.003854678   -0.002090727
     15        6           0.009584885   -0.001370986   -0.001823807
     16        6          -0.005249300    0.000693584   -0.002611992
     17        6           0.000680832   -0.000359444   -0.000055706
     18        6          -0.004387776   -0.000077987    0.004198679
     19        6           0.010284535   -0.003239502    0.001004140
     20        1          -0.003062315    0.001301430    0.001396876
     21        1           0.002178000    0.000658172    0.002660829
     22        1           0.003446212   -0.000404058   -0.000478365
     23        1           0.001210151   -0.000910290   -0.003210970
     24        1          -0.003669946    0.001082628   -0.001173758
     25        7          -0.011941255   -0.007332373    0.007731852
     26        6           0.006434768   -0.005634611   -0.001959325
     27        1          -0.002665425   -0.002781561    0.000372700
     28        1          -0.001952606   -0.000572674    0.001169279
     29        1           0.000909662    0.008060582    0.006317832
     30        1          -0.000344984    0.004355010   -0.000895483
 -------------------------------------------------------------------
 Cartesian Forces:  Max     0.048441140 RMS     0.008908269

 GradGradGradGradGradGradGradGradGradGradGradGradGradGradGradGradGradGrad
 Berny optimization.
 Search for a saddle point.
 Step number   2 out of a maximum of   50
 All quantities printed in internal units (Hartrees-Bohrs-Radians)
 Swapping is turned off.
 Second derivative matrix not updated -- analytic derivatives used.
 ITU=  0  0
     Eigenvalues ---   -0.08158  -0.00971  -0.00900  -0.00475  -0.00119
     Eigenvalues ---   -0.00101  -0.00068  -0.00057   0.00016   0.00145
     Eigenvalues ---    0.00351   0.00559   0.00653   0.00865   0.01125
     Eigenvalues ---    0.01299   0.01658   0.01901   0.02169   0.02816
     Eigenvalues ---    0.02976   0.03453   0.04046   0.04784   0.04887
     Eigenvalues ---    0.05151   0.05231   0.05644   0.05771   0.05934
     Eigenvalues ---    0.06652   0.07124   0.07721   0.07802   0.07871
     Eigenvalues ---    0.08487   0.08761   0.09134   0.09308   0.10812
     Eigenvalues ---    0.11055   0.12605   0.12916   0.14324   0.15405
     Eigenvalues ---    0.15745   0.17535   0.19655   0.20281   0.21606
     Eigenvalues ---    0.21874   0.22212   0.23820   0.25275   0.28531
     Eigenvalues ---    0.31114   0.33927   0.39208   0.44439   0.47796
     Eigenvalues ---    0.47969   0.60778   0.64222   0.68066   0.74535
     Eigenvalues ---    0.74996   0.76685   0.80861   0.81820   0.82945
     Eigenvalues ---    0.83783   0.88410   0.90378   0.95037   0.98308
     Eigenvalues ---    1.11761   1.21154   1.23935   1.25253   1.29789
     Eigenvalues ---    1.41698   1.43987   1.44229   2.21650
 Eigenvectors required to have negative eigenvalues:
                          Z4        Y4        Y9        Z9        Z5
   1                    0.66226  -0.44333   0.28191  -0.27432  -0.19357
                          Z6        Y6        Y5        Z1        Y11
   1                   -0.17573   0.16959   0.15486   0.10855   0.10000
 RFO step:  Lambda0=1.029621937D-02 Lambda=-2.78810215D-02.
 Linear search not attempted -- option 19 set.
 Maximum step size (   0.100) exceeded in Quadratic search.
    -- Step size scaled by   0.120
 B after Tr=     0.000410   -0.002606    0.000876
         Rot=    1.000000    0.000131    0.000039   -0.000144 Ang=   0.02 deg.
 Variable       Old X    -DE/DX   Delta X   Delta X   Delta X     New X
                                 (Linear)    (Quad)   (Total)
    X1        0.12043  -0.00083   0.00000   0.00289   0.00322   0.12365
    Y1        0.30410   0.01848   0.00000  -0.00059  -0.00319   0.30091
    Z1       -0.11072  -0.01055   0.00000   0.00207   0.00288  -0.10784
    X2       -0.75403   0.01602   0.00000   0.00280   0.00234  -0.75169
    Y2        2.74247  -0.00779   0.00000  -0.00601  -0.00857   2.73390
    Z2        1.00719  -0.00154   0.00000   0.00232   0.00242   1.00961
    X3       -2.20290  -0.00197   0.00000  -0.02077  -0.02139  -2.22429
    Y3        2.84238   0.00649   0.00000   0.00403   0.00152   2.84390
    Z3        2.81376  -0.00564   0.00000  -0.01641  -0.01645   2.79731
    X4       -1.59736   0.01997   0.00000   0.01313   0.01403  -1.58333
    Y4       -1.54607  -0.00104   0.00000  -0.02069  -0.02391  -1.56998
    Z4       -0.63352  -0.02244   0.00000   0.01901   0.02017  -0.61335
    X5       -0.33873   0.00433   0.00000  -0.00441  -0.00268  -0.34141
    Y5       -5.54337   0.00301   0.00000   0.01615   0.01432  -5.52905
    Z5        3.34120  -0.00801   0.00000  -0.01365  -0.01136   3.32984
    X6       -1.17172   0.00028   0.00000   0.02051   0.02230  -1.14942
    Y6       -6.22481  -0.00316   0.00000   0.01394   0.01235  -6.21247
    Z6        5.10803   0.00405   0.00000  -0.00086   0.00155   5.10958
    X7       -0.15936   0.00074   0.00000  -0.01191  -0.00961  -0.16897
    Y7       -7.13557  -0.00219   0.00000   0.01121   0.00909  -7.12648
    Z7        2.03474  -0.00253   0.00000  -0.01047  -0.00774   2.02700
    X8        1.55041   0.00276   0.00000  -0.00127   0.00022   1.55064
    Y8       -4.80543   0.00229   0.00000   0.02329   0.02210  -4.78333
    Z8        3.74166  -0.00091   0.00000  -0.03609  -0.03384   3.70783
    X9       -1.93170  -0.03685   0.00000  -0.03151  -0.03025  -1.96195
    Y9       -3.56732  -0.01955   0.00000   0.00766   0.00508  -3.56224
    Z9        2.23203   0.04844   0.00000   0.00863   0.01029   2.24232
   X10       -3.71783   0.00066   0.00000  -0.02466  -0.02317  -3.74100
   Y10       -4.29779  -0.00001   0.00000  -0.00077  -0.00391  -4.30170
   Z10        2.06037  -0.00013   0.00000   0.00566   0.00738   2.06775
   X11       -2.15477   0.00136   0.00000  -0.02294  -0.02219  -2.17696
   Y11       -2.18781   0.00334   0.00000   0.01371   0.01143  -2.17639
   Z11        3.58761  -0.00813   0.00000   0.00028   0.00156   3.58917
   X12       -1.00526   0.00127   0.00000   0.01675   0.01821  -0.98705
   Y12       -3.22556   0.00636   0.00000   0.00007  -0.00327  -3.22883
   Z12       -1.68373  -0.00771   0.00000  -0.00978  -0.00814  -1.69187
   X13       -5.05107   0.00036   0.00000   0.00760   0.00834  -5.04273
   Y13       -0.74855  -0.00356   0.00000  -0.01291  -0.01734  -0.76589
   Z13       -1.43871   0.00456   0.00000   0.00456   0.00524  -1.43347
   X14        2.85236  -0.00954   0.00000   0.00133   0.00183   2.85419
   Y14       -0.19886   0.00385   0.00000   0.00418   0.00228  -0.19658
   Z14       -0.42072  -0.00209   0.00000  -0.00336  -0.00221  -0.42293
   X15        4.52125   0.00958   0.00000   0.00352   0.00373   4.52498
   Y15        0.25304  -0.00137   0.00000   0.00197   0.00108   0.25412
   Z15        1.58945  -0.00182   0.00000  -0.00328  -0.00212   1.58733
   X16        7.10850  -0.00525   0.00000   0.00210   0.00246   7.11096
   Y16       -0.17830   0.00069   0.00000   0.00060   0.00038  -0.17793
   Z16        1.31206  -0.00261   0.00000  -0.00274  -0.00127   1.31079
   X17        8.06049   0.00068   0.00000   0.00255   0.00334   8.06383
   Y17       -1.06030  -0.00036   0.00000  -0.00087  -0.00142  -1.06171
   Z17       -0.97923  -0.00006   0.00000  -0.00234  -0.00056  -0.97980
   X18        6.42581  -0.00439   0.00000   0.00124   0.00231   6.42812
   Y18       -1.51123  -0.00008   0.00000  -0.00090  -0.00245  -1.51368
   Z18       -2.99380   0.00420   0.00000  -0.00142   0.00035  -2.99345
   X19        3.83734   0.01028   0.00000   0.00254   0.00347   3.84081
   Y19       -1.08099  -0.00324   0.00000   0.00092  -0.00130  -1.08229
   Z19       -2.71905   0.00100   0.00000  -0.00186  -0.00041  -2.71946
   X20        3.80565  -0.00306   0.00000  -0.00065  -0.00077   3.80488
   Y20        0.92724   0.00130   0.00000   0.00197   0.00135   0.92859
   Z20        3.39810   0.00140   0.00000  -0.00372  -0.00279   3.39531
   X21        8.37940   0.00218   0.00000   0.00203   0.00217   8.38156
   Y21        0.16878   0.00066   0.00000  -0.00052   0.00004   0.16881
   Z21        2.88977   0.00266   0.00000  -0.00105   0.00043   2.89020
   X22       10.07641   0.00345   0.00000   0.00314   0.00404  10.08045
   Y22       -1.39753  -0.00040   0.00000  -0.00088  -0.00090  -1.39843
   Z22       -1.19358  -0.00048   0.00000  -0.00256  -0.00054  -1.19412
   X23        7.16692   0.00121   0.00000   0.00042   0.00183   7.16875
   Y23       -2.19539  -0.00091   0.00000   0.00031  -0.00149  -2.19688
   Z23       -4.78468  -0.00321   0.00000  -0.00331  -0.00131  -4.78599
   X24        2.59306  -0.00367   0.00000  -0.00187  -0.00072   2.59234
   Y24       -1.42467   0.00108   0.00000   0.00536   0.00236  -1.42231
   Z24       -4.32072  -0.00117   0.00000  -0.00072   0.00073  -4.31999
   X25        0.26994  -0.01194   0.00000   0.00816   0.00719   0.27713
   Y25        4.83663  -0.00733   0.00000  -0.00386  -0.00642   4.83021
   Z25       -0.14224   0.00773   0.00000   0.01351   0.01314  -0.12910
   X26       -0.19804   0.00643   0.00000   0.00693   0.00517  -0.19287
   Y26        7.34597  -0.00563   0.00000  -0.00205  -0.00450   7.34148
   Z26        0.79169  -0.00196   0.00000   0.00607   0.00500   0.79669
   X27        1.59390  -0.00267   0.00000   0.00194   0.00115   1.59505
   Y27        4.58716  -0.00278   0.00000  -0.00499  -0.00753   4.57964
   Z27       -1.49910   0.00037   0.00000   0.00769   0.00749  -1.49161
   X28       -2.15038  -0.00195   0.00000   0.00915   0.00729  -2.14309
   Y28        7.51900  -0.00057   0.00000  -0.00754  -0.01038   7.50862
   Z28        1.44933   0.00117   0.00000   0.01773   0.01647   1.46580
   X29        1.08967   0.00091   0.00000   0.01241   0.01042   1.10009
   Y29        7.72892   0.00806   0.00000   0.02115   0.01948   7.74839
   Z29        2.36293   0.00632   0.00000  -0.00233  -0.00340   2.35953
   X30        0.14949  -0.00034   0.00000  -0.01227  -0.01430   0.13519
   Y30        8.69593   0.00436   0.00000  -0.00351  -0.00627   8.68966
   Z30       -0.73313  -0.00090   0.00000  -0.00156  -0.00296  -0.73609
         Item               Value     Threshold  Converged?
 Maximum Force            0.048441     0.000450     NO 
 RMS     Force            0.008908     0.000300     NO 
 Maximum Displacement     0.033839     0.001800     NO 
 RMS     Displacement     0.010397     0.001200     NO 
 Predicted change in Energy=-2.137349D-03
 GradGradGradGradGradGradGradGradGradGradGradGradGradGradGradGradGradGrad

                          Input orientation:                          
 ---------------------------------------------------------------------
 Center     Atomic      Atomic             Coordinates (Angstroms)
 Number     Number       Type             X           Y           Z
 ---------------------------------------------------------------------
      1          6           0        0.065435    0.159235   -0.057066
      2          6           0       -0.397776    1.446719    0.534261
      3          8           0       -1.177043    1.504928    1.480273
      4          6           0       -0.837860   -0.830797   -0.324569
      5          6           0       -0.180664   -2.925849    1.762076
      6          1           0       -0.608246   -3.287497    2.703876
      7          1           0       -0.089418   -3.771170    1.072643
      8          1           0        0.820561   -2.531229    1.962097
      9          7           0       -1.038219   -1.885056    1.186585
     10          1           0       -1.979653   -2.276361    1.094205
     11          1           0       -1.151995   -1.151694    1.899308
     12          1           0       -0.522324   -1.708623   -0.895298
     13         35           0       -2.668495   -0.405294   -0.758560
     14          6           0        1.510375   -0.104024   -0.223804
     15          6           0        2.394515    0.134475    0.839978
     16          6           0        3.762959   -0.094156    0.693639
     17          6           0        4.267193   -0.561835   -0.518487
     18          6           0        3.401614   -0.801003   -1.584067
     19          6           0        2.032468   -0.572723   -1.439075
     20          1           0        2.013455    0.491389    1.796718
     21          1           0        4.435333    0.089331    1.529429
     22          1           0        5.334343   -0.740018   -0.631901
     23          1           0        3.793541   -1.162541   -2.532635
     24          1           0        1.371807   -0.752652   -2.286041
     25          7           0        0.146649    2.556037   -0.068317
     26          6           0       -0.102063    3.884942    0.421591
     27          1           0        0.844067    2.423439   -0.789328
     28          1           0       -1.134072    3.973389    0.775667
     29          1           0        0.582141    4.100274    1.248611
     30          1           0        0.071541    4.598371   -0.389520
 ---------------------------------------------------------------------
                    Distance matrix (angstroms):
                    1          2          3          4          5
     1  C    0.000000
     2  C    1.490585   0.000000
     3  O    2.391245   1.227024   0.000000
     4  C    1.366625   2.473528   2.971214   0.000000
     5  C    3.589928   4.546868   4.550161   3.029065   0.000000
     6  H    4.467282   5.211940   4.978762   3.906350   1.095720
     7  H    4.092470   5.254646   5.402435   3.340384   1.094629
     8  H    3.447583   4.398537   4.529143   3.297070   1.094616
     9  N    2.635118   3.454912   3.405512   1.853427   1.466234
    10  H    3.382298   4.083773   3.884763   2.325139   2.025894
    11  H    2.651051   3.030503   2.689583   2.268763   2.027299
    12  H    2.130020   3.466313   4.049556   1.093560   2.942789
    13  Br   2.878396   3.202734   3.299356   1.928893   4.346965
    14  C    1.478160   2.573034   3.565785   2.460195   3.842659
    15  C    2.495979   3.100376   3.878679   3.568776   4.104557
    16  C    3.781461   4.439753   5.251618   4.769373   4.971137
    17  C    4.288079   5.186954   6.156806   5.115809   5.529282
    18  C    3.792609   4.896420   5.972571   4.422710   5.342692
    19  C    2.512953   3.725357   4.810426   3.089904   4.547804
    20  H    2.709543   2.884526   3.362541   3.791837   4.061141
    21  H    4.649501   5.117792   5.788359   5.664848   5.518411
    22  H    5.375917   6.244913   7.204111   6.180517   6.397210
    23  H    4.666295   5.812161   6.922827   5.141545   6.111309
    24  H    2.739795   3.990332   5.077246   2.955690   4.849763
    25  N    2.398204   1.374804   2.292405   3.536321   5.788656
    26  C    3.760061   2.458674   2.817953   4.830771   6.941898
    27  H    2.503815   2.061078   3.174845   3.692550   6.014533
    28  H    4.084119   2.642815   2.567414   4.937455   7.034307
    29  H    4.183726   2.917514   3.143918   5.367193   7.086037
    30  H    4.451572   3.317611   3.824197   5.505188   7.829870
                    6          7          8          9         10
     6  H    0.000000
     7  H    1.778776   0.000000
     8  H    1.778670   1.776694   0.000000
     9  N    2.110424   2.114388   2.115189   0.000000
    10  H    2.343969   2.409961   2.942685   1.023695   0.000000
    11  H    2.346198   2.945183   2.407912   1.028950   1.611857
    12  H    3.931193   2.883454   3.262626   2.152095   2.530664
    13  Br   4.953805   4.618882   4.908675   2.937871   2.721789
    14  C    4.816053   4.205719   3.338462   3.414177   4.317001
    15  C    4.919408   4.634449   3.292789   3.997787   5.001011
    16  C    5.774592   5.338997   4.025670   5.147974   6.156304
    17  C    6.448469   5.640176   4.680927   5.727615   6.675587
    18  C    6.375585   5.297859   4.714954   5.344512   6.189335
    19  C    5.613146   4.587068   4.107607   4.247991   5.041529
    20  H    4.687881   4.807886   3.253700   3.915669   4.909061
    21  H    6.182231   5.965358   4.485656   5.828852   6.851129
    22  H    7.275399   6.442867   5.505587   6.725144   7.670355
    23  H    7.163254   5.905958   5.560083   6.140076   6.908280
    24  H    5.936776   4.746303   4.638305   4.376036   4.998003
    25  N    6.511667   6.433589   5.518787   4.764661   5.405987
    26  C    7.543801   7.683755   6.662706   5.895293   6.476065
    27  H    6.850290   6.535404   5.667417   5.100035   5.797345
    28  H    7.530932   7.820339   6.894800   5.873620   6.314733
    29  H    7.623252   7.901999   6.674034   6.201096   6.873726
    30  H    8.498124   8.497826   7.544689   6.763912   7.326035
                   11         12         13         14         15
    11  H    0.000000
    12  H    2.918301   0.000000
    13  Br   3.149786   2.514640   0.000000
    14  C    3.562784   2.675352   4.223705   0.000000
    15  C    3.918437   3.862142   5.336735   1.403644   0.000000
    16  C    5.169991   4.847151   6.600704   2.432270   1.395108
    17  C    5.963327   4.939289   6.941607   2.810066   2.416029
    18  C    5.743888   4.086009   6.138752   2.431642   2.786639
    19  C    4.649819   2.848319   4.752914   1.403262   2.413564
    20  H    3.567958   4.303159   5.408711   2.165668   1.089929
    21  H    5.735433   5.804335   7.479567   3.415639   2.154604
    22  H    6.974890   5.942064   8.010837   3.897918   3.402022
    23  H    6.640826   4.648201   6.743788   3.415261   3.874795
    24  H    4.903668   2.536883   4.333347   2.166273   3.406599
    25  N    4.393779   4.395310   4.143785   2.993301   3.426640
    26  C    5.352916   5.761839   5.136678   4.350671   4.524815
    27  H    4.898429   4.353411   4.510074   2.674294   3.209031
    28  H    5.246844   5.954126   4.886837   4.961586   5.214626
    29  H    5.569004   6.289632   5.907243   4.550356   4.379411
    30  H    6.308647   6.355050   5.716700   4.920389   5.180178
                   16         17         18         19         20
    16  C    0.000000
    17  C    1.393637   0.000000
    18  C    2.412084   1.393517   0.000000
    19  C    2.787848   2.416940   1.395599   0.000000
    20  H    2.149514   3.398350   3.876463   3.406326   0.000000
    21  H    1.088255   2.155516   3.399283   3.876093   2.469531
    22  H    2.154865   1.087852   2.155407   3.403219   4.294514
    23  H    3.398709   2.154527   1.088162   2.155258   4.964623
    24  H    3.876818   3.397634   2.148307   1.089127   4.316048
    25  N    4.547725   5.186778   4.915488   3.901850   3.350537
    26  C    5.553884   6.304599   6.185184   5.281011   4.228782
    27  H    4.130061   4.550055   4.191620   3.288077   3.433354
    28  H    6.366519   7.170547   6.995399   5.966506   4.803520
    29  H    5.293282   6.199798   6.324240   5.582473   3.920859
    30  H    6.067916   6.651906   6.455197   5.629122   5.041624
                   21         22         23         24         25
    21  H    0.000000
    22  H    2.483423   0.000000
    23  H    4.298772   2.483019   0.000000
    24  H    4.965072   4.293953   2.468525   0.000000
    25  N    5.199062   6.172016   5.761989   4.167342   0.000000
    26  C    6.018465   7.214888   7.027109   5.568738   1.438004
    27  H    4.870512   5.494982   4.959614   3.550522   1.011846
    28  H    6.831715   8.126367   7.848822   6.163517   2.088406
    29  H    5.568986   7.039046   7.232436   6.055429   2.075722
    30  H    6.561744   7.500282   7.185704   5.824168   2.068802
                   26         27         28         29         30
    26  C    0.000000
    27  H    2.120726   0.000000
    28  H    1.094640   2.960505   0.000000
    29  H    1.094745   2.652089   1.784703   0.000000
    30  H    1.094084   2.342429   1.789348   1.786698   0.000000
 Stoichiometry    C11H15BrN2O
 Framework group  C1[X(C11H15BrN2O)]
 Deg. of freedom    84
 Full point group                 C1      NOp   1
 Largest Abelian subgroup         C1      NOp   1
 Largest concise Abelian subgroup C1      NOp   1
                         Standard orientation:                         
 ---------------------------------------------------------------------
 Center     Atomic      Atomic             Coordinates (Angstroms)
 Number     Number       Type             X           Y           Z
 ---------------------------------------------------------------------
      1          6           0        0.064994    0.163931   -0.059932
      2          6           0       -0.392163    1.457253    0.523308
      3          8           0       -1.173923    1.525100    1.466619
      4          6           0       -0.843493   -0.821976   -0.325074
      5          6           0       -0.205378   -2.910120    1.774378
      6          1           0       -0.638002   -3.264273    2.716723
      7          1           0       -0.117189   -3.759546    1.089609
      8          1           0        0.797620   -2.520550    1.975418
      9          7           0       -1.054838   -1.867143    1.190891
     10          1           0       -1.998352   -2.253202    1.097657
     11          1           0       -1.166308   -1.129415    1.899461
     12          1           0       -0.531577   -1.704651   -0.890288
     13         35           0       -2.670183   -0.387630   -0.766859
     14          6           0        1.508804   -0.108953   -0.220885
     15          6           0        2.391153    0.129694    0.844349
     16          6           0        3.758618   -0.107994    0.703383
     17          6           0        4.263665   -0.585009   -0.504760
     18          6           0        3.399879   -0.824446   -1.571732
     19          6           0        2.031714   -0.587113   -1.432113
     20          1           0        2.009377    0.493874    1.798061
     21          1           0        4.429562    0.075745    1.540266
     22          1           0        5.330051   -0.770250   -0.613986
     23          1           0        3.792469   -1.193275   -2.517214
     24          1           0        1.372538   -0.767423   -2.280154
     25          7           0        0.160823    2.560106   -0.083329
     26          6           0       -0.081281    3.893020    0.398936
     27          1           0        0.859601    2.419537   -0.801508
     28          1           0       -1.113800    3.989564    0.749391
     29          1           0        0.601713    4.108485    1.226922
     30          1           0        0.099116    4.601163   -0.415318
 ---------------------------------------------------------------------
 Rotational constants (GHZ):           0.5726063           0.3135920           0.2545675
 Standard basis: STO-3G (5D, 7F)
 There are   104 symmetry adapted cartesian basis functions of A   symmetry.
 There are   103 symmetry adapted basis functions of A   symmetry.
   103 basis functions,   312 primitive gaussians,   104 cartesian basis functions
    69 alpha electrons       69 beta electrons
       nuclear repulsion energy      1349.1819854334 Hartrees.
 NAtoms=   30 NActive=   30 NUniq=   30 SFac= 1.00D+00 NAtFMM=   60 NAOKFM=F Big=F
 Integral buffers will be    131072 words long.
 Raffenetti 1 integral format.
 Two-electron integral symmetry is turned on.
 External calculation of energy, first and second derivatives.
 Running external command "~/scripts/MiMe -H 'am1' -EF 'wb97xd def2svp' -c 12 -m 48GB R"
         input file       "/local/jobs/1176106/Gau-587163.EIn"
         output file      "/local/jobs/1176106/Gau-587163.EOu"
         message file     "/local/jobs/1176106/Gau-587163.EMs"
         fchk file        "/local/jobs/1176106/Gau-587163.EFC"
         mat. el file     "/local/jobs/1176106/Gau-587163.EUF"
 Read checkpoint file Gau-587163_H.chk type G16
 Write formatted file Gau-587163_H.fchk

deriv: 2

spelevel: wb97xd def2svp
gradlevel: wb97xd def2svp
hesslevel: am1

runspe: False
runforce: True
runfreq: True

Running Gaussian ...

Parsing files ...
SPE file: Gau-587163_F.out
FORCE file: Gau-587163_F.out
HESS file: Gau-587163_H.out

 ExternalExternalExternalExternalExternalExternalExternalExternalExternalExternal
 Output from external command:
 "~/scripts/MiMe -H 'am1' -EF 'wb97xd def2svp' -c 12 -m 48GB R /local/jobs/1176106/Gau-587163.EIn /local/jobs/1176106/Gau-587163.EOu /local/jobs/1176106/Gau-587163.EMs /local/jobs/1176106/Gau-587163.EFC /local/jobs/1176106/Gau-587163.EUF"
  
 --------------------------------------------------
 Force calculation at wb97xd def2svp
 Hessian calculation at am1
 ExternalExternalExternalExternalExternalExternalExternalExternalExternalExternal

 Recovered energy= -3186.13402414     dipole=      1.118500000000     -3.445200000000      0.587100000000
 Energy=    -3186.13402     NIter=   0.
 Dipole moment=       1.118500      -3.445200       0.587100
 ***** Axes restored to original set *****
 -------------------------------------------------------------------
 Center     Atomic                   Forces (Hartrees/Bohr)
 Number     Number              X              Y              Z
 -------------------------------------------------------------------
      1        6          -0.000140083    0.016229476   -0.009122643
      2        6           0.013639208   -0.006500712   -0.001345630
      3        8          -0.001586718    0.005116717   -0.004951161
      4        6           0.017300909   -0.000030558   -0.020633435
      5        6           0.004117258    0.002871060   -0.007123920
      6        1           0.000463409   -0.002716542    0.003400354
      7        1           0.000391184   -0.001506646   -0.002605236
      8        1           0.002204704    0.002518610   -0.001166068
      9        7          -0.033149951   -0.018141552    0.043827916
     10        1          -0.000403732   -0.000139914   -0.000000568
     11        1           0.000795949    0.003663501   -0.007133514
     12        1           0.001573629    0.005045226   -0.006455909
     13       35           0.000398372   -0.003872905    0.004098946
     14        6          -0.008140305    0.003601576   -0.002032796
     15        6           0.008627660   -0.001122402   -0.001761238
     16        6          -0.004536860    0.000688220   -0.002277353
     17        6           0.000725199   -0.000367410   -0.000069549
     18        6          -0.003762437   -0.000213538    0.003669355
     19        6           0.009198368   -0.002831481    0.000915511
     20        1          -0.002674193    0.001191891    0.001160267
     21        1           0.001987324    0.000613651    0.002340838
     22        1           0.003199944   -0.000399940   -0.000460088
     23        1           0.001133187   -0.000867904   -0.002879700
     24        1          -0.003204508    0.000979430   -0.001080318
     25        7          -0.010212370   -0.006927570    0.006799614
     26        6           0.005603031   -0.004842855   -0.001751259
     27        1          -0.002457567   -0.002543561    0.000489496
     28        1          -0.001600365   -0.000672686    0.001073291
     29        1           0.000878361    0.007371375    0.005806357
     30        1          -0.000368604    0.003807444   -0.000731558
 -------------------------------------------------------------------
 Cartesian Forces:  Max     0.043827916 RMS     0.007977819

 GradGradGradGradGradGradGradGradGradGradGradGradGradGradGradGradGradGrad
 Berny optimization.
 Search for a saddle point.
 Step number   3 out of a maximum of   50
 All quantities printed in internal units (Hartrees-Bohrs-Radians)
 Swapping is turned off.
 Second derivative matrix not updated -- analytic derivatives used.
 ITU=  0  0  0
     Eigenvalues ---   -0.08337  -0.00950  -0.00881  -0.00489  -0.00106
     Eigenvalues ---   -0.00092  -0.00064  -0.00052   0.00021   0.00151
     Eigenvalues ---    0.00359   0.00568   0.00671   0.00873   0.01134
     Eigenvalues ---    0.01322   0.01668   0.01924   0.02199   0.02835
     Eigenvalues ---    0.03031   0.03477   0.04056   0.04803   0.04894
     Eigenvalues ---    0.05160   0.05250   0.05662   0.05783   0.05935
     Eigenvalues ---    0.06680   0.07124   0.07735   0.07818   0.07864
     Eigenvalues ---    0.08507   0.08787   0.09162   0.09324   0.10807
     Eigenvalues ---    0.11072   0.12608   0.12932   0.14301   0.15423
     Eigenvalues ---    0.15747   0.17582   0.19609   0.20302   0.21522
     Eigenvalues ---    0.21856   0.22201   0.23834   0.25276   0.28489
     Eigenvalues ---    0.31027   0.33916   0.39153   0.44222   0.47746
     Eigenvalues ---    0.47904   0.60845   0.64186   0.68090   0.74538
     Eigenvalues ---    0.74987   0.76794   0.80629   0.81871   0.82763
     Eigenvalues ---    0.83648   0.88413   0.90895   0.95454   0.98359
     Eigenvalues ---    1.11774   1.21181   1.23923   1.25229   1.30374
[...]
 Red. masses --      1.0768                 1.0773                 1.0789
 Frc consts  --      6.6199                 6.6300                 6.6681
 IR Inten    --      0.0000                 0.0000                 0.0000
  Atom  AN      X      Y      Z        X      Y      Z        X      Y      Z
     1   6    -0.00  -0.00  -0.00    -0.00  -0.00  -0.00     0.00  -0.00   0.00
     2   6    -0.00   0.00   0.00     0.00  -0.00  -0.00     0.00  -0.00  -0.00
     3   8     0.00  -0.00  -0.00    -0.00   0.00   0.00    -0.00   0.00   0.00
     4   6    -0.00   0.00   0.00     0.00   0.00   0.00     0.00   0.00  -0.00
     5   6    -0.00  -0.00   0.00    -0.00   0.00  -0.00     0.00  -0.00   0.00
     6   1     0.00   0.00  -0.00    -0.00  -0.00   0.00     0.00  -0.00  -0.00
     7   1    -0.00   0.00   0.00    -0.00  -0.00  -0.00     0.00   0.00   0.00
     8   1     0.00   0.00  -0.00     0.00   0.00  -0.00    -0.00  -0.00  -0.00
     9   7    -0.00  -0.00  -0.00     0.00   0.00   0.00     0.00   0.00   0.00
    10   1     0.00   0.00  -0.00    -0.00  -0.00   0.00    -0.00  -0.00   0.00
    11   1     0.00   0.01   0.00     0.00  -0.00  -0.00    -0.00  -0.00  -0.00
    12   1     0.00  -0.00  -0.00     0.00  -0.00  -0.00     0.00  -0.00  -0.00
    13  35     0.00  -0.00  -0.00    -0.00  -0.00  -0.00    -0.00  -0.00   0.00
    14   6    -0.00  -0.00  -0.00    -0.00  -0.00  -0.00    -0.00   0.00   0.00
    15   6     0.02  -0.04  -0.05    -0.00   0.00   0.00    -0.01   0.02   0.03
    16   6     0.03   0.01   0.03    -0.01  -0.00  -0.01     0.03   0.02   0.03
    17   6    -0.01   0.00   0.00     0.01  -0.00   0.00    -0.04   0.01   0.00
    18   6    -0.00  -0.00  -0.00    -0.01   0.02   0.03     0.00  -0.01  -0.01
    19   6    -0.01  -0.00  -0.01    -0.05  -0.02  -0.05    -0.01  -0.01  -0.02
    20   1    -0.24   0.47   0.63     0.00  -0.01  -0.01     0.15  -0.28  -0.37
    21   1    -0.35  -0.18  -0.37     0.09   0.04   0.09    -0.37  -0.19  -0.38
    22   1     0.11  -0.03  -0.01    -0.14   0.04   0.01     0.57  -0.15  -0.05
    23   1    -0.00   0.00   0.00     0.15  -0.28  -0.38    -0.04   0.08   0.10
    24   1     0.08   0.04   0.08     0.55   0.26   0.58     0.17   0.08   0.18
    25   7    -0.00   0.00   0.00     0.00   0.00  -0.00     0.00  -0.00  -0.00
    26   6     0.00  -0.00   0.00     0.00   0.00   0.00    -0.00   0.00  -0.00
    27   1     0.00  -0.00  -0.00    -0.00   0.00   0.00    -0.00   0.00   0.00
    28   1     0.00  -0.00   0.00     0.00   0.00  -0.00     0.00   0.00  -0.00
    29   1    -0.00  -0.00   0.00    -0.00  -0.00  -0.00    -0.00  -0.00  -0.00
    30   1    -0.00   0.00  -0.00     0.00  -0.00   0.00     0.00  -0.00   0.00
                     79                     80                     81
                      A                      A                      A
 Frequencies --   3240.7788              3252.0377              3262.6508
 Red. masses --      1.0802                 1.0882                 1.0315
 Frc consts  --      6.6844                 6.7806                 6.4691
 IR Inten    --      0.0000                 0.0000                 0.0000
  Atom  AN      X      Y      Z        X      Y      Z        X      Y      Z
     1   6    -0.00  -0.00  -0.00     0.00   0.00   0.00     0.00   0.00  -0.00
     2   6    -0.00   0.00   0.00    -0.00   0.00   0.00    -0.00   0.00   0.00
     3   8     0.00  -0.00  -0.00     0.00  -0.00  -0.00     0.00  -0.00  -0.00
     4   6     0.00   0.00   0.00    -0.00  -0.00   0.00    -0.00   0.00   0.00
     5   6    -0.00  -0.00   0.00     0.00   0.00   0.00     0.00  -0.00   0.00
     6   1     0.00   0.00  -0.00     0.00   0.00  -0.00     0.00   0.00  -0.00
     7   1     0.00   0.00   0.00    -0.00  -0.00  -0.00     0.00   0.00   0.00
     8   1     0.00   0.00  -0.00    -0.00  -0.00   0.00    -0.00  -0.00   0.00
     9   7    -0.00  -0.00  -0.00    -0.00  -0.00  -0.00    -0.00  -0.00  -0.00
    10   1     0.00   0.00   0.00     0.01   0.00  -0.00     0.00   0.00  -0.00
    11   1     0.00   0.00   0.00    -0.00   0.00   0.00    -0.00  -0.00   0.00
    12   1     0.00  -0.00  -0.00     0.00  -0.00  -0.00     0.00  -0.00  -0.00
    13  35    -0.00  -0.00  -0.00     0.00   0.00   0.00     0.00  -0.00  -0.00
    14   6    -0.00   0.00  -0.00     0.00  -0.00  -0.00     0.00  -0.00  -0.00
    15   6     0.01  -0.01  -0.01     0.01  -0.01  -0.01    -0.00   0.00   0.00
    16   6    -0.03  -0.01  -0.03    -0.02  -0.01  -0.02     0.00   0.00   0.00
    17   6    -0.02   0.00   0.00    -0.06   0.02   0.01     0.00   0.00  -0.00
    18   6     0.02  -0.03  -0.04    -0.01   0.02   0.03     0.00  -0.00  -0.00
    19   6    -0.02  -0.01  -0.02     0.01   0.01   0.01    -0.00  -0.00  -0.00
    20   1    -0.06   0.12   0.16    -0.06   0.11   0.14     0.00  -0.00  -0.00
    21   1     0.30   0.15   0.31     0.25   0.13   0.26    -0.00  -0.00  -0.00
    22   1     0.27  -0.07  -0.02     0.71  -0.18  -0.06    -0.00   0.00   0.00
    23   1    -0.21   0.41   0.54     0.14  -0.27  -0.36    -0.00   0.00   0.00
    24   1     0.26   0.12   0.27    -0.14  -0.06  -0.15     0.00   0.00   0.00
    25   7    -0.00  -0.00   0.00    -0.00  -0.00   0.00    -0.00  -0.00   0.00
    26   6     0.00  -0.00   0.00     0.00   0.00  -0.00     0.02  -0.03  -0.02
    27   1     0.00  -0.00  -0.00     0.00  -0.00  -0.00     0.06  -0.02  -0.06
    28   1     0.00  -0.00  -0.00    -0.00   0.00   0.00    -0.54   0.05   0.55
    29   1    -0.00  -0.00  -0.00     0.00   0.00   0.00     0.38   0.22   0.12
    30   1    -0.00   0.00  -0.00    -0.00   0.00  -0.00    -0.15   0.16  -0.37
                     82                     83                     84
                      A                      A                      A
 Frequencies --   3266.3172              3298.7153              3339.8332
 Red. masses --      1.0267                 1.0553                 1.0701
 Frc consts  --      6.4540                 6.7657                 7.0327
 IR Inten    --      0.0000                 0.0000                 0.0000
  Atom  AN      X      Y      Z        X      Y      Z        X      Y      Z
     1   6     0.00   0.00   0.00     0.00   0.00   0.00     0.00   0.00  -0.00
     2   6     0.00  -0.00   0.00     0.00  -0.00  -0.00     0.00   0.00  -0.00
     3   8    -0.00   0.00  -0.00    -0.00   0.00   0.00    -0.00  -0.00   0.00
     4   6    -0.00  -0.00   0.00    -0.00  -0.00   0.00     0.00   0.00  -0.00
     5   6     0.03  -0.03   0.01    -0.01   0.00  -0.00     0.00  -0.00  -0.00
     6   1     0.10   0.02  -0.53    -0.01  -0.00   0.04     0.00  -0.00  -0.00
     7   1     0.08   0.54   0.25    -0.01  -0.05  -0.02     0.00   0.00   0.00
     8   1    -0.53  -0.19   0.10     0.11   0.03  -0.02    -0.00  -0.00   0.00
     9   7    -0.01  -0.01   0.00    -0.06  -0.01   0.00     0.00  -0.00  -0.00
    10   1     0.12   0.04   0.00     0.90   0.32   0.01    -0.00  -0.00  -0.00
    11   1    -0.00  -0.01  -0.00    -0.04  -0.24  -0.08     0.00   0.01   0.00
    12   1     0.00  -0.00  -0.00     0.00  -0.01  -0.01    -0.00   0.00   0.00
    13  35    -0.00  -0.00  -0.00    -0.00  -0.00   0.00    -0.00  -0.00  -0.00
    14   6    -0.00   0.00   0.00    -0.00   0.00  -0.00    -0.00   0.00   0.00
    15   6    -0.00  -0.00   0.00    -0.00   0.00   0.00     0.00  -0.00  -0.00
    16   6    -0.00  -0.00  -0.00     0.00   0.00   0.00    -0.00  -0.00  -0.00
    17   6     0.00  -0.00  -0.00     0.00  -0.00  -0.00    -0.00   0.00  -0.00
    18   6    -0.00   0.00   0.00     0.00  -0.00  -0.00    -0.00   0.00   0.00
    19   6     0.00  -0.00  -0.00    -0.00  -0.00  -0.00     0.00   0.00  -0.00
    20   1    -0.00  -0.00  -0.00     0.00  -0.00  -0.00    -0.00   0.00   0.00
    21   1     0.00   0.00   0.00    -0.00  -0.00  -0.00     0.00   0.00   0.00
    22   1    -0.00   0.00   0.00    -0.00   0.00   0.00     0.00  -0.00  -0.00
    23   1     0.00  -0.00  -0.00    -0.00   0.00   0.00     0.00  -0.00  -0.00
    24   1     0.00   0.00   0.00     0.00   0.00   0.00    -0.00  -0.00  -0.00
    25   7    -0.00   0.00   0.00     0.00  -0.00  -0.00     0.05  -0.02  -0.05
    26   6    -0.00   0.00   0.00    -0.00  -0.00   0.00     0.00  -0.00  -0.00
    27   1     0.00  -0.00  -0.00    -0.00   0.00   0.00    -0.67   0.24   0.70
    28   1     0.00  -0.00  -0.00     0.00   0.00  -0.00    -0.06   0.01   0.06
    29   1    -0.00  -0.00  -0.00    -0.00  -0.00  -0.00     0.02   0.01   0.00
    30   1     0.00  -0.00   0.00     0.00   0.00   0.00    -0.01   0.01  -0.02

 -------------------
 - Thermochemistry -
 -------------------
 Temperature   298.150 Kelvin.  Pressure   1.00000 Atm.
 Atom     1 has atomic number  6 and mass  12.00000
 Atom     2 has atomic number  6 and mass  12.00000
 Atom     3 has atomic number  8 and mass  15.99491
 Atom     4 has atomic number  6 and mass  12.00000
 Atom     5 has atomic number  6 and mass  12.00000
 Atom     6 has atomic number  1 and mass   1.00783
 Atom     7 has atomic number  1 and mass   1.00783
 Atom     8 has atomic number  1 and mass   1.00783
 Atom     9 has atomic number  7 and mass  14.00307
 Atom    10 has atomic number  1 and mass   1.00783
 Atom    11 has atomic number  1 and mass   1.00783
 Atom    12 has atomic number  1 and mass   1.00783
 Atom    13 has atomic number 35 and mass  78.91834
 Atom    14 has atomic number  6 and mass  12.00000
 Atom    15 has atomic number  6 and mass  12.00000
 Atom    16 has atomic number  6 and mass  12.00000
 Atom    17 has atomic number  6 and mass  12.00000
 Atom    18 has atomic number  6 and mass  12.00000
 Atom    19 has atomic number  6 and mass  12.00000
 Atom    20 has atomic number  1 and mass   1.00783
 Atom    21 has atomic number  1 and mass   1.00783
 Atom    22 has atomic number  1 and mass   1.00783
 Atom    23 has atomic number  1 and mass   1.00783
 Atom    24 has atomic number  1 and mass   1.00783
 Atom    25 has atomic number  7 and mass  14.00307
 Atom    26 has atomic number  6 and mass  12.00000
 Atom    27 has atomic number  1 and mass   1.00783
 Atom    28 has atomic number  1 and mass   1.00783
 Atom    29 has atomic number  1 and mass   1.00783
 Atom    30 has atomic number  1 and mass   1.00783
 Molecular mass:   270.03677 amu.
 Principal axes and moments of inertia in atomic units:
                           1         2         3
     Eigenvalues --  3114.199255906.907217011.82797
           X            0.99939  -0.01898  -0.02933
           Y            0.01754   0.99865  -0.04885
           Z            0.03021   0.04831   0.99838
 This molecule is an asymmetric top.
 Rotational symmetry number  1.
 Warning -- assumption of classical behavior for rotation
           may cause significant error
 Rotational temperatures (Kelvin)      0.02781     0.01466     0.01235
 Rotational constants (GHZ):           0.57952     0.30553     0.25739
    6 imaginary frequencies ignored.
 Zero-point vibrational energy     654183.8 (Joules/Mol)
                                  156.35367 (Kcal/Mol)
 Warning -- explicit consideration of  16 degrees of freedom as
           vibrations may cause significant error
 Vibrational temperatures:     50.70    79.81   102.13   177.24   193.29
          (Kelvin)            279.65   308.62   360.81   405.95   449.37
                              506.75   519.51   568.99   686.07   726.66
                              852.69   908.41   917.41   940.49   991.80
                             1055.22  1087.52  1153.54  1215.39  1234.85
                             1288.38  1339.65  1386.98  1414.11  1432.78
                             1461.11  1479.80  1506.61  1534.52  1586.26
                             1621.01  1651.78  1686.45  1696.82  1748.30
                             1814.52  1870.08  1872.38  1896.07  1909.71
                             1919.60  1921.33  1926.91  1941.29  1944.97
                             1965.49  2011.20  2035.91  2092.69  2160.35
                             2233.56  2326.77  2365.21  2451.00  2460.25
                             2508.24  2552.08  2962.79  4514.77  4546.91
                             4564.78  4567.64  4576.85  4595.32  4647.70
                             4650.00  4659.85  4662.76  4678.96  4694.23
                             4699.50  4746.12  4805.28
 
 Zero-point correction=                           0.249165 (Hartree/Particle)
 Thermal correction to Energy=                    0.261488
 Thermal correction to Enthalpy=                  0.262432
 Thermal correction to Gibbs Free Energy=         0.208246
 Sum of electronic and zero-point Energies=          -3185.907621
 Sum of electronic and thermal Energies=             -3185.895299
 Sum of electronic and thermal Enthalpies=           -3185.894354
 Sum of electronic and thermal Free Energies=        -3185.948540
 
                     E (Thermal)             CV                S
                      KCal/Mol        Cal/Mol-Kelvin    Cal/Mol-Kelvin
 Total                  164.086             46.772            114.043
 Electronic               0.000              0.000              0.000
 Translational            0.889              2.981             42.679
 Rotational               0.889              2.981             33.222
 Vibrational            162.309             40.810             38.142
 Vibration     1          0.594              1.982              5.510
 Vibration     2          0.596              1.975              4.612
 Vibration     3          0.598              1.968              4.126
 Vibration     4          0.610              1.930              3.050
 Vibration     5          0.613              1.919              2.883
 Vibration     6          0.635              1.848              2.186
 Vibration     7          0.644              1.819              2.005
 Vibration     8          0.663              1.761              1.725
 Vibration     9          0.681              1.707              1.521
 Vibration    10          0.701              1.650              1.350
 Vibration    11          0.729              1.571              1.156
 Vibration    12          0.735              1.552              1.117
 Vibration    13          0.762              1.480              0.979
 Vibration    14          0.833              1.301              0.719
 Vibration    15          0.860              1.239              0.646
 Vibration    16          0.950              1.047              0.462
                       Q            Log10(Q)             Ln(Q)
 Total Bot       0.163488D-95        -95.786514       -220.556600
 Total V=0       0.663024D+19         18.821529         43.338173
 Vib (Bot)       0.230559-110       -110.637217       -254.751607
 Vib (Bot)    1  0.587318D+01          0.768873          1.770396
 Vib (Bot)    2  0.372484D+01          0.571108          1.315025
 Vib (Bot)    3  0.290496D+01          0.463141          1.066420
 Vib (Bot)    4  0.165768D+01          0.219500          0.505418
 Vib (Bot)    5  0.151582D+01          0.180648          0.415957
 Vib (Bot)    6  0.102804D+01          0.012012          0.027658
 Vib (Bot)    7  0.924246D+00         -0.034212         -0.078777
 Vib (Bot)    8  0.777978D+00         -0.109033         -0.251057
 Vib (Bot)    9  0.680645D+00         -0.167079         -0.384715
 Vib (Bot)   10  0.604613D+00         -0.218523         -0.503167
 Vib (Bot)   11  0.523079D+00         -0.281433         -0.648024
 Vib (Bot)   12  0.507254D+00         -0.294774         -0.678743
 Vib (Bot)   13  0.452189D+00         -0.344680         -0.793655
 Vib (Bot)   14  0.351687D+00         -0.453843         -1.045012
 Vib (Bot)   15  0.323957D+00         -0.489513         -1.127145
 Vib (Bot)   16  0.253856D+00         -0.595412         -1.370987
 Vib (V=0)       0.935032D+04          3.970827          9.143166
 Vib (V=0)    1  0.639442D+01          0.805801          1.855426
 Vib (V=0)    2  0.425825D+01          0.629231          1.448859
 Vib (V=0)    3  0.344768D+01          0.537527          1.237701
 Vib (V=0)    4  0.223144D+01          0.348586          0.802649
 Vib (V=0)    5  0.209616D+01          0.321423          0.740105
 Vib (V=0)    6  0.164319D+01          0.215687          0.496637
 Vib (V=0)    7  0.155082D+01          0.190563          0.438787
 Vib (V=0)    8  0.142480D+01          0.153753          0.354029
 Vib (V=0)    9  0.134456D+01          0.128579          0.296065
 Vib (V=0)   10  0.128457D+01          0.108759          0.250427
 Vib (V=0)   11  0.122361D+01          0.087643          0.201805
 Vib (V=0)   12  0.121225D+01          0.083594          0.192482
 Vib (V=0)   13  0.117415D+01          0.069723          0.160542
 Vib (V=0)   14  0.111130D+01          0.045830          0.105528
 Vib (V=0)   15  0.109578D+01          0.039721          0.091462
 Vib (V=0)   16  0.106075D+01          0.025614          0.058978
 Electronic      0.100000D+01          0.000000          0.000000
 Translational   0.174417D+09          8.241588         18.976958
 Rotational      0.406550D+07          6.609114         15.218049
 ***** Axes restored to original set *****
 -------------------------------------------------------------------
 Center     Atomic                   Forces (Hartrees/Bohr)
 Number     Number              X              Y              Z
 -------------------------------------------------------------------
      1        6           0.000121454   -0.000273916    0.000230677
      2        6          -0.000249189    0.000340204   -0.000161315
      3        8           0.000869210   -0.000612561   -0.000369206
      4        6          -0.001001180   -0.001052905    0.001673219
      5        6           0.000090596    0.000863029    0.000647058
      6        1           0.000054875    0.000646909    0.000177716
      7        1           0.000194683    0.000705990    0.000595519
      8        1          -0.000388927    0.000455879    0.000522973
      9        7           0.000810379    0.001040883   -0.001332518
     10        1          -0.000763089   -0.000522933   -0.000444830
     11        1          -0.000305750    0.001295751   -0.000901258
     12        1           0.000202753   -0.000161446   -0.000721303
     13       35           0.000602133    0.000144656   -0.001085608
     14        6           0.000033679   -0.000100694   -0.000137505
     15        6           0.000128032    0.000100404   -0.000129148
     16        6           0.000149199    0.000132147   -0.000407002
     17        6           0.000120087   -0.000070508   -0.000174416
     18        6           0.000024371   -0.000301184    0.000002875
     19        6           0.000034616   -0.000293252   -0.000099105
     20        1           0.000213585    0.000190376   -0.000310466
     21        1           0.000080790    0.000182155   -0.000306673
     22        1           0.000085436   -0.000041773   -0.000170707
     23        1           0.000021980   -0.000278945   -0.000037211
     24        1           0.000129002   -0.000283158   -0.000069689
     25        7          -0.000421278   -0.000869797    0.000713125
     26        6          -0.000537408   -0.000437614    0.000800044
     27        1           0.000033845    0.000305642    0.000095124
     28        1           0.000185381   -0.000095425    0.000117984
     29        1          -0.000354454   -0.000751314    0.000268304
     30        1          -0.000164809   -0.000256599    0.001013343
 -------------------------------------------------------------------
 Cartesian Forces:  Max     0.001673219 RMS     0.000523140


 One man practicing sportsmanship is far better than 50 preaching it.
 -- Knute K. Rockne
 Error termination request processed by link 9999.
 Error termination via Lnk1e in /apps/gaussian/g16/C.01/g16/l9999.exe at Mon May 20 14:22:53 2024.
 Job cpu time:       0 days 10 hours 40 minutes 46.9 seconds.
 Elapsed time:       0 days  1 hours 38 minutes 11.9 seconds.
 File lengths (MBytes):  RWF=      6 Int=      0 D2E=      0 Chk=      2 Scr=      1
