Unloading slurm/anatra/current
  ERROR: No such file or directory on
    '/cm/local/modulefiles/slurm/anatra/current'
environment: line 0: unalias: gv: not found
environment: line 0: unalias: sl: not found
 Entering Gaussian System, Link 0=g16
 Initial command:
 /apps/gaussian/g16/C.01/g16/l1.exe "/local/jobs/1176107/Gau-587157.inp" -scrdir="/local/jobs/1176107/"
 Entering Link 1 = /apps/gaussian/g16/C.01/g16/l1.exe PID=    587162.
  
 Copyright (c) 1988-2019, Gaussian, Inc.  All Rights Reserved.
  
 This is part of the Gaussian(R) 16 program.  It is based on
 the Gaussian(R) 09 system (copyright 2009, Gaussian, Inc.),
 the Gaussian(R) 03 system (copyright 2003, Gaussian, Inc.),
 the Gaussian(R) 98 system (copyright 1998, Gaussian, Inc.),
 the Gaussian(R) 94 system (copyright 1995, Gaussian, Inc.),
 the Gaussian 92(TM) system (copyright 1992, Gaussian, Inc.),
 the Gaussian 90(TM) system (copyright 1990, Gaussian, Inc.),
 the Gaussian 88(TM) system (copyright 1988, Gaussian, Inc.),
 the Gaussian 86(TM) system (copyright 1986, Carnegie Mellon
 University), and the Gaussian 82(TM) system (copyright 1983,
 Carnegie Mellon University). Gaussian is a federally registered
 trademark of Gaussian, Inc.
  
 This software contains proprietary and confidential information,
 including trade secrets, belonging to Gaussian, Inc.
  
 This software is provided under written license and may be
 used, copied, transmitted, or stored only in accord with that
 written license.
  
 The following legend is applicable only to US Government
 contracts under FAR:
  
                    RESTRICTED RIGHTS LEGEND
  
 Use, reproduction and disclosure by the US Government is
 subject to restrictions as set forth in subparagraphs (a)
 and (c) of the Commercial Computer Software - Restricted
 Rights clause in FAR 52.227-19.
  
 Gaussian, Inc.
 340 Quinnipiac St., Bldg. 40, Wallingford CT 06492
  
  
 ---------------------------------------------------------------
 Warning -- This program may not be used in any manner that
 competes with the business of Gaussian, Inc. or will provide
 assistance to any competitor of Gaussian, Inc.  The licensee
 of this program is prohibited from giving any competitor of
 Gaussian, Inc. access to this program.  By using this program,
 the user acknowledges that Gaussian, Inc. is engaged in the
 business of creating and licensing software in the field of
 computational chemistry and represents and warrants to the
 licensee that it is not a competitor of Gaussian, Inc. and that
 it will not use this program in any manner prohibited above.
 ---------------------------------------------------------------
  

 Cite this work as:
 Gaussian 16, Revision C.01,
 M. J. Frisch, G. W. Trucks, H. B. Schlegel, G. E. Scuseria, 
 M. A. Robb, J. R. Cheeseman, G. Scalmani, V. Barone, 
 G. A. Petersson, H. Nakatsuji, X. Li, M. Caricato, A. V. Marenich, 
 J. Bloino, B. G. Janesko, R. Gomperts, B. Mennucci, H. P. Hratchian, 
 J. V. Ortiz, A. F. Izmaylov, J. L. Sonnenberg, D. Williams-Young, 
 F. Ding, F. Lipparini, F. Egidi, J. Goings, B. Peng, A. Petrone, 
 T. Henderson, D. Ranasinghe, V. G. Zakrzewski, J. Gao, N. Rega, 
 G. Zheng, W. Liang, M. Hada, M. Ehara, K. Toyota, R. Fukuda, 
 J. Hasegawa, M. Ishida, T. Nakajima, Y. Honda, O. Kitao, H. Nakai, 
 T. Vreven, K. Throssell, J. A. Montgomery, Jr., J. E. Peralta, 
 F. Ogliaro, M. J. Bearpark, J. J. Heyd, E. N. Brothers, K. N. Kudin, 
 V. N. Staroverov, T. A. Keith, R. Kobayashi, J. Normand, 
 K. Raghavachari, A. P. Rendell, J. C. Burant, S. S. Iyengar, 
 J. Tomasi, M. Cossi, J. M. Millam, M. Klene, C. Adamo, R. Cammi, 
 J. W. Ochterski, R. L. Martin, K. Morokuma, O. Farkas, 
 J. B. Foresman, and D. J. Fox, Gaussian, Inc., Wallingford CT, 2019.
 
 ******************************************
 Gaussian 16:  ES64L-G16RevC.01  3-Jul-2019
                20-May-2024 
 ******************************************
 %nprocshared=12
 Will use up to   12 processors via shared memory.
 %mem=48GB
 ----------------------------------------------------------------------
 # external="~/scripts/MiMe -H 'am1' -EF 'wb97xd def2svp' -c 12 -m 48GB
 " opt=(calcall,ts,noeigen,maxcycles=50,maxstep=10,nomicro,cartesian)
 ----------------------------------------------------------------------
 1/5=1,6=50,8=10,10=4,11=1,18=10,26=1,38=1/1,3;
 2/12=2,17=6,18=5,29=2,40=1/2;
 3/11=9,25=1,30=1,41=9900000,43=2,71=2,140=1/1;
 4/20=17,22=2,24=3,113=1,114=1/2;
 6/7=2,8=2,9=2,10=2,18=1/1;
 7/7=1,25=1,44=-1/16;
 1/5=1,6=50,8=10,10=4,11=1,18=10,26=1/3(3);
 2/29=1/2;
 7/7=1,8=1,9=1,25=1,44=-1/16;
 99/12=1/99;
 2/29=1/2;
 3/11=9,25=1,30=1,41=9900000,43=2,71=2,140=1/1;
 4/16=2,20=17,22=2,24=3,113=1,114=1/2;
 7/7=1,25=1,44=-1/16;
 1/5=1,6=50,8=10,10=4,11=1,18=10,26=1/3(-4);
 2/29=1/2;
 6/7=2,8=2,9=2,10=2,18=1/1;
 7/7=1,8=1,9=1,25=1,44=-1/16;
 99/12=1/99;
 ---------
 TS-68.out
 ---------
 Symbolic Z-matrix:
 Charge =  0 Multiplicity = 1
 C                    -0.74249  -0.12132   0.22248 
 C                    -2.09729   0.30804   0.69467 
 O                    -2.30169   1.18952   1.52012 
 C                     0.23569   0.82708   0.28242 
 C                    -1.12249   3.02777  -1.33601 
 H                    -0.92798   3.59591  -2.25016 
 H                    -2.10314   2.55168  -1.41988 
 H                    -1.13854   3.71741  -0.4876 
 N                    -0.08065   2.0099   -1.1377 
 H                    -0.07122   1.43807  -1.98871 
 H                     0.8163    2.51011  -1.18421 
 C                     1.69287   0.45967   0.25094 
 C                     2.32299  -0.06152  -0.88807 
 C                     3.68719  -0.36217  -0.87152 
 C                     4.43783  -0.13667   0.28037 
 C                     3.82677   0.39194   1.41535 
 C                     2.46265   0.69229   1.39956 
 H                     1.75802  -0.23854  -1.79909 
 H                     4.16255  -0.77282  -1.75836 
 H                     5.49878  -0.37232   0.29348 
 H                     4.41054   0.57044   2.31459 
 H                     2.00288   1.1043    2.29536 
 H                     0.02255   1.70746   0.91213 
 Br                   -0.52741  -1.88792  -0.36586 
 O                    -3.07299  -0.40619   0.06938 
 C                    -4.39791  -0.05049   0.46209 
 H                    -5.09696  -0.68232  -0.09281 
 H                    -4.5431   -0.23106   1.53182 
 H                    -4.60411   0.99512   0.21281 
 

 GradGradGradGradGradGradGradGradGradGradGradGradGradGradGradGradGradGrad
 Berny optimization.
 Initialization pass.
 No Z-matrix variables, so optimization will use Cartesian coordinates.
 Trust Radius=1.00D-01 FncErr=1.00D-07 GrdErr=1.00D-07 EigMax=2.50D+02 EigMin=1.00D-04
 Number of steps in this run=     50 maximum allowed number of steps=    174.
 Search for a saddle point of order  1.
 GradGradGradGradGradGradGradGradGradGradGradGradGradGradGradGradGradGrad

 ---------------------------------------------------------------------------------------------------
                            Z-MATRIX (ANGSTROMS AND DEGREES)
   CD    Cent   Atom    N1       Length/X        N2       Alpha/Y        N3        Beta/Z          J
 ---------------------------------------------------------------------------------------------------
      1      1  C        0  -0.742490         -0.121320          0.222480
      2      2  C        0  -2.097290          0.308040          0.694670
      3      3  O        0  -2.301690          1.189520          1.520120
      4      4  C        0   0.235690          0.827080          0.282420
      5      5  C        0  -1.122490          3.027770         -1.336010
      6      6  H        0  -0.927980          3.595910         -2.250160
      7      7  H        0  -2.103140          2.551680         -1.419880
      8      8  H        0  -1.138540          3.717410         -0.487600
      9      9  N        0  -0.080650          2.009900         -1.137700
     10     10  H        0  -0.071220          1.438070         -1.988710
     11     11  H        0   0.816300          2.510110         -1.184210
     12     12  C        0   1.692870          0.459670          0.250940
     13     13  C        0   2.322990         -0.061520         -0.888070
     14     14  C        0   3.687190         -0.362170         -0.871520
     15     15  C        0   4.437830         -0.136670          0.280370
     16     16  C        0   3.826770          0.391940          1.415350
     17     17  C        0   2.462650          0.692290          1.399560
     18     18  H        0   1.758020         -0.238540         -1.799090
     19     19  H        0   4.162550         -0.772820         -1.758360
     20     20  H        0   5.498780         -0.372320          0.293480
     21     21  H        0   4.410540          0.570440          2.314590
     22     22  H        0   2.002880          1.104300          2.295360
     23     23  H        0   0.022550          1.707460          0.912130
     24     24  Br       0  -0.527410         -1.887920         -0.365860
     25     25  O        0  -3.072990         -0.406190          0.069380
     26     26  C        0  -4.397910         -0.050490          0.462090
     27     27  H        0  -5.096960         -0.682320         -0.092810
     28     28  H        0  -4.543100         -0.231060          1.531820
     29     29  H        0  -4.604110          0.995120          0.212810
 ---------------------------------------------------------------------------------------------------
                         Z-Matrix orientation:                         
 ---------------------------------------------------------------------
 Center     Atomic      Atomic             Coordinates (Angstroms)
 Number     Number       Type             X           Y           Z
 ---------------------------------------------------------------------
      1          6           0       -0.742490   -0.121320    0.222480
      2          6           0       -2.097290    0.308040    0.694670
      3          8           0       -2.301690    1.189520    1.520120
      4          6           0        0.235690    0.827080    0.282420
      5          6           0       -1.122490    3.027770   -1.336010
      6          1           0       -0.927980    3.595910   -2.250160
      7          1           0       -2.103140    2.551680   -1.419880
      8          1           0       -1.138540    3.717410   -0.487600
      9          7           0       -0.080650    2.009900   -1.137700
     10          1           0       -0.071220    1.438070   -1.988710
     11          1           0        0.816300    2.510110   -1.184210
     12          6           0        1.692870    0.459670    0.250940
     13          6           0        2.322990   -0.061520   -0.888070
     14          6           0        3.687190   -0.362170   -0.871520
     15          6           0        4.437830   -0.136670    0.280370
     16          6           0        3.826770    0.391940    1.415350
     17          6           0        2.462650    0.692290    1.399560
     18          1           0        1.758020   -0.238540   -1.799090
     19          1           0        4.162550   -0.772820   -1.758360
     20          1           0        5.498780   -0.372320    0.293480
     21          1           0        4.410540    0.570440    2.314590
     22          1           0        2.002880    1.104300    2.295360
     23          1           0        0.022550    1.707460    0.912130
     24         35           0       -0.527410   -1.887920   -0.365860
     25          8           0       -3.072990   -0.406190    0.069380
     26          6           0       -4.397910   -0.050490    0.462090
     27          1           0       -5.096960   -0.682320   -0.092810
     28          1           0       -4.543100   -0.231060    1.531820
     29          1           0       -4.604110    0.995120    0.212810
 ---------------------------------------------------------------------
                    Distance matrix (angstroms):
                    1          2          3          4          5
     1  C    0.000000
     2  C    1.497597   0.000000
     3  O    2.415218   1.224808   0.000000
     4  C    1.363778   2.425314   2.846324   0.000000
     5  C    3.534128   3.531406   3.595435   3.050738   0.000000
     6  H    4.468350   4.566114   4.678975   3.928678   1.093749
     7  H    3.419597   3.083063   3.246306   3.367818   1.093330
     8  H    3.923891   3.733734   3.431339   3.291724   1.093463
     9  N    2.613469   3.212592   3.559501   1.875067   1.469972
    10  H    2.787770   3.547176   4.165172   2.371821   2.014530
    11  H    3.366456   4.107105   4.333500   2.306665   2.012442
    12  C    2.503865   3.819058   4.254410   1.503115   4.127929
    13  C    3.260991   4.709619   5.362103   2.552739   4.649268
    14  C    4.569126   6.030120   6.632825   3.828674   5.902581
    15  C    5.180666   6.563323   6.979749   4.311241   6.598752
    16  C    4.750212   5.968325   6.181030   3.790611   6.246019
    17  C    3.510043   4.630072   4.791733   2.495099   5.078488
    18  H    3.217613   4.623960   5.434865   2.790290   4.379562
    19  H    5.329878   6.809641   7.509035   4.705815   6.523382
    20  H    6.246719   7.637023   8.049306   5.398037   7.619519
    21  H    5.604389   6.711546   6.787376   4.650264   7.069637
    22  H    3.651853   4.472989   4.374652   2.692905   5.162802
    23  H    2.098890   2.549389   2.457642   1.103192   2.847537
    24  Br   1.874374   2.900256   4.021893   2.893754   5.045723
    25  O    2.352833   1.361287   2.290380   3.537471   4.191856
    26  C    3.663949   2.339976   2.655408   4.719392   4.841201
    27  H    4.401765   3.255604   3.730799   5.554840   5.577340
    28  H    4.021324   2.640726   2.653696   5.051484   5.526753
    29  H    4.019781   2.643561   2.654805   4.843217   4.318818
                    6          7          8          9         10
     6  H    0.000000
     7  H    1.777859   0.000000
     8  H    1.779246   1.777224   0.000000
     9  N    2.114465   2.112727   2.111244   0.000000
    10  H    2.336379   2.385874   2.930511   1.025328   0.000000
    11  H    2.314676   2.929232   2.400883   1.028053   1.607539
    12  C    4.791697   4.645195   4.378949   2.734393   3.014185
    13  C    5.079458   5.167423   5.140319   3.182857   3.031900
    14  C    6.234328   6.505316   6.330722   4.460290   4.314467
    15  C    7.009112   7.273401   6.821995   5.199553   5.287727
    16  C    6.805074   6.918586   6.271704   4.940019   5.279805
    17  C    5.766094   5.679173   5.067671   3.826507   4.296168
    18  H    4.703304   4.778879   5.075392   2.978863   2.488593
    19  H    6.726155   7.101108   7.062475   5.112093   4.781831
    20  H    7.969956   8.323134   7.835177   6.233241   6.285762
    21  H    7.647889   7.765282   6.967638   5.844753   6.273543
    22  H    5.954814   5.723401   4.943858   4.116687   4.771430
    23  H    3.803923   3.266426   2.710585   2.074590   2.914830
    24  Br   5.812352   4.827415   5.639860   3.998541   3.728802
    25  O    5.098837   3.450724   4.588725   4.030959   4.080153
    26  C    5.717775   3.947033   5.071733   5.044132   5.190614
    27  H    6.351205   4.602481   5.931490   5.788196   5.774821
    28  H    6.482142   4.733876   5.591020   5.662305   5.931091
    29  H    5.132666   3.367997   4.462243   4.828597   5.058655
                   11         12         13         14         15
    11  H    0.000000
    12  C    2.651855   0.000000
    13  C    2.995179   1.402153   0.000000
    14  C    4.073055   2.431594   1.397035   0.000000
    15  C    4.718678   2.809145   2.417322   1.393256   0.000000
    16  C    4.506361   2.431865   2.787961   2.412040   1.393199
    17  C    3.562416   1.402142   2.412672   2.787326   2.416836
    18  H    2.969847   2.166648   1.086501   2.144147   3.393510
    19  H    4.722782   3.414035   2.155767   1.086778   2.153343
    20  H    5.693645   3.896019   3.402690   2.153877   1.086884
    21  H    5.377963   3.414184   3.874825   3.397689   2.153787
    22  H    3.935947   2.165943   3.405266   3.875121   3.395464
    23  H    2.380951   2.187263   3.414972   4.571035   4.826451
    24  Br   4.670966   3.289569   3.425379   4.510705   5.304536
    25  O    5.020246   4.847277   5.491094   6.825486   7.518615
    26  C    6.037794   6.115754   6.855184   8.200275   8.838029
    27  H    6.808040   6.893772   7.488223   8.824408   9.557678
    28  H    6.604090   6.403521   7.282019   8.575016   9.068194
    29  H    5.798940   6.319819   7.093176   8.471344   9.112749
                   16         17         18         19         20
    16  C    0.000000
    17  C    1.396883   0.000000
    18  H    3.874256   3.405042   0.000000
    19  H    3.397330   3.874102   2.463509   0.000000
    20  H    2.153672   3.402189   4.288360   2.481120   0.000000
    21  H    1.086868   2.155552   4.961116   4.295901   2.481521
    22  H    2.146730   1.087933   4.315982   4.961895   4.290600
    23  H    4.056589   2.687424   3.761580   5.515696   5.890442
    24  Br   5.227748   4.326043   3.161929   5.017791   6.248739
    25  O    7.074979   5.798219   5.182465   7.471820   8.574766
    26  C    8.291551   6.964040   6.560775   8.873198   9.903357
    27  H    9.113810   7.827159   7.078071   9.408548  10.607310
    28  H    8.393832   7.067574   7.127351   9.322399  10.118932
    29  H    8.537545   7.172111   6.785747   9.157808  10.195332
                   21         22         23         24         25
    21  H    0.000000
    22  H    2.466212   0.000000
    23  H    4.744909   2.489746   0.000000
    24  Br   6.132838   4.736860   3.855188   0.000000
    25  O    7.873881   5.744652   3.841889   2.977404   0.000000
    26  C    9.022533   6.757554   4.778430   4.363762   1.426940
    27  H    9.887241   7.700850   5.738496   4.733795   2.049148
    28  H    9.023458   6.724287   4.998703   4.740479   2.081015
    29  H    9.266161   6.928294   4.733124   5.026556   2.080522
                   26         27         28         29
    26  C    0.000000
    27  H    1.093524   0.000000
    28  H    1.094535   1.774773   0.000000
    29  H    1.094513   1.774855   1.801951   0.000000
 Stoichiometry    C11H14BrNO2
 Framework group  C1[X(C11H14BrNO2)]
 Deg. of freedom    81
 Full point group                 C1      NOp   1
 Largest Abelian subgroup         C1      NOp   1
 Largest concise Abelian subgroup C1      NOp   1
                         Standard orientation:                         
 ---------------------------------------------------------------------
 Center     Atomic      Atomic             Coordinates (Angstroms)
 Number     Number       Type             X           Y           Z
 ---------------------------------------------------------------------
      1          6           0       -0.742491   -0.121320    0.222480
      2          6           0       -2.097291    0.308039    0.694670
      3          8           0       -2.301692    1.189518    1.520120
      4          6           0        0.235689    0.827081    0.282420
      5          6           0       -1.122494    3.027770   -1.336010
      6          1           0       -0.927984    3.595910   -2.250160
      7          1           0       -2.103143    2.551679   -1.419880
      8          1           0       -1.138544    3.717410   -0.487600
      9          7           0       -0.080653    2.009901   -1.137700
     10          1           0       -0.071222    1.438071   -1.988710
     11          1           0        0.816297    2.510112   -1.184210
     12          6           0        1.692869    0.459672    0.250940
     13          6           0        2.322989   -0.061517   -0.888070
     14          6           0        3.687190   -0.362166   -0.871520
     15          6           0        4.437829   -0.136665    0.280370
     16          6           0        3.826769    0.391945    1.415350
     17          6           0        2.462649    0.692293    1.399560
     18          1           0        1.758020   -0.238538   -1.799090
     19          1           0        4.162550   -0.772815   -1.758360
     20          1           0        5.498780   -0.372314    0.293480
     21          1           0        4.410539    0.570445    2.314590
     22          1           0        2.002878    1.104303    2.295360
     23          1           0        0.022548    1.707461    0.912130
     24         35           0       -0.527409   -1.887920   -0.365860
     25          8           0       -3.072990   -0.406192    0.069380
     26          6           0       -4.397911   -0.050494    0.462090
     27          1           0       -5.096960   -0.682324   -0.092810
     28          1           0       -4.543100   -0.231064    1.531820
     29          1           0       -4.604112    0.995116    0.212810
 ---------------------------------------------------------------------
 Rotational constants (GHZ):           0.6855917           0.3044402           0.2523100
 Standard basis: STO-3G (5D, 7F)
 There are   103 symmetry adapted cartesian basis functions of A   symmetry.
 There are   102 symmetry adapted basis functions of A   symmetry.
   102 basis functions,   309 primitive gaussians,   103 cartesian basis functions
    69 alpha electrons       69 beta electrons
       nuclear repulsion energy      1360.8047526770 Hartrees.
 NAtoms=   29 NActive=   29 NUniq=   29 SFac= 1.00D+00 NAtFMM=   60 NAOKFM=F Big=F
 Integral buffers will be    131072 words long.
 Raffenetti 1 integral format.
 Two-electron integral symmetry is turned on.
 External calculation of energy, first and second derivatives.
 Running external command "~/scripts/MiMe -H 'am1' -EF 'wb97xd def2svp' -c 12 -m 48GB R"
         input file       "/local/jobs/1176107/Gau-587162.EIn"
         output file      "/local/jobs/1176107/Gau-587162.EOu"
         message file     "/local/jobs/1176107/Gau-587162.EMs"
         fchk file        "/local/jobs/1176107/Gau-587162.EFC"
         mat. el file     "/local/jobs/1176107/Gau-587162.EUF"
 Read checkpoint file Gau-587162_H.chk type G16
 Write formatted file Gau-587162_H.fchk

deriv: 2

spelevel: wb97xd def2svp
gradlevel: wb97xd def2svp
hesslevel: am1

runspe: False
runforce: True
runfreq: True

Running Gaussian ...

Parsing files ...
SPE file: Gau-587162_F.out
FORCE file: Gau-587162_F.out
HESS file: Gau-587162_H.out

 ExternalExternalExternalExternalExternalExternalExternalExternalExternalExternal
 Output from external command:
 "~/scripts/MiMe -H 'am1' -EF 'wb97xd def2svp' -c 12 -m 48GB R /local/jobs/1176107/Gau-587162.EIn /local/jobs/1176107/Gau-587162.EOu /local/jobs/1176107/Gau-587162.EMs /local/jobs/1176107/Gau-587162.EFC /local/jobs/1176107/Gau-587162.EUF"
  
 --------------------------------------------------
 Force calculation at wb97xd def2svp
 Hessian calculation at am1
 ExternalExternalExternalExternalExternalExternalExternalExternalExternalExternal

 Recovered energy= -3205.96547277     dipole=      1.675600000000      4.168400000000     -3.591900000000
 Energy=    -3205.96547     NIter=   0.
 Dipole moment=       1.675600       4.168400      -3.591900
 ***** Axes restored to original set *****
 -------------------------------------------------------------------
 Center     Atomic                   Forces (Hartrees/Bohr)
 Number     Number              X              Y              Z
 -------------------------------------------------------------------
      1        6          -0.038492355    0.002670073    0.025863863
      2        6           0.020040909   -0.012283367   -0.002525487
      3        8          -0.003508266   -0.011671172   -0.021888032
      4        6           0.007640770   -0.005428505    0.029288740
      5        6          -0.001434748   -0.006167454    0.008638485
      6        1          -0.001514921    0.003871695   -0.003831131
      7        1          -0.002761072   -0.002312238    0.001222697
      8        1          -0.000676326    0.000988945    0.003450267
      9        7           0.025470826    0.033526540   -0.052571714
     10        1           0.000017963   -0.004487422    0.004762104
     11        1          -0.001019951   -0.002346320   -0.000182828
     12        6          -0.002404801    0.012181354   -0.008483250
     13        6           0.004878610    0.000253754    0.004037828
     14        6          -0.004666230    0.002427725    0.003981813
     15        6          -0.001898841   -0.000027698   -0.000548301
     16        6          -0.006553432   -0.001227725   -0.003467086
     17        6           0.005556034   -0.001556480   -0.002572592
     18        1          -0.003501407   -0.001368052   -0.002564860
     19        1           0.001227634   -0.001317876   -0.003243400
     20        1           0.003721830   -0.000702605   -0.000067207
     21        1           0.001557469    0.000743540    0.003194228
     22        1          -0.003302429    0.001513842    0.001664726
     23        1           0.000105339   -0.014294282    0.008699021
     24       35           0.003277787   -0.006085285   -0.007558830
     25        8          -0.008734406    0.015663138    0.015420911
     26        6           0.006197118   -0.006784818   -0.004122453
     27        1           0.001954736   -0.003596192   -0.003342253
     28        1          -0.000602368    0.003439736    0.003726228
     29        1          -0.000575468    0.004377151    0.003018515
 -------------------------------------------------------------------
 Cartesian Forces:  Max     0.052571714 RMS     0.011072829

 GradGradGradGradGradGradGradGradGradGradGradGradGradGradGradGradGradGrad
 Berny optimization.
 Search for a saddle point.
 Step number   1 out of a maximum of   50
 All quantities printed in internal units (Hartrees-Bohrs-Radians)
 Swapping is turned off.
 Second derivative matrix not updated -- analytic derivatives used.
 ITU=  0
     Eigenvalues ---   -0.05639  -0.00941  -0.00885  -0.00141  -0.00067
     Eigenvalues ---   -0.00058  -0.00049   0.00008   0.00021   0.00113
     Eigenvalues ---    0.00511   0.00559   0.00675   0.00821   0.00868
     Eigenvalues ---    0.01671   0.02125   0.02661   0.02854   0.03232
     Eigenvalues ---    0.03465   0.04397   0.04772   0.05103   0.05126
     Eigenvalues ---    0.05249   0.05799   0.05901   0.06302   0.06963
     Eigenvalues ---    0.07557   0.07833   0.07867   0.08736   0.09093
     Eigenvalues ---    0.09417   0.10788   0.10930   0.11734   0.12259
     Eigenvalues ---    0.13077   0.14369   0.15393   0.16380   0.17228
     Eigenvalues ---    0.19613   0.21652   0.22052   0.22223   0.22740
     Eigenvalues ---    0.23824   0.25823   0.27206   0.32568   0.36740
     Eigenvalues ---    0.43527   0.47339   0.48799   0.50750   0.63240
     Eigenvalues ---    0.64828   0.69376   0.75219   0.77042   0.80464
     Eigenvalues ---    0.80696   0.82161   0.84301   0.86047   0.90610
     Eigenvalues ---    0.93012   0.93951   0.96569   1.12476   1.18937
     Eigenvalues ---    1.24154   1.25141   1.42338   1.43556   1.44505
     Eigenvalues ---    2.22982
 Eigenvectors required to have negative eigenvalues:
                          Z4        Y4        Y9        Z9        Y6
   1                    0.48700  -0.42841   0.27980  -0.25801   0.22428
                          Y5        Z5        X9        Z6        Y12
   1                    0.19650  -0.18210  -0.15193  -0.14222  -0.14062
 RFO step:  Lambda0=1.418703139D-02 Lambda=-3.67674694D-02.
 Linear search not attempted -- option 19 set.
 Maximum step size (   0.100) exceeded in Quadratic search.
    -- Step size scaled by   0.115
 B after Tr=     0.000021    0.002238   -0.003051
         Rot=    1.000000   -0.000274    0.000061   -0.000029 Ang=  -0.03 deg.
 Variable       Old X    -DE/DX   Delta X   Delta X   Delta X     New X
                                 (Linear)    (Quad)   (Total)
    X1       -1.40310  -0.03849   0.00000  -0.00813  -0.00815  -1.41125
    Y1       -0.22926   0.00267   0.00000   0.00631   0.00823  -0.22103
    Z1        0.42043   0.02586   0.00000   0.00473   0.00139   0.42181
    X2       -3.96330   0.02004   0.00000   0.00121   0.00104  -3.96227
    Y2        0.58211  -0.01228   0.00000  -0.00623  -0.00494   0.57717
    Z2        1.31274  -0.00253   0.00000   0.00264  -0.00057   1.31216
    X3       -4.34956  -0.00351   0.00000  -0.01033  -0.01078  -4.36034
    Y3        2.24787  -0.01167   0.00000   0.00511   0.00553   2.25340
    Z3        2.87261  -0.02189   0.00000  -0.01297  -0.01531   2.85730
    X4        0.44539   0.00764   0.00000  -0.00765  -0.00778   0.43761
    Y4        1.56295  -0.00543   0.00000   0.01638   0.01835   1.58131
    Z4        0.53370   0.02929   0.00000  -0.00682  -0.00895   0.52474
    X5       -2.12120  -0.00143   0.00000   0.00979   0.00978  -2.11141
    Y5        5.72166  -0.00617   0.00000  -0.01965  -0.01616   5.70550
    Z5       -2.52469   0.00864   0.00000   0.01245   0.01226  -2.51243
    X6       -1.75363  -0.00151   0.00000  -0.01334  -0.01319  -1.76682
    Y6        6.79529   0.00387   0.00000  -0.02647  -0.02201   6.77328
    Z6       -4.25219  -0.00383   0.00000   0.00105   0.00149  -4.25070
    X7       -3.97436  -0.00276   0.00000   0.01218   0.01225  -3.96211
    Y7        4.82198  -0.00231   0.00000  -0.03086  -0.02740   4.79458
    Z7       -2.68318   0.00122   0.00000   0.03170   0.03079  -2.65240
    X8       -2.15153  -0.00068   0.00000   0.01059   0.01032  -2.14121
    Y8        7.02489   0.00099   0.00000  -0.00712  -0.00451   7.02038
    Z8       -0.92143   0.00345   0.00000   0.00334   0.00387  -0.91756
    X9       -0.15241   0.02547   0.00000   0.03163   0.03170  -0.12071
    Y9        3.79816   0.03353   0.00000  -0.00149   0.00192   3.80008
    Z9       -2.14994  -0.05257   0.00000  -0.00357  -0.00455  -2.15449
   X10       -0.13459   0.00002   0.00000   0.02387   0.02419  -0.11040
   Y10        2.71756  -0.00449   0.00000  -0.01250  -0.00822   2.70934
   Z10       -3.75812   0.00476   0.00000   0.00597   0.00438  -3.75373
   X11        1.54258  -0.00102   0.00000   0.02375   0.02377   1.56636
   Y11        4.74342  -0.00235   0.00000   0.00492   0.00848   4.75190
   Z11       -2.23783  -0.00018   0.00000  -0.00252  -0.00279  -2.24062
   X12        3.19906  -0.00240   0.00000  -0.00502  -0.00511   3.19395
   Y12        0.86865   0.01218   0.00000   0.01576   0.01792   0.88657
   Z12        0.47421  -0.00848   0.00000  -0.00870  -0.01088   0.46333
   X13        4.38981   0.00488   0.00000  -0.00347  -0.00324   4.38658
   Y13       -0.11626   0.00025   0.00000   0.00502   0.00843  -0.10783
   Z13       -1.67821   0.00404   0.00000  -0.00295  -0.00553  -1.68374
   X14        6.96778  -0.00467   0.00000  -0.00506  -0.00480   6.96298
   Y14       -0.68440   0.00243   0.00000  -0.00095   0.00259  -0.68181
   Z14       -1.64693   0.00398   0.00000   0.00046  -0.00212  -1.64905
   X15        8.38628  -0.00190   0.00000  -0.00512  -0.00515   8.38114
   Y15       -0.25827  -0.00003   0.00000  -0.00243  -0.00001  -0.25827
   Z15        0.52982  -0.00055   0.00000   0.00058  -0.00159   0.52823
   X16        7.23155  -0.00655   0.00000  -0.00793  -0.00827   7.22328
   Y16        0.74066  -0.00123   0.00000  -0.00130  -0.00012   0.74054
   Z16        2.67462  -0.00347   0.00000  -0.00129  -0.00306   2.67156
   X17        4.65373   0.00556   0.00000  -0.00573  -0.00611   4.64763
   Y17        1.30824  -0.00156   0.00000   0.00578   0.00683   1.31507
   Z17        2.64479  -0.00257   0.00000  -0.00549  -0.00725   2.63753
   X18        3.32218  -0.00350   0.00000  -0.00362  -0.00316   3.31902
   Y18       -0.45078  -0.00137   0.00000  -0.00325   0.00104  -0.44974
   Z18       -3.39979  -0.00256   0.00000  -0.00255  -0.00545  -3.40524
   X19        7.86608   0.00123   0.00000  -0.00440  -0.00389   7.86219
   Y19       -1.46042  -0.00132   0.00000  -0.00517  -0.00066  -1.46108
   Z19       -3.32282  -0.00324   0.00000   0.00123  -0.00167  -3.32449
   X20       10.39119   0.00372   0.00000  -0.00417  -0.00418  10.38701
   Y20       -0.70358  -0.00070   0.00000  -0.00346  -0.00094  -0.70452
   Z20        0.55460  -0.00007   0.00000   0.00220   0.00002   0.55462
   X21        8.33471   0.00156   0.00000  -0.00840  -0.00897   8.32574
   Y21        1.07798   0.00074   0.00000  -0.00356  -0.00324   1.07473
   Z21        4.37394   0.00319   0.00000   0.00103  -0.00042   4.37352
   X22        3.78489  -0.00330   0.00000  -0.00772  -0.00834   3.77655
   Y22        2.08682   0.00151   0.00000   0.00277   0.00285   2.08967
   Z22        4.33760   0.00166   0.00000  -0.00388  -0.00533   4.33227
   X23        0.04261   0.00011   0.00000  -0.00734  -0.00772   0.03490
   Y23        3.22663  -0.01429   0.00000  -0.00973  -0.00845   3.21818
   Z23        1.72368   0.00870   0.00000   0.02666   0.02537   1.74905
   X24       -0.99666   0.00328   0.00000   0.00627   0.00658  -0.99008
   Y24       -3.56765  -0.00609   0.00000   0.00906   0.01162  -3.55603
   Z24       -0.69138  -0.00756   0.00000  -0.01222  -0.01733  -0.70871
   X25       -5.80711  -0.00873   0.00000  -0.00466  -0.00461  -5.81172
   Y25       -0.76759   0.01566   0.00000  -0.00520  -0.00337  -0.77096
   Z25        0.13111   0.01542   0.00000   0.01226   0.00808   0.13919
   X26       -8.31085   0.00620   0.00000  -0.00213  -0.00221  -8.31305
   Y26       -0.09541  -0.00678   0.00000  -0.00147  -0.00019  -0.09560
   Z26        0.87322  -0.00412   0.00000   0.00594   0.00183   0.87505
   X27       -9.63186   0.00195   0.00000   0.00280   0.00292  -9.62894
   Y27       -1.28940  -0.00360   0.00000  -0.01193  -0.01015  -1.29955
   Z27       -0.17539  -0.00334   0.00000   0.01052   0.00559  -0.16980
   X28       -8.58521  -0.00060   0.00000  -0.00274  -0.00305  -8.58826
   Y28       -0.43664   0.00344   0.00000   0.01769   0.01784  -0.41880
   Z28        2.89472   0.00373   0.00000   0.00967   0.00535   2.90007
   X29       -8.70051  -0.00058   0.00000  -0.00371  -0.00385  -8.70435
   Y29        1.88050   0.00438   0.00000  -0.00280  -0.00128   1.87923
   Z29        0.40215   0.00302   0.00000  -0.00452  -0.00760   0.39455
         Item               Value     Threshold  Converged?
 Maximum Force            0.052572     0.000450     NO 
 RMS     Force            0.011073     0.000300     NO 
 Maximum Displacement     0.031698     0.001800     NO 
 RMS     Displacement     0.010498     0.001200     NO 
 Predicted change in Energy=-2.559167D-03
 GradGradGradGradGradGradGradGradGradGradGradGradGradGradGradGradGradGrad

                          Input orientation:                          
 ---------------------------------------------------------------------
 Center     Atomic      Atomic             Coordinates (Angstroms)
 Number     Number       Type             X           Y           Z
 ---------------------------------------------------------------------
      1          6           0       -0.746803   -0.116964    0.223215
      2          6           0       -2.096742    0.305425    0.694366
      3          8           0       -2.307395    1.192445    1.512018
      4          6           0        0.231574    0.836792    0.277682
      5          6           0       -1.117312    3.019221   -1.329521
      6          1           0       -0.934961    3.584265   -2.249372
      7          1           0       -2.096660    2.537182   -1.403588
      8          1           0       -1.133080    3.715025   -0.485552
      9          7           0       -0.063876    2.010913   -1.140109
     10          1           0       -0.058420    1.433722   -1.986390
     11          1           0        0.828880    2.514595   -1.185684
     12          6           0        1.690166    0.469154    0.245182
     13          6           0        2.321278   -0.057061   -0.890997
     14          6           0        3.684649   -0.360800   -0.872641
     15          6           0        4.435107   -0.136673    0.279527
     16          6           0        3.822393    0.391879    1.413729
     17          6           0        2.459419    0.695906    1.395721
     18          1           0        1.756349   -0.237992   -1.801974
     19          1           0        4.160491   -0.773169   -1.759243
     20          1           0        5.496570   -0.372816    0.293492
     21          1           0        4.405793    0.568723    2.314366
     22          1           0        1.998464    1.105807    2.292539
     23          1           0        0.018466    1.702990    0.925557
     24         35           0       -0.523929   -1.881769   -0.375033
     25          8           0       -3.075431   -0.407974    0.073655
     26          6           0       -4.399078   -0.050591    0.463059
     27          1           0       -5.095416   -0.687691   -0.089852
     28          1           0       -4.544712   -0.221618    1.534652
     29          1           0       -4.606145    0.994443    0.208789
 ---------------------------------------------------------------------
                    Distance matrix (angstroms):
                    1          2          3          4          5
     1  C    0.000000
     2  C    1.490883   0.000000
     3  O    2.410605   1.224636   0.000000
     4  C    1.367420   2.424258   2.845423   0.000000
     5  C    3.519080   3.524215   3.581585   3.027473   0.000000
     6  H    4.455130   4.556986   4.663950   3.910935   1.094830
     7  H    3.393095   3.063029   3.217682   3.337464   1.094061
     8  H    3.916082   3.734464   3.425304   3.275520   1.093927
     9  N    2.617805   3.225916   3.568900   1.864399   1.470472
    10  H    2.785831   3.551656   4.165928   2.359332   2.016565
    11  H    3.375334   4.119986   4.343029   2.305047   2.015689
    12  C    2.506558   3.816968   4.255411   1.504562   4.106637
    13  C    3.264686   4.707830   5.362868   2.555709   4.634621
    14  C    4.571446   6.026927   6.633533   3.831605   5.890001
    15  C    5.182253   6.559923   6.981900   4.314780   6.586202
    16  C    4.749084   5.963314   6.182626   3.792431   6.231295
    17  C    3.509328   4.626335   4.794016   2.496628   5.061397
    18  H    3.222081   4.623129   5.435320   2.793756   4.369276
    19  H    5.333130   6.807094   7.509883   4.709292   6.513224
    20  H    6.249008   7.634074   8.052125   5.402184   7.608122
    21  H    5.602886   6.706466   6.789675   4.652317   7.056029
    22  H    3.648802   4.468274   4.376887   2.693309   5.146701
    23  H    2.095508   2.545730   2.452392   1.102476   2.847426
    24  Br   1.876728   2.898478   4.023991   2.896101   5.028206
    25  O    2.351502   1.360901   2.284755   3.539399   4.189129
    26  C    3.660744   2.341155   2.649640   4.718554   4.838087
    27  H    4.397064   3.254739   3.724776   5.553012   5.577032
    28  H    4.019320   2.641290   2.646823   5.051050   5.518477
    29  H    4.016212   2.647194   2.649879   4.840777   4.317184
                    6          7          8          9         10
     6  H    0.000000
     7  H    1.777999   0.000000
     8  H    1.779722   1.777242   0.000000
     9  N    2.112981   2.116267   2.115570   0.000000
    10  H    2.337161   2.389917   2.934579   1.024388   0.000000
    11  H    2.320940   2.933731   2.404268   1.026054   1.611434
    12  C    4.776821   4.619008   4.363528   2.715276   2.994639
    13  C    5.070259   5.148885   5.130848   3.166628   3.014180
    14  C    6.228942   6.488739   6.322397   4.443873   4.297827
    15  C    7.005593   7.255780   6.813636   5.183468   5.271841
    16  C    6.800151   6.897448   6.261572   4.924069   5.263740
    17  C    5.757702   5.655464   5.055721   3.811390   4.280486
    18  H    4.696058   4.765079   5.070316   2.967972   2.474272
    19  H    6.722432   7.087796   7.056066   5.097031   4.766674
    20  H    7.968013   8.306943   7.827491   6.217390   6.270515
    21  H    7.644924   7.744670   6.958296   5.830203   6.258908
    22  H    5.947831   5.699143   4.932786   4.105550   4.758943
    23  H    3.811613   3.254927   2.713959   2.090113   2.925381
    24  Br   5.793067   4.801930   5.630931   3.993741   3.715596
    25  O    5.090780   3.437177   4.591793   4.048914   4.091208
    26  C    5.706976   3.934726   5.074098   5.061020   5.200414
    27  H    6.342123   4.595459   5.936378   5.805333   5.785203
    28  H    6.467912   4.715632   5.587272   5.675952   5.938408
    29  H    5.121262   3.358172   4.466078   4.846126   5.068883
                   11         12         13         14         15
    11  H    0.000000
    12  C    2.640648   0.000000
    13  C    2.987893   1.402179   0.000000
    14  C    4.064641   2.432347   1.396917   0.000000
    15  C    4.709664   2.811210   2.417589   1.393165   0.000000
    16  C    4.497110   2.432666   2.786873   2.411014   1.393270
    17  C    3.553863   1.402464   2.411457   2.786267   2.417110
    18  H    2.969301   2.166860   1.087087   2.144081   3.393914
    19  H    4.715718   3.415200   2.156240   1.087446   2.153398
    20  H    5.684403   3.898712   3.403703   2.154778   1.087503
    21  H    5.369458   3.415562   3.874425   3.397216   2.153837
    22  H    3.930731   2.166112   3.404610   3.874599   3.396057
    23  H    2.402668   2.186285   3.420612   4.575329   4.827880
    24  Br   4.670682   3.288423   3.419208   4.502565   5.297721
    25  O    5.036963   4.848679   5.493465   6.826154   7.518255
    26  C    6.052279   6.115268   6.855413   8.199206   8.836511
    27  H    6.822959   6.891637   7.486446   8.820950   9.553582
    28  H    6.615329   6.404186   7.283726   8.575360   9.067507
    29  H    5.813339   6.318290   7.092557   8.470150   9.112006
                   16         17         18         19         20
    16  C    0.000000
    17  C    1.396587   0.000000
    18  H    3.873761   3.404662   0.000000
    19  H    3.396969   3.873710   2.463359   0.000000
    20  H    2.154660   3.403140   4.289336   2.481755   0.000000
    21  H    1.087555   2.156028   4.961310   4.295945   2.481980
    22  H    2.146792   1.088476   4.316184   4.962040   4.291766
    23  H    4.053046   2.682074   3.771879   5.522308   5.892206
    24  Br   5.221079   4.322076   3.152433   5.008875   6.242617
    25  O    7.072166   5.796634   5.185844   7.473383   8.574891
    26  C    8.288072   6.961760   6.561614   8.872822   9.902345
    27  H    9.107883   7.822838   7.076742   9.405636  10.603596
    28  H    8.390437   7.065337   7.129986   9.323868  10.118828
    29  H    8.535527   7.170782   6.785528   9.157047  10.195166
                   21         22         23         24         25
    21  H    0.000000
    22  H    2.466611   0.000000
    23  H    4.739619   2.479044   0.000000
    24  Br   6.126985   4.733288   3.851782   0.000000
    25  O    7.870415   5.741026   3.841107   2.980529   0.000000
    26  C    9.018684   6.753725   4.775317   4.367195   1.425272
    27  H    9.880881   7.695164   5.735695   4.733460   2.045804
    28  H    9.019098   6.719345   4.989760   4.750757   2.080390
    29  H    9.264433   6.926419   4.733162   5.027716   2.080414
                   26         27         28         29
    26  C    0.000000
    27  H    1.093843   0.000000
    28  H    1.094883   1.777502   0.000000
    29  H    1.095275   1.777118   1.800136   0.000000
 Stoichiometry    C11H14BrNO2
 Framework group  C1[X(C11H14BrNO2)]
 Deg. of freedom    81
 Full point group                 C1      NOp   1
 Largest Abelian subgroup         C1      NOp   1
 Largest concise Abelian subgroup C1      NOp   1
                         Standard orientation:                         
 ---------------------------------------------------------------------
 Center     Atomic      Atomic             Coordinates (Angstroms)
 Number     Number       Type             X           Y           Z
 ---------------------------------------------------------------------
      1          6           0       -0.747466   -0.117975    0.226128
      2          6           0       -2.097564    0.307191    0.694318
      3          8           0       -2.308407    1.197847    1.507959
      4          6           0        0.231396    0.835466    0.277303
      5          6           0       -1.114926    3.011688   -1.340433
      6          1           0       -0.931489    3.572657   -2.262559
      7          1           0       -2.094479    2.529876   -1.413242
      8          1           0       -1.131013    3.711134   -0.499486
      9          7           0       -0.062211    2.003623   -1.145788
     10          1           0       -0.056368    1.422783   -1.989567
     11          1           0        0.830864    2.506609   -1.192785
     12          6           0        1.689810    0.466882    0.247614
     13          6           0        2.321579   -0.064578   -0.885754
     14          6           0        3.684765   -0.368991   -0.864942
     15          6           0        4.434383   -0.140312    0.286878
     16          6           0        3.821013    0.393468    1.418275
     17          6           0        2.458225    0.698170    1.397810
     18          1           0        1.757314   -0.249125   -1.796416
     19          1           0        4.161120   -0.785445   -1.749357
     20          1           0        5.495702   -0.376980    0.302753
     21          1           0        4.403758    0.573872    2.318631
     22          1           0        1.996747    1.112190    2.292464
     23          1           0        0.018229    1.704568    0.921255
     24         35           0       -0.525076   -1.885467   -0.364315
     25          8           0       -3.076130   -0.408337    0.075869
     26          6           0       -4.399904   -0.048544    0.462615
     27          1           0       -5.096133   -0.687638   -0.088128
     28          1           0       -4.546530   -0.214866    1.534812
     29          1           0       -4.606174    0.995498    0.203665
 ---------------------------------------------------------------------
 Rotational constants (GHZ):           0.6875861           0.3046896           0.2526694
 Standard basis: STO-3G (5D, 7F)
 There are   103 symmetry adapted cartesian basis functions of A   symmetry.
 There are   102 symmetry adapted basis functions of A   symmetry.
   102 basis functions,   309 primitive gaussians,   103 cartesian basis functions
    69 alpha electrons       69 beta electrons
       nuclear repulsion energy      1361.5326851891 Hartrees.
 NAtoms=   29 NActive=   29 NUniq=   29 SFac= 1.00D+00 NAtFMM=   60 NAOKFM=F Big=F
 Integral buffers will be    131072 words long.
 Raffenetti 1 integral format.
 Two-electron integral symmetry is turned on.
 External calculation of energy, first and second derivatives.
 Running external command "~/scripts/MiMe -H 'am1' -EF 'wb97xd def2svp' -c 12 -m 48GB R"
         input file       "/local/jobs/1176107/Gau-587162.EIn"
         output file      "/local/jobs/1176107/Gau-587162.EOu"
         message file     "/local/jobs/1176107/Gau-587162.EMs"
         fchk file        "/local/jobs/1176107/Gau-587162.EFC"
         mat. el file     "/local/jobs/1176107/Gau-587162.EUF"
 Read checkpoint file Gau-587162_H.chk type G16
 Write formatted file Gau-587162_H.fchk

deriv: 2

spelevel: wb97xd def2svp
gradlevel: wb97xd def2svp
hesslevel: am1

runspe: False
runforce: True
runfreq: True

Running Gaussian ...

Parsing files ...
SPE file: Gau-587162_F.out
FORCE file: Gau-587162_F.out
HESS file: Gau-587162_H.out

 ExternalExternalExternalExternalExternalExternalExternalExternalExternalExternal
 Output from external command:
 "~/scripts/MiMe -H 'am1' -EF 'wb97xd def2svp' -c 12 -m 48GB R /local/jobs/1176107/Gau-587162.EIn /local/jobs/1176107/Gau-587162.EOu /local/jobs/1176107/Gau-587162.EMs /local/jobs/1176107/Gau-587162.EFC /local/jobs/1176107/Gau-587162.EUF"
  
 --------------------------------------------------
 Force calculation at wb97xd def2svp
 Hessian calculation at am1
 ExternalExternalExternalExternalExternalExternalExternalExternalExternalExternal

 Recovered energy= -3205.96800127     dipole=      1.795700000000      4.255600000000     -3.670200000000
 Energy=    -3205.96800     NIter=   0.
 Dipole moment=       1.795700       4.255600      -3.670200
 ***** Axes restored to original set *****
 -------------------------------------------------------------------
 Center     Atomic                   Forces (Hartrees/Bohr)
 Number     Number              X              Y              Z
 -------------------------------------------------------------------
      1        6          -0.035651216    0.002196685    0.023755426
      2        6           0.017072071   -0.010549250   -0.002806981
      3        8          -0.002647439   -0.010370292   -0.019835207
      4        6           0.007441307   -0.005659110    0.027559144
      5        6          -0.001467317   -0.005619665    0.007550372
      6        1          -0.001584790    0.003400651   -0.003171178
      7        1          -0.002000834   -0.002596272    0.001395953
      8        1          -0.000203463    0.000412101    0.003373186
      9        7           0.022676521    0.030983955   -0.047748316
     10        1           0.000420932   -0.004403610    0.004110562
     11        1           0.000165803   -0.001694460   -0.000585033
     12        6          -0.002094371    0.011153801   -0.007278540
     13        6           0.004172924    0.000442184    0.003469610
     14        6          -0.004194258    0.002246099    0.003480164
     15        6          -0.001830499    0.000076451   -0.000488186
     16        6          -0.005787840   -0.001054716   -0.003088908
     17        6           0.004834986   -0.001251550   -0.002385603
     18        1          -0.003207619   -0.001190559   -0.002332332
     19        1           0.000939712   -0.001196777   -0.002880490
     20        1           0.003243226   -0.000690955   -0.000042586
     21        1           0.001209913    0.000630671    0.002867515
     22        1          -0.003065821    0.001482928    0.001367787
     23        1          -0.000087765   -0.012614776    0.007456967
     24       35           0.003010094   -0.005423203   -0.007490705
     25        8          -0.007840132    0.013690415    0.014163555
     26        6           0.005975394   -0.006186997   -0.003711179
     27        1           0.001773574   -0.003302410   -0.002942041
     28        1          -0.000729656    0.003164933    0.003447515
     29        1          -0.000543436    0.003923727    0.002789529
 -------------------------------------------------------------------
 Cartesian Forces:  Max     0.047748316 RMS     0.010080551

 GradGradGradGradGradGradGradGradGradGradGradGradGradGradGradGradGradGrad
 Berny optimization.
 Search for a saddle point.
 Step number   2 out of a maximum of   50
 All quantities printed in internal units (Hartrees-Bohrs-Radians)
 Swapping is turned off.
 Second derivative matrix not updated -- analytic derivatives used.
 ITU=  0  0
     Eigenvalues ---   -0.05842  -0.00923  -0.00866  -0.00146  -0.00128
     Eigenvalues ---   -0.00060  -0.00044   0.00009   0.00027   0.00104
     Eigenvalues ---    0.00521   0.00564   0.00692   0.00830   0.00878
     Eigenvalues ---    0.01684   0.02132   0.02672   0.02873   0.03210
     Eigenvalues ---    0.03483   0.04375   0.04799   0.05098   0.05142
     Eigenvalues ---    0.05271   0.05809   0.05919   0.06340   0.06976
     Eigenvalues ---    0.07540   0.07825   0.07871   0.08757   0.09113
     Eigenvalues ---    0.09447   0.10796   0.10957   0.11764   0.12288
     Eigenvalues ---    0.13085   0.14338   0.15410   0.16392   0.17251
     Eigenvalues ---    0.19612   0.21652   0.22061   0.22165   0.22699
     Eigenvalues ---    0.23759   0.25841   0.27184   0.32583   0.36715
     Eigenvalues ---    0.43350   0.47263   0.48753   0.50665   0.63661
     Eigenvalues ---    0.65086   0.70263   0.75055   0.77309   0.80123
     Eigenvalues ---    0.80767   0.82235   0.83953   0.86080   0.91167
     Eigenvalues ---    0.93302   0.94564   0.96604   1.13658   1.18711
     Eigenvalues ---    1.24011   1.25067   1.40268   1.43664   1.44371
     Eigenvalues ---    2.23424
 Eigenvectors required to have negative eigenvalues:
                          Z4        Y4        Y9        Z9        Y6
   1                    0.49555  -0.43375   0.28533  -0.26890   0.22206
                          Y5        Z5        X6        Z6        Y10
   1                    0.19187  -0.18038  -0.14223  -0.13977   0.13800
 RFO step:  Lambda0=1.352847750D-02 Lambda=-3.25630724D-02.
 Linear search not attempted -- option 19 set.
 Maximum step size (   0.100) exceeded in Quadratic search.
    -- Step size scaled by   0.116
 B after Tr=     0.000024    0.002306   -0.003021
         Rot=    1.000000   -0.000216    0.000067   -0.000036 Ang=  -0.03 deg.
 Variable       Old X    -DE/DX   Delta X   Delta X   Delta X     New X
                                 (Linear)    (Quad)   (Total)
    X1       -1.41125  -0.03565   0.00000  -0.00791  -0.00792  -1.41918
    Y1       -0.22103   0.00220   0.00000   0.00641   0.00843  -0.21261
    Z1        0.42181   0.02376   0.00000   0.00374   0.00043   0.42225
    X2       -3.96227   0.01707   0.00000   0.00041   0.00022  -3.96205
    Y2        0.57717  -0.01055   0.00000  -0.00462  -0.00317   0.57400
    Z2        1.31216  -0.00281   0.00000   0.00098  -0.00233   1.30983
    X3       -4.36034  -0.00265   0.00000  -0.01039  -0.01091  -4.37126
    Y3        2.25340  -0.01037   0.00000   0.01154   0.01230   2.26570
    Z3        2.85730  -0.01984   0.00000  -0.01976  -0.02239   2.83491
    X4        0.43761   0.00744   0.00000  -0.00716  -0.00732   0.43029
    Y4        1.58131  -0.00566   0.00000   0.01621   0.01832   1.59963
    Z4        0.52474   0.02756   0.00000  -0.00761  -0.00988   0.51486
    X5       -2.11141  -0.00147   0.00000   0.01113   0.01107  -2.10034
    Y5        5.70550  -0.00562   0.00000  -0.01800  -0.01476   5.69074
    Z5       -2.51243   0.00755   0.00000   0.01419   0.01334  -2.49909
    X6       -1.76682  -0.00158   0.00000  -0.01165  -0.01155  -1.77837
    Y6        6.77328   0.00340   0.00000  -0.02370  -0.01969   6.75359
    Z6       -4.25070  -0.00317   0.00000   0.00424   0.00390  -4.24680
    X7       -3.96211  -0.00200   0.00000   0.01230   0.01233  -3.94978
    Y7        4.79458  -0.00260   0.00000  -0.02600  -0.02285   4.77173
    Z7       -2.65240   0.00140   0.00000   0.03491   0.03342  -2.61898
    X8       -2.14121  -0.00020   0.00000   0.01674   0.01638  -2.12483
    Y8        7.02038   0.00041   0.00000  -0.00790  -0.00536   7.01502
    Z8       -0.91756   0.00337   0.00000   0.00699   0.00672  -0.91084
    X9       -0.12071   0.02268   0.00000   0.02922   0.02926  -0.09145
    Y9        3.80008   0.03098   0.00000  -0.00367  -0.00044   3.79964
    Z9       -2.15449  -0.04775   0.00000  -0.00392  -0.00531  -2.15980
   X10       -0.11040   0.00042   0.00000   0.01894   0.01928  -0.09112
   Y10        2.70934  -0.00440   0.00000  -0.01436  -0.01044   2.69890
   Z10       -3.75373   0.00411   0.00000   0.00504   0.00318  -3.75056
   X11        1.56636   0.00017   0.00000   0.02345   0.02344   1.58979
   Y11        4.75190  -0.00169   0.00000   0.00039   0.00379   4.75568
   Z11       -2.24062  -0.00059   0.00000  -0.00614  -0.00689  -2.24751
   X12        3.19395  -0.00209   0.00000  -0.00475  -0.00486   3.18910
   Y12        0.88657   0.01115   0.00000   0.01487   0.01721   0.90378
   Z12        0.46333  -0.00728   0.00000  -0.00810  -0.01030   0.45302
   X13        4.38658   0.00417   0.00000  -0.00322  -0.00296   4.38361
   Y13       -0.10783   0.00044   0.00000   0.00572   0.00908  -0.09875
   Z13       -1.68374   0.00347   0.00000  -0.00311  -0.00558  -1.68932
   X14        6.96298  -0.00419   0.00000  -0.00478  -0.00449   6.95849
   Y14       -0.68181   0.00225   0.00000   0.00002   0.00354  -0.67827
   Z14       -1.64905   0.00348   0.00000   0.00030  -0.00208  -1.65113
   X15        8.38114  -0.00183   0.00000  -0.00527  -0.00530   8.37584
   Y15       -0.25827   0.00008   0.00000  -0.00220   0.00048  -0.25779
   Z15        0.52823  -0.00049   0.00000   0.00090  -0.00111   0.52712
   X16        7.22328  -0.00579   0.00000  -0.00811  -0.00850   7.21478
   Y16        0.74054  -0.00105   0.00000  -0.00186  -0.00019   0.74035
   Z16        2.67156  -0.00309   0.00000  -0.00067  -0.00240   2.66916
   X17        4.64763   0.00483   0.00000  -0.00602  -0.00645   4.64118
   Y17        1.31507  -0.00125   0.00000   0.00501   0.00652   1.32159
   Z17        2.63753  -0.00239   0.00000  -0.00483  -0.00665   2.63088
   X18        3.31902  -0.00321   0.00000  -0.00317  -0.00266   3.31636
   Y18       -0.44974  -0.00119   0.00000  -0.00155   0.00248  -0.44726
   Z18       -3.40524  -0.00233   0.00000  -0.00290  -0.00567  -3.41091
   X19        7.86219   0.00094   0.00000  -0.00408  -0.00350   7.85869
   Y19       -1.46108  -0.00120   0.00000  -0.00351   0.00080  -1.46028
   Z19       -3.32449  -0.00288   0.00000   0.00093  -0.00166  -3.32615
   X20       10.38701   0.00324   0.00000  -0.00449  -0.00449  10.38252
   Y20       -0.70452  -0.00069   0.00000  -0.00351  -0.00069  -0.70521
   Z20        0.55462  -0.00004   0.00000   0.00262   0.00069   0.55530
   X21        8.32574   0.00121   0.00000  -0.00912  -0.00976   8.31598
   Y21        1.07473   0.00063   0.00000  -0.00500  -0.00398   1.07075
   Z21        4.37352   0.00287   0.00000   0.00197   0.00054   4.37405
   X22        3.77655  -0.00307   0.00000  -0.00842  -0.00913   3.76742
   Y22        2.08967   0.00148   0.00000   0.00175   0.00246   2.09213
   Z22        4.33227   0.00137   0.00000  -0.00347  -0.00508   4.32719
   X23        0.03490  -0.00009   0.00000  -0.00701  -0.00746   0.02744
   Y23        3.21818  -0.01261   0.00000  -0.00881  -0.00726   3.21092
   Z23        1.74905   0.00746   0.00000   0.02351   0.02188   1.77093
   X24       -0.99008   0.00301   0.00000   0.00655   0.00693  -0.98316
   Y24       -3.55603  -0.00542   0.00000   0.00922   0.01176  -3.54427
   Z24       -0.70871  -0.00749   0.00000  -0.01220  -0.01688  -0.72559
   X25       -5.81172  -0.00784   0.00000  -0.00448  -0.00443  -5.81615
   Y25       -0.77096   0.01369   0.00000  -0.00976  -0.00794  -0.77890
   Z25        0.13919   0.01416   0.00000   0.01609   0.01195   0.15114
   X26       -8.31305   0.00598   0.00000  -0.00225  -0.00234  -8.31539
   Y26       -0.09560  -0.00619   0.00000  -0.00355  -0.00222  -0.09783
   Z26        0.87505  -0.00371   0.00000   0.00728   0.00309   0.87815
   X27       -9.62894   0.00177   0.00000   0.00249   0.00263  -9.62631
   Y27       -1.29955  -0.00330   0.00000  -0.01295  -0.01127  -1.31082
   Z27       -0.16980  -0.00294   0.00000   0.01110   0.00622  -0.16358
   X28       -8.58826  -0.00073   0.00000  -0.00506  -0.00540  -8.59366
   Y28       -0.41880   0.00316   0.00000   0.01598   0.01641  -0.40239
   Z28        2.90007   0.00345   0.00000   0.01054   0.00619   2.90626
   X29       -8.70435  -0.00054   0.00000  -0.00196  -0.00213  -8.70648
   Y29        1.87923   0.00392   0.00000  -0.00482  -0.00331   1.87592
   Z29        0.39455   0.00279   0.00000  -0.00393  -0.00731   0.38724
         Item               Value     Threshold  Converged?
 Maximum Force            0.047748     0.000450     NO 
 RMS     Force            0.010081     0.000300     NO 
 Maximum Displacement     0.033418     0.001800     NO 
 RMS     Displacement     0.010501     0.001200     NO 
 Predicted change in Energy=-2.219727D-03
 GradGradGradGradGradGradGradGradGradGradGradGradGradGradGradGradGradGrad

                          Input orientation:                          
 ---------------------------------------------------------------------
 Center     Atomic      Atomic             Coordinates (Angstroms)
 Number     Number       Type             X           Y           Z
 ---------------------------------------------------------------------
      1          6           0       -0.750995   -0.112506    0.223445
      2          6           0       -2.096627    0.303747    0.693133
      3          8           0       -2.313169    1.198957    1.500169
      4          6           0        0.227700    0.846488    0.272453
      5          6           0       -1.111452    3.011408   -1.322460
      6          1           0       -0.941071    3.573847   -2.247311
      7          1           0       -2.090134    2.525092   -1.385904
      8          1           0       -1.124410    3.712191   -0.481997
      9          7           0       -0.048394    2.010681   -1.142919
     10          1           0       -0.048220    1.428197   -1.984709
     11          1           0        0.841282    2.516599   -1.189329
     12          6           0        1.687596    0.478260    0.239729
     13          6           0        2.319709   -0.052258   -0.893950
     14          6           0        3.682273   -0.358925   -0.873743
     15          6           0        4.432304   -0.136418    0.278939
     16          6           0        3.817896    0.391777    1.412459
     17          6           0        2.456006    0.699354    1.392200
     18          1           0        1.754944   -0.236682   -1.804976
     19          1           0        4.158640   -0.772744   -1.760123
     20          1           0        5.494193   -0.373183    0.293854
     21          1           0        4.400628    0.566615    2.314650
     22          1           0        1.993635    1.107108    2.289853
     23          1           0        0.014520    1.699146    0.937137
     24         35           0       -0.520264   -1.875545   -0.383968
     25          8           0       -3.077772   -0.412174    0.079980
     26          6           0       -4.400315   -0.051767    0.464696
     27          1           0       -5.094025   -0.693657   -0.086562
     28          1           0       -4.547567   -0.212934    1.537925
     29          1           0       -4.607271    0.992693    0.204919
 ---------------------------------------------------------------------
                    Distance matrix (angstroms):
                    1          2          3          4          5
     1  C    0.000000
     2  C    1.484789   0.000000
     3  O    2.406314   1.224581   0.000000
     4  C    1.371100   2.423641   2.843859   0.000000
     5  C    3.504082   3.516336   3.563193   3.003990   0.000000
     6  H    4.441842   4.546985   4.643960   3.892778   1.095772
     7  H    3.367524   3.042501   3.183991   3.307599   1.094691
     8  H    3.907095   3.734116   3.414451   3.257245   1.094369
     9  N    2.620786   3.237278   3.574075   1.853334   1.470980
    10  H    2.782733   3.554040   4.162562   2.347189   2.018810
    11  H    3.382820   4.131790   4.349729   2.302728   2.018843
    12  C    2.509183   3.815282   4.256082   1.505975   4.085578
    13  C    3.268245   4.706336   5.362919   2.558269   4.619798
    14  C    4.573665   6.024112   6.633836   3.834170   5.877099
    15  C    5.183651   6.556847   6.983984   4.317967   6.573166
    16  C    4.747928   5.958755   6.184592   3.794191   6.216166
    17  C    3.508556   4.622950   4.796487   2.498165   5.043979
    18  H    3.226397   4.622468   5.434573   2.796684   4.358800
    19  H    5.336195   6.804826   7.510088   4.712278   6.502709
    20  H    6.251023   7.631396   8.054919   5.405923   7.596214
    21  H    5.601211   6.701696   6.792518   4.654270   7.041918
    22  H    3.645613   4.463759   4.379565   2.693762   5.129983
    23  H    2.092236   2.542364   2.446493   1.101942   2.845282
    24  Br   1.878960   2.897305   4.027038   2.898241   5.011245
    25  O    2.350377   1.360568   2.279758   3.542234   4.189770
    26  C    3.657789   2.342125   2.644371   4.718298   4.836692
    27  H    4.392693   3.253788   3.719256   5.551729   5.578158
    28  H    4.018943   2.643433   2.643368   5.052422   5.512266
    29  H    4.011566   2.648836   2.642560   4.837652   4.316115
                    6          7          8          9         10
     6  H    0.000000
     7  H    1.778273   0.000000
     8  H    1.780193   1.777322   0.000000
     9  N    2.111882   2.119519   2.118907   0.000000
    10  H    2.338794   2.393984   2.938189   1.023669   0.000000
    11  H    2.326775   2.938011   2.407011   1.024515   1.615073
    12  C    4.762134   4.593849   4.345869   2.696978   2.977174
    13  C    5.060920   5.131419   5.118860   3.150494   2.998097
    14  C    6.223239   6.473063   6.311232   4.427795   4.283063
    15  C    7.001512   7.238614   6.802050   5.168014   5.258062
    16  C    6.794649   6.876531   6.248239   4.909073   5.249930
    17  C    5.748816   5.631924   5.040751   3.797160   4.266834
    18  H    4.688741   4.752646   5.063057   2.956516   2.460798
    19  H    6.718427   7.075517   7.046905   5.082079   4.753131
    20  H    7.965500   8.291176   7.816529   6.202209   6.257408
    21  H    7.641248   7.723970   6.945640   5.816691   6.246523
    22  H    5.939963   5.674419   4.918517   4.095149   4.748068
    23  H    3.816853   3.241647   2.713568   2.104197   2.935053
    24  Br   5.774513   4.778491   5.621155   3.987658   3.701339
    25  O    5.086270   3.428087   4.598024   4.067289   4.102207
    26  C    5.697932   3.924520   5.078894   5.077138   5.208705
    27  H    6.334624   4.590425   5.943543   5.821316   5.793564
    28  H    6.455582   4.699419   5.586116   5.689810   5.945283
    29  H    5.110461   3.348872   4.471895   4.861720   5.076326
                   11         12         13         14         15
    11  H    0.000000
    12  C    2.629312   0.000000
    13  C    2.978594   1.402229   0.000000
    14  C    4.054561   2.432989   1.396795   0.000000
    15  C    4.699973   2.812967   2.417811   1.393101   0.000000
    16  C    4.488251   2.433300   2.785903   2.410117   1.393325
    17  C    3.545984   1.402684   2.410390   2.785351   2.417358
    18  H    2.965528   2.167140   1.087630   2.144000   3.394261
    19  H    4.706427   3.416208   2.156623   1.088045   2.153503
    20  H    5.674527   3.901034   3.404589   2.155583   1.088066
    21  H    5.361832   3.416671   3.874060   3.396838   2.153922
    22  H    3.926740   2.166129   3.403976   3.874157   3.396651
    23  H    2.423556   2.185434   3.425520   4.579012   4.829009
    24  Br   4.668334   3.286951   3.413195   4.494589   5.290740
    25  O    5.054487   4.850478   5.496443   6.827198   7.517770
    26  C    6.066847   6.115080   6.855992   8.198414   8.834977
    27  H    6.837376   6.889866   7.485100   8.817886   9.549610
    28  H    6.627817   6.406272   7.286928   8.577163   9.068020
    29  H    5.826915   6.315948   7.091014   8.467994   9.110119
                   16         17         18         19         20
    16  C    0.000000
    17  C    1.396338   0.000000
    18  H    3.873321   3.404348   0.000000
    19  H    3.396688   3.873393   2.463154   0.000000
    20  H    2.155554   3.404009   4.290187   2.482373   0.000000
    21  H    1.088161   2.156406   4.961476   4.296070   2.482482
    22  H    2.146962   1.088959   4.316291   4.962197   4.292922
    23  H    4.049791   2.677222   3.780964   5.528036   5.893655
    24  Br   5.214166   4.317761   3.143518   5.000211   6.236203
    25  O    7.069093   5.794835   5.190280   7.475403   8.574722
    26  C    8.284562   6.959424   6.562988   8.872729   9.901201
    27  H    9.102064   7.818580   7.076027   9.403131  10.599896
    28  H    8.388229   7.064244   7.134227   9.326765  10.119799
    29  H    8.532449   7.168372   6.784454   9.155291  10.193777
                   21         22         23         24         25
    21  H    0.000000
    22  H    2.467055   0.000000
    23  H    4.734776   2.469260   0.000000
    24  Br   6.120609   4.729188   3.848340   0.000000
    25  O    7.866273   5.736805   3.841180   2.982876   0.000000
    26  C    9.014506   6.749576   4.772805   4.370490   1.423733
    27  H    9.874338   7.689280   5.733298   4.733350   2.042608
    28  H    9.015608   6.715298   4.982934   4.762050   2.079807
    29  H    9.261465   6.923294   4.732459   5.027643   2.080535
                   26         27         28         29
    26  C    0.000000
    27  H    1.094140   0.000000
    28  H    1.095208   1.780076   0.000000
    29  H    1.095998   1.779232   1.798334   0.000000
 Stoichiometry    C11H14BrNO2
 Framework group  C1[X(C11H14BrNO2)]
 Deg. of freedom    81
 Full point group                 C1      NOp   1
 Largest Abelian subgroup         C1      NOp   1
 Largest concise Abelian subgroup C1      NOp   1
                         Standard orientation:                         
 ---------------------------------------------------------------------
 Center     Atomic      Atomic             Coordinates (Angstroms)
 Number     Number       Type             X           Y           Z
 ---------------------------------------------------------------------
      1          6           0       -0.752336   -0.114562    0.229268
      2          6           0       -2.098264    0.307209    0.693146
      3          8           0       -2.315115    1.209522    1.492149
      4          6           0        0.227376    0.843707    0.271717
      5          6           0       -1.106653    2.996445   -1.343846
      6          1           0       -0.934098    3.550773   -2.273179
      7          1           0       -2.085785    2.510713   -1.404765
      8          1           0       -1.120198    3.704392   -0.509418
      9          7           0       -0.045041    1.996084   -1.153999
     10          1           0       -0.044142    1.406434   -1.990785
     11          1           0        0.845289    2.500580   -1.203246
     12          6           0        1.686901    0.473561    0.244568
     13          6           0        2.320280   -0.067333   -0.883488
     14          6           0        3.682457   -0.375359   -0.858396
     15          6           0        4.430834   -0.143867    0.293591
     16          6           0        3.815157    0.394683    1.421536
     17          6           0        2.453656    0.703617    1.396386
     18          1           0        1.756812   -0.258890   -1.793844
     19          1           0        4.159815   -0.797271   -1.740417
     20          1           0        5.492425   -0.381698    0.312295
     21          1           0        4.396596    0.576559    2.323171
     22          1           0        1.990268    1.119544    2.289755
     23          1           0        0.014074    1.702250    0.928742
     24         35           0       -0.522620   -1.882983   -0.362686
     25          8           0       -3.079214   -0.412810    0.084495
     26          6           0       -4.401977   -0.047635    0.463918
     27          1           0       -5.095510   -0.693422   -0.082993
     28          1           0       -4.551190   -0.199464    1.538238
     29          1           0       -4.607306    0.994803    0.194890
 ---------------------------------------------------------------------
 Rotational constants (GHZ):           0.6896229           0.3049724           0.2530118
 Standard basis: STO-3G (5D, 7F)
 There are   103 symmetry adapted cartesian basis functions of A   symmetry.
 There are   102 symmetry adapted basis functions of A   symmetry.
   102 basis functions,   309 primitive gaussians,   103 cartesian basis functions
    69 alpha electrons       69 beta electrons
       nuclear repulsion energy      1362.2974538825 Hartrees.
 NAtoms=   29 NActive=   29 NUniq=   29 SFac= 1.00D+00 NAtFMM=   60 NAOKFM=F Big=F
 Integral buffers will be    131072 words long.
 Raffenetti 1 integral format.
 Two-electron integral symmetry is turned on.
 External calculation of energy, first and second derivatives.
 Running external command "~/scripts/MiMe -H 'am1' -EF 'wb97xd def2svp' -c 12 -m 48GB R"
         input file       "/local/jobs/1176107/Gau-587162.EIn"
         output file      "/local/jobs/1176107/Gau-587162.EOu"
         message file     "/local/jobs/1176107/Gau-587162.EMs"
         fchk file        "/local/jobs/1176107/Gau-587162.EFC"
         mat. el file     "/local/jobs/1176107/Gau-587162.EUF"
 Read checkpoint file Gau-587162_H.chk type G16
 Write formatted file Gau-587162_H.fchk

deriv: 2

spelevel: wb97xd def2svp
gradlevel: wb97xd def2svp
hesslevel: am1

runspe: False
runforce: True
runfreq: True

Running Gaussian ...

Parsing files ...
SPE file: Gau-587162_F.out
FORCE file: Gau-587162_F.out
HESS file: Gau-587162_H.out

 ExternalExternalExternalExternalExternalExternalExternalExternalExternalExternal
 Output from external command:
 "~/scripts/MiMe -H 'am1' -EF 'wb97xd def2svp' -c 12 -m 48GB R /local/jobs/1176107/Gau-587162.EIn /local/jobs/1176107/Gau-587162.EOu /local/jobs/1176107/Gau-587162.EMs /local/jobs/1176107/Gau-587162.EFC /local/jobs/1176107/Gau-587162.EUF"
  
 --------------------------------------------------
 Force calculation at wb97xd def2svp
 Hessian calculation at am1
 ExternalExternalExternalExternalExternalExternalExternalExternalExternalExternal

 Recovered energy= -3205.97018634     dipole=      1.913000000000      4.334800000000     -3.744900000000
 Energy=    -3205.97019     NIter=   0.
 Dipole moment=       1.913000       4.334800      -3.744900
 ***** Axes restored to original set *****
 -------------------------------------------------------------------
 Center     Atomic                   Forces (Hartrees/Bohr)
 Number     Number              X              Y              Z
 -------------------------------------------------------------------
      1        6          -0.033030985    0.001792895    0.021756559
      2        6           0.014462433   -0.008932556   -0.003159813
      3        8          -0.001888109   -0.009260287   -0.017899200
      4        6           0.007361947   -0.005821802    0.025929134
      5        6          -0.001473438   -0.005059454    0.006607265
      6        1          -0.001605530    0.002965015   -0.002589988
      7        1          -0.001306364   -0.002853420    0.001554165
      8        1           0.000180639   -0.000086177    0.003268239
      9        7           0.020100950    0.028591277   -0.043336867
     10        1           0.000737518   -0.004298283    0.003582760
     11        1           0.001076248   -0.001188525   -0.000894926
     12        6          -0.001846096    0.010183452   -0.006197136
     13        6           0.003555201    0.000598377    0.002983170
     14        6          -0.003770084    0.002085825    0.003033292
     15        6          -0.001757467    0.000161906   -0.000438711
     16        6          -0.005115356   -0.000894690   -0.002741195
     17        6           0.004200267   -0.001000290   -0.002212669
     18        1          -0.002941585   -0.001025284   -0.002117621
     19        1           0.000690452   -0.001085421   -0.002553243
     20        1           0.002809129   -0.000679364   -0.000017597
     21        1           0.000915344    0.000536393    0.002573241
     22        1          -0.002838819    0.001458089    0.001111470
     23        1          -0.000231649   -0.011054270    0.006274733
     24       35           0.002744750   -0.004810970   -0.007391548
     25        8          -0.007029484    0.011980694    0.012991005
     26        6           0.005749399   -0.005651081   -0.003323496
     27        1           0.001590117   -0.003035391   -0.002552465
     28        1          -0.000854344    0.002894603    0.003199364
     29        1          -0.000485086    0.003488740    0.002562079
 -------------------------------------------------------------------
 Cartesian Forces:  Max     0.043336867 RMS     0.009179947

 GradGradGradGradGradGradGradGradGradGradGradGradGradGradGradGradGradGrad
 Berny optimization.
 Search for a saddle point.
 Step number   3 out of a maximum of   50
 All quantities printed in internal units (Hartrees-Bohrs-Radians)
 Swapping is turned off.
 Second derivative matrix not updated -- analytic derivatives used.
 ITU=  0  0  0
     Eigenvalues ---   -0.05986  -0.00907  -0.00848  -0.00220  -0.00116
     Eigenvalues ---   -0.00062  -0.00039   0.00007   0.00038   0.00097
     Eigenvalues ---    0.00530   0.00569   0.00712   0.00839   0.00888
     Eigenvalues ---    0.01695   0.02142   0.02683   0.02895   0.03198
     Eigenvalues ---    0.03503   0.04357   0.04825   0.05105   0.05156
     Eigenvalues ---    0.05292   0.05821   0.05939   0.06377   0.06988
     Eigenvalues ---    0.07525   0.07816   0.07875   0.08776   0.09130
     Eigenvalues ---    0.09484   0.10802   0.10992   0.11797   0.12316
     Eigenvalues ---    0.13096   0.14309   0.15426   0.16396   0.17277
     Eigenvalues ---    0.19605   0.21644   0.22068   0.22126   0.22664
     Eigenvalues ---    0.23697   0.25848   0.27181   0.32596   0.36684
     Eigenvalues ---    0.43205   0.47192   0.48708   0.50590   0.63825
     Eigenvalues ---    0.65326   0.71186   0.74909   0.77488   0.79807
     Eigenvalues ---    0.80837   0.82302   0.83649   0.86122   0.91676
     Eigenvalues ---    0.93575   0.94932   0.96851   1.14730   1.18499
     Eigenvalues ---    1.23889   1.24996   1.38222   1.43761   1.44260
     Eigenvalues ---    2.23725
 Eigenvectors required to have negative eigenvalues:
                          Z4        Y4        Y9        Z9        Y6
   1                    0.50204  -0.43764   0.28949  -0.27850   0.22011
                          Y5        Z5        X6        Z6        Y10
   1                    0.18737  -0.17857  -0.14391  -0.13709   0.13676
 RFO step:  Lambda0=1.276769136D-02 Lambda=-2.89558875D-02.
 Linear search not attempted -- option 19 set.
 Maximum step size (   0.100) exceeded in Quadratic search.
    -- Step size scaled by   0.117
 B after Tr=     0.000002    0.002395   -0.003109
         Rot=    1.000000   -0.000231    0.000069   -0.000033 Ang=  -0.03 deg.
 Variable       Old X    -DE/DX   Delta X   Delta X   Delta X     New X
                                 (Linear)    (Quad)   (Total)
    X1       -1.41918  -0.03303   0.00000  -0.00763  -0.00767  -1.42685
    Y1       -0.21261   0.00179   0.00000   0.00679   0.00890  -0.20371
    Z1        0.42225   0.02176   0.00000   0.00260  -0.00080   0.42145
    X2       -3.96205   0.01446   0.00000  -0.00001  -0.00022  -3.96227
    Y2        0.57400  -0.00893   0.00000  -0.00344  -0.00191   0.57209
    Z2        1.30983  -0.00316   0.00000   0.00042  -0.00297   1.30686
    X3       -4.37126  -0.00189   0.00000  -0.00957  -0.01010  -4.38136
    Y3        2.26570  -0.00926   0.00000   0.01246   0.01326   2.27896
    Z3        2.83491  -0.01790   0.00000  -0.02003  -0.02269   2.81222
    X4        0.43029   0.00736   0.00000  -0.00651  -0.00668   0.42361
    Y4        1.59963  -0.00582   0.00000   0.01612   0.01831   1.61794
    Z4        0.51486   0.02593   0.00000  -0.00804  -0.01034   0.50452
    X5       -2.10034  -0.00147   0.00000   0.01105   0.01101  -2.08933
    Y5        5.69074  -0.00506   0.00000  -0.01827  -0.01487   5.67587
    Z5       -2.49909   0.00661   0.00000   0.01419   0.01342  -2.48567
    X6       -1.77837  -0.00161   0.00000  -0.01173  -0.01159  -1.78996
    Y6        6.75359   0.00297   0.00000  -0.02406  -0.01982   6.73377
    Z6       -4.24680  -0.00259   0.00000   0.00482   0.00458  -4.24222
    X7       -3.94978  -0.00131   0.00000   0.01277   0.01281  -3.93697
    Y7        4.77173  -0.00285   0.00000  -0.02659  -0.02326   4.74847
    Z7       -2.61898   0.00155   0.00000   0.03558   0.03413  -2.58485
    X8       -2.12483   0.00018   0.00000   0.01777   0.01743  -2.10740
    Y8        7.01502  -0.00009   0.00000  -0.00895  -0.00628   7.00874
[...]
    25   8     0.00  -0.00  -0.00     0.00   0.00   0.00    -0.00  -0.00  -0.00
    26   6     0.00  -0.00   0.00    -0.00  -0.00  -0.00    -0.02  -0.08  -0.02
    27   1    -0.00  -0.00   0.00     0.00   0.00  -0.00     0.42   0.48   0.07
    28   1     0.00  -0.00  -0.00    -0.00   0.00   0.01    -0.09   0.20   0.53
    29   1    -0.00   0.00  -0.00     0.00  -0.00   0.00    -0.12   0.33  -0.37
                     73                     74                     75
                      A                      A                      A
 Frequencies --   3234.9167              3236.3838              3241.7934
 Red. masses --      1.0772                 1.0786                 1.0780
 Frc consts  --      6.6414                 6.6560                 6.6750
 IR Inten    --      0.0000                 0.0000                 0.0000
  Atom  AN      X      Y      Z        X      Y      Z        X      Y      Z
     1   6    -0.00   0.00  -0.00     0.00  -0.00  -0.00    -0.00   0.00   0.00
     2   6    -0.00   0.00   0.00    -0.00   0.00   0.00     0.00  -0.00  -0.00
     3   8     0.00  -0.00  -0.00     0.00  -0.00  -0.00     0.00   0.00   0.00
     4   6     0.00  -0.00  -0.00    -0.00  -0.00  -0.00     0.00   0.00   0.00
     5   6     0.00   0.00   0.00    -0.00  -0.00  -0.00     0.00   0.00   0.00
     6   1    -0.00  -0.00   0.00    -0.00  -0.00   0.00     0.00  -0.00   0.00
     7   1    -0.00  -0.00   0.00     0.00   0.00  -0.00    -0.00  -0.00   0.00
     8   1     0.00  -0.00  -0.00    -0.00   0.00   0.00     0.00  -0.00  -0.00
     9   7     0.00   0.00   0.00    -0.00  -0.00  -0.00     0.00   0.00   0.00
    10   1    -0.00  -0.01  -0.01    -0.00   0.00   0.00    -0.00  -0.01  -0.01
    11   1    -0.01  -0.01   0.00     0.00   0.00  -0.00    -0.01  -0.01   0.00
    12   6    -0.00  -0.00  -0.00     0.00  -0.00  -0.00    -0.00   0.00  -0.00
    13   6    -0.03  -0.02  -0.05     0.01   0.00   0.01    -0.01  -0.01  -0.03
    14   6    -0.02   0.02   0.02     0.01  -0.01  -0.01     0.01  -0.02  -0.02
    15   6     0.01  -0.00   0.00    -0.01   0.00  -0.00    -0.06   0.01  -0.01
    16   6     0.00   0.00   0.00     0.02   0.01   0.03     0.01   0.01   0.02
    17   6     0.01  -0.01  -0.01     0.03  -0.04  -0.05    -0.01   0.01   0.02
    18   1     0.42   0.30   0.67    -0.07  -0.05  -0.11     0.19   0.13   0.30
    19   1     0.21  -0.26  -0.31    -0.10   0.12   0.15    -0.17   0.21   0.25
    20   1    -0.11   0.03  -0.01     0.17  -0.04   0.02     0.73  -0.19   0.09
    21   1    -0.02  -0.01  -0.03    -0.21  -0.14  -0.35    -0.11  -0.07  -0.18
    22   1    -0.12   0.14   0.18    -0.38   0.47   0.58     0.14  -0.17  -0.21
    23   1    -0.00   0.00   0.00    -0.00   0.00   0.00     0.00  -0.00  -0.00
    24  35     0.00  -0.00  -0.00    -0.00  -0.00   0.00     0.00  -0.00  -0.00
    25   8    -0.00  -0.00  -0.00     0.00  -0.00  -0.00     0.00   0.00   0.00
    26   6    -0.00  -0.00   0.00    -0.00  -0.00  -0.00    -0.00   0.00   0.00
    27   1     0.00   0.00   0.00     0.00   0.00   0.00    -0.00  -0.00   0.00
    28   1     0.00  -0.00  -0.00     0.00   0.00   0.00     0.00  -0.00  -0.00
    29   1    -0.00   0.00  -0.00    -0.00   0.00  -0.00     0.00  -0.00   0.00
                     76                     77                     78
                      A                      A                      A
 Frequencies --   3246.4065              3248.3198              3255.7372
 Red. masses --      1.0807                 1.0896                 1.0889
 Frc consts  --      6.7107                 6.7737                 6.8007
 IR Inten    --      0.0000                 0.0000                 0.0000
  Atom  AN      X      Y      Z        X      Y      Z        X      Y      Z
     1   6    -0.00   0.00   0.00     0.00   0.00  -0.00     0.00  -0.00  -0.00
     2   6    -0.00   0.00   0.00     0.00   0.00   0.00    -0.00   0.00   0.00
     3   8     0.00  -0.00  -0.00    -0.00  -0.00  -0.00     0.00  -0.00  -0.00
     4   6     0.00   0.00   0.00     0.00  -0.00  -0.00    -0.00  -0.00  -0.00
     5   6     0.00   0.00   0.00    -0.01  -0.02  -0.01    -0.00   0.00   0.00
     6   1    -0.00  -0.00   0.01     0.00   0.02  -0.05    -0.00  -0.00   0.00
     7   1    -0.01  -0.01   0.00     0.10   0.05  -0.00     0.00   0.00  -0.00
     8   1     0.00  -0.01  -0.01    -0.01   0.10   0.12     0.00  -0.00  -0.00
     9   7     0.00   0.01   0.00    -0.04  -0.06  -0.02     0.00   0.00   0.00
    10   1    -0.00  -0.05  -0.05     0.01   0.51   0.45    -0.00  -0.01  -0.01
    11   1    -0.06  -0.03   0.01     0.61   0.32  -0.10    -0.01  -0.01   0.00
    12   6    -0.00   0.00   0.00     0.00  -0.00   0.00     0.00  -0.00   0.00
    13   6    -0.01  -0.01  -0.02    -0.00  -0.00  -0.00     0.01   0.01   0.02
    14   6     0.02  -0.03  -0.04     0.00  -0.00  -0.00    -0.02   0.02   0.03
    15   6     0.01  -0.00  -0.00    -0.00   0.00  -0.00    -0.05   0.01  -0.01
    16   6    -0.03  -0.02  -0.04    -0.00  -0.00  -0.00    -0.02  -0.02  -0.04
    17   6     0.01  -0.01  -0.01     0.00  -0.00  -0.00     0.01  -0.01  -0.02
    18   1     0.14   0.10   0.22     0.03   0.02   0.04    -0.11  -0.08  -0.17
    19   1    -0.29   0.36   0.44    -0.03   0.03   0.04     0.20  -0.26  -0.31
    20   1    -0.15   0.04  -0.02     0.01  -0.00   0.00     0.57  -0.15   0.07
    21   1     0.32   0.21   0.52     0.04   0.02   0.06     0.29   0.18   0.46
    22   1    -0.12   0.14   0.17    -0.01   0.02   0.02    -0.11   0.14   0.17
    23   1     0.00  -0.00  -0.00    -0.01   0.03   0.02    -0.00   0.00   0.00
    24  35     0.00  -0.00  -0.00     0.00   0.00  -0.00     0.00   0.00   0.00
    25   8    -0.00  -0.00  -0.00    -0.00  -0.00  -0.00     0.00   0.00  -0.00
    26   6    -0.00  -0.00  -0.00    -0.00  -0.00   0.00    -0.00   0.00   0.00
    27   1     0.00   0.00   0.00     0.00   0.00   0.00     0.00   0.00   0.00
    28   1    -0.00   0.00   0.00     0.00  -0.00  -0.00     0.00  -0.00  -0.00
    29   1    -0.00   0.00  -0.00    -0.00   0.00  -0.00     0.00  -0.00   0.00
                     79                     80                     81
                      A                      A                      A
 Frequencies --   3289.7763              3294.5605              3313.5010
 Red. masses --      1.0279                 1.0289                 1.0438
 Frc consts  --      6.5541                 6.5801                 6.7519
 IR Inten    --      0.0000                 0.0000                 0.0000
  Atom  AN      X      Y      Z        X      Y      Z        X      Y      Z
     1   6    -0.00  -0.00   0.00     0.00   0.00  -0.00     0.00   0.00   0.00
     2   6     0.00  -0.00  -0.00     0.00   0.00  -0.00    -0.00  -0.00   0.00
     3   8    -0.00   0.00   0.00     0.00   0.00  -0.00     0.00   0.00  -0.00
     4   6     0.00   0.00  -0.00    -0.00  -0.00   0.00    -0.00  -0.00   0.01
     5   6    -0.04   0.01   0.01     0.00  -0.00  -0.00    -0.01   0.00   0.01
     6   1    -0.05  -0.20   0.37     0.00   0.00  -0.00    -0.01  -0.02   0.03
     7   1     0.57   0.38  -0.00    -0.00  -0.00   0.00     0.10   0.06   0.00
     8   1     0.00  -0.37  -0.44     0.00   0.00   0.00     0.00  -0.08  -0.09
     9   7     0.00  -0.00  -0.01    -0.00   0.00   0.00    -0.04   0.02   0.03
    10   1     0.01   0.11   0.09    -0.00  -0.00  -0.00    -0.06  -0.54  -0.44
    11   1    -0.08  -0.05   0.01     0.00   0.00  -0.00     0.60   0.34  -0.07
    12   6     0.00  -0.00   0.00    -0.00   0.00  -0.00     0.00  -0.00   0.00
    13   6    -0.00  -0.00  -0.00    -0.00  -0.00  -0.00     0.00  -0.00   0.00
    14   6     0.00  -0.00  -0.00     0.00  -0.00  -0.00    -0.00   0.00   0.00
    15   6     0.00  -0.00   0.00     0.00  -0.00   0.00    -0.00   0.00  -0.00
    16   6     0.00   0.00   0.00     0.00   0.00   0.00    -0.00  -0.00  -0.00
    17   6    -0.00   0.00   0.00    -0.00   0.00   0.00    -0.00   0.00   0.00
    18   1     0.00   0.00   0.00     0.00   0.00   0.00    -0.00  -0.00  -0.00
    19   1    -0.00   0.00   0.00    -0.00   0.00   0.00     0.00  -0.00  -0.00
    20   1    -0.00   0.00  -0.00    -0.00   0.00  -0.00     0.00  -0.00   0.00
    21   1    -0.00  -0.00  -0.00    -0.00  -0.00  -0.00    -0.00   0.00  -0.00
    22   1     0.00  -0.00  -0.00     0.00  -0.00  -0.00     0.00  -0.00  -0.00
    23   1    -0.00   0.00   0.00     0.00  -0.00  -0.00     0.00  -0.01  -0.01
    24  35     0.00  -0.00  -0.00     0.00  -0.00  -0.00    -0.00   0.00   0.00
    25   8    -0.00  -0.00  -0.00    -0.01   0.00   0.00     0.00   0.00  -0.00
    26   6    -0.00  -0.00   0.00    -0.04  -0.01   0.00     0.00   0.00   0.00
    27   1     0.00   0.00   0.00     0.47   0.58   0.09    -0.00  -0.00  -0.00
    28   1     0.00  -0.00  -0.00     0.05  -0.19  -0.43    -0.00   0.00   0.00
    29   1     0.00  -0.00   0.00     0.08  -0.32   0.31    -0.00   0.00  -0.00

 -------------------
 - Thermochemistry -
 -------------------
 Temperature   298.150 Kelvin.  Pressure   1.00000 Atm.
 Atom     1 has atomic number  6 and mass  12.00000
 Atom     2 has atomic number  6 and mass  12.00000
 Atom     3 has atomic number  8 and mass  15.99491
 Atom     4 has atomic number  6 and mass  12.00000
 Atom     5 has atomic number  6 and mass  12.00000
 Atom     6 has atomic number  1 and mass   1.00783
 Atom     7 has atomic number  1 and mass   1.00783
 Atom     8 has atomic number  1 and mass   1.00783
 Atom     9 has atomic number  7 and mass  14.00307
 Atom    10 has atomic number  1 and mass   1.00783
 Atom    11 has atomic number  1 and mass   1.00783
 Atom    12 has atomic number  6 and mass  12.00000
 Atom    13 has atomic number  6 and mass  12.00000
 Atom    14 has atomic number  6 and mass  12.00000
 Atom    15 has atomic number  6 and mass  12.00000
 Atom    16 has atomic number  6 and mass  12.00000
 Atom    17 has atomic number  6 and mass  12.00000
 Atom    18 has atomic number  1 and mass   1.00783
 Atom    19 has atomic number  1 and mass   1.00783
 Atom    20 has atomic number  1 and mass   1.00783
 Atom    21 has atomic number  1 and mass   1.00783
 Atom    22 has atomic number  1 and mass   1.00783
 Atom    23 has atomic number  1 and mass   1.00783
 Atom    24 has atomic number 35 and mass  78.91834
 Atom    25 has atomic number  8 and mass  15.99491
 Atom    26 has atomic number  6 and mass  12.00000
 Atom    27 has atomic number  1 and mass   1.00783
 Atom    28 has atomic number  1 and mass   1.00783
 Atom    29 has atomic number  1 and mass   1.00783
 Molecular mass:   271.02079 amu.
 Principal axes and moments of inertia in atomic units:
                           1         2         3
     Eigenvalues --  2526.365425931.882327004.00126
           X            0.99977  -0.02136  -0.00009
           Y            0.02133   0.99842  -0.05197
           Z            0.00120   0.05195   0.99865
 This molecule is an asymmetric top.
 Rotational symmetry number  1.
 Warning -- assumption of classical behavior for rotation
           may cause significant error
 Rotational temperatures (Kelvin)      0.03428     0.01460     0.01237
 Rotational constants (GHZ):           0.71436     0.30424     0.25767
    7 imaginary frequencies ignored.
 Zero-point vibrational energy     625297.8 (Joules/Mol)
                                  149.44976 (Kcal/Mol)
 Warning -- explicit consideration of  15 degrees of freedom as
           vibrations may cause significant error
 Vibrational temperatures:     46.71    77.40   164.12   216.29   247.50
          (Kelvin)            307.04   374.35   428.73   445.62   495.69
                              514.59   568.43   656.28   772.71   885.66
                              934.97   946.89   961.85  1006.91  1054.88
                             1126.56  1229.21  1244.06  1333.90  1358.26
                             1385.59  1418.00  1468.75  1509.16  1570.57
                             1619.79  1626.83  1634.94  1667.97  1693.27
                             1696.49  1759.55  1801.47  1835.16  1872.33
                             1877.90  1881.88  1902.60  1909.93  1926.88
                             1950.76  1968.09  1978.42  1992.33  2037.36
                             2053.37  2071.60  2231.02  2253.75  2332.98
                             2345.63  2433.62  2538.18  2558.00  2989.40
                             4573.43  4576.72  4596.54  4602.65  4626.08
                             4654.32  4656.43  4664.22  4670.85  4673.61
                             4684.28  4733.25  4740.14  4767.39
 
 Zero-point correction=                           0.238163 (Hartree/Particle)
 Thermal correction to Energy=                    0.249516
 Thermal correction to Enthalpy=                  0.250460
 Thermal correction to Gibbs Free Energy=         0.198438
 Sum of electronic and zero-point Energies=          -3205.750616
 Sum of electronic and thermal Energies=             -3205.739263
 Sum of electronic and thermal Enthalpies=           -3205.738319
 Sum of electronic and thermal Free Energies=        -3205.790341
 
                     E (Thermal)             CV                S
                      KCal/Mol        Cal/Mol-Kelvin    Cal/Mol-Kelvin
 Total                  156.574             43.365            109.489
 Electronic               0.000              0.000              0.000
 Translational            0.889              2.981             42.690
 Rotational               0.889              2.981             33.017
 Vibrational            154.796             37.404             33.782
 Vibration     1          0.594              1.983              5.673
 Vibration     2          0.596              1.976              4.673
 Vibration     3          0.607              1.938              3.198
 Vibration     4          0.618              1.902              2.668
 Vibration     5          0.626              1.877              2.413
 Vibration     6          0.644              1.821              2.014
 Vibration     7          0.668              1.745              1.661
 Vibration     8          0.691              1.677              1.428
 Vibration     9          0.699              1.655              1.364
 Vibration    10          0.723              1.586              1.191
 Vibration    11          0.733              1.560              1.132
 Vibration    12          0.762              1.481              0.981
 Vibration    13          0.814              1.347              0.777
 Vibration    14          0.892              1.168              0.572
 Vibration    15          0.975              0.999              0.424
                       Q            Log10(Q)             Ln(Q)
 Total Bot       0.530642D-91        -91.275199       -210.168912
 Total V=0       0.187173D+19         18.272243         42.073395
 Vib (Bot)       0.825050-106       -106.083520       -244.266331
 Vib (Bot)    1  0.637708D+01          0.804622          1.852710
 Vib (Bot)    2  0.384151D+01          0.584502          1.345865
 Vib (Bot)    3  0.179391D+01          0.253800          0.584396
 Vib (Bot)    4  0.134871D+01          0.129920          0.299152
 Vib (Bot)    5  0.117074D+01          0.068461          0.157638
 Vib (Bot)    6  0.929414D+00         -0.031791         -0.073201
 Vib (Bot)    7  0.746433D+00         -0.127009         -0.292449
 Vib (Bot)    8  0.638942D+00         -0.194538         -0.447941
 Vib (Bot)    9  0.610618D+00         -0.214230         -0.493283
 Vib (Bot)   10  0.537417D+00         -0.269689         -0.620982
 Vib (Bot)   11  0.513274D+00         -0.289651         -0.666945
 Vib (Bot)   12  0.452758D+00         -0.344134         -0.792397
 Vib (Bot)   13  0.374078D+00         -0.427038         -0.983291
 Vib (Bot)   14  0.295823D+00         -0.528969         -1.217995
 Vib (Bot)   15  0.238684D+00         -0.622177         -1.432616
 Vib (V=0)       0.291020D+04          3.463922          7.975976
 Vib (V=0)    1  0.689665D+01          0.838638          1.931036
 Vib (V=0)    2  0.437391D+01          0.640870          1.475658
 Vib (V=0)    3  0.236228D+01          0.373332          0.859629
 Vib (V=0)    4  0.193841D+01          0.287446          0.661869
 Vib (V=0)    5  0.177304D+01          0.248719          0.572697
 Vib (V=0)    6  0.155537D+01          0.191834          0.441715
 Vib (V=0)    7  0.139842D+01          0.145638          0.335345
 Vib (V=0)    8  0.131132D+01          0.117710          0.271038
 Vib (V=0)    9  0.128921D+01          0.110324          0.254031
 Vib (V=0)   10  0.123404D+01          0.091330          0.210294
 Vib (V=0)   11  0.121655D+01          0.085132          0.196023
 Vib (V=0)   12  0.117453D+01          0.069864          0.160868
 Vib (V=0)   13  0.112445D+01          0.050939          0.117292
 Vib (V=0)   14  0.108096D+01          0.033808          0.077847
 Vib (V=0)   15  0.105405D+01          0.022861          0.052639
 Electronic      0.100000D+01          0.000000          0.000000
 Translational   0.175371D+09          8.243958         18.982414
 Rotational      0.366744D+07          6.564363         15.115005
 ***** Axes restored to original set *****
 -------------------------------------------------------------------
 Center     Atomic                   Forces (Hartrees/Bohr)
 Number     Number              X              Y              Z
 -------------------------------------------------------------------
      1        6          -0.000301201   -0.000351578    0.000526586
      2        6          -0.001082070    0.000296979    0.000889400
      3        8           0.000094215   -0.002117729   -0.000497945
      4        6           0.000473947   -0.002607284    0.003472104
      5        6           0.000067865    0.000778239   -0.000355264
      6        1          -0.000756499    0.000007481   -0.000370097
      7        1           0.000417105    0.000006606   -0.000054593
      8        1           0.000425389    0.000191493   -0.001086828
      9        7           0.000151752    0.002709150   -0.002651768
     10        1           0.000573477    0.000646417   -0.000554208
     11        1           0.000199403    0.000646427   -0.000250375
     12        6          -0.000115536   -0.000405421    0.000387835
     13        6          -0.000054570   -0.000129126    0.000159627
     14        6           0.000006552   -0.000014263    0.000140643
     15        6           0.000014897   -0.000068736    0.000118670
     16        6           0.000006909   -0.000070724    0.000147239
     17        6           0.000088828   -0.000172458    0.000208365
     18        1          -0.000032964    0.000020310    0.000163338
     19        1          -0.000000694    0.000069211    0.000086623
     20        1           0.000035379   -0.000026655    0.000075872
     21        1           0.000112437    0.000049129    0.000101160
     22        1           0.000102806    0.000017598    0.000128711
     23        1          -0.000038007   -0.000242649   -0.000826935
     24       35          -0.000509393    0.000159004   -0.000944367
     25        8          -0.000195704    0.001508256   -0.000104059
     26        6           0.000206475   -0.000122955   -0.000235230
     27        1          -0.000021842   -0.000037656    0.000673051
     28        1           0.000703891   -0.000331542   -0.000002285
     29        1          -0.000572849   -0.000407523    0.000654731
 -------------------------------------------------------------------
 Cartesian Forces:  Max     0.003472104 RMS     0.000775439


 ONE BIG VICE IN A MAN IS APT TO KEEP OUT MANY SMALLER ONES.

                           -- BRET HARTE
 Error termination request processed by link 9999.
 Error termination via Lnk1e in /apps/gaussian/g16/C.01/g16/l9999.exe at Mon May 20 14:08:00 2024.
 Job cpu time:       0 days  8 hours 47 minutes 39.5 seconds.
 Elapsed time:       0 days  1 hours 23 minutes 18.6 seconds.
 File lengths (MBytes):  RWF=      6 Int=      0 D2E=      0 Chk=      2 Scr=      1
