Unloading slurm/anatra/current
  ERROR: No such file or directory on
    '/cm/local/modulefiles/slurm/anatra/current'
environment: line 0: unalias: gv: not found
environment: line 0: unalias: sl: not found
 Entering Gaussian System, Link 0=g16
 Initial command:
 /apps/gaussian/g16/C.01/g16/l1.exe "/local/jobs/1153178/Gau-1738719.inp" -scrdir="/local/jobs/1153178/"
 Entering Link 1 = /apps/gaussian/g16/C.01/g16/l1.exe PID=   1738720.
  
 Copyright (c) 1988-2019, Gaussian, Inc.  All Rights Reserved.
  
 This is part of the Gaussian(R) 16 program.  It is based on
 the Gaussian(R) 09 system (copyright 2009, Gaussian, Inc.),
 the Gaussian(R) 03 system (copyright 2003, Gaussian, Inc.),
 the Gaussian(R) 98 system (copyright 1998, Gaussian, Inc.),
 the Gaussian(R) 94 system (copyright 1995, Gaussian, Inc.),
 the Gaussian 92(TM) system (copyright 1992, Gaussian, Inc.),
 the Gaussian 90(TM) system (copyright 1990, Gaussian, Inc.),
 the Gaussian 88(TM) system (copyright 1988, Gaussian, Inc.),
 the Gaussian 86(TM) system (copyright 1986, Carnegie Mellon
 University), and the Gaussian 82(TM) system (copyright 1983,
 Carnegie Mellon University). Gaussian is a federally registered
 trademark of Gaussian, Inc.
  
 This software contains proprietary and confidential information,
 including trade secrets, belonging to Gaussian, Inc.
  
 This software is provided under written license and may be
 used, copied, transmitted, or stored only in accord with that
 written license.
  
 The following legend is applicable only to US Government
 contracts under FAR:
  
                    RESTRICTED RIGHTS LEGEND
  
 Use, reproduction and disclosure by the US Government is
 subject to restrictions as set forth in subparagraphs (a)
 and (c) of the Commercial Computer Software - Restricted
 Rights clause in FAR 52.227-19.
  
 Gaussian, Inc.
 340 Quinnipiac St., Bldg. 40, Wallingford CT 06492
  
  
 ---------------------------------------------------------------
 Warning -- This program may not be used in any manner that
 competes with the business of Gaussian, Inc. or will provide
 assistance to any competitor of Gaussian, Inc.  The licensee
 of this program is prohibited from giving any competitor of
 Gaussian, Inc. access to this program.  By using this program,
 the user acknowledges that Gaussian, Inc. is engaged in the
 business of creating and licensing software in the field of
 computational chemistry and represents and warrants to the
 licensee that it is not a competitor of Gaussian, Inc. and that
 it will not use this program in any manner prohibited above.
 ---------------------------------------------------------------
  

 Cite this work as:
 Gaussian 16, Revision C.01,
 M. J. Frisch, G. W. Trucks, H. B. Schlegel, G. E. Scuseria, 
 M. A. Robb, J. R. Cheeseman, G. Scalmani, V. Barone, 
 G. A. Petersson, H. Nakatsuji, X. Li, M. Caricato, A. V. Marenich, 
 J. Bloino, B. G. Janesko, R. Gomperts, B. Mennucci, H. P. Hratchian, 
 J. V. Ortiz, A. F. Izmaylov, J. L. Sonnenberg, D. Williams-Young, 
 F. Ding, F. Lipparini, F. Egidi, J. Goings, B. Peng, A. Petrone, 
 T. Henderson, D. Ranasinghe, V. G. Zakrzewski, J. Gao, N. Rega, 
 G. Zheng, W. Liang, M. Hada, M. Ehara, K. Toyota, R. Fukuda, 
 J. Hasegawa, M. Ishida, T. Nakajima, Y. Honda, O. Kitao, H. Nakai, 
 T. Vreven, K. Throssell, J. A. Montgomery, Jr., J. E. Peralta, 
 F. Ogliaro, M. J. Bearpark, J. J. Heyd, E. N. Brothers, K. N. Kudin, 
 V. N. Staroverov, T. A. Keith, R. Kobayashi, J. Normand, 
 K. Raghavachari, A. P. Rendell, J. C. Burant, S. S. Iyengar, 
 J. Tomasi, M. Cossi, J. M. Millam, M. Klene, C. Adamo, R. Cammi, 
 J. W. Ochterski, R. L. Martin, K. Morokuma, O. Farkas, 
 J. B. Foresman, and D. J. Fox, Gaussian, Inc., Wallingford CT, 2019.
 
 ******************************************
 Gaussian 16:  ES64L-G16RevC.01  3-Jul-2019
                30-Dec-2023 
 ******************************************
 %chk=TS-249_opt_hf_freq.chk
 %nprocshared=12
 Will use up to   12 processors via shared memory.
 %mem=48GB
 -----------------------------------------------------------
 # wb97xd def2svp scrf=(iefpcm,solvent=toluene) freq=noraman
 -----------------------------------------------------------
 1/10=4,30=1,38=1/1,3;
 2/12=2,17=6,18=5,40=1/2;
 3/5=43,7=101,11=2,25=1,30=1,70=2201,71=2,72=13,74=-58,140=1/1,2,3;
 4//1;
 5/5=2,38=5,53=13,98=1/2;
 8/6=4,10=90,11=11/1;
 11/6=1,8=1,9=11,15=111,16=1/1,2,10;
 10/6=1/2;
 6/7=2,8=2,9=2,10=2,28=1/1;
 7/8=1,10=1,25=1/1,2,3,16;
 1/10=4,30=1/3;
 99//99;
 -----------------
 TS-249_opt_hf.out
 -----------------
 Symbolic Z-matrix:
 Charge =  0 Multiplicity = 1
 C                    -0.92961   0.65919  -0.27074 
 C                    -1.90006  -0.21167   0.29077 
 O                    -3.03249  -0.45586  -0.11452 
 C                     0.34932   0.78112   0.31329 
 C                     2.89844  -0.27574   0.14076 
 H                     2.87507  -0.45564   1.22343 
 H                     3.56854  -1.00745  -0.33119 
 H                     3.28796   0.73517  -0.03771 
 N                     1.53625  -0.35981  -0.38468 
 H                     1.11682  -1.28019  -0.2366 
 H                     1.49799  -0.19073  -1.39183 
 H                     0.92412   1.69595   0.12013 
 H                     0.444     0.45156   1.35813 
 H                    -1.17856   1.21122  -1.18201 
 H                    -1.53842  -0.71182   1.24197 
 

 GradGradGradGradGradGradGradGradGradGradGradGradGradGradGradGradGradGrad
 Berny optimization.
 Initialization pass.
 Trust Radius=3.00D-01 FncErr=1.00D-07 GrdErr=1.00D-07 EigMax=2.50D+02 EigMin=1.00D-04
 Number of steps in this run=      2 maximum allowed number of steps=      2.
 GradGradGradGradGradGradGradGradGradGradGradGradGradGradGradGradGradGrad

                          Input orientation:                          
 ---------------------------------------------------------------------
 Center     Atomic      Atomic             Coordinates (Angstroms)
 Number     Number       Type             X           Y           Z
 ---------------------------------------------------------------------
      1          6           0       -0.929610    0.659190   -0.270740
      2          6           0       -1.900060   -0.211670    0.290770
      3          8           0       -3.032490   -0.455860   -0.114520
      4          6           0        0.349320    0.781120    0.313290
      5          6           0        2.898440   -0.275740    0.140760
      6          1           0        2.875070   -0.455640    1.223430
      7          1           0        3.568540   -1.007450   -0.331190
      8          1           0        3.287960    0.735170   -0.037710
      9          7           0        1.536250   -0.359810   -0.384680
     10          1           0        1.116820   -1.280190   -0.236600
     11          1           0        1.497990   -0.190730   -1.391830
     12          1           0        0.924120    1.695950    0.120130
     13          1           0        0.444000    0.451560    1.358130
     14          1           0       -1.178560    1.211220   -1.182010
     15          1           0       -1.538420   -0.711820    1.241970
 ---------------------------------------------------------------------
                    Distance matrix (angstroms):
                    1          2          3          4          5
     1  C    0.000000
     2  C    1.419670   0.000000
     3  O    2.385340   1.227309   0.000000
     4  C    1.411248   2.458831   3.626263   0.000000
     5  C    3.961994   4.801272   5.939153   2.764911   0.000000
     6  H    4.236860   4.871472   6.057176   2.955900   1.097763
     7  H    4.797363   5.561087   6.627578   3.738678   1.098713
     8  H    4.224686   5.283934   6.432149   2.959885   1.097960
     9  N    2.670545   3.505197   4.577728   1.788208   1.462435
    10  H    2.819616   3.243674   4.232162   2.267253   2.079781
    11  H    2.805788   3.791876   4.714559   2.274065   2.077816
    12  H    2.159622   3.412349   4.510001   1.097552   2.790327
    13  H    2.140825   2.659652   3.883052   1.099666   2.834648
    14  H    1.094133   2.171234   2.712148   2.180671   4.536816
    15  H    2.130401   1.133894   2.034165   2.579705   4.592228
                    6          7          8          9         10
     6  H    0.000000
     7  H    1.789480   0.000000
     8  H    1.782970   1.789296   0.000000
     9  N    2.094669   2.133659   2.094721   0.000000
    10  H    2.429612   2.468657   2.969020   1.022227   0.000000
    11  H    2.967509   2.465596   2.427947   1.021960   1.633025
    12  H    3.106898   3.808545   2.556512   2.203562   3.003631
    13  H    2.598318   3.839956   3.180709   2.211045   2.448430
    14  H    4.999648   5.308611   4.635283   3.236366   3.517057
    15  H    4.420958   5.351941   5.198587   3.496212   3.091846
                   11         12         13         14         15
    11  H    0.000000
    12  H    2.484937   0.000000
    13  H    3.014251   1.819798   0.000000
    14  H    3.028763   2.520277   3.108391   0.000000
    15  H    4.053174   3.622152   2.301507   3.115006   0.000000
 Stoichiometry    C4H9NO
 Framework group  C1[X(C4H9NO)]
 Deg. of freedom    39
 Full point group                 C1      NOp   1
 Largest Abelian subgroup         C1      NOp   1
 Largest concise Abelian subgroup C1      NOp   1
                         Standard orientation:                         
 ---------------------------------------------------------------------
 Center     Atomic      Atomic             Coordinates (Angstroms)
 Number     Number       Type             X           Y           Z
 ---------------------------------------------------------------------
      1          6           0       -0.929608    0.659192   -0.270738
      2          6           0       -1.900058   -0.211668    0.290773
      3          8           0       -3.032488   -0.455858   -0.114518
      4          6           0        0.349322    0.781122    0.313293
      5          6           0        2.898442   -0.275739    0.140763
      6          1           0        2.875072   -0.455639    1.223432
      7          1           0        3.568542   -1.007449   -0.331188
      8          1           0        3.287962    0.735171   -0.037708
      9          7           0        1.536252   -0.359809   -0.384678
     10          1           0        1.116822   -1.280189   -0.236598
     11          1           0        1.497992   -0.190729   -1.391827
     12          1           0        0.924123    1.695951    0.120133
     13          1           0        0.444002    0.451562    1.358132
     14          1           0       -1.178557    1.211222   -1.182007
     15          1           0       -1.538418   -0.711818    1.241973
 ---------------------------------------------------------------------
 Rotational constants (GHZ):          12.1167847           1.2987145           1.2542105
 Standard basis: def2SVP (5D, 7F)
 There are   135 symmetry adapted cartesian basis functions of A   symmetry.
 There are   129 symmetry adapted basis functions of A   symmetry.
   129 basis functions,   213 primitive gaussians,   135 cartesian basis functions
    24 alpha electrons       24 beta electrons
       nuclear repulsion energy       227.5198938484 Hartrees.
 NAtoms=   15 NActive=   15 NUniq=   15 SFac= 1.00D+00 NAtFMM=   60 NAOKFM=F Big=F
 Integral buffers will be    131072 words long.
 Raffenetti 2 integral format.
 Two-electron integral symmetry is turned on.
 Nuclear repulsion after empirical dispersion term =      227.5129704797 Hartrees.
 Force inversion solution in PCM.
 ------------------------------------------------------------------------------
 Polarizable Continuum Model (PCM)
 =================================
 Model                : PCM.
 Atomic radii         : UFF (Universal Force Field).
 Polarization charges : Total charges.
 Charge compensation  : None.
 Solution method      : Matrix inversion.
 Cavity type          : Scaled VdW (van der Waals Surface) (Alpha=1.100).
 Cavity algorithm     : GePol (No added spheres)
                        Default sphere list used, NSphG=   15.
                        Lebedev-Laikov grids with approx.  5.0 points / Ang**2.
                        Smoothing algorithm: York/Karplus (Gamma=1.0000).
                        Polarization charges: spherical gaussians, with
                                              point-specific exponents (IZeta= 3).
                        Self-potential: point-specific (ISelfS= 7).
                        Self-field    : sphere-specific E.n sum rule (ISelfD= 2).
 1st derivatives      : Analytical E(r).r(x)/FMM algorithm (CHGder, D1EAlg=3).
                        Cavity 1st derivative terms included.
 2nd derivatives      : Analytical E(r).r(xy)/FMM algorithm (CHGder, D2EAlg=3).
                        Cavity 2nd derivative terms included.
 Solvent              : Toluene, Eps=   2.374100 Eps(inf)=   2.238315
 ------------------------------------------------------------------------------
 Spheres list:
 ISph  on   Nord     Re0    Alpha      Xe            Ye            Ze
    1   C      1    1.9255  1.100     -0.929608      0.659192     -0.270738
    2   C      2    1.9255  1.100     -1.900058     -0.211668      0.290773
    3   O      3    1.7500  1.100     -3.032488     -0.455858     -0.114518
    4   C      4    1.9255  1.100      0.349322      0.781122      0.313293
    5   C      5    1.9255  1.100      2.898442     -0.275739      0.140763
    6   H      6    1.4430  1.100      2.875072     -0.455639      1.223432
    7   H      7    1.4430  1.100      3.568542     -1.007449     -0.331188
    8   H      8    1.4430  1.100      3.287962      0.735171     -0.037708
    9   N      9    1.8300  1.100      1.536252     -0.359809     -0.384678
   10   H     10    1.4430  1.100      1.116822     -1.280189     -0.236598
   11   H     11    1.4430  1.100      1.497992     -0.190729     -1.391827
   12   H     12    1.4430  1.100      0.924123      1.695951      0.120133
   13   H     13    1.4430  1.100      0.444002      0.451562      1.358132
   14   H     14    1.4430  1.100     -1.178557      1.211222     -1.182007
   15   H     15    1.4430  1.100     -1.538418     -0.711818      1.241973
 ------------------------------------------------------------------------------
 One-electron integrals computed using PRISM.
   1 Symmetry operations used in ECPInt.
 ECPInt:  NShTT=    2016 NPrTT=    7008 LenC2=    1987 LenP2D=    5704.
 LDataN:  DoStor=T MaxTD1= 4 Len=   56
 NBasis=   129 RedAO= T EigKep=  2.19D-03  NBF=   129
 NBsUse=   129 1.00D-06 EigRej= -1.00D+00 NBFU=   129
 ExpMin= 1.22D-01 ExpMax= 2.27D+03 ExpMxC= 3.41D+02 IAcc=3 IRadAn=         5 AccDes= 0.00D+00
 Harris functional with IExCor= 4639 and IRadAn=       5 diagonalized for initial guess.
 HarFok:  IExCor= 4639 AccDes= 0.00D+00 IRadAn=         5 IDoV= 1 UseB2=F ITyADJ=14
 ICtDFT=  3500011 ScaDFX=  1.000000  1.000000  1.000000  1.000000
 FoFCou: FMM=F IPFlag=           0 FMFlag=      100000 FMFlg1=           0
         NFxFlg=           0 DoJE=T BraDBF=F KetDBF=T FulRan=T
         wScrn=  0.000000 ICntrl=       500 IOpCl=  0 I1Cent=   200000004 NGrid=           0
         NMat0=    1 NMatS0=      1 NMatT0=    0 NMatD0=    1 NMtDS0=    0 NMtDT0=    0
 Petite list used in FoFCou.
 Requested convergence on RMS density matrix=1.00D-08 within 128 cycles.
 Requested convergence on MAX density matrix=1.00D-06.
 Requested convergence on             energy=1.00D-06.
 No special actions if energy rises.
 Inv3:  Mode=1 IEnd=     4793088.
 Iteration    1 A*A^-1 deviation from unit magnitude is 2.66D-15 for    209.
 Iteration    1 A*A^-1 deviation from orthogonality  is 1.57D-15 for    869    613.
 Iteration    1 A^-1*A deviation from unit magnitude is 2.66D-15 for    209.
 Iteration    1 A^-1*A deviation from orthogonality  is 2.18D-15 for    914    368.
 Error on total polarization charges =  0.00624
 SCF Done:  E(RwB97XD) =  -287.447388393     A.U. after   14 cycles
            NFock= 14  Conv=0.74D-08     -V/T= 2.0105
 DoSCS=F DFT=T ScalE2(SS,OS)=  1.000000  1.000000
 Range of M.O.s used for correlation:     1   129
 NBasis=   129 NAE=    24 NBE=    24 NFC=     0 NFV=     0
 NROrb=    129 NOA=    24 NOB=    24 NVA=   105 NVB=   105
   1 Symmetry operations used in ECPInt.
 ECPInt:  NShTT=    2016 NPrTT=    7008 LenC2=    1987 LenP2D=    5704.
 LDataN:  DoStor=T MaxTD1= 5 Len=  102
 Symmetrizing basis deriv contribution to polar:
 IMax=3 JMax=2 DiffMx= 0.00D+00
 G2DrvN: will do    16 centers at a time, making    1 passes.
 Calling FoFCou, ICntrl=  3107 FMM=F I1Cent=   0 AccDes= 0.00D+00.
 NEqPCM:  Using equilibrium solvation (IEInf=0, Eps=   2.3741, EpsInf=   2.2383)
 G2PCM: DoFxE=T DoFxN=T DoGrad=T DoDP/DQ/DG/TGxP=FFFF NFrqRd=   0 IEInf=0 SqF1=F DoCFld=F IF1Alg=4.
 End of G2Drv F.D. properties file   721 does not exist.
 End of G2Drv F.D. properties file   722 does not exist.
 End of G2Drv F.D. properties file   788 does not exist.
          IDoAtm=111111111111111
 NEqPCM:  Using equilibrium solvation (IEInf=0, Eps=   2.3741, EpsInf=   2.2383)
          Differentiating once with respect to electric field.
                with respect to dipole field.
          Differentiating once with respect to nuclear coordinates.
 Keep R1 ints in memory in canonical form, NReq=82911873.
          There are    48 degrees of freedom in the 1st order CPHF.  IDoFFX=6 NUNeed=     3.
     45 vectors produced by pass  0 Test12= 5.25D-15 2.08D-09 XBig12= 4.83D+01 5.46D+00.
 AX will form    45 AO Fock derivatives at one time.
     45 vectors produced by pass  1 Test12= 5.25D-15 2.08D-09 XBig12= 5.47D+00 4.97D-01.
     45 vectors produced by pass  2 Test12= 5.25D-15 2.08D-09 XBig12= 1.36D-01 5.98D-02.
     45 vectors produced by pass  3 Test12= 5.25D-15 2.08D-09 XBig12= 1.39D-03 7.07D-03.
     45 vectors produced by pass  4 Test12= 5.25D-15 2.08D-09 XBig12= 1.10D-05 7.25D-04.
     45 vectors produced by pass  5 Test12= 5.25D-15 2.08D-09 XBig12= 5.78D-08 3.95D-05.
     23 vectors produced by pass  6 Test12= 5.25D-15 2.08D-09 XBig12= 2.48D-10 2.01D-06.
      5 vectors produced by pass  7 Test12= 5.25D-15 2.08D-09 XBig12= 8.69D-13 1.01D-07.
      1 vectors produced by pass  8 Test12= 5.25D-15 2.08D-09 XBig12= 3.05D-15 6.38D-09.
 InvSVY:  IOpt=1 It=  1 EMax= 2.66D-15
 Solved reduced A of dimension   299 with    48 vectors.
 Isotropic polarizability for W=    0.000000       71.35 Bohr**3.
 End of Minotr F.D. properties file   721 does not exist.
 End of Minotr F.D. properties file   722 does not exist.
 End of Minotr F.D. properties file   788 does not exist.

 **********************************************************************

            Population analysis using the SCF Density.

 **********************************************************************

 Orbital symmetries:
       Occupied  (A) (A) (A) (A) (A) (A) (A) (A) (A) (A) (A) (A)
                 (A) (A) (A) (A) (A) (A) (A) (A) (A) (A) (A) (A)
       Virtual   (A) (A) (A) (A) (A) (A) (A) (A) (A) (A) (A) (A)
                 (A) (A) (A) (A) (A) (A) (A) (A) (A) (A) (A) (A)
                 (A) (A) (A) (A) (A) (A) (A) (A) (A) (A) (A) (A)
                 (A) (A) (A) (A) (A) (A) (A) (A) (A) (A) (A) (A)
                 (A) (A) (A) (A) (A) (A) (A) (A) (A) (A) (A) (A)
                 (A) (A) (A) (A) (A) (A) (A) (A) (A) (A) (A) (A)
                 (A) (A) (A) (A) (A) (A) (A) (A) (A) (A) (A) (A)
                 (A) (A) (A) (A) (A) (A) (A) (A) (A) (A) (A) (A)
                 (A) (A) (A) (A) (A) (A) (A) (A) (A)
 The electronic state is 1-A.
 Alpha  occ. eigenvalues --  -19.17620 -14.52853 -10.36182 -10.34791 -10.32766
 Alpha  occ. eigenvalues --  -10.24024  -1.05991  -1.05760  -0.85810  -0.80346
 Alpha  occ. eigenvalues --   -0.71849  -0.65969  -0.61492  -0.59116  -0.55761
 Alpha  occ. eigenvalues --   -0.51938  -0.51351  -0.50212  -0.47114  -0.44923
 Alpha  occ. eigenvalues --   -0.43415  -0.42065  -0.28243  -0.25328
 Alpha virt. eigenvalues --    0.09026   0.10806   0.14933   0.15224   0.17066
 Alpha virt. eigenvalues --    0.17790   0.19848   0.20263   0.22480   0.23416
 Alpha virt. eigenvalues --    0.25427   0.26243   0.34155   0.37049   0.44793
 Alpha virt. eigenvalues --    0.46174   0.48011   0.51101   0.52303   0.57810
 Alpha virt. eigenvalues --    0.60205   0.61407   0.64576   0.67009   0.68927
 Alpha virt. eigenvalues --    0.69577   0.70598   0.72765   0.73662   0.73983
 Alpha virt. eigenvalues --    0.74991   0.77286   0.78935   0.79535   0.80361
 Alpha virt. eigenvalues --    0.81967   0.85094   0.88196   0.90526   0.96156
 Alpha virt. eigenvalues --    1.00228   1.05952   1.10216   1.16121   1.17703
 Alpha virt. eigenvalues --    1.22046   1.28358   1.32098   1.36596   1.37395
 Alpha virt. eigenvalues --    1.39761   1.43472   1.46918   1.56157   1.57535
 Alpha virt. eigenvalues --    1.60859   1.64586   1.74849   1.75971   1.80350
 Alpha virt. eigenvalues --    1.82590   1.83009   1.84174   1.85239   1.86675
 Alpha virt. eigenvalues --    1.87698   1.90118   1.92900   1.97669   2.01024
 Alpha virt. eigenvalues --    2.02730   2.05793   2.08888   2.10578   2.12553
 Alpha virt. eigenvalues --    2.14916   2.20877   2.25988   2.30883   2.36028
 Alpha virt. eigenvalues --    2.36357   2.39017   2.43963   2.48634   2.53183
 Alpha virt. eigenvalues --    2.61606   2.67895   2.68635   2.71691   2.72414
 Alpha virt. eigenvalues --    2.77940   2.81161   2.86160   2.88546   2.96303
 Alpha virt. eigenvalues --    3.02320   3.03065   3.04926   3.07438   3.22377
 Alpha virt. eigenvalues --    3.28635   3.33791   3.46574   3.57107   3.76157
          Condensed to atoms (all electrons):
               1          2          3          4          5          6
     1  C    5.693078   0.282014  -0.112279   0.344866   0.004283   0.000528
     2  C    0.282014   4.495929   0.670436   0.014824   0.000107  -0.000039
     3  O   -0.112279   0.670436   7.852086   0.005483  -0.000000   0.000000
     4  C    0.344866   0.014824   0.005483   4.759685  -0.012359  -0.001889
     5  C    0.004283   0.000107  -0.000000  -0.012359   4.517713   0.406808
     6  H    0.000528  -0.000039   0.000000  -0.001889   0.406808   0.573754
     7  H   -0.000347  -0.000005   0.000000   0.001832   0.404769  -0.020313
     8  H    0.000527   0.000009  -0.000000  -0.002661   0.406509  -0.017256
     9  N   -0.088740  -0.003798   0.000066   0.063454   0.290030  -0.025789
    10  H    0.009990   0.003133  -0.000190  -0.000058  -0.015503  -0.004997
    11  H    0.009570  -0.000522  -0.000030  -0.004348  -0.017186   0.006384
    12  H   -0.006747   0.004598  -0.000108   0.387475   0.002066  -0.001055
    13  H   -0.024159  -0.010257   0.000093   0.391176   0.000697   0.005787
    14  H    0.368170  -0.014701   0.005940  -0.041704  -0.000074   0.000012
    15  H   -0.198009   0.412716  -0.051245   0.017969  -0.000012  -0.000010
               7          8          9         10         11         12
     1  C   -0.000347   0.000527  -0.088740   0.009990   0.009570  -0.006747
     2  C   -0.000005   0.000009  -0.003798   0.003133  -0.000522   0.004598
     3  O    0.000000  -0.000000   0.000066  -0.000190  -0.000030  -0.000108
     4  C    0.001832  -0.002661   0.063454  -0.000058  -0.004348   0.387475
     5  C    0.404769   0.406509   0.290030  -0.015503  -0.017186   0.002066
     6  H   -0.020313  -0.017256  -0.025789  -0.004997   0.006384  -0.001055
     7  H    0.579596  -0.020255  -0.012975  -0.006395  -0.005930  -0.000306
     8  H   -0.020255   0.574847  -0.025134   0.006451  -0.005277   0.006455
     9  N   -0.012975  -0.025134   6.422055   0.326485   0.334049  -0.043239
    10  H   -0.006395   0.006451   0.326485   0.517349  -0.012827   0.005145
    11  H   -0.005930  -0.005277   0.334049  -0.012827   0.514422  -0.002111
    12  H   -0.000306   0.006455  -0.043239   0.005145  -0.002111   0.635149
    13  H   -0.000205  -0.001153  -0.031219  -0.003016   0.004548  -0.027829
    14  H    0.000004  -0.000029  -0.000687  -0.000114   0.001933  -0.009766
    15  H   -0.000001   0.000000  -0.001015   0.001246   0.000108  -0.000404
              13         14         15
     1  C   -0.024159   0.368170  -0.198009
     2  C   -0.010257  -0.014701   0.412716
     3  O    0.000093   0.005940  -0.051245
     4  C    0.391176  -0.041704   0.017969
     5  C    0.000697  -0.000074  -0.000012
     6  H    0.005787   0.000012  -0.000010
     7  H   -0.000205   0.000004  -0.000001
     8  H   -0.001153  -0.000029   0.000000
     9  N   -0.031219  -0.000687  -0.001015
    10  H   -0.003016  -0.000114   0.001246
    11  H    0.004548   0.001933   0.000108
    12  H   -0.027829  -0.009766  -0.000404
    13  H    0.625055   0.007246   0.011758
    14  H    0.007246   0.672780   0.011972
    15  H    0.011758   0.011972   0.859610
 Mulliken charges:
               1
     1  C   -0.282747
     2  C    0.145556
     3  O   -0.370253
     4  C    0.076254
     5  C    0.012154
     6  H    0.078074
     7  H    0.080530
     8  H    0.076967
     9  N   -0.203543
    10  H    0.173302
    11  H    0.177217
    12  H    0.050677
    13  H    0.051477
    14  H   -0.000981
    15  H   -0.064684
 Sum of Mulliken charges =  -0.00000
 Mulliken charges with hydrogens summed into heavy atoms:
               1
     1  C   -0.283728
     2  C    0.080872
     3  O   -0.370253
     4  C    0.178408
     5  C    0.247725
     9  N    0.146976
 APT charges:
               1
     1  C   -0.983792
     2  C    1.242431
     3  O   -1.110463
     4  C    1.172396
     5  C    0.240275
     6  H    0.027229
     7  H   -0.030417
     8  H    0.026718
     9  N   -0.755330
    10  H    0.173001
    11  H    0.184028
    12  H   -0.045287
    13  H   -0.026277
    14  H    0.019541
    15  H   -0.134054
 Sum of APT charges =   0.00000
 APT charges with hydrogens summed into heavy atoms:
               1
     1  C   -0.964251
     2  C    1.108378
     3  O   -1.110463
     4  C    1.100833
     5  C    0.263805
     9  N   -0.398302
 Electronic spatial extent (au):  <R**2>=            937.4983
 Charge=             -0.0000 electrons
 Dipole moment (field-independent basis, Debye):
    X=             11.5315    Y=             -0.6969    Z=             -0.2759  Tot=             11.5558
 Quadrupole moment (field-independent basis, Debye-Ang):
   XX=            -48.5855   YY=            -36.6602   ZZ=            -35.2905
   XY=             -3.9226   XZ=             -2.7118   YZ=             -0.2828
 Traceless Quadrupole moment (field-independent basis, Debye-Ang):
   XX=             -8.4068   YY=              3.5186   ZZ=              4.8882
   XY=             -3.9226   XZ=             -2.7118   YZ=             -0.2828
 Octapole moment (field-independent basis, Debye-Ang**2):
  XXX=             98.3163  YYY=             -7.0079  ZZZ=             -4.2366  XYY=              8.6060
  XXY=              5.5488  XXZ=              0.9232  XZZ=              5.8370  YZZ=             -1.5618
  YYZ=             -2.2982  XYZ=              1.1970
 Hexadecapole moment (field-independent basis, Debye-Ang**3):
 XXXX=          -1115.1133 YYYY=           -117.0538 ZZZZ=            -79.0354 XXXY=            -41.1151
 XXXZ=            -15.0190 YYYX=              2.3729 YYYZ=              0.8545 ZZZX=             -2.7854
 ZZZY=              0.4987 XXYY=           -182.1299 XXZZ=           -170.9000 YYZZ=            -34.4180
 XXYZ=             -0.4883 YYXZ=             -0.5103 ZZXY=             -1.8866
 N-N= 2.275129704797D+02 E-N=-1.124056295935D+03  KE= 2.844657399885D+02
  Exact polarizability:     107.191       5.009      52.972       2.210      -5.280      53.898
 Approx polarizability:      93.184       6.547      52.414       4.325      -3.791      52.733
   1 Symmetry operations used in ECPInt.
 ECPInt:  NShTT=    2016 NPrTT=    7008 LenC2=    1987 LenP2D=    5704.
 LDataN:  DoStor=T MaxTD1= 6 Len=  172
 D2PCM: PCM CHGder 2nd derivatives, FixD1E=F FixD2E=F DoIter=F DoCFld=F I1PDM=0
 Calling FoFJK, ICntrl=    100127 FMM=F ISym2X=0 I1Cent= 0 IOpClX= 0 NMat=1 NMatS=1 NMatT=0.
 Full mass-weighted force constant matrix:
 Low frequencies --- -285.6848  -39.2909  -22.6243   -7.5419   -0.0010   -0.0009
 Low frequencies ---   -0.0008   54.4548   96.0350
 ******    1 imaginary frequencies (negative Signs) ****** 
 Diagonal vibrational polarizability:
      263.2289023      40.3810851      41.6419366
 Harmonic frequencies (cm**-1), IR intensities (KM/Mole), Raman scattering
 activities (A**4/AMU), depolarization ratios for plane and unpolarized
 incident light, reduced masses (AMU), force constants (mDyne/A),
 and normal coordinates:
                      1                      2                      3
                      A                      A                      A
 Frequencies --   -285.6837                52.9682                95.8723
 Red. masses --      6.2858                 2.4452                 3.3542
 Frc consts  --      0.3023                 0.0040                 0.0182
 IR Inten    --    614.2613                 6.6342                 5.1908
  Atom  AN      X      Y      Z        X      Y      Z        X      Y      Z
     1   6     0.13  -0.15  -0.06     0.02  -0.05   0.03     0.01  -0.16  -0.08
     2   6     0.08   0.01  -0.04    -0.06   0.01  -0.02    -0.07  -0.03   0.00
     3   8     0.02   0.03   0.03    -0.05   0.09  -0.08    -0.15   0.16   0.11
     4   6     0.34  -0.28  -0.11     0.00  -0.10   0.09    -0.00  -0.15  -0.06
     5   6    -0.17   0.07   0.01     0.09   0.16  -0.14     0.06   0.11   0.11
     6   1    -0.10   0.00  -0.00     0.30   0.38  -0.10    -0.07  -0.18   0.06
     7   1    -0.40  -0.01  -0.15     0.08   0.13  -0.11     0.25   0.35   0.02
     8   1    -0.09   0.03  -0.01    -0.06   0.16  -0.43    -0.09   0.22   0.44
     9   7    -0.29   0.24   0.13     0.00  -0.11   0.12     0.14   0.02  -0.10
    10   1    -0.28   0.21   0.06     0.15  -0.14   0.36     0.22  -0.05  -0.29
    11   1    -0.29   0.20   0.11    -0.20  -0.29   0.10     0.27   0.17  -0.08
    12   1     0.09  -0.05   0.12     0.03  -0.11   0.12    -0.05  -0.11   0.02
    13   1     0.11  -0.04   0.01    -0.05  -0.11   0.09    -0.01  -0.22  -0.08
    14   1     0.17  -0.06  -0.03     0.09  -0.03   0.02    -0.01  -0.11  -0.04
    15   1     0.07   0.03  -0.00    -0.13  -0.02  -0.00    -0.06  -0.08  -0.03
                      4                      5                      6
                      A                      A                      A
 Frequencies --    172.9388               221.4310               267.5503
 Red. masses --      1.1542                 2.5301                 2.2670
 Frc consts  --      0.0203                 0.0731                 0.0956
 IR Inten    --      1.5218                 8.1338                 0.1571
  Atom  AN      X      Y      Z        X      Y      Z        X      Y      Z
     1   6    -0.01   0.01   0.02     0.01  -0.16  -0.06     0.02  -0.03   0.09
     2   6     0.02  -0.05  -0.03    -0.08  -0.00   0.03    -0.09   0.14   0.16
     3   8    -0.02   0.03   0.02    -0.07   0.01  -0.02     0.05  -0.06  -0.12
     4   6     0.01  -0.03  -0.00    -0.05   0.06   0.06     0.05  -0.07   0.02
     5   6    -0.02   0.01   0.04     0.14  -0.12  -0.07    -0.04   0.04   0.02
     6   1    -0.17   0.53   0.12     0.21  -0.02  -0.05    -0.18   0.18   0.04
     7   1    -0.10  -0.34   0.46    -0.13  -0.36  -0.08     0.01  -0.02   0.19
     8   1     0.20  -0.15  -0.40     0.41  -0.26  -0.21    -0.02   0.02  -0.06
     9   7     0.02   0.02  -0.05     0.05   0.18   0.07     0.02  -0.01  -0.12
    10   1     0.01   0.02  -0.08    -0.04   0.21  -0.03     0.05  -0.05  -0.23
    11   1     0.07   0.02  -0.06     0.01   0.28   0.09     0.08   0.10  -0.10
    12   1    -0.01  -0.01   0.06    -0.16   0.13   0.07     0.08  -0.09   0.01
    13   1     0.03  -0.10  -0.03    -0.09   0.12   0.08     0.07  -0.10   0.01
    14   1    -0.05   0.12   0.10     0.05  -0.27  -0.14     0.11  -0.27  -0.09
    15   1     0.07  -0.18  -0.12    -0.20   0.15   0.15    -0.35   0.51   0.45
                      7                      8                      9
                      A                      A                      A
 Frequencies --    336.3479               458.2860               624.7647
 Red. masses --      2.3126                 4.6076                 3.2583
 Frc consts  --      0.1541                 0.5702                 0.7493
 IR Inten    --     10.6946               192.0300                10.4223
  Atom  AN      X      Y      Z        X      Y      Z        X      Y      Z
     1   6    -0.02  -0.08   0.18    -0.14   0.23   0.09    -0.16   0.01  -0.02
     2   6    -0.03  -0.13   0.07    -0.16   0.10  -0.05     0.09  -0.02   0.17
     3   8    -0.02   0.09  -0.11    -0.15  -0.17   0.01     0.18   0.11  -0.07
     4   6     0.10   0.10  -0.10     0.16  -0.16  -0.19    -0.14  -0.13  -0.16
     5   6    -0.01   0.00   0.01     0.18  -0.03   0.03     0.05  -0.01   0.01
     6   1    -0.02  -0.05   0.00     0.27  -0.11   0.02     0.14  -0.07   0.00
     7   1     0.01   0.04  -0.02    -0.01  -0.10  -0.12    -0.09  -0.06  -0.10
     8   1    -0.03   0.02   0.07     0.27  -0.07   0.02     0.14  -0.04   0.00
     9   7    -0.00   0.00  -0.00     0.07   0.06   0.08    -0.01   0.06   0.06
    10   1    -0.05   0.04   0.11     0.15   0.02   0.11     0.05   0.04   0.12
    11   1     0.02  -0.12  -0.03     0.17  -0.10   0.05     0.06  -0.11   0.02
    12   1    -0.06   0.11  -0.51     0.09  -0.10  -0.16    -0.14  -0.07   0.16
    13   1     0.40   0.43  -0.02     0.18  -0.04  -0.15    -0.33  -0.34  -0.21
    14   1    -0.17  -0.12   0.19    -0.15   0.48   0.24    -0.58   0.08   0.14
    15   1    -0.15  -0.35  -0.00    -0.05   0.09  -0.09     0.03  -0.05   0.17
                     10                     11                     12
                      A                      A                      A
 Frequencies --    696.0680               751.3861               907.4656
 Red. masses --      1.1860                 1.2654                 1.4734
 Frc consts  --      0.3386                 0.4209                 0.7149
 IR Inten    --     32.7901               113.3579                 1.0309
  Atom  AN      X      Y      Z        X      Y      Z        X      Y      Z
     1   6    -0.04   0.05   0.02     0.05  -0.10  -0.07     0.03   0.01  -0.02
     2   6     0.02  -0.01  -0.01    -0.02   0.05   0.02    -0.03  -0.05   0.04
     3   8     0.02   0.02   0.00     0.01  -0.02  -0.01    -0.04  -0.01  -0.01
     4   6    -0.02  -0.04  -0.01    -0.01   0.02   0.01     0.10   0.12  -0.07
     5   6     0.01   0.00   0.00    -0.01  -0.00  -0.00    -0.01  -0.02   0.01
     6   1     0.16   0.09   0.02     0.05   0.05   0.01     0.20   0.12   0.04
     7   1    -0.01   0.01  -0.04     0.03   0.03  -0.00     0.08   0.11  -0.06
     8   1    -0.06   0.00  -0.14    -0.08   0.02  -0.06    -0.24   0.04  -0.17
     9   7    -0.02  -0.04   0.07    -0.00  -0.04   0.03    -0.00  -0.05   0.03
    10   1     0.13  -0.21  -0.53     0.01  -0.08  -0.21    -0.22   0.02  -0.19
    11   1     0.04   0.56   0.17    -0.02   0.23   0.07     0.17   0.17   0.06
    12   1     0.04  -0.13  -0.25    -0.10   0.03  -0.16     0.30   0.12   0.51
    13   1    -0.03   0.23   0.07     0.12   0.12   0.03    -0.23  -0.32  -0.17
    14   1     0.07  -0.23  -0.18    -0.25   0.68   0.49    -0.25  -0.08   0.00
    15   1     0.06  -0.08  -0.06    -0.03   0.11   0.06    -0.12  -0.09   0.06
                     13                     14                     15
                      A                      A                      A
 Frequencies --   1014.2002              1035.4257              1043.5878
 Red. masses --      1.1682                 1.5401                 1.4942
 Frc consts  --      0.7080                 0.9728                 0.9587
 IR Inten    --     13.6741                 3.5814                13.1917
  Atom  AN      X      Y      Z        X      Y      Z        X      Y      Z
     1   6    -0.01   0.00   0.04    -0.01   0.05   0.02    -0.03   0.01   0.00
     2   6     0.03  -0.02  -0.06     0.07  -0.16  -0.10     0.01  -0.00  -0.01
     3   8     0.01   0.02   0.02    -0.02   0.04   0.02     0.01   0.01   0.00
     4   6    -0.04  -0.03   0.01     0.02   0.02  -0.01     0.00  -0.03   0.01
     5   6    -0.03  -0.03   0.04     0.00   0.02  -0.02     0.17  -0.05   0.02
     6   1     0.39   0.10   0.07    -0.16  -0.07  -0.03    -0.07   0.17   0.05
     7   1    -0.04   0.11  -0.20    -0.03  -0.07   0.07     0.53   0.14   0.26
     8   1    -0.24   0.01  -0.25     0.14  -0.01   0.11    -0.18   0.10   0.07
     9   7     0.00   0.02  -0.01    -0.00  -0.01   0.02    -0.08  -0.01  -0.05
    10   1    -0.30   0.15  -0.05     0.21  -0.11  -0.01    -0.51   0.20   0.04
    11   1     0.49  -0.16  -0.06    -0.21   0.09   0.04    -0.37   0.15  -0.01
    12   1    -0.26   0.08  -0.10     0.05   0.00   0.03    -0.13   0.05  -0.01
    13   1     0.21  -0.07  -0.03     0.00  -0.04  -0.03    -0.00   0.09   0.04
    14   1     0.18   0.03   0.01    -0.11   0.08   0.06    -0.02  -0.02  -0.02
    15   1    -0.04   0.27   0.13    -0.33   0.64   0.47     0.01   0.07   0.03
                     16                     17                     18
                      A                      A                      A
 Frequencies --   1109.2072              1190.1979              1193.6034
 Red. masses --      2.5023                 1.4689                 1.4133
 Frc consts  --      1.8139                 1.2260                 1.1863
 IR Inten    --    119.9960               189.8383                15.3461
  Atom  AN      X      Y      Z        X      Y      Z        X      Y      Z
     1   6    -0.01   0.04   0.00     0.05   0.06  -0.06    -0.03   0.05  -0.10
     2   6    -0.01  -0.01   0.01    -0.04  -0.10   0.12     0.00  -0.06   0.04
     3   8     0.01   0.00   0.00    -0.01   0.01  -0.02    -0.01   0.01  -0.01
     4   6     0.00  -0.07  -0.03    -0.05   0.01  -0.05     0.03  -0.04   0.10
     5   6    -0.16  -0.09  -0.13     0.01   0.01   0.01    -0.01  -0.01   0.03
     6   1    -0.40   0.17  -0.09     0.05  -0.00   0.01     0.13   0.03   0.04
     7   1     0.24   0.10   0.15     0.00   0.00   0.00    -0.04   0.05  -0.09
     8   1    -0.50   0.06  -0.02     0.05  -0.01   0.01    -0.05  -0.01  -0.10
     9   7     0.23   0.04   0.10    -0.02   0.01   0.00     0.02   0.03  -0.05
    10   1    -0.22   0.29   0.25    -0.08   0.04   0.02    -0.15   0.14   0.09
    11   1    -0.12   0.28   0.18    -0.07   0.04   0.01     0.13  -0.14  -0.09
    12   1    -0.10  -0.02  -0.08     0.14  -0.13  -0.11     0.50  -0.39  -0.15
    13   1    -0.02   0.02  -0.01    -0.02  -0.12  -0.10    -0.13   0.42   0.27
    14   1     0.03   0.01  -0.03     0.80   0.40  -0.06    -0.32   0.04  -0.03
    15   1    -0.02   0.01   0.02    -0.15  -0.17   0.12    -0.10  -0.02   0.09
                     19                     20                     21
                      A                      A                      A
 Frequencies --   1242.4754              1252.8970              1279.6015
 Red. masses --      1.2810                 1.3758                 1.3614
 Frc consts  --      1.1651                 1.2724                 1.3133
 IR Inten    --     78.8803                13.2653               118.3774
  Atom  AN      X      Y      Z        X      Y      Z        X      Y      Z
     1   6     0.01  -0.00   0.01    -0.08   0.03  -0.11     0.05  -0.05   0.07
     2   6     0.00  -0.01   0.01    -0.01  -0.02   0.05     0.00   0.04  -0.07
     3   8    -0.00   0.00  -0.00     0.00   0.01  -0.01     0.01  -0.01   0.02
     4   6     0.01   0.00  -0.01     0.02   0.02   0.07    -0.08   0.04  -0.01
     5   6     0.03  -0.08  -0.06     0.01  -0.02  -0.02     0.01  -0.02  -0.02
     6   1    -0.21   0.18  -0.02    -0.05   0.04  -0.01     0.00   0.07   0.00
     7   1     0.34   0.06   0.16     0.10   0.00   0.08     0.13   0.04   0.06
     8   1    -0.26   0.06   0.09    -0.06   0.02   0.05    -0.01   0.00   0.05
     9   7    -0.07   0.07   0.03    -0.03   0.02   0.04    -0.03   0.05   0.03
    10   1     0.43  -0.21  -0.18     0.15  -0.08  -0.06    -0.03   0.06   0.02
    11   1     0.42  -0.35  -0.07     0.05  -0.04   0.02     0.01   0.01   0.02
    12   1    -0.01   0.03   0.06     0.03   0.02   0.06     0.54  -0.45  -0.40
    13   1    -0.25   0.18   0.08     0.87  -0.28  -0.09     0.06  -0.45  -0.19
    14   1     0.08   0.07   0.03    -0.11  -0.06  -0.17    -0.10  -0.09   0.10
    15   1    -0.02  -0.00   0.02     0.07  -0.02   0.01    -0.01   0.04  -0.06
                     22                     23                     24
                      A                      A                      A
 Frequencies --   1323.2552              1364.6640              1442.3501
 Red. masses --      1.3009                 1.3542                 1.3199
 Frc consts  --      1.3421                 1.4859                 1.6178
 IR Inten    --      1.2664                80.3244                 2.3144
  Atom  AN      X      Y      Z        X      Y      Z        X      Y      Z
     1   6    -0.01  -0.00  -0.00    -0.13  -0.09   0.04     0.04   0.04  -0.03
     2   6     0.00  -0.00  -0.00    -0.00  -0.01  -0.00     0.00  -0.05   0.07
     3   8     0.00   0.00  -0.00    -0.00   0.02  -0.03    -0.07   0.00  -0.05
     4   6     0.00  -0.01   0.01     0.01   0.03  -0.03     0.06   0.01   0.06
     5   6     0.03   0.09  -0.10    -0.00  -0.00   0.00     0.01   0.00   0.00
     6   1    -0.28  -0.19  -0.15    -0.03   0.00   0.00    -0.04   0.02   0.01
     7   1    -0.08  -0.23   0.23    -0.01   0.02  -0.03    -0.07  -0.04  -0.04
     8   1     0.23   0.08   0.26    -0.02  -0.01  -0.03    -0.06   0.03   0.01
     9   7    -0.02  -0.06   0.06     0.02  -0.01  -0.01    -0.00   0.00  -0.00
    10   1    -0.51   0.13  -0.16     0.01   0.01   0.02    -0.00  -0.01  -0.02
    11   1     0.54  -0.02   0.05    -0.03   0.03   0.00     0.00  -0.03  -0.01
    12   1     0.04  -0.03   0.00     0.35  -0.10   0.30    -0.24   0.08  -0.50
    13   1    -0.01   0.04   0.03     0.03   0.19   0.03    -0.32  -0.36  -0.03
    14   1     0.00   0.02   0.01     0.32   0.14   0.06    -0.13  -0.04  -0.04
    15   1     0.02   0.01   0.00     0.67   0.36  -0.04     0.58   0.23   0.03
                     25                     26                     27
                      A                      A                      A
 Frequencies --   1451.4279              1478.1144              1487.2215
 Red. masses --      1.1925                 1.0391                 1.0296
 Frc consts  --      1.4801                 1.3376                 1.3417
 IR Inten    --      1.4730                15.2822                18.4223
  Atom  AN      X      Y      Z        X      Y      Z        X      Y      Z
     1   6     0.01   0.01  -0.00    -0.00  -0.00   0.00    -0.00   0.00  -0.00
     2   6    -0.00  -0.01   0.01    -0.00   0.00  -0.00     0.00   0.00   0.00
     3   8    -0.01  -0.00  -0.01     0.00   0.00   0.00     0.00   0.00   0.00
     4   6     0.01  -0.01  -0.00    -0.00  -0.00  -0.00     0.01   0.00   0.00
     5   6    -0.12  -0.00  -0.04     0.00  -0.03  -0.03    -0.01  -0.02   0.02
     6   1     0.55  -0.01  -0.03     0.21   0.61   0.09    -0.43   0.29   0.05
     7   1     0.43   0.22   0.36    -0.26  -0.15  -0.18     0.15   0.44  -0.47
     8   1     0.47  -0.19   0.18    -0.01   0.10   0.66     0.47  -0.21  -0.07
     9   7    -0.01   0.00  -0.00     0.01  -0.02  -0.01    -0.01  -0.02   0.02
    10   1     0.01   0.00   0.04    -0.02   0.00   0.03    -0.10   0.01  -0.03
    11   1     0.03   0.03   0.00    -0.02   0.04  -0.00     0.10  -0.00   0.02
    12   1    -0.05   0.03   0.01     0.00   0.01   0.03    -0.03   0.02  -0.02
    13   1    -0.03   0.03   0.01     0.01   0.02   0.01     0.01  -0.02  -0.00
    14   1    -0.03  -0.01  -0.00     0.01   0.00   0.00    -0.00   0.00  -0.00
    15   1     0.11   0.05   0.00    -0.01  -0.00  -0.00    -0.01  -0.01   0.00
                     28                     29                     30
                      A                      A                      A
 Frequencies --   1521.2614              1628.6262              1779.2971
 Red. masses --      2.4786                 1.0922                 8.4424
 Frc consts  --      3.3796                 1.7068                15.7475
 IR Inten    --     99.9909                34.8376               877.6768
  Atom  AN      X      Y      Z        X      Y      Z        X      Y      Z
     1   6     0.25   0.08   0.03    -0.00  -0.00  -0.00    -0.14  -0.07   0.01
     2   6     0.02  -0.03   0.06     0.00  -0.00   0.00     0.63   0.20   0.14
     3   8    -0.09  -0.02  -0.04    -0.00  -0.00  -0.00    -0.36  -0.08  -0.12
     4   6    -0.17  -0.07  -0.09     0.01   0.00   0.00    -0.02   0.02   0.01
     5   6     0.02  -0.00   0.01     0.02  -0.01  -0.00    -0.01  -0.00  -0.00
     6   1    -0.10   0.02   0.01    -0.06  -0.01  -0.01     0.01   0.00  -0.01
     7   1    -0.04  -0.01  -0.07     0.03  -0.01  -0.00     0.02   0.01   0.02
     8   1    -0.03   0.02  -0.02    -0.04   0.01  -0.03     0.00  -0.01   0.01
     9   7    -0.02   0.01   0.01    -0.06  -0.03  -0.05     0.03  -0.01   0.00
    10   1    -0.02   0.02   0.02     0.22  -0.01   0.67    -0.03   0.01  -0.01
    11   1     0.01   0.02   0.01     0.42   0.56   0.06    -0.04   0.01   0.00
    12   1     0.04  -0.10   0.43    -0.01   0.01  -0.02     0.06  -0.05  -0.01
    13   1     0.42   0.39  -0.01    -0.01  -0.01   0.00    -0.00  -0.05  -0.04
    14   1    -0.30  -0.18   0.04     0.00   0.01  -0.00     0.25   0.09   0.05
    15   1     0.42   0.17   0.02    -0.00  -0.01   0.00    -0.45  -0.27   0.10
                     31                     32                     33
                      A                      A                      A
 Frequencies --   2748.3159              3070.9652              3089.2309
 Red. masses --      1.0768                 1.0344                 1.0604
 Frc consts  --      4.7919                 5.7474                 5.9622
 IR Inten    --    254.0444                24.8248                53.7053
  Atom  AN      X      Y      Z        X      Y      Z        X      Y      Z
     1   6    -0.00  -0.00  -0.00    -0.00  -0.00   0.00     0.00   0.00  -0.00
     2   6    -0.01   0.04  -0.07     0.00   0.00  -0.00     0.00   0.00  -0.00
     3   8    -0.01  -0.00  -0.00    -0.00  -0.00  -0.00    -0.00  -0.00  -0.00
     4   6    -0.00   0.00   0.00     0.00   0.00   0.00    -0.04  -0.02  -0.05
     5   6    -0.00  -0.00  -0.00    -0.05  -0.00  -0.01    -0.00   0.00  -0.00
     6   1     0.00   0.00  -0.00    -0.02  -0.09   0.53     0.00  -0.01   0.03
     7   1     0.00   0.00   0.00     0.37  -0.42  -0.27     0.02  -0.02  -0.01
     8   1    -0.00  -0.00   0.00     0.20   0.52  -0.09     0.01   0.01  -0.00
     9   7     0.00  -0.00  -0.00     0.00   0.00   0.00     0.00  -0.00   0.00
    10   1    -0.00  -0.00  -0.00    -0.00  -0.00  -0.00    -0.00  -0.00  -0.00
    11   1    -0.00   0.00  -0.00    -0.00  -0.00  -0.00    -0.00   0.00  -0.00
    12   1     0.00  -0.01   0.00    -0.02  -0.02   0.01     0.33   0.52  -0.12
    13   1     0.01   0.00  -0.01    -0.00   0.01  -0.02     0.06  -0.24   0.73
    14   1     0.01   0.00   0.00    -0.00   0.00  -0.00     0.01  -0.02   0.03
    15   1     0.29  -0.45   0.84     0.00  -0.00   0.00     0.00  -0.01   0.01
                     34                     35                     36
                      A                      A                      A
 Frequencies --   3176.7203              3178.0723              3189.7622
 Red. masses --      1.1096                 1.1091                 1.1075
 Frc consts  --      6.5977                 6.6003                 6.6391
 IR Inten    --      5.4088                 9.0746                 4.1925
  Atom  AN      X      Y      Z        X      Y      Z        X      Y      Z
     1   6    -0.00   0.01  -0.02    -0.01   0.01  -0.02     0.00  -0.00   0.00
     2   6    -0.00  -0.00   0.00    -0.00  -0.00   0.00     0.00   0.00  -0.00
     3   8     0.00   0.00   0.00     0.00   0.00   0.00    -0.00  -0.00   0.00
     4   6    -0.02  -0.05   0.04    -0.02  -0.05   0.04     0.00   0.00   0.00
     5   6    -0.02   0.06   0.03     0.02  -0.06  -0.03     0.03   0.05  -0.08
     6   1     0.00   0.04  -0.20    -0.01  -0.05   0.24    -0.02  -0.13   0.77
     7   1     0.33  -0.36  -0.24    -0.32   0.36   0.23    -0.07   0.09   0.04
     8   1    -0.14  -0.37   0.07     0.14   0.35  -0.07    -0.21  -0.56   0.09
     9   7     0.00  -0.00  -0.00     0.00   0.00  -0.00    -0.00  -0.00   0.00
    10   1    -0.00   0.01  -0.00    -0.01  -0.01   0.00    -0.00   0.01  -0.00
    11   1     0.00  -0.00   0.01     0.00  -0.00  -0.01     0.01   0.00  -0.01
    12   1     0.26   0.41  -0.09     0.26   0.41  -0.09    -0.00  -0.01   0.00
    13   1    -0.04   0.12  -0.39    -0.04   0.13  -0.39    -0.00   0.00  -0.00
    14   1     0.06  -0.14   0.23     0.06  -0.15   0.24    -0.02   0.03  -0.06
    15   1     0.00   0.00  -0.00     0.00   0.00  -0.00     0.00  -0.00   0.00
                     37                     38                     39
                      A                      A                      A
 Frequencies --   3193.2455              3513.7470              3594.2817
 Red. masses --      1.0951                 1.0540                 1.0968
 Frc consts  --      6.5789                 7.6673                 8.3483
 IR Inten    --     23.6101                25.3935                49.5049
  Atom  AN      X      Y      Z        X      Y      Z        X      Y      Z
     1   6    -0.02   0.04  -0.07    -0.00  -0.00  -0.00     0.00  -0.00   0.00
     2   6    -0.00  -0.00   0.00     0.00   0.00  -0.00    -0.00  -0.00   0.00
     3   8     0.00   0.00   0.00    -0.00  -0.00  -0.00     0.00   0.00   0.00
     4   6     0.02   0.03  -0.02     0.00  -0.00  -0.00    -0.00  -0.00   0.00
     5   6     0.00   0.00  -0.00     0.00  -0.00  -0.00     0.00   0.00  -0.00
     6   1    -0.00  -0.01   0.04     0.00  -0.00   0.01     0.00  -0.00   0.01
     7   1    -0.00   0.00  -0.00    -0.01   0.01   0.00    -0.00  -0.00   0.00
     8   1    -0.02  -0.04   0.01     0.00   0.01  -0.00    -0.01  -0.01   0.00
     9   7    -0.00  -0.00   0.00    -0.03  -0.04  -0.04     0.02   0.05  -0.06
    10   1     0.00   0.00  -0.00     0.30   0.64  -0.13    -0.28  -0.62   0.10
    11   1    -0.00   0.00   0.00     0.02  -0.14   0.68     0.03  -0.12   0.71
    12   1    -0.18  -0.27   0.06     0.00   0.01   0.00     0.00  -0.01  -0.00
    13   1     0.02  -0.07   0.21    -0.00   0.00   0.00    -0.00   0.00   0.01
    14   1     0.21  -0.46   0.76    -0.00   0.00  -0.00    -0.00   0.00  -0.00
    15   1     0.00   0.00  -0.00     0.00  -0.00   0.00    -0.00   0.00  -0.00

 -------------------
 - Thermochemistry -
 -------------------
 Temperature   298.150 Kelvin.  Pressure   1.00000 Atm.
 Atom     1 has atomic number  6 and mass  12.00000
 Atom     2 has atomic number  6 and mass  12.00000
 Atom     3 has atomic number  8 and mass  15.99491
 Atom     4 has atomic number  6 and mass  12.00000
 Atom     5 has atomic number  6 and mass  12.00000
 Atom     6 has atomic number  1 and mass   1.00783
 Atom     7 has atomic number  1 and mass   1.00783
 Atom     8 has atomic number  1 and mass   1.00783
 Atom     9 has atomic number  7 and mass  14.00307
 Atom    10 has atomic number  1 and mass   1.00783
 Atom    11 has atomic number  1 and mass   1.00783
 Atom    12 has atomic number  1 and mass   1.00783
 Atom    13 has atomic number  1 and mass   1.00783
 Atom    14 has atomic number  1 and mass   1.00783
 Atom    15 has atomic number  1 and mass   1.00783
 Molecular mass:    87.06841 amu.
 Principal axes and moments of inertia in atomic units:
                           1         2         3
     Eigenvalues --   148.945551389.636611438.94596
           X            0.99997  -0.00765   0.00106
           Y            0.00772   0.99635  -0.08504
           Z           -0.00041   0.08504   0.99638
 This molecule is an asymmetric top.
 Rotational symmetry number  1.
 Rotational temperatures (Kelvin)      0.58151     0.06233     0.06019
 Rotational constants (GHZ):          12.11678     1.29871     1.25421
    1 imaginary frequencies ignored.
 Zero-point vibrational energy     341993.4 (Joules/Mol)
                                   81.73839 (Kcal/Mol)
 Warning -- explicit consideration of   7 degrees of freedom as
           vibrations may cause significant error
 Vibrational temperatures:     76.21   137.94   248.82   318.59   384.95
          (Kelvin)            483.93   659.37   898.90  1001.49  1081.08
                             1305.64  1459.21  1489.75  1501.49  1595.90
                             1712.43  1717.33  1787.64  1802.64  1841.06
                             1903.87  1963.45  2075.22  2088.28  2126.68
                             2139.78  2188.76  2343.23  2560.01  3954.21
                             4418.43  4444.71  4570.59  4572.54  4589.36
                             4594.37  5055.50  5171.37
 
 Zero-point correction=                           0.130258 (Hartree/Particle)
 Thermal correction to Energy=                    0.137545
 Thermal correction to Enthalpy=                  0.138489
 Thermal correction to Gibbs Free Energy=         0.098379
 Sum of electronic and zero-point Energies=           -287.317130
 Sum of electronic and thermal Energies=              -287.309844
 Sum of electronic and thermal Enthalpies=            -287.308900
 Sum of electronic and thermal Free Energies=         -287.349009
 
                     E (Thermal)             CV                S
                      KCal/Mol        Cal/Mol-Kelvin    Cal/Mol-Kelvin
 Total                   86.311             24.271             84.417
 Electronic               0.000              0.000              0.000
 Translational            0.889              2.981             39.305
 Rotational               0.889              2.981             27.190
 Vibrational             84.533             18.309             17.922
 Vibration     1          0.596              1.976              4.703
 Vibration     2          0.603              1.952              3.537
 Vibration     3          0.626              1.876              2.403
 Vibration     4          0.648              1.808              1.947
 Vibration     5          0.673              1.733              1.612
 Vibration     6          0.717              1.603              1.229
 Vibration     7          0.816              1.343              0.771
                       Q            Log10(Q)             Ln(Q)
 Total Bot       0.560564D-45        -45.251375       -104.195140
 Total V=0       0.460556D+15         14.663282         33.763456
 Vib (Bot)       0.898563D-58        -58.046452       -133.656894
 Vib (Bot)    1  0.390162D+01          0.591245          1.361391
 Vib (Bot)    2  0.214231D+01          0.330882          0.761884
 Vib (Bot)    3  0.116417D+01          0.066018          0.152012
 Vib (Bot)    4  0.892759D+00         -0.049266         -0.113439
 Vib (Bot)    5  0.723235D+00         -0.140721         -0.324021
 Vib (Bot)    6  0.553331D+00         -0.257015         -0.591799
 Vib (Bot)    7  0.371665D+00         -0.429849         -0.989763
 Vib (V=0)       0.738253D+02          1.868205          4.301702
 Vib (V=0)    1  0.443352D+01          0.646749          1.489195
 Vib (V=0)    2  0.269988D+01          0.431345          0.993208
 Vib (V=0)    3  0.176701D+01          0.247238          0.569286
 Vib (V=0)    4  0.152324D+01          0.182768          0.420839
 Vib (V=0)    5  0.137924D+01          0.139641          0.321535
 Vib (V=0)    6  0.124577D+01          0.095438          0.219755
 Vib (V=0)    7  0.112300D+01          0.050381          0.116008
 Electronic      0.100000D+01          0.000000          0.000000
 Translational   0.319334D+08          7.504245         17.279162
 Rotational      0.195358D+06          5.290832         12.182591
 ***** Axes restored to original set *****
 -------------------------------------------------------------------
 Center     Atomic                   Forces (Hartrees/Bohr)
 Number     Number              X              Y              Z
 -------------------------------------------------------------------
      1        6          -0.000007924   -0.000015076    0.000011536
      2        6           0.000012440    0.000010932   -0.000014112
      3        8           0.000001765   -0.000003149   -0.000013809
      4        6          -0.000004487   -0.000000136   -0.000001531
      5        6           0.000006538    0.000003510    0.000000165
      6        1          -0.000004519   -0.000004183    0.000005836
      7        1           0.000003214    0.000003354    0.000002996
      8        1          -0.000000006    0.000002481    0.000011161
      9        7          -0.000009038   -0.000007524    0.000010022
     10        1           0.000005899    0.000005098   -0.000009598
     11        1           0.000005526    0.000011276    0.000004047
     12        1          -0.000002236    0.000001107    0.000011792
     13        1          -0.000005099   -0.000007391   -0.000002164
     14        1           0.000001907    0.000006216   -0.000003697
     15        1          -0.000003980   -0.000006515   -0.000012643
 -------------------------------------------------------------------
 Cartesian Forces:  Max     0.000015076 RMS     0.000007426

 GradGradGradGradGradGradGradGradGradGradGradGradGradGradGradGradGradGrad
 Berny optimization.
 Search for a local minimum.
 Step number   1 out of a maximum of    2
 All quantities printed in internal units (Hartrees-Bohrs-Radians)
 Second derivative matrix not updated -- analytic derivatives used.
 ITU=  0
     Eigenvalues ---   -0.02406   0.00028   0.00111   0.00219   0.00437
     Eigenvalues ---    0.00844   0.01216   0.02225   0.02671   0.04045
     Eigenvalues ---    0.04289   0.04959   0.06024   0.06461   0.07645
     Eigenvalues ---    0.08452   0.08766   0.09791   0.10174   0.13402
     Eigenvalues ---    0.14990   0.15581   0.16305   0.18419   0.19921
     Eigenvalues ---    0.26351   0.27329   0.34473   0.52467   0.58967
     Eigenvalues ---    0.61649   0.77584   0.82961   0.86989   0.98228
     Eigenvalues ---    1.03285   1.11665   1.12730   1.57822
 Eigenvalue     1 is  -2.41D-02 should be greater than     0.000000 Eigenvector:
                          X4        Y4        X7        X9        Y9
   1                    0.42432  -0.38571  -0.32469  -0.28771   0.26085
                          Y1        X11       Z4        X10       Y10
   1                   -0.22966  -0.18653  -0.18188  -0.17212   0.16740
 Angle between quadratic step and forces=  83.65 degrees.
 Linear search not attempted -- first point.
 B after Tr=    -0.000022   -0.000056    0.000265
         Rot=    1.000000    0.000076   -0.000058   -0.000005 Ang=   0.01 deg.
 Variable       Old X    -DE/DX   Delta X   Delta X   Delta X     New X
                                 (Linear)    (Quad)   (Total)
    X1       -1.75671  -0.00001   0.00000  -0.00025  -0.00034  -1.75705
    Y1        1.24569  -0.00002   0.00000  -0.00060  -0.00076   1.24493
    Z1       -0.51162   0.00001   0.00000  -0.00097  -0.00069  -0.51231
    X2       -3.59059   0.00001   0.00000   0.00031   0.00036  -3.59024
    Y2       -0.40000   0.00001   0.00000   0.00000  -0.00001  -0.40001
    Z2        0.54948  -0.00001   0.00000   0.00084   0.00159   0.55106
    X3       -5.73058   0.00000   0.00000  -0.00024  -0.00028  -5.73086
    Y3       -0.86145  -0.00000   0.00000  -0.00018  -0.00033  -0.86178
    Z3       -0.21641  -0.00001   0.00000   0.00250   0.00356  -0.21285
    X4        0.66012  -0.00000   0.00000   0.00002   0.00005   0.66017
    Y4        1.47610  -0.00000   0.00000   0.00032   0.00036   1.47646
    Z4        0.59203  -0.00000   0.00000  -0.00174  -0.00178   0.59025
    X5        5.47726   0.00001   0.00000  -0.00054  -0.00053   5.47673
    Y5       -0.52107   0.00000   0.00000  -0.00080  -0.00076  -0.52183
    Z5        0.26600   0.00000   0.00000   0.00162   0.00133   0.26733
    X6        5.43309  -0.00000   0.00000  -0.00296  -0.00271   5.43039
    Y6       -0.86103  -0.00000   0.00000  -0.00382  -0.00347  -0.86450
    Z6        2.31195   0.00001   0.00000   0.00107   0.00084   2.31279
    X7        6.74356   0.00000   0.00000   0.00042   0.00035   6.74391
    Y7       -1.90380   0.00000   0.00000   0.00045   0.00037  -1.90344
    Z7       -0.62586   0.00000   0.00000   0.00106   0.00083  -0.62503
    X8        6.21334  -0.00000   0.00000  -0.00006  -0.00010   6.21324
    Y8        1.38927   0.00000   0.00000  -0.00033  -0.00033   1.38894
    Z8       -0.07126   0.00001   0.00000   0.00536   0.00469  -0.06657
    X9        2.90309  -0.00001   0.00000   0.00056   0.00046   2.90355
    Y9       -0.67994  -0.00001   0.00000   0.00089   0.00075  -0.67919
    Z9       -0.72694   0.00001   0.00000  -0.00157  -0.00154  -0.72848
   X10        2.11048   0.00001   0.00000  -0.00029  -0.00035   2.11014
   Y10       -2.41921   0.00001   0.00000   0.00085   0.00075  -2.41846
   Z10       -0.44711  -0.00001   0.00000  -0.00431  -0.00392  -0.45103
   X11        2.83079   0.00001   0.00000   0.00302   0.00269   2.83348
   Y11       -0.36043   0.00001   0.00000   0.00288   0.00245  -0.35798
   Z11       -2.63018   0.00000   0.00000  -0.00133  -0.00134  -2.63152
   X12        1.74633  -0.00000   0.00000  -0.00056  -0.00059   1.74574
   Y12        3.20488   0.00000   0.00000   0.00061   0.00060   3.20549
   Z12        0.22701   0.00001   0.00000  -0.00215  -0.00258   0.22443
   X13        0.83904  -0.00001   0.00000   0.00050   0.00076   0.83980
   Y13        0.85332  -0.00001   0.00000   0.00069   0.00103   0.85436
   Z13        2.56649  -0.00000   0.00000  -0.00167  -0.00164   2.56486
   X14       -2.22716   0.00000   0.00000  -0.00114  -0.00144  -2.22860
   Y14        2.28887   0.00001   0.00000  -0.00118  -0.00160   2.28728
   Z14       -2.23368  -0.00000   0.00000  -0.00109  -0.00091  -2.23459
   X15       -2.90719  -0.00000   0.00000   0.00141   0.00167  -2.90552
   Y15       -1.34514  -0.00001   0.00000   0.00067   0.00094  -1.34420
   Z15        2.34698  -0.00001   0.00000   0.00076   0.00157   2.34855
         Item               Value     Threshold  Converged?
 Maximum Force            0.000015     0.000450     YES
 RMS     Force            0.000007     0.000300     YES
 Maximum Displacement     0.004694     0.001800     NO 
 RMS     Displacement     0.001655     0.001200     NO 
 Predicted change in Energy=-3.417483D-08
 GradGradGradGradGradGradGradGradGradGradGradGradGradGradGradGradGradGrad


 ----------------------------------------------------------------------

 Electric dipole moment (input orientation):
 (Debye = 10**-18 statcoulomb cm , SI units = C m)
                  (au)            (Debye)         (10**-30 SI)
   Tot        0.454641D+01      0.115558D+02      0.385461D+02
   x          0.453684D+01      0.115315D+02      0.384649D+02
   y         -0.274175D+00     -0.696884D+00     -0.232456D+01
   z         -0.108534D+00     -0.275865D+00     -0.920188D+00

 Dipole polarizability, Alpha (input orientation).
 (esu units = cm**3 , SI units = C**2 m**2 J**-1)
 Alpha(0;0):
               (au)            (10**-24 esu)      (10**-40 SI)
   iso        0.713535D+02      0.105735D+02      0.117646D+02
   aniso      0.553525D+02      0.820240D+01      0.912640D+01
   xx         0.107191D+03      0.158841D+02      0.176734D+02
   yx         0.500853D+01      0.742188D+00      0.825795D+00
   yy         0.529716D+02      0.784958D+01      0.873384D+01
   zx         0.220992D+01      0.327476D+00      0.364366D+00
   zy        -0.527997D+01     -0.782411D+00     -0.870550D+00
   zz         0.538981D+02      0.798687D+01      0.888659D+01

 ----------------------------------------------------------------------

 Dipole orientation:
     6          0.62273656          1.10189123         -1.81591810
     6         -0.50064036         -0.58673388         -3.57202785
     8          0.27829881         -1.22458572         -5.66139267
     6         -0.51308221          1.54700312          0.55557826
     6         -0.40791081         -0.16541384          5.49079884
     1         -2.46962185         -0.38344880          5.41838886
     1          0.37130940         -1.51870925          6.85911566
     1          0.03158273          1.76285322          6.11818133
     7          0.62500268         -0.54227027          2.95533746
     1          0.25450273         -2.30704571          2.26260629
     1          2.54538789         -0.34317967          2.90935503
     1         -0.06413456          3.31429331          1.54396412
     1         -2.52538562          1.05664745          0.72454282
     1          2.41495243          2.00833689         -2.30717558
     1         -2.36640025         -1.37782662         -2.87597918

 Electric dipole moment (dipole orientation):
 (Debye = 10**-18 statcoulomb cm , SI units = C m)
                  (au)            (Debye)         (10**-30 SI)
   Tot        0.454641D+01      0.115558D+02      0.385461D+02
   x          0.000000D+00      0.000000D+00      0.000000D+00
   y          0.000000D+00      0.000000D+00      0.000000D+00
   z          0.454641D+01      0.115558D+02      0.385461D+02

 Dipole polarizability, Alpha (dipole orientation).
 (esu units = cm**3 , SI units = C**2 m**2 J**-1)
 Alpha(0;0):
               (au)            (10**-24 esu)      (10**-40 SI)
   iso        0.713535D+02      0.105735D+02      0.117646D+02
   aniso      0.553525D+02      0.820240D+01      0.912640D+01
   xx         0.546422D+02      0.809715D+01      0.900929D+01
   yx         0.488637D+01      0.724085D+00      0.805653D+00
   yy         0.531783D+02      0.788021D+01      0.876792D+01
   zx        -0.326328D+01     -0.483569D+00     -0.538043D+00
   zy         0.856955D+01      0.126988D+01      0.141293D+01
   zz         0.106240D+03      0.157432D+02      0.175166D+02

 ----------------------------------------------------------------------
 Unable to Open any file for archive entry.
 1\1\GINC-NODE-001\Freq\RwB97XD\def2SVP\C4H9N1O1\JP2658\30-Dec-2023\0\\
 # wb97xd def2svp scrf=(iefpcm,solvent=toluene) freq=noraman\\TS-249_op
 t_hf.out\\0,1\C,-0.92961,0.65919,-0.27074\C,-1.90006,-0.21167,0.29077\
 O,-3.03249,-0.45586,-0.11452\C,0.34932,0.78112,0.31329\C,2.89844,-0.27
 574,0.14076\H,2.87507,-0.45564,1.22343\H,3.56854,-1.00745,-0.33119\H,3
 .28796,0.73517,-0.03771\N,1.53625,-0.35981,-0.38468\H,1.11682,-1.28019
 ,-0.2366\H,1.49799,-0.19073,-1.39183\H,0.92412,1.69595,0.12013\H,0.444
 ,0.45156,1.35813\H,-1.17856,1.21122,-1.18201\H,-1.53842,-0.71182,1.241
 97\\Version=ES64L-G16RevC.01\State=1-A\HF=-287.4473884\RMSD=7.373e-09\
 RMSF=7.426e-06\ZeroPoint=0.1302584\Thermal=0.1375446\ETot=-287.3098438
 \HTot=-287.3088996\GTot=-287.3490089\Dipole=4.5368374,-0.2741753,-0.10
 85338\DipoleDeriv=-1.8673339,-0.0745628,0.1846624,-0.8185828,-0.712506
 1,-0.1731882,0.1938622,-0.1306326,-0.3715348,2.3566371,0.5119582,0.219
 504,1.115042,0.6095786,-0.28408,-0.0924211,-0.2821698,0.7610785,-2.118
 4552,-0.3671378,-0.1908082,-0.4473644,-0.5870396,0.026151,-0.4636432,-
 0.0525398,-0.6258939,2.747087,-0.2050224,-0.0944106,-1.1301224,0.49493
 92,0.1382545,-0.2494258,0.2402492,0.2751621,0.4629536,0.0144463,0.1056
 14,0.2555013,0.1048642,0.0086383,0.3557451,-0.0079157,0.1530062,0.0395
 869,-0.0176316,0.0467591,-0.012821,0.0974986,0.0263869,-0.0545502,0.02
 71329,-0.0553972,-0.1712065,0.0602425,0.005699,0.0618548,0.0233315,-0.
 0533136,-0.0313835,-0.0573799,0.056623,0.0356823,-0.000029,-0.025712,-
 0.0918974,-0.0412671,0.0248985,-0.0163728,0.044329,0.0857382,-1.658350
 4,0.1470844,0.0359665,0.9882928,-0.3722159,-0.096756,0.4269845,-0.1428
 441,-0.2354235,0.1332202,-0.0262915,-0.0246127,-0.0374821,0.2068333,0.
 0102324,-0.0312372,-0.0132621,0.1789485,0.1585076,-0.003523,-0.0437175
 ,-0.0153528,0.1966028,-0.0151858,-0.0558356,-0.0003954,0.1969723,-0.13
 04365,-0.1086272,0.0217266,-0.0031714,-0.0604327,-0.0123029,0.1599298,
 0.0227046,0.0550096,-0.0133257,0.0167979,-0.019053,0.1648221,0.026033,
 0.0902497,-0.0204667,0.0058503,-0.0915371,0.0219294,-0.0310087,-0.0592
 01,-0.0541771,0.0869521,0.1411904,-0.0706885,0.1584891,-0.0502584,0.00
 35042,0.0833047,-0.1624167,0.0254583,-0.073172,0.1688248,-0.0504969,0.
 1883843,-0.3324936\Polar=107.1909433,5.0085319,52.9716116,2.2099163,-5
 .2799745,53.898064\Quadrupole=-6.250225,2.6159615,3.6342635,-2.9163531
 ,-2.0161415,-0.2102831\PG=C01 [X(C4H9N1O1)]\NImag=1\\0.62758317,0.1333
 4043,0.33711124,0.12706464,-0.25251265,0.50738426,-0.16264271,-0.08479
 134,0.05569433,0.86153630,-0.08872009,-0.16246624,0.08758111,0.1978654
 2,0.38541472,0.05722487,0.09021279,-0.14879921,0.15980169,-0.13380418,
 0.49006767,-0.07511078,-0.03934718,-0.00932366,-0.59461244,-0.10772439
 ,-0.19219132,0.68266496,-0.04591075,0.00445242,-0.00885837,-0.10967373
 ,-0.10674369,-0.02469886,0.14492325,0.08029639,0.00206619,-0.00540862,
 0.02802075,-0.18902204,-0.02316916,-0.16532412,0.22558319,0.02704553,0
 .14294235,-0.25382841,-0.00726966,-0.11157888,-0.06994719,-0.03822832,
 0.00685522,0.03160121,0.00731291,0.00733106,0.42883786,-0.06749331,-0.
 09662584,0.00376308,-0.00546066,0.00575662,-0.02249320,-0.01561094,-0.
 00184768,0.00413820,0.24686834,0.42144075,-0.12370838,0.00852060,-0.15
 203732,0.00359947,-0.00558583,0.00671498,0.00522269,0.00479993,0.00206
 069,0.14885799,-0.14463542,0.55567557,0.00138941,0.00361278,0.00267276
 ,-0.00143735,-0.00033531,0.00053508,0.00121709,0.00014221,0.00013134,-
 0.02348722,0.00619400,-0.00166472,0.51704631,0.00853769,-0.00002735,-0
 .00208137,-0.00322925,-0.00388513,0.00123993,0.00275148,0.00141980,0.0
 0071617,0.00000691,0.00992091,0.00941886,-0.00608641,0.61647503,0.0083
 0634,0.00059594,-0.00059863,-0.00361741,-0.00348604,0.00182499,0.00295
 929,0.00131339,0.00058363,-0.00752505,0.01104548,0.00856428,-0.0410043
 1,-0.00843620,0.60299996,-0.00010983,-0.00009878,0.00033101,0.00001250
 ,0.00000670,-0.00008615,0.00003965,0.00000429,0.00003353,0.00170552,-0
 .00082989,-0.00145200,-0.05070524,-0.00411598,0.02061336,0.05786575,-0
 .00002776,-0.00015940,-0.00016647,0.00002079,0.00010776,-0.00007982,-0
 .00006667,-0.00005732,0.00000108,-0.00006449,-0.00014585,0.00051728,-0
 .00160888,-0.05816852,0.04788424,0.00279017,0.05360381,-0.00087212,-0.
 00046448,0.00004530,0.00048079,0.00049490,-0.00028362,-0.00038047,-0.0
 0016031,-0.00004558,0.00250358,-0.00110756,0.00026916,0.01088030,0.046
 77552,-0.32273814,-0.00627107,-0.05021951,0.34337289,-0.00441768,-0.00
 055112,0.00046352,0.00212890,0.00216247,-0.00091831,-0.00172725,-0.000
 79338,-0.00037258,0.00669421,-0.00679145,-0.00437121,-0.14217532,0.108
 24830,0.07211769,0.00055906,-0.00023064,-0.00041801,0.16092910,-0.0005
 6062,0.00012987,-0.00018615,0.00027868,0.00012496,-0.00012608,-0.00012
 827,-0.00004076,-0.00001974,0.00003148,0.00005182,-0.00008990,0.111959
 53,-0.17835277,-0.08492900,-0.00509722,0.00501314,0.00384363,-0.119373
 96,0.18147359,-0.00205500,-0.00038753,0.00041179,0.00078229,0.00096729
 ,-0.00033359,-0.00066645,-0.00033439,-0.00016818,0.00208437,-0.0023017
 5,-0.00137232,0.07558506,-0.08618140,-0.10628173,0.01738380,-0.0213643
 2,-0.00975682,-0.07484995,0.09005089,0.10525234,-0.00011869,0.00033046
 ,-0.00012915,0.00017103,0.00005061,0.00004515,-0.00004081,0.00001340,-
 0.00003920,0.00180093,-0.00213351,-0.00030412,-0.07923687,-0.08035178,
 0.01442619,-0.00025631,0.00016211,0.00000877,0.00809041,0.01720743,-0.
 00444380,0.09297765,-0.00069435,-0.00034714,-0.00017874,0.00049408,0.0
 0025414,-0.00016814,-0.00033258,-0.00008575,-0.00006118,0.00213611,0.0
 0005278,-0.00013645,-0.08919673,-0.29218411,0.04563715,0.00002489,-0.0
 0164452,-0.00134706,-0.00782765,-0.01517625,0.00524316,0.09688185,0.30
 461832,-0.00003807,-0.00015750,-0.00008740,0.00011460,-0.00001675,-0.0
 0011096,-0.00010077,-0.00002220,-0.00000198,0.00062690,-0.00000609,-0.
 00024505,0.01821102,0.04878806,-0.05933926,0.01042140,0.02825476,-0.00
 143955,-0.00570942,-0.01334687,0.00288674,-0.01266198,-0.04779749,0.05
 565185,-0.06386664,-0.00004875,0.00452376,0.02087009,0.02421900,-0.009
 34913,-0.01564634,-0.00801361,-0.00355565,0.03894284,-0.05194634,-0.01
 793351,-0.21394067,-0.00271679,-0.03792611,-0.00377897,-0.00062849,-0.
 00345468,-0.03079700,-0.00462370,-0.01428826,-0.01884267,-0.00115337,-
 0.00818737,0.45369041,0.03135623,0.01918745,0.00964535,-0.01401709,-0.
 01027358,0.00717797,0.00907325,0.00322678,0.00104115,-0.07258886,-0.02
 244301,0.00980302,-0.02837815,-0.10002212,-0.00331933,0.00836430,0.000
 66214,0.00249821,0.02406851,0.00574574,0.01340278,-0.03386113,0.002504
 92,-0.01483260,0.19810109,0.54694778,0.00682050,0.01362040,0.01591299,
 -0.00397370,-0.00393059,0.00161335,0.00291622,0.00112054,0.00055582,-0
 .03681801,0.01711645,-0.05296405,-0.06243213,0.00517088,-0.12133097,-0
 .04009432,-0.00341805,-0.01056309,0.01252108,0.00394786,0.00785739,0.0
 0619687,-0.00090476,0.00254092,0.08513669,-0.13554949,0.65774490,-0.00
 034032,-0.00305983,-0.00197530,-0.00062629,0.00021985,-0.00041344,0.00
 005590,-0.00010349,0.00022556,0.01095142,0.01159273,-0.00273272,-0.012
 05807,-0.03065654,0.00614018,0.00112856,0.00014869,-0.00023440,0.00021
 592,-0.00000643,0.00071602,-0.00522706,0.00090031,-0.00283323,-0.11103
 600,-0.13254910,0.01801677,0.11907605,-0.00126477,0.00143394,0.0005282
 6,0.00136411,0.00111866,-0.00023264,-0.00098064,-0.00050763,-0.0003551
 7,-0.00090564,-0.01193631,0.00065562,0.00482630,0.00506778,-0.00133418
 ,-0.00022077,0.00019646,0.00015731,0.00028486,0.00075447,-0.00010627,0
 .00093494,0.00097234,0.00002046,-0.15426381,-0.36043346,0.06850541,0.1
 4974616,0.36833995,-0.00032469,0.00101779,-0.00086006,0.00008912,-0.00
 038018,0.00124810,-0.00015641,0.00008765,-0.00041589,-0.00338630,-0.00
 919565,0.00205159,-0.00380584,-0.01432885,0.00282670,-0.00018037,-0.00
 078171,-0.00003348,0.00032040,0.00054758,0.00028399,-0.00308122,-0.000
 61733,-0.00050641,0.01308844,0.05282779,-0.06399666,-0.01913538,-0.063
 24094,0.06558168,0.00091167,-0.00152986,-0.00324932,-0.00120741,-0.001
 01153,0.00021736,0.00064471,0.00024780,0.00011749,0.00326017,-0.003410
 98,0.01309789,-0.00009494,0.00695168,-0.03623204,-0.00633445,-0.000687
 70,-0.00164202,0.00053449,0.00066083,-0.00000931,0.00091266,-0.0006033
 5,0.00016050,-0.05310953,-0.00931048,-0.00451081,0.00011544,-0.0009818
 9,0.01551973,0.05629730,-0.00134363,0.00024122,0.00147131,0.00058069,0
 .00042206,0.00010194,-0.00032274,-0.00014429,-0.00009663,-0.00049621,0
 .00341460,-0.01446466,0.00185143,-0.00009309,-0.00314009,-0.00071608,0
 .00069629,-0.00106759,-0.00000023,-0.00000650,0.00065321,-0.00024575,0
 .00016075,-0.00089491,-0.00867345,-0.05891271,0.05835442,0.00144040,-0
 .00462670,0.03589288,0.00610392,0.06195968,-0.00141802,-0.00085624,0.0
 0102170,0.00096778,0.00053594,-0.00031983,-0.00088395,-0.00029072,-0.0
 0023540,0.00443282,-0.00166069,-0.00592990,0.00270670,-0.00008268,-0.0
 0516254,-0.00151880,-0.00046307,0.00088870,0.00014198,0.00013439,0.000
 78600,0.00008891,-0.00001174,0.00030826,-0.01980360,0.08119251,-0.4233
 0282,-0.00069850,-0.00291144,-0.00406006,0.01590086,-0.07507121,0.4353
 8966,-0.01464005,-0.02453202,0.00752038,0.00147694,-0.00189764,-0.0088
 3135,-0.00396898,-0.00020916,0.00152768,-0.12177015,-0.12804449,0.0276
 7218,0.00224269,0.00098301,0.00028875,-0.00001733,0.00003707,-0.000142
 11,-0.00003678,-0.00043099,0.00013270,-0.00020591,-0.00056680,-0.00001
 417,0.00107588,0.01974429,0.00007278,-0.00247671,0.00164877,0.00135675
 ,0.00034403,-0.00038884,-0.00023088,0.13573091,0.00269498,0.00521549,0
 .00228457,-0.00157288,0.00175324,0.00090312,0.00094017,-0.00039135,-0.
 00012511,-0.13199162,-0.23682199,0.04934007,-0.00140003,-0.00043406,-0
 .00057808,0.00009791,-0.00008508,0.00010223,0.00063168,0.00031739,0.00
 016606,0.00086722,0.00077373,-0.00012977,0.00206622,-0.02299367,-0.002
 09009,0.00260742,-0.00086290,-0.00170042,-0.00007431,-0.00035778,0.000
 11228,0.12782399,0.25703820,-0.00461504,-0.00928455,0.00729963,-0.0028
 0935,0.00160671,-0.00017649,0.00065864,-0.00064741,0.00050761,0.019028
 14,0.05420055,-0.06130205,-0.00137854,-0.00024715,-0.00043730,0.000133
 24,0.00009951,0.00010002,0.00027481,0.00008425,0.00004204,-0.00014482,
 0.00030052,0.00032362,0.00211318,-0.01779273,-0.00104256,0.00212095,-0
 .00162713,-0.00108050,-0.00030977,-0.00047925,0.00024109,-0.02979012,-
 0.04684737,0.05589021,-0.00180492,0.00887386,-0.02611717,-0.00009033,0
 .00529881,-0.00185641,-0.00016848,-0.00127260,0.00041880,-0.04693516,0
 .00234578,-0.02521298,0.00138195,-0.00013892,0.00150312,-0.00017864,0.
 00016763,-0.00059423,-0.00004632,0.00009509,-0.00050779,-0.00002467,-0
 .00005738,0.00006043,-0.00558975,0.00110867,0.01709192,0.00021705,-0.0
 0027012,-0.00012532,-0.00184571,0.00195566,0.00033422,0.00190102,-0.00
 332170,0.01384221,0.05580871,0.00599468,0.00508413,-0.00047115,-0.0028
 8968,-0.00441464,-0.00221072,0.00213736,0.00102275,0.00092178,-0.00598
 320,-0.07274917,0.08734927,-0.00168341,0.00008254,-0.00111075,-0.00018
 031,0.00001139,0.00059233,0.00017087,-0.00005429,0.00027098,0.00014997
 ,0.00009141,0.00007966,0.00831743,-0.00243551,-0.02200067,-0.00024594,
 0.00053425,-0.00033937,0.00282286,-0.00253359,-0.00105301,0.00319542,-
 0.00270295,0.02188615,-0.01037187,0.07434645,-0.00265360,0.00583864,-0
 .00770027,0.00397341,0.00116019,-0.00012830,-0.00070887,-0.00003275,0.
 00041468,-0.02765518,0.08604814,-0.29481058,-0.00044523,-0.00025884,-0
 .00028254,0.00057209,-0.00026452,0.00013360,0.00043681,0.00000485,0.00
 030441,0.00007329,-0.00001137,-0.00001161,0.00556534,-0.00259765,-0.01
 241606,0.00019194,-0.00010796,-0.00049572,0.00114311,-0.00153225,0.000
 20854,-0.00164707,-0.00035270,-0.00055746,0.02311078,-0.08610737,0.314
 88883,-0.06329780,0.02404428,-0.05738868,0.00789496,-0.00937142,0.0169
 0678,0.00088980,0.00322343,-0.00122857,-0.00404687,0.01395063,-0.02316
 509,-0.00009345,0.00013615,0.00024975,0.00005927,-0.00002936,0.0000885
 9,-0.00013244,-0.00002996,0.00005836,0.00000072,-0.00003004,-0.0000493
 2,0.00015849,0.00003861,-0.00078697,-0.00007228,-0.00008557,-0.0000451
 3,-0.00035776,0.00022266,-0.00006342,-0.00010580,0.00055926,0.00110315
 ,-0.00288269,-0.00144907,-0.00169219,0.06335472,0.02344130,-0.11069869
 ,0.13674199,0.00920568,-0.00544940,0.01539511,0.00066943,-0.00056901,-
 0.00438163,-0.00278147,0.00370981,-0.00651867,0.00016291,0.00002102,-0
 .00029728,-0.00002043,-0.00003410,-0.00005461,0.00010731,0.00003311,-0
 .00002827,-0.00002229,0.00001026,0.00004141,0.00059502,-0.00125487,0.0
 0025284,0.00004391,-0.00003433,0.00008082,0.00063051,-0.00009249,0.000
 38685,0.00258591,-0.00042382,-0.00114152,-0.00380565,0.00299259,-0.000
 55699,-0.02713999,0.11099030,-0.05954247,0.13473856,-0.23942343,-0.007
 30234,0.00295702,-0.00767592,0.00157978,-0.00266395,0.00077504,0.00158
 352,0.00459008,-0.00701366,0.00010653,0.00007578,-0.00008585,0.0000700
 9,-0.00003726,-0.00003153,0.00004601,0.00003946,-0.00003607,-0.0000068
 0,0.00000409,0.00001521,0.00056788,-0.00112650,0.00020486,0.00012625,-
 0.00009477,-0.00006248,0.00001133,0.00018074,0.00007364,0.00141661,-0.
 00084117,-0.00023791,-0.00348009,0.00213102,0.00012966,0.06461624,-0.1
 4395230,0.25304033,0.01029359,-0.00897328,0.01149177,-0.06352700,0.017
 46584,-0.02794005,-0.02583824,0.01010944,-0.04321681,-0.00377915,0.000
 77010,0.00209450,-0.00004832,-0.00031956,-0.00029975,0.00001046,0.0000
 1754,0.00004709,0.00018070,0.00001810,0.00007795,-0.00000041,0.0000250
 1,-0.00000053,0.00186987,-0.00115014,-0.00015688,0.00007639,0.00016808
 ,-0.00013377,-0.00007067,0.00003216,0.00004390,0.00045025,0.00007169,-
 0.00022666,0.00025795,0.00001488,-0.00026463,-0.00136886,-0.00367213,0
 .00020746,0.08149343,0.00064997,-0.00253111,0.02243921,0.01182519,-0.1
 0171945,0.06878278,0.00401846,0.01996933,-0.00024667,0.00395371,-0.001
 77741,0.00102630,-0.00006023,0.00018007,0.00015476,-0.00000881,0.00000
 381,-0.00004302,-0.00010557,-0.00001352,-0.00005044,0.00001645,-0.0000
 0088,0.00001984,-0.00123044,0.00049413,-0.00019517,-0.00007814,-0.0000
 1652,0.00012991,0.00019251,-0.00012746,0.00003883,0.00005150,-0.000024
 44,-0.00011057,-0.00060724,0.00072466,-0.00122942,-0.00403961,0.000799
 63,0.00399919,-0.01457775,0.08403915,-0.00625516,0.01452684,-0.0105901
 0,-0.01877862,0.07506958,-0.17831704,-0.03450792,0.00334194,-0.0096694
 1,-0.00634019,0.00049839,0.00033865,-0.00009801,-0.00056870,-0.0005426
 0,0.00004418,0.00003785,0.00008214,0.00031718,0.00004482,0.00012400,-0
 .00002809,0.00004934,0.00001561,0.00350304,-0.00237050,-0.00081403,0.0
 0048531,0.00014342,-0.00048079,-0.00021501,0.00009208,0.00009296,0.000
 66788,-0.00024364,0.00043005,0.00153251,0.00006186,0.00032283,0.001396
 49,0.00403225,0.00032811,0.05827640,-0.09471552,0.19867962\\0.00000792
 ,0.00001508,-0.00001154,-0.00001244,-0.00001093,0.00001411,-0.00000177
 ,0.00000315,0.00001381,0.00000449,0.00000014,0.00000153,-0.00000654,-0
 .00000351,-0.00000016,0.00000452,0.00000418,-0.00000584,-0.00000321,-0
 .00000335,-0.00000300,0.,-0.00000248,-0.00001116,0.00000904,0.00000752
 ,-0.00001002,-0.00000590,-0.00000510,0.00000960,-0.00000553,-0.0000112
 8,-0.00000405,0.00000224,-0.00000111,-0.00001179,0.00000510,0.00000739
 ,0.00000216,-0.00000191,-0.00000622,0.00000370,0.00000398,0.00000652,0
 .00001264\\\@
 The archive entry for this job was punched.


 ... A MOLECULAR SYSTEM ... (PASSES) ... FROM ONE STATE OF EQUILIBRIUM 
 TO ANOTHER ... BY MEANS OF ALL POSSIBLE INTERMEDIATE PATHS, 
 BUT THE PATH MOST ECONOMICAL OF ENERGY WILL BE THE MORE OFTEN TRAVELED.

                      -- HENRY EYRING, 1945
 Job cpu time:       0 days  0 hours  6 minutes 24.9 seconds.
 Elapsed time:       0 days  0 hours  0 minutes 32.6 seconds.
 File lengths (MBytes):  RWF=     62 Int=      0 D2E=      0 Chk=      6 Scr=      1
 Normal termination of Gaussian 16 at Sat Dec 30 20:58:26 2023.
