Unloading slurm/anatra/current
  ERROR: No such file or directory on
    '/cm/local/modulefiles/slurm/anatra/current'
environment: line 0: unalias: gv: not found
environment: line 0: unalias: sl: not found
 Entering Gaussian System, Link 0=g16
 Initial command:
 /apps/gaussian/g16/C.01/g16/l1.exe "/local/jobs/1150834/Gau-1292337.inp" -scrdir="/local/jobs/1150834/"
 Entering Link 1 = /apps/gaussian/g16/C.01/g16/l1.exe PID=   1292340.
  
 Copyright (c) 1988-2019, Gaussian, Inc.  All Rights Reserved.
  
 This is part of the Gaussian(R) 16 program.  It is based on
 the Gaussian(R) 09 system (copyright 2009, Gaussian, Inc.),
 the Gaussian(R) 03 system (copyright 2003, Gaussian, Inc.),
 the Gaussian(R) 98 system (copyright 1998, Gaussian, Inc.),
 the Gaussian(R) 94 system (copyright 1995, Gaussian, Inc.),
 the Gaussian 92(TM) system (copyright 1992, Gaussian, Inc.),
 the Gaussian 90(TM) system (copyright 1990, Gaussian, Inc.),
 the Gaussian 88(TM) system (copyright 1988, Gaussian, Inc.),
 the Gaussian 86(TM) system (copyright 1986, Carnegie Mellon
 University), and the Gaussian 82(TM) system (copyright 1983,
 Carnegie Mellon University). Gaussian is a federally registered
 trademark of Gaussian, Inc.
  
 This software contains proprietary and confidential information,
 including trade secrets, belonging to Gaussian, Inc.
  
 This software is provided under written license and may be
 used, copied, transmitted, or stored only in accord with that
 written license.
  
 The following legend is applicable only to US Government
 contracts under FAR:
  
                    RESTRICTED RIGHTS LEGEND
  
 Use, reproduction and disclosure by the US Government is
 subject to restrictions as set forth in subparagraphs (a)
 and (c) of the Commercial Computer Software - Restricted
 Rights clause in FAR 52.227-19.
  
 Gaussian, Inc.
 340 Quinnipiac St., Bldg. 40, Wallingford CT 06492
  
  
 ---------------------------------------------------------------
 Warning -- This program may not be used in any manner that
 competes with the business of Gaussian, Inc. or will provide
 assistance to any competitor of Gaussian, Inc.  The licensee
 of this program is prohibited from giving any competitor of
 Gaussian, Inc. access to this program.  By using this program,
 the user acknowledges that Gaussian, Inc. is engaged in the
 business of creating and licensing software in the field of
 computational chemistry and represents and warrants to the
 licensee that it is not a competitor of Gaussian, Inc. and that
 it will not use this program in any manner prohibited above.
 ---------------------------------------------------------------
  

 Cite this work as:
 Gaussian 16, Revision C.01,
 M. J. Frisch, G. W. Trucks, H. B. Schlegel, G. E. Scuseria, 
 M. A. Robb, J. R. Cheeseman, G. Scalmani, V. Barone, 
 G. A. Petersson, H. Nakatsuji, X. Li, M. Caricato, A. V. Marenich, 
 J. Bloino, B. G. Janesko, R. Gomperts, B. Mennucci, H. P. Hratchian, 
 J. V. Ortiz, A. F. Izmaylov, J. L. Sonnenberg, D. Williams-Young, 
 F. Ding, F. Lipparini, F. Egidi, J. Goings, B. Peng, A. Petrone, 
 T. Henderson, D. Ranasinghe, V. G. Zakrzewski, J. Gao, N. Rega, 
 G. Zheng, W. Liang, M. Hada, M. Ehara, K. Toyota, R. Fukuda, 
 J. Hasegawa, M. Ishida, T. Nakajima, Y. Honda, O. Kitao, H. Nakai, 
 T. Vreven, K. Throssell, J. A. Montgomery, Jr., J. E. Peralta, 
 F. Ogliaro, M. J. Bearpark, J. J. Heyd, E. N. Brothers, K. N. Kudin, 
 V. N. Staroverov, T. A. Keith, R. Kobayashi, J. Normand, 
 K. Raghavachari, A. P. Rendell, J. C. Burant, S. S. Iyengar, 
 J. Tomasi, M. Cossi, J. M. Millam, M. Klene, C. Adamo, R. Cammi, 
 J. W. Ochterski, R. L. Martin, K. Morokuma, O. Farkas, 
 J. B. Foresman, and D. J. Fox, Gaussian, Inc., Wallingford CT, 2019.
 
 ******************************************
 Gaussian 16:  ES64L-G16RevC.01  3-Jul-2019
                19-Dec-2023 
 ******************************************
 %chk=TS-249_hf.chk
 ----------------------------------------------------------------------
 # wb97xd def2svp geom=allchk scrf=(iefpcm,solvent=toluene) opt=(readfc
 ,ts,noeigen,maxcycles=50,maxstep=10)
 ----------------------------------------------------------------------
 1/5=1,6=50,8=10,10=3,11=1,18=20,26=3,29=7,38=1/1,3;
 2/9=110,12=2,40=1/2;
 3/5=43,7=101,11=2,14=-4,25=1,30=1,70=2201,71=1,72=13,74=-58/1,2,3;
 4//1;
 5/5=2,38=5,53=13/2;
 6/7=2,8=2,9=2,10=2,28=1/1;
 7//1,2,3,16;
 1/5=1,6=50,8=10,11=1,18=20,26=3/3(2);
 2/9=110/2;
 99//99;
 2/9=110/2;
 3/5=43,7=101,11=2,14=-2,25=1,30=1,70=2205,71=1,72=13,74=-58/1,2,3;
 4/5=5,16=3,69=1/1;
 5/5=2,38=5,53=13/2;
 7//1,2,3,16;
 1/5=1,6=50,8=10,11=1,18=20,26=3/3(-5);
 2/9=110/2;
 6/7=2,8=2,9=2,10=2,19=2,28=1/1;
 99/9=1/99;
 Structure from the checkpoint file:  "TS-249_hf.chk"
 ----------
 TS-249.out
 ----------
 Charge =  0 Multiplicity = 1
 Redundant internal coordinates found in file.  (old form).
 C,0,-0.98025,0.69195,-0.20894
 C,0,-1.92168,-0.31,0.32291
 O,0,-3.01226,-0.50219,-0.2006
 C,0,0.22829,0.86754,0.36619
 C,0,2.98171,-0.36432,0.09422
 H,0,3.0227,-0.73989,1.12039
 H,0,3.50996,-1.0641,-0.55969
 H,0,3.48667,0.6048,0.05611
 N,0,1.58522,-0.22082,-0.33301
 H,0,1.18839,-1.16551,-0.35932
 H,0,1.60848,0.04987,-1.32227
 H,0,0.80126,1.75285,0.06792
 H,0,0.42254,0.43147,1.35258
 H,0,-1.29964,1.25724,-1.0751
 H,0,-1.5872,-0.87442,1.20893
 Recover connectivity data from disk.

 GradGradGradGradGradGradGradGradGradGradGradGradGradGradGradGradGradGrad
 Berny optimization.
 Initialization pass.
 Force constant matrix read from checkpoint file:
 "TS-249_hf.chk"
                           ----------------------------
                           !    Initial Parameters    !
                           ! (Angstroms and Degrees)  !
 --------------------------                            --------------------------
 ! Name  Definition              Value          Derivative Info.                !
 --------------------------------------------------------------------------------
 ! R1    R(1,2)                  1.4741         D2E/DX2 =    0.3245             !
 ! R2    R(1,4)                  1.3499         D2E/DX2 =    0.6087             !
 ! R3    R(1,14)                 1.0825         D2E/DX2 =    0.3839             !
 ! R4    R(2,3)                  1.2249         D2E/DX2 =    0.8228             !
 ! R5    R(2,15)                 1.1025         D2E/DX2 =    0.3358             !
 ! R6    R(4,9)                  1.8747         D2E/DX2 =    0.0196             !
 ! R7    R(4,12)                 1.0959         D2E/DX2 =    0.3512             !
 ! R8    R(4,13)                 1.0958         D2E/DX2 =    0.3512             !
 ! R9    R(5,6)                  1.0935         D2E/DX2 =    0.3585             !
 ! R10   R(5,7)                  1.0938         D2E/DX2 =    0.3537             !
 ! R11   R(5,8)                  1.0934         D2E/DX2 =    0.3584             !
 ! R12   R(5,9)                  1.4674         D2E/DX2 =    0.3604             !
 ! R13   R(9,10)                 1.025          D2E/DX2 =    0.4387             !
 ! R14   R(9,11)                 1.0259         D2E/DX2 =    0.436              !
 ! A1    A(2,1,4)              120.4284         D2E/DX2 =    0.1294             !
 ! A2    A(2,1,14)             117.0776         D2E/DX2 =    0.0962             !
 ! A3    A(4,1,14)             122.4892         D2E/DX2 =    0.0999             !
 ! A4    A(1,2,3)              121.4029         D2E/DX2 =    0.1735             !
 ! A5    A(1,2,15)             116.3699         D2E/DX2 =    0.1149             !
 ! A6    A(3,2,15)             122.2266         D2E/DX2 =    0.1363             !
 ! A7    A(1,4,9)              114.4307         D2E/DX2 =    0.1374             !
 ! A8    A(1,4,12)             117.2067         D2E/DX2 =    0.0318             !
 ! A9    A(1,4,13)             119.37           D2E/DX2 =    0.0322             !
 ! A10   A(9,4,12)              89.3727         D2E/DX2 =    0.0653             !
 ! A11   A(9,4,13)              88.6472         D2E/DX2 =    0.0668             !
 ! A12   A(12,4,13)            118.2791         D2E/DX2 =    0.0196             !
 ! A13   A(6,5,7)              108.8561         D2E/DX2 =    0.0626             !
 ! A14   A(6,5,8)              108.6508         D2E/DX2 =    0.0617             !
 ! A15   A(6,5,9)              110.0278         D2E/DX2 =    0.1391             !
 ! A16   A(7,5,8)              108.8547         D2E/DX2 =    0.0626             !
 ! A17   A(7,5,9)              110.3726         D2E/DX2 =    0.1415             !
 ! A18   A(8,5,9)              110.0394         D2E/DX2 =    0.1385             !
 ! A19   A(4,9,5)              129.5684         D2E/DX2 =    0.0433             !
 ! A20   A(4,9,10)             105.3319         D2E/DX2 =    0.0373             !
 ! A21   A(4,9,11)             102.8777         D2E/DX2 =    0.0372             !
 ! A22   A(5,9,10)             106.6058         D2E/DX2 =    0.0581             !
 ! A23   A(5,9,11)             106.5574         D2E/DX2 =    0.0555             !
 ! A24   A(10,9,11)            103.1331         D2E/DX2 =    0.0163             !
 ! D1    D(4,1,2,3)           -178.5729         D2E/DX2 =    0.0307             !
 ! D2    D(4,1,2,15)             1.151          D2E/DX2 =    0.0285             !
 ! D3    D(14,1,2,3)             0.6526         D2E/DX2 =    0.0318             !
 ! D4    D(14,1,2,15)         -179.6235         D2E/DX2 =    0.0295             !
 ! D5    D(2,1,4,9)             89.4706         D2E/DX2 =    0.0175             !
 ! D6    D(2,1,4,12)          -167.82           D2E/DX2 =    0.0226             !
 ! D7    D(2,1,4,13)           -13.5851         D2E/DX2 =    0.0205             !
 ! D8    D(14,1,4,9)           -89.7119         D2E/DX2 =    0.0171             !
 ! D9    D(14,1,4,12)           12.9975         D2E/DX2 =    0.0206             !
 ! D10   D(14,1,4,13)          167.2324         D2E/DX2 =    0.0224             !
 ! D11   D(1,4,9,5)           -175.7245         D2E/DX2 =    0.0127             !
 ! D12   D(1,4,9,10)           -48.0647         D2E/DX2 =    0.0141             !
 ! D13   D(1,4,9,11)            59.6548         D2E/DX2 =    0.0145             !
 ! D14   D(12,4,9,5)            64.4592         D2E/DX2 =    0.0117             !
 ! D15   D(12,4,9,10)         -167.881          D2E/DX2 =    0.0133             !
 ! D16   D(12,4,9,11)          -60.1615         D2E/DX2 =    0.0134             !
 ! D17   D(13,4,9,5)           -53.8472         D2E/DX2 =    0.0118             !
 ! D18   D(13,4,9,10)           73.8126         D2E/DX2 =    0.0131             !
 ! D19   D(13,4,9,11)         -178.4679         D2E/DX2 =    0.0137             !
 ! D20   D(6,5,9,4)             61.8552         D2E/DX2 =    0.0108             !
 ! D21   D(6,5,9,10)           -65.3281         D2E/DX2 =    0.0145             !
 ! D22   D(6,5,9,11)          -174.9628         D2E/DX2 =    0.0143             !
 ! D23   D(7,5,9,4)           -177.9916         D2E/DX2 =    0.0107             !
 ! D24   D(7,5,9,10)            54.8251         D2E/DX2 =    0.0143             !
 ! D25   D(7,5,9,11)           -54.8096         D2E/DX2 =    0.0145             !
 ! D26   D(8,5,9,4)            -57.8328         D2E/DX2 =    0.0108             !
 ! D27   D(8,5,9,10)           174.9839         D2E/DX2 =    0.0141             !
 ! D28   D(8,5,9,11)            65.3492         D2E/DX2 =    0.0148             !
 --------------------------------------------------------------------------------
 Trust Radius=1.00D-01 FncErr=1.00D-07 GrdErr=1.00D-06 EigMax=2.50D+02 EigMin=1.00D-04
 Number of steps in this run=     50 maximum allowed number of steps=    100.
 Search for a saddle point of order  1.
 GradGradGradGradGradGradGradGradGradGradGradGradGradGradGradGradGradGrad

                          Input orientation:                          
 ---------------------------------------------------------------------
 Center     Atomic      Atomic             Coordinates (Angstroms)
 Number     Number       Type             X           Y           Z
 ---------------------------------------------------------------------
      1          6           0       -0.980250    0.691950   -0.208940
      2          6           0       -1.921680   -0.310000    0.322910
      3          8           0       -3.012260   -0.502190   -0.200600
      4          6           0        0.228290    0.867540    0.366190
      5          6           0        2.981710   -0.364320    0.094220
      6          1           0        3.022700   -0.739890    1.120390
      7          1           0        3.509960   -1.064100   -0.559690
      8          1           0        3.486670    0.604800    0.056110
      9          7           0        1.585220   -0.220820   -0.333010
     10          1           0        1.188390   -1.165510   -0.359320
     11          1           0        1.608480    0.049870   -1.322270
     12          1           0        0.801260    1.752850    0.067920
     13          1           0        0.422540    0.431470    1.352580
     14          1           0       -1.299640    1.257240   -1.075100
     15          1           0       -1.587200   -0.874420    1.208930
 ---------------------------------------------------------------------
                    Distance matrix (angstroms):
                    1          2          3          4          5
     1  C    0.000000
     2  C    1.474130   0.000000
     3  O    2.356927   1.224894   0.000000
     4  C    1.349880   2.451702   3.563506   0.000000
     5  C    4.111537   4.909021   6.002800   3.028658   0.000000
     6  H    4.454312   5.026696   6.182415   3.310797   1.093507
     7  H    4.834121   5.554310   6.556222   3.918909   1.093773
     8  H    4.475625   5.491656   6.597531   3.283629   1.093449
     9  N    2.725835   3.568828   4.607985   1.874745   1.467413
    10  H    2.859331   3.296949   4.255660   2.362509   2.015837
    11  H    2.890206   3.911285   4.786873   2.329035   2.015876
    12  H    2.091874   3.425605   4.438496   1.095917   3.039319
    13  H    2.115187   2.665589   3.883547   1.095835   2.960760
    14  H    1.082495   2.190344   2.606417   2.136294   4.725116
    15  H    2.198240   1.102487   2.038658   2.653420   4.730509
                    6          7          8          9         10
     6  H    0.000000
     7  H    1.779102   0.000000
     8  H    1.776556   1.779039   0.000000
     9  N    2.109065   2.113558   2.109164   0.000000
    10  H    2.394867   2.332406   2.930643   1.024990   0.000000
    11  H    2.930926   2.331970   2.394885   1.025890   1.606517
    12  H    3.500892   3.958050   2.920545   2.161183   2.974765
    13  H    2.861263   3.927552   3.331632   2.149074   2.463224
    14  H    5.243217   5.365307   4.961258   3.325323   3.545751
    15  H    4.612712   5.398614   5.409366   3.587342   3.201256
                   11         12         13         14         15
    11  H    0.000000
    12  H    2.341874   0.000000
    13  H    2.950745   1.881442   0.000000
    14  H    3.158480   2.442520   3.088921   0.000000
    15  H    4.180150   3.729503   2.401050   3.137429   0.000000
 Stoichiometry    C4H9NO
 Framework group  C1[X(C4H9NO)]
 Deg. of freedom    39
 Full point group                 C1      NOp   1
 Largest Abelian subgroup         C1      NOp   1
 Largest concise Abelian subgroup C1      NOp   1
                         Standard orientation:                         
 ---------------------------------------------------------------------
 Center     Atomic      Atomic             Coordinates (Angstroms)
 Number     Number       Type             X           Y           Z
 ---------------------------------------------------------------------
      1          6           0       -0.980252    0.691948   -0.208939
      2          6           0       -1.921681   -0.310003    0.322911
      3          8           0       -3.012260   -0.502195   -0.200599
      4          6           0        0.228288    0.867539    0.366191
      5          6           0        2.981710   -0.364318    0.094221
      6          1           0        3.022700   -0.739888    1.120391
      7          1           0        3.509960   -1.064098   -0.559689
      8          1           0        3.486669    0.604802    0.056111
      9          7           0        1.585219   -0.220820   -0.333009
     10          1           0        1.188390   -1.165510   -0.359319
     11          1           0        1.608479    0.049870   -1.322269
     12          1           0        0.801257    1.752849    0.067921
     13          1           0        0.422539    0.431469    1.352581
     14          1           0       -1.299642    1.257237   -1.075099
     15          1           0       -1.587200   -0.874423    1.208931
 ---------------------------------------------------------------------
 Rotational constants (GHZ):          11.2493120           1.2678582           1.2133754
 Standard basis: def2SVP (5D, 7F)
 There are   135 symmetry adapted cartesian basis functions of A   symmetry.
 There are   129 symmetry adapted basis functions of A   symmetry.
   129 basis functions,   213 primitive gaussians,   135 cartesian basis functions
    24 alpha electrons       24 beta electrons
       nuclear repulsion energy       225.5433525727 Hartrees.
 NAtoms=   15 NActive=   15 NUniq=   15 SFac= 1.00D+00 NAtFMM=   60 NAOKFM=F Big=F
 Integral buffers will be    131072 words long.
 Raffenetti 2 integral format.
 Two-electron integral symmetry is turned on.
 Nuclear repulsion after empirical dispersion term =      225.5367160727 Hartrees.
 ------------------------------------------------------------------------------
 Polarizable Continuum Model (PCM)
 =================================
 Model                : PCM.
 Atomic radii         : UFF (Universal Force Field).
 Polarization charges : Total charges.
 Charge compensation  : None.
 Solution method      : On-the-fly selection.
 Cavity type          : Scaled VdW (van der Waals Surface) (Alpha=1.100).
 Cavity algorithm     : GePol (No added spheres)
                        Default sphere list used, NSphG=   15.
                        Lebedev-Laikov grids with approx.  5.0 points / Ang**2.
                        Smoothing algorithm: York/Karplus (Gamma=1.0000).
                        Polarization charges: spherical gaussians, with
                                              point-specific exponents (IZeta= 3).
                        Self-potential: point-specific (ISelfS= 7).
                        Self-field    : sphere-specific E.n sum rule (ISelfD= 2).
 1st derivatives      : Analytical E(r).r(x)/FMM algorithm (CHGder, D1EAlg=3).
                        Cavity 1st derivative terms included.
 Solvent              : Toluene, Eps=   2.374100 Eps(inf)=   2.238315
 ------------------------------------------------------------------------------
 Spheres list:
 ISph  on   Nord     Re0    Alpha      Xe            Ye            Ze
    1   C      1    1.9255  1.100     -0.980252      0.691948     -0.208939
    2   C      2    1.9255  1.100     -1.921681     -0.310003      0.322911
    3   O      3    1.7500  1.100     -3.012260     -0.502195     -0.200599
    4   C      4    1.9255  1.100      0.228288      0.867539      0.366191
    5   C      5    1.9255  1.100      2.981710     -0.364318      0.094221
    6   H      6    1.4430  1.100      3.022700     -0.739888      1.120391
    7   H      7    1.4430  1.100      3.509960     -1.064098     -0.559689
    8   H      8    1.4430  1.100      3.486669      0.604802      0.056111
    9   N      9    1.8300  1.100      1.585219     -0.220820     -0.333009
   10   H     10    1.4430  1.100      1.188390     -1.165510     -0.359319
   11   H     11    1.4430  1.100      1.608479      0.049870     -1.322269
   12   H     12    1.4430  1.100      0.801257      1.752849      0.067921
   13   H     13    1.4430  1.100      0.422539      0.431469      1.352581
   14   H     14    1.4430  1.100     -1.299642      1.257237     -1.075099
   15   H     15    1.4430  1.100     -1.587200     -0.874423      1.208931
 ------------------------------------------------------------------------------
 One-electron integrals computed using PRISM.
   1 Symmetry operations used in ECPInt.
 ECPInt:  NShTT=    2016 NPrTT=    7008 LenC2=    1982 LenP2D=    5672.
 LDataN:  DoStor=T MaxTD1= 4 Len=   56
 NBasis=   129 RedAO= T EigKep=  2.00D-03  NBF=   129
 NBsUse=   129 1.00D-06 EigRej= -1.00D+00 NBFU=   129
 ExpMin= 1.22D-01 ExpMax= 2.27D+03 ExpMxC= 3.41D+02 IAcc=3 IRadAn=         5 AccDes= 0.00D+00
 Harris functional with IExCor= 4639 and IRadAn=       5 diagonalized for initial guess.
 HarFok:  IExCor= 4639 AccDes= 0.00D+00 IRadAn=         5 IDoV= 1 UseB2=F ITyADJ=14
 ICtDFT=  3500011 ScaDFX=  1.000000  1.000000  1.000000  1.000000
 FoFCou: FMM=F IPFlag=           0 FMFlag=      100000 FMFlg1=           0
         NFxFlg=           0 DoJE=T BraDBF=F KetDBF=T FulRan=T
         wScrn=  0.000000 ICntrl=       500 IOpCl=  0 I1Cent=   200000004 NGrid=           0
         NMat0=    1 NMatS0=      1 NMatT0=    0 NMatD0=    1 NMtDS0=    0 NMtDT0=    0
 Petite list used in FoFCou.
 Keep R1 ints in memory in canonical form, NReq=73013140.
 Requested convergence on RMS density matrix=1.00D-08 within 128 cycles.
 Requested convergence on MAX density matrix=1.00D-06.
 Requested convergence on             energy=1.00D-06.
 No special actions if energy rises.
 Inv3:  Mode=1 IEnd=     4961388.
 Iteration    1 A*A^-1 deviation from unit magnitude is 2.44D-15 for    188.
 Iteration    1 A*A^-1 deviation from orthogonality  is 1.85D-15 for    928    457.
 Iteration    1 A^-1*A deviation from unit magnitude is 2.66D-15 for    188.
 Iteration    1 A^-1*A deviation from orthogonality  is 1.78D-15 for   1164    774.
 Error on total polarization charges =  0.00613
 SCF Done:  E(RwB97XD) =  -287.436588189     A.U. after   15 cycles
            NFock= 15  Conv=0.37D-08     -V/T= 2.0097

 **********************************************************************

            Population analysis using the SCF Density.

 **********************************************************************

 Orbital symmetries:
       Occupied  (A) (A) (A) (A) (A) (A) (A) (A) (A) (A) (A) (A)
                 (A) (A) (A) (A) (A) (A) (A) (A) (A) (A) (A) (A)
       Virtual   (A) (A) (A) (A) (A) (A) (A) (A) (A) (A) (A) (A)
                 (A) (A) (A) (A) (A) (A) (A) (A) (A) (A) (A) (A)
                 (A) (A) (A) (A) (A) (A) (A) (A) (A) (A) (A) (A)
                 (A) (A) (A) (A) (A) (A) (A) (A) (A) (A) (A) (A)
                 (A) (A) (A) (A) (A) (A) (A) (A) (A) (A) (A) (A)
                 (A) (A) (A) (A) (A) (A) (A) (A) (A) (A) (A) (A)
                 (A) (A) (A) (A) (A) (A) (A) (A) (A) (A) (A) (A)
                 (A) (A) (A) (A) (A) (A) (A) (A) (A) (A) (A) (A)
                 (A) (A) (A) (A) (A) (A) (A) (A) (A)
 The electronic state is 1-A.
 Alpha  occ. eigenvalues --  -19.19772 -14.49434 -10.34646 -10.34427 -10.32986
 Alpha  occ. eigenvalues --  -10.24571  -1.07923  -1.03364  -0.86199  -0.78541
 Alpha  occ. eigenvalues --   -0.70613  -0.63745  -0.62389  -0.57483  -0.54009
 Alpha  occ. eigenvalues --   -0.53322  -0.51841  -0.48612  -0.46317  -0.45212
 Alpha  occ. eigenvalues --   -0.44065  -0.42300  -0.29825  -0.26577
 Alpha virt. eigenvalues --    0.07594   0.10808   0.16008   0.16419   0.17342
 Alpha virt. eigenvalues --    0.17846   0.20031   0.20577   0.22180   0.23567
 Alpha virt. eigenvalues --    0.25682   0.26648   0.33158   0.38458   0.42360
 Alpha virt. eigenvalues --    0.45934   0.50184   0.52114   0.52653   0.57562
 Alpha virt. eigenvalues --    0.60192   0.61901   0.63775   0.66857   0.69413
 Alpha virt. eigenvalues --    0.69819   0.71060   0.73172   0.73772   0.75418
 Alpha virt. eigenvalues --    0.75953   0.77332   0.78782   0.79657   0.81425
 Alpha virt. eigenvalues --    0.83685   0.85444   0.89231   0.93761   0.95158
 Alpha virt. eigenvalues --    0.97015   1.07724   1.11002   1.14290   1.18297
 Alpha virt. eigenvalues --    1.20746   1.26286   1.29612   1.34897   1.38538
 Alpha virt. eigenvalues --    1.40631   1.47375   1.48427   1.56178   1.58059
 Alpha virt. eigenvalues --    1.58924   1.61090   1.73002   1.77297   1.77957
 Alpha virt. eigenvalues --    1.82282   1.83197   1.85146   1.86104   1.86885
 Alpha virt. eigenvalues --    1.88531   1.91011   1.93266   1.96277   2.00799
 Alpha virt. eigenvalues --    2.02656   2.03785   2.10898   2.13799   2.15474
 Alpha virt. eigenvalues --    2.17291   2.23922   2.27961   2.31384   2.33841
 Alpha virt. eigenvalues --    2.38857   2.39792   2.44596   2.50874   2.55901
 Alpha virt. eigenvalues --    2.62063   2.64065   2.71854   2.72479   2.75226
 Alpha virt. eigenvalues --    2.80029   2.84382   2.85498   2.91306   2.93487
 Alpha virt. eigenvalues --    3.01219   3.04454   3.04690   3.08144   3.25832
 Alpha virt. eigenvalues --    3.26816   3.39325   3.48937   3.57353   3.73185
          Condensed to atoms (all electrons):
               1          2          3          4          5          6
     1  C    5.529670   0.323429  -0.113672   0.375171   0.002690   0.000170
     2  C    0.323429   4.507579   0.643557  -0.001048   0.000068  -0.000020
     3  O   -0.113672   0.643557   7.837811   0.008075  -0.000000   0.000000
     4  C    0.375171  -0.001048   0.008075   4.753116  -0.001220  -0.001402
     5  C    0.002690   0.000068  -0.000000  -0.001220   4.509239   0.405840
     6  H    0.000170  -0.000020   0.000000  -0.001402   0.405840   0.589671
     7  H   -0.000318  -0.000009   0.000000   0.000919   0.406955  -0.022809
     8  H    0.000232   0.000010  -0.000000  -0.001495   0.405893  -0.018054
     9  N   -0.067548  -0.004006   0.000053  -0.010805   0.300594  -0.025630
    10  H    0.007790   0.002655  -0.000154   0.001002  -0.020352  -0.005316
    11  H    0.005834  -0.000360  -0.000017  -0.001483  -0.022079   0.007450
    12  H    0.001757   0.006306  -0.000203   0.374113   0.001011  -0.000453
    13  H   -0.025515  -0.013752   0.000186   0.398555   0.000911   0.004039
    14  H    0.383320  -0.026119   0.007578  -0.036108  -0.000052   0.000010
    15  H   -0.156626   0.401984  -0.041230   0.021081  -0.000027   0.000002
               7          8          9         10         11         12
     1  C   -0.000318   0.000232  -0.067548   0.007790   0.005834   0.001757
     2  C   -0.000009   0.000010  -0.004006   0.002655  -0.000360   0.006306
     3  O    0.000000  -0.000000   0.000053  -0.000154  -0.000017  -0.000203
     4  C    0.000919  -0.001495  -0.010805   0.001002  -0.001483   0.374113
     5  C    0.406955   0.405893   0.300594  -0.020352  -0.022079   0.001011
     6  H   -0.022809  -0.018054  -0.025630  -0.005316   0.007450  -0.000453
     7  H    0.609395  -0.022669  -0.013701  -0.009746  -0.009293  -0.000376
     8  H   -0.022669   0.590713  -0.025134   0.007448  -0.005614   0.003723
     9  N   -0.013701  -0.025134   6.514355   0.323126   0.328213  -0.038653
    10  H   -0.009746   0.007448   0.323126   0.550839  -0.012989   0.004457
    11  H   -0.009293  -0.005614   0.328213  -0.012989   0.551186  -0.003454
    12  H   -0.000376   0.003723  -0.038653   0.004457  -0.003454   0.655434
    13  H   -0.000341  -0.000537  -0.038651  -0.001782   0.004632  -0.029190
    14  H    0.000001  -0.000016  -0.000770  -0.000184   0.001511  -0.013688
    15  H   -0.000001  -0.000001  -0.000562   0.000479   0.000061  -0.000765
              13         14         15
     1  C   -0.025515   0.383320  -0.156626
     2  C   -0.013752  -0.026119   0.401984
     3  O    0.000186   0.007578  -0.041230
     4  C    0.398555  -0.036108   0.021081
     5  C    0.000911  -0.000052  -0.000027
     6  H    0.004039   0.000010   0.000002
     7  H   -0.000341   0.000001  -0.000001
     8  H   -0.000537  -0.000016  -0.000001
     9  N   -0.038651  -0.000770  -0.000562
    10  H   -0.001782  -0.000184   0.000479
    11  H    0.004632   0.001511   0.000061
    12  H   -0.029190  -0.013688  -0.000765
    13  H    0.645886   0.007884   0.008839
    14  H    0.007884   0.662212   0.009529
    15  H    0.008839   0.009529   0.786600
 Mulliken charges:
               1
     1  C   -0.266383
     2  C    0.159725
     3  O   -0.341984
     4  C    0.121531
     5  C    0.010528
     6  H    0.066502
     7  H    0.061992
     8  H    0.065500
     9  N   -0.240883
    10  H    0.152727
    11  H    0.156402
    12  H    0.039980
    13  H    0.038836
    14  H    0.004892
    15  H   -0.029364
 Sum of Mulliken charges =  -0.00000
 Mulliken charges with hydrogens summed into heavy atoms:
               1
     1  C   -0.261491
     2  C    0.130361
     3  O   -0.341984
     4  C    0.200347
     5  C    0.204521
     9  N    0.068246
 Electronic spatial extent (au):  <R**2>=            964.5898
 Charge=             -0.0000 electrons
 Dipole moment (field-independent basis, Debye):
    X=              9.5193    Y=             -0.6000    Z=             -0.0643  Tot=              9.5384
 Quadrupole moment (field-independent basis, Debye-Ang):
   XX=            -47.3290   YY=            -36.6517   ZZ=            -35.3172
   XY=             -3.4338   XZ=             -3.7437   YZ=             -1.1685
 Traceless Quadrupole moment (field-independent basis, Debye-Ang):
   XX=             -7.5631   YY=              3.1143   ZZ=              4.4488
   XY=             -3.4338   XZ=             -3.7437   YZ=             -1.1685
 Octapole moment (field-independent basis, Debye-Ang**2):
  XXX=             84.2795  YYY=             -5.9597  ZZZ=             -3.5969  XYY=              7.0699
  XXY=              5.8313  XXZ=              2.6169  XZZ=              4.2140  YZZ=             -1.8477
  YYZ=             -2.7524  XYZ=              1.7473
 Hexadecapole moment (field-independent basis, Debye-Ang**3):
 XXXX=          -1134.8248 YYYY=           -128.5040 ZZZZ=            -77.8814 XXXY=            -36.6967
 XXXZ=            -21.9827 YYYX=              3.7107 YYYZ=             -1.0972 ZZZX=             -3.0907
 ZZZY=             -1.7743 XXYY=           -189.8666 XXZZ=           -174.4615 YYZZ=            -34.9982
 XXYZ=             -3.1997 YYXZ=             -0.4341 ZZXY=             -0.8725
 N-N= 2.255367160727D+02 E-N=-1.120397854416D+03  KE= 2.846628025073D+02
   1 Symmetry operations used in ECPInt.
 ECPInt:  NShTT=    2016 NPrTT=    7008 LenC2=    1982 LenP2D=    5672.
 LDataN:  DoStor=T MaxTD1= 5 Len=  102
 D1PCM: PCM CHGder 1st derivatives, ID1Alg=3 FixD1E=F DoIter=F DoCFld=F I1PDM=0.
 Calling FoFJK, ICntrl=      2127 FMM=F ISym2X=0 I1Cent= 0 IOpClX= 0 NMat=1 NMatS=1 NMatT=0.
 ***** Axes restored to original set *****
 -------------------------------------------------------------------
 Center     Atomic                   Forces (Hartrees/Bohr)
 Number     Number              X              Y              Z
 -------------------------------------------------------------------
      1        6          -0.037729232   -0.030307589    0.010335298
      2        6           0.002129946    0.033470524   -0.041196816
      3        8           0.000310047   -0.009172956    0.012117961
      4        6           0.024972043    0.016338367    0.017841362
      5        6          -0.003344916    0.004470194    0.003817985
      6        1          -0.000171396   -0.000645348    0.003421585
      7        1           0.004800944   -0.002429915   -0.000975117
      8        1           0.001231515    0.003276684    0.000309635
      9        7           0.022134777   -0.028166163   -0.029310878
     10        1          -0.005763698    0.003510525    0.001483644
     11        1          -0.004644250    0.000778785    0.002282920
     12        1          -0.001333375    0.003260179    0.010985517
     13        1          -0.003304951    0.009005781    0.004340266
     14        1          -0.002153134    0.002731711   -0.006235519
     15        1           0.002865680   -0.006120780    0.010782155
 -------------------------------------------------------------------
 Cartesian Forces:  Max     0.041196816 RMS     0.014518461

 GradGradGradGradGradGradGradGradGradGradGradGradGradGradGradGradGradGrad
 Berny optimization.
 FormGI is forming the generalized inverse of G from B-inverse, IUseBI=4.
 Internal  Forces:  Max     0.038227012 RMS     0.008495440
 Search for a saddle point.
 Step number   1 out of a maximum of   50
 All quantities printed in internal units (Hartrees-Bohrs-Radians)
 Swapping is turned off.
 Second derivative matrix not updated -- first step.
 ITU=  0
     Eigenvalues ---   -0.04639   0.00088   0.00179   0.01087   0.01321
     Eigenvalues ---    0.01452   0.01875   0.03060   0.05178   0.05664
     Eigenvalues ---    0.05701   0.05728   0.05882   0.09947   0.10432
     Eigenvalues ---    0.10560   0.10931   0.11955   0.12591   0.15538
     Eigenvalues ---    0.15610   0.18426   0.19841   0.20467   0.21611
     Eigenvalues ---    0.25727   0.32919   0.34067   0.35144   0.35160
     Eigenvalues ---    0.35412   0.35574   0.36148   0.38659   0.39281
     Eigenvalues ---    0.43674   0.43945   0.63139   0.84566
 Eigenvectors required to have negative eigenvalues:
                          R6        A19       A11       D6        A10
   1                    0.82870   0.23053  -0.18597  -0.18352  -0.17261
                          D10       D9        D7        R2        R1
   1                    0.17041  -0.16185   0.14873  -0.13736   0.10878
 RFO step:  Lambda0=2.850896864D-04 Lambda=-1.88992056D-02.
 Linear search not attempted -- option 19 set.
 Maximum step size (   0.100) exceeded in Quadratic search.
    -- Step size scaled by   0.329
 Iteration  1 RMS(Cart)=  0.02788144 RMS(Int)=  0.00053233
 Iteration  2 RMS(Cart)=  0.00087942 RMS(Int)=  0.00014377
 Iteration  3 RMS(Cart)=  0.00000023 RMS(Int)=  0.00014377
 Variable       Old X    -DE/DX   Delta X   Delta X   Delta X     New X
                                 (Linear)    (Quad)   (Total)
    R1        2.78570  -0.02235   0.00000  -0.02966  -0.02966   2.75604
    R2        2.55090   0.03823   0.00000   0.02230   0.02230   2.57320
    R3        2.04562   0.00705   0.00000   0.00636   0.00636   2.05198
    R4        2.31471  -0.00402   0.00000  -0.00026  -0.00026   2.31445
    R5        2.08340   0.01267   0.00000   0.01428   0.01428   2.09768
    R6        3.54275   0.02854   0.00000   0.02584   0.02584   3.56859
    R7        2.07098  -0.00105   0.00000  -0.00126  -0.00126   2.06973
    R8        2.07083  -0.00026   0.00000   0.00026   0.00026   2.07109
    R9        2.06643   0.00343   0.00000   0.00293   0.00293   2.06936
   R10        2.06693   0.00446   0.00000   0.00392   0.00392   2.07085
   R11        2.06632   0.00346   0.00000   0.00298   0.00298   2.06929
   R12        2.77301   0.00385   0.00000  -0.00467  -0.00467   2.76834
   R13        1.93695  -0.00104   0.00000  -0.00187  -0.00187   1.93508
   R14        1.93865  -0.00210   0.00000  -0.00244  -0.00244   1.93621
    A1        2.10187   0.00384   0.00000   0.00036   0.00036   2.10223
    A2        2.04339  -0.00246   0.00000   0.00701   0.00701   2.05040
    A3        2.13784  -0.00139   0.00000  -0.00740  -0.00740   2.13044
    A4        2.11888   0.02214   0.00000   0.03045   0.03045   2.14933
    A5        2.03104  -0.01038   0.00000  -0.01565  -0.01566   2.01538
    A6        2.13326  -0.01176   0.00000  -0.01478  -0.01478   2.11848
    A7        1.99719  -0.01318   0.00000  -0.01215  -0.01213   1.98506
    A8        2.04564   0.00270   0.00000   0.00873   0.00874   2.05439
    A9        2.08340  -0.00170   0.00000  -0.00388  -0.00388   2.07952
   A10        1.55985   0.00778   0.00000   0.01571   0.01574   1.57559
   A11        1.54719   0.01117   0.00000   0.02033   0.02035   1.56753
   A12        2.06436  -0.00380   0.00000  -0.01701  -0.01734   2.04702
   A13        1.89990  -0.00137   0.00000  -0.00121  -0.00121   1.89869
   A14        1.89631   0.00006   0.00000  -0.00108  -0.00110   1.89522
   A15        1.92035  -0.00128   0.00000  -0.00363  -0.00364   1.91671
   A16        1.89987  -0.00140   0.00000  -0.00134  -0.00133   1.89854
   A17        1.92637   0.00513   0.00000   0.01122   0.01123   1.93759
   A18        1.92055  -0.00122   0.00000  -0.00411  -0.00412   1.91643
   A19        2.26139  -0.01488   0.00000  -0.05814  -0.05816   2.20324
   A20        1.83839  -0.00040   0.00000   0.00188   0.00191   1.84029
   A21        1.79556   0.00163   0.00000   0.01150   0.01176   1.80731
   A22        1.86062   0.00960   0.00000   0.02585   0.02529   1.88591
   A23        1.85978   0.00754   0.00000   0.02272   0.02253   1.88231
   A24        1.80001  -0.00176   0.00000   0.00802   0.00758   1.80759
    D1       -3.11669  -0.00055   0.00000   0.00013   0.00013  -3.11655
    D2        0.02009   0.00109   0.00000   0.00406   0.00406   0.02415
    D3        0.01139  -0.00081   0.00000  -0.00200  -0.00200   0.00939
    D4       -3.13502   0.00083   0.00000   0.00193   0.00192  -3.13310
    D5        1.56156   0.00073   0.00000   0.00244   0.00245   1.56400
    D6       -2.92901   0.00385   0.00000   0.01975   0.01974  -2.90927
    D7       -0.23710  -0.00371   0.00000  -0.01324  -0.01323  -0.25034
    D8       -1.56577   0.00101   0.00000   0.00456   0.00457  -1.56120
    D9        0.22685   0.00413   0.00000   0.02188   0.02186   0.24871
   D10        2.91876  -0.00343   0.00000  -0.01111  -0.01111   2.90764
   D11       -3.06697   0.00108   0.00000   0.00555   0.00545  -3.06152
   D12       -0.83889   0.00156   0.00000  -0.00720  -0.00701  -0.84590
   D13        1.04117   0.00011   0.00000   0.00629   0.00621   1.04738
   D14        1.12502  -0.00272   0.00000  -0.00939  -0.00939   1.11564
   D15       -2.93008  -0.00223   0.00000  -0.02215  -0.02185  -2.95192
   D16       -1.05002  -0.00369   0.00000  -0.00865  -0.00863  -1.05864
   D17       -0.93981   0.00162   0.00000   0.00866   0.00844  -0.93137
   D18        1.28827   0.00211   0.00000  -0.00410  -0.00402   1.28426
   D19       -3.11485   0.00065   0.00000   0.00940   0.00920  -3.10565
   D20        1.07958  -0.00128   0.00000  -0.00850  -0.00852   1.07105
   D21       -1.14019   0.00214   0.00000   0.01396   0.01423  -1.12596
   D22       -3.05368  -0.00312   0.00000  -0.01559  -0.01583  -3.06951
   D23       -3.10654  -0.00054   0.00000  -0.00518  -0.00520  -3.11174
   D24        0.95688   0.00289   0.00000   0.01729   0.01756   0.97443
   D25       -0.95661  -0.00237   0.00000  -0.01226  -0.01251  -0.96911
   D26       -1.00937   0.00021   0.00000  -0.00232  -0.00235  -1.01172
   D27        3.05405   0.00364   0.00000   0.02014   0.02041   3.07445
   D28        1.14056  -0.00162   0.00000  -0.00940  -0.00966   1.13090
         Item               Value     Threshold  Converged?
 Maximum Force            0.038227     0.000450     NO 
 RMS     Force            0.008495     0.000300     NO 
 Maximum Displacement     0.078821     0.001800     NO 
 RMS     Displacement     0.028244     0.001200     NO 
 Predicted change in Energy=-5.233258D-03
 GradGradGradGradGradGradGradGradGradGradGradGradGradGradGradGradGradGrad

                          Input orientation:                          
 ---------------------------------------------------------------------
 Center     Atomic      Atomic             Coordinates (Angstroms)
 Number     Number       Type             X           Y           Z
 ---------------------------------------------------------------------
      1          6           0       -0.981186    0.691975   -0.207326
      2          6           0       -1.914885   -0.297274    0.318625
      3          8           0       -3.016653   -0.506439   -0.173699
      4          6           0        0.242534    0.859147    0.366028
      5          6           0        2.967744   -0.359204    0.098488
      6          1           0        2.980990   -0.725600    1.130348
      7          1           0        3.540454   -1.051280   -0.529143
      8          1           0        3.450264    0.623386    0.070768
      9          7           0        1.584601   -0.246324   -0.370799
     10          1           0        1.180084   -1.186717   -0.395452
     11          1           0        1.609182    0.030685   -1.356933
     12          1           0        0.817015    1.749748    0.089664
     13          1           0        0.432755    0.425252    1.354313
     14          1           0       -1.296267    1.268346   -1.071974
     15          1           0       -1.562443   -0.861230    1.207410
 ---------------------------------------------------------------------
                    Distance matrix (angstroms):
                    1          2          3          4          5
     1  C    0.000000
     2  C    1.458436   0.000000
     3  O    2.362298   1.224755   0.000000
     4  C    1.361680   2.448268   3.574693   0.000000
     5  C    4.097871   4.887982   5.992393   2.997120   0.000000
     6  H    4.415623   4.981160   6.141684   3.254958   1.095060
     7  H    4.856720   5.572070   6.589297   3.915014   1.095849
     8  H    4.440697   5.449209   6.569420   3.229906   1.095024
     9  N    2.736858   3.567115   4.612813   1.888419   1.464943
    10  H    2.869837   3.298462   4.257294   2.375797   2.030882
    11  H    2.910139   3.915879   4.804882   2.350036   2.028781
    12  H    2.107276   3.421404   4.456091   1.095252   3.012207
    13  H    2.123461   2.665728   3.886037   1.095973   2.935752
    14  H    1.085862   2.183489   2.629921   2.145508   4.711761
    15  H    2.179859   1.110045   2.036680   2.631646   4.690877
                    6          7          8          9         10
     6  H    0.000000
     7  H    1.781285   0.000000
     8  H    1.778395   1.781160   0.000000
     9  N    2.105481   2.120940   2.105250   0.000000
    10  H    2.404985   2.368029   2.940671   1.024002   0.000000
    11  H    2.939454   2.363407   2.403998   1.024597   1.609546
    12  H    3.448646   3.955476   2.864096   2.187583   2.998330
    13  H    2.805018   3.922416   3.285134   2.180316   2.493717
    14  H    5.207780   5.391586   4.924570   3.329456   3.552089
    15  H    4.546110   5.393634   5.350072   3.573897   3.193206
                   11         12         13         14         15
    11  H    0.000000
    12  H    2.382299   0.000000
    13  H    2.981698   1.871172   0.000000
    14  H    3.170906   2.459088   3.096320   0.000000
    15  H    4.174994   3.705183   2.378535   3.130741   0.000000
 Stoichiometry    C4H9NO
 Framework group  C1[X(C4H9NO)]
 Deg. of freedom    39
 Full point group                 C1      NOp   1
 Largest Abelian subgroup         C1      NOp   1
 Largest concise Abelian subgroup C1      NOp   1
                         Standard orientation:                         
 ---------------------------------------------------------------------
 Center     Atomic      Atomic             Coordinates (Angstroms)
 Number     Number       Type             X           Y           Z
 ---------------------------------------------------------------------
      1          6           0       -0.980567    0.691323   -0.220427
      2          6           0       -1.915958   -0.290874    0.315639
      3          8           0       -3.015626   -0.507509   -0.178145
      4          6           0        0.240743    0.867172    0.355466
      5          6           0        2.967552   -0.353476    0.116179
      6          1           0        2.976772   -0.705278    1.153149
      7          1           0        3.543108   -1.054049   -0.499303
      8          1           0        3.449748    0.628865    0.076558
      9          7           0        1.586275   -0.247913   -0.360253
     10          1           0        1.182275   -1.188761   -0.373278
     11          1           0        1.614736    0.015174   -1.350088
     12          1           0        0.815949    1.754072    0.068897
     13          1           0        0.427143    0.447352    1.350535
     14          1           0       -1.292391    1.255287   -1.094387
     15          1           0       -1.566876   -0.842065    1.213710
 ---------------------------------------------------------------------
 Rotational constants (GHZ):          11.1929300           1.2708147           1.2168879
 Standard basis: def2SVP (5D, 7F)
 There are   135 symmetry adapted cartesian basis functions of A   symmetry.
 There are   129 symmetry adapted basis functions of A   symmetry.
   129 basis functions,   213 primitive gaussians,   135 cartesian basis functions
    24 alpha electrons       24 beta electrons
       nuclear repulsion energy       225.4676118077 Hartrees.
 NAtoms=   15 NActive=   15 NUniq=   15 SFac= 1.00D+00 NAtFMM=   60 NAOKFM=F Big=F
 Integral buffers will be    131072 words long.
 Raffenetti 2 integral format.
 Two-electron integral symmetry is turned on.
 Nuclear repulsion after empirical dispersion term =      225.4609262438 Hartrees.
 ------------------------------------------------------------------------------
 Polarizable Continuum Model (PCM)
 =================================
 Model                : PCM.
 Atomic radii         : UFF (Universal Force Field).
 Polarization charges : Total charges.
 Charge compensation  : None.
 Solution method      : On-the-fly selection.
 Cavity type          : Scaled VdW (van der Waals Surface) (Alpha=1.100).
 Cavity algorithm     : GePol (No added spheres)
                        Default sphere list used, NSphG=   15.
                        Lebedev-Laikov grids with approx.  5.0 points / Ang**2.
                        Smoothing algorithm: York/Karplus (Gamma=1.0000).
                        Polarization charges: spherical gaussians, with
                                              point-specific exponents (IZeta= 3).
                        Self-potential: point-specific (ISelfS= 7).
                        Self-field    : sphere-specific E.n sum rule (ISelfD= 2).
 1st derivatives      : Analytical E(r).r(x)/FMM algorithm (CHGder, D1EAlg=3).
                        Cavity 1st derivative terms included.
 Solvent              : Toluene, Eps=   2.374100 Eps(inf)=   2.238315
 ------------------------------------------------------------------------------
 Spheres list:
 ISph  on   Nord     Re0    Alpha      Xe            Ye            Ze
    1   C      1    1.9255  1.100     -0.980567      0.691323     -0.220427
    2   C      2    1.9255  1.100     -1.915958     -0.290874      0.315639
    3   O      3    1.7500  1.100     -3.015626     -0.507509     -0.178145
    4   C      4    1.9255  1.100      0.240743      0.867172      0.355466
    5   C      5    1.9255  1.100      2.967552     -0.353476      0.116179
    6   H      6    1.4430  1.100      2.976772     -0.705278      1.153149
    7   H      7    1.4430  1.100      3.543108     -1.054049     -0.499303
    8   H      8    1.4430  1.100      3.449748      0.628865      0.076558
    9   N      9    1.8300  1.100      1.586275     -0.247913     -0.360253
   10   H     10    1.4430  1.100      1.182275     -1.188761     -0.373278
   11   H     11    1.4430  1.100      1.614736      0.015174     -1.350088
   12   H     12    1.4430  1.100      0.815949      1.754072      0.068897
   13   H     13    1.4430  1.100      0.427143      0.447352      1.350535
   14   H     14    1.4430  1.100     -1.292391      1.255287     -1.094387
   15   H     15    1.4430  1.100     -1.566876     -0.842065      1.213710
 ------------------------------------------------------------------------------
 One-electron integrals computed using PRISM.
   1 Symmetry operations used in ECPInt.
 ECPInt:  NShTT=    2016 NPrTT=    7008 LenC2=    1982 LenP2D=    5675.
 LDataN:  DoStor=T MaxTD1= 4 Len=   56
 NBasis=   129 RedAO= T EigKep=  2.06D-03  NBF=   129
 NBsUse=   129 1.00D-06 EigRej= -1.00D+00 NBFU=   129
 Initial guess from the checkpoint file:  "TS-249_hf.chk"
 B after Tr=    -0.000000   -0.000000    0.000000
         Rot=    0.999962    0.008746    0.000100    0.000417 Ang=   1.00 deg.
 ExpMin= 1.22D-01 ExpMax= 2.27D+03 ExpMxC= 3.41D+02 IAcc=3 IRadAn=         5 AccDes= 0.00D+00
 Harris functional with IExCor= 4639 and IRadAn=       5 diagonalized for initial guess.
 HarFok:  IExCor= 4639 AccDes= 0.00D+00 IRadAn=         5 IDoV= 1 UseB2=F ITyADJ=14
 ICtDFT=  3500011 ScaDFX=  1.000000  1.000000  1.000000  1.000000
 FoFCou: FMM=F IPFlag=           0 FMFlag=      100000 FMFlg1=           0
         NFxFlg=           0 DoJE=T BraDBF=F KetDBF=T FulRan=T
         wScrn=  0.000000 ICntrl=       500 IOpCl=  0 I1Cent=   200000004 NGrid=           0
         NMat0=    1 NMatS0=      1 NMatT0=    0 NMatD0=    1 NMtDS0=    0 NMtDT0=    0
 Petite list used in FoFCou.
 Keep R1 ints in memory in canonical form, NReq=73012940.
 Requested convergence on RMS density matrix=1.00D-08 within 128 cycles.
 Requested convergence on MAX density matrix=1.00D-06.
 Requested convergence on             energy=1.00D-06.
 No special actions if energy rises.
 Inv3:  Mode=1 IEnd=     4938267.
 Iteration    1 A*A^-1 deviation from unit magnitude is 2.55D-15 for    618.
 Iteration    1 A*A^-1 deviation from orthogonality  is 1.62D-15 for   1008    433.
 Iteration    1 A^-1*A deviation from unit magnitude is 2.44D-15 for    910.
 Iteration    1 A^-1*A deviation from orthogonality  is 1.42D-15 for    965    382.
 Error on total polarization charges =  0.00621
 SCF Done:  E(RwB97XD) =  -287.441882740     A.U. after   13 cycles
            NFock= 13  Conv=0.34D-08     -V/T= 2.0099
   1 Symmetry operations used in ECPInt.
 ECPInt:  NShTT=    2016 NPrTT=    7008 LenC2=    1982 LenP2D=    5675.
 LDataN:  DoStor=T MaxTD1= 5 Len=  102
 D1PCM: PCM CHGder 1st derivatives, ID1Alg=3 FixD1E=F DoIter=F DoCFld=F I1PDM=0.
 Calling FoFJK, ICntrl=      2127 FMM=F ISym2X=0 I1Cent= 0 IOpClX= 0 NMat=1 NMatS=1 NMatT=0.
 ***** Axes restored to original set *****
 -------------------------------------------------------------------
 Center     Atomic                   Forces (Hartrees/Bohr)
 Number     Number              X              Y              Z
 -------------------------------------------------------------------
      1        6          -0.025488559   -0.020384605    0.008148431
      2        6           0.000025957    0.023073291   -0.029338889
      3        8           0.000821550   -0.006476241    0.008897854
      4        6           0.016055650    0.011609185    0.011869752
      5        6          -0.002752337    0.003232334    0.002746833
      6        1          -0.000201333   -0.000340556    0.002422483
      7        1           0.003516252   -0.001585281   -0.000455879
      8        1           0.000731075    0.002348789    0.000320439
      9        7           0.017721692   -0.021881782   -0.023132207
     10        1          -0.004516937    0.002627475    0.001779270
     11        1          -0.003516321    0.001068250    0.001712324
     12        1          -0.000828437    0.002356378    0.008535352
     13        1          -0.002350472    0.006770643    0.003263792
     14        1          -0.001338012    0.001821196   -0.004389917
     15        1           0.002120232   -0.004239076    0.007620362
 -------------------------------------------------------------------
 Cartesian Forces:  Max     0.029338889 RMS     0.010385583

 GradGradGradGradGradGradGradGradGradGradGradGradGradGradGradGradGradGrad
 Berny optimization.
 FormGI is forming the generalized inverse of G from B-inverse, IUseBI=4.
 Internal  Forces:  Max     0.026019058 RMS     0.006076365
 Search for a saddle point.
 Step number   2 out of a maximum of   50
 All quantities printed in internal units (Hartrees-Bohrs-Radians)
 Swapping is turned off.
 Update second derivatives using D2CorX and points    1    2
 ITU=  0  0
     Eigenvalues ---   -0.04575   0.00089   0.00179   0.01084   0.01321
     Eigenvalues ---    0.01463   0.01876   0.02974   0.04963   0.05611
     Eigenvalues ---    0.05700   0.05724   0.05881   0.09712   0.10166
     Eigenvalues ---    0.10598   0.10831   0.11933   0.12508   0.15536
     Eigenvalues ---    0.15604   0.18434   0.19774   0.20465   0.21239
     Eigenvalues ---    0.25563   0.32931   0.34089   0.35144   0.35161
     Eigenvalues ---    0.35413   0.35574   0.36148   0.38664   0.39266
     Eigenvalues ---    0.43675   0.43945   0.63071   0.84548
 Eigenvectors required to have negative eigenvalues:
                          R6        A11       A19       A10       D10
   1                    0.86211  -0.18061   0.17247  -0.16810   0.16656
                          D6        D7        D9        R2        R1
   1                   -0.16575   0.13897  -0.13815  -0.13619   0.10241
 RFO step:  Lambda0=9.519556689D-04 Lambda=-1.18462994D-02.
 Linear search not attempted -- option 19 set.
 Maximum step size (   0.100) exceeded in Quadratic search.
    -- Step size scaled by   0.346
 Iteration  1 RMS(Cart)=  0.03282731 RMS(Int)=  0.00063038
 Iteration  2 RMS(Cart)=  0.00102070 RMS(Int)=  0.00016598
 Iteration  3 RMS(Cart)=  0.00000032 RMS(Int)=  0.00016598
 Variable       Old X    -DE/DX   Delta X   Delta X   Delta X     New X
                                 (Linear)    (Quad)   (Total)
    R1        2.75604  -0.01490   0.00000  -0.02410  -0.02410   2.73195
    R2        2.57320   0.02602   0.00000   0.02104   0.02104   2.59424
    R3        2.05198   0.00485   0.00000   0.00476   0.00476   2.05674
    R4        2.31445  -0.00321   0.00000   0.00025   0.00025   2.31470
    R5        2.09768   0.00893   0.00000   0.01187   0.01187   2.10955
    R6        3.56859   0.02201   0.00000  -0.00527  -0.00527   3.56332
    R7        2.06973  -0.00067   0.00000   0.00031   0.00031   2.07003
    R8        2.07109  -0.00014   0.00000   0.00160   0.00160   2.07269
    R9        2.06936   0.00239   0.00000   0.00211   0.00211   2.07147
   R10        2.07085   0.00310   0.00000   0.00253   0.00253   2.07339
   R11        2.06929   0.00242   0.00000   0.00216   0.00216   2.07146
   R12        2.76834   0.00255   0.00000  -0.00511  -0.00511   2.76323
   R13        1.93508  -0.00067   0.00000  -0.00148  -0.00148   1.93361
   R14        1.93621  -0.00144   0.00000  -0.00197  -0.00197   1.93424
    A1        2.10223   0.00289   0.00000   0.00129   0.00129   2.10352
    A2        2.05040  -0.00175   0.00000   0.00576   0.00575   2.05616
    A3        2.13044  -0.00114   0.00000  -0.00709  -0.00709   2.12335
    A4        2.14933   0.01595   0.00000   0.02683   0.02682   2.17615
    A5        2.01538  -0.00748   0.00000  -0.01378  -0.01378   2.00160
    A6        2.11848  -0.00847   0.00000  -0.01304  -0.01304   2.10543
    A7        1.98506  -0.00907   0.00000  -0.00698  -0.00695   1.97812
    A8        2.05439   0.00212   0.00000   0.00554   0.00541   2.05980
    A9        2.07952  -0.00128   0.00000  -0.00706  -0.00719   2.07233
   A10        1.57559   0.00560   0.00000   0.02094   0.02093   1.59652
   A11        1.56753   0.00808   0.00000   0.02573   0.02576   1.59329
   A12        2.04702  -0.00314   0.00000  -0.01866  -0.01925   2.02777
   A13        1.89869  -0.00099   0.00000  -0.00017  -0.00017   1.89852
   A14        1.89522   0.00001   0.00000  -0.00063  -0.00065   1.89457
   A15        1.91671  -0.00095   0.00000  -0.00338  -0.00339   1.91333
   A16        1.89854  -0.00099   0.00000  -0.00013  -0.00012   1.89842
   A17        1.93759   0.00383   0.00000   0.00839   0.00840   1.94599
   A18        1.91643  -0.00097   0.00000  -0.00420  -0.00420   1.91222
   A19        2.20324  -0.01118   0.00000  -0.06584  -0.06589   2.13735
   A20        1.84029  -0.00037   0.00000   0.00462   0.00457   1.84487
   A21        1.80731   0.00127   0.00000   0.01572   0.01597   1.82328
   A22        1.88591   0.00702   0.00000   0.02493   0.02427   1.91018
   A23        1.88231   0.00560   0.00000   0.02252   0.02235   1.90466
   A24        1.80759  -0.00120   0.00000   0.01004   0.00954   1.81713
    D1       -3.11655  -0.00035   0.00000   0.00217   0.00217  -3.11438
    D2        0.02415   0.00086   0.00000   0.00604   0.00604   0.03020
    D3        0.00939  -0.00061   0.00000  -0.00114  -0.00115   0.00823
    D4       -3.13310   0.00061   0.00000   0.00273   0.00272  -3.13038
    D5        1.56400   0.00056   0.00000   0.00253   0.00252   1.56653
    D6       -2.90927   0.00302   0.00000   0.02782   0.02779  -2.88148
    D7       -0.25034  -0.00290   0.00000  -0.02168  -0.02162  -0.27196
    D8       -1.56120   0.00083   0.00000   0.00588   0.00586  -1.55534
    D9        0.24871   0.00329   0.00000   0.03117   0.03112   0.27983
   D10        2.90764  -0.00263   0.00000  -0.01833  -0.01828   2.88936
   D11       -3.06152   0.00083   0.00000   0.00514   0.00500  -3.05652
   D12       -0.84590   0.00112   0.00000  -0.01057  -0.01039  -0.85629
   D13        1.04738   0.00015   0.00000   0.00786   0.00781   1.05519
   D14        1.11564  -0.00202   0.00000  -0.01000  -0.00999   1.10565
   D15       -2.95192  -0.00172   0.00000  -0.02571  -0.02538  -2.97730
   D16       -1.05864  -0.00269   0.00000  -0.00728  -0.00718  -1.06583
   D17       -0.93137   0.00110   0.00000   0.00859   0.00832  -0.92305
   D18        1.28426   0.00140   0.00000  -0.00712  -0.00708   1.27718
   D19       -3.10565   0.00042   0.00000   0.01131   0.01112  -3.09453
   D20        1.07105  -0.00106   0.00000  -0.00838  -0.00840   1.06265
   D21       -1.12596   0.00194   0.00000   0.01742   0.01768  -1.10827
   D22       -3.06951  -0.00266   0.00000  -0.01668  -0.01690  -3.08641
   D23       -3.11174  -0.00046   0.00000  -0.00542  -0.00544  -3.11718
   D24        0.97443   0.00253   0.00000   0.02039   0.02064   0.99508
   D25       -0.96911  -0.00207   0.00000  -0.01371  -0.01394  -0.98306
   D26       -1.01172   0.00012   0.00000  -0.00295  -0.00298  -1.01470
   D27        3.07445   0.00312   0.00000   0.02286   0.02311   3.09756
   D28        1.13090  -0.00148   0.00000  -0.01124  -0.01148   1.11943
         Item               Value     Threshold  Converged?
 Maximum Force            0.026019     0.000450     NO 
 RMS     Force            0.006076     0.000300     NO 
 Maximum Displacement     0.101533     0.001800     NO 
 RMS     Displacement     0.033300     0.001200     NO 
 Predicted change in Energy=-3.196562D-03
 GradGradGradGradGradGradGradGradGradGradGradGradGradGradGradGradGradGrad

                          Input orientation:                          
 ---------------------------------------------------------------------
 Center     Atomic      Atomic             Coordinates (Angstroms)
 Number     Number       Type             X           Y           Z
 ---------------------------------------------------------------------
      1          6           0       -0.974555    0.689816   -0.205364
      2          6           0       -1.905095   -0.285337    0.317296
      3          8           0       -3.018921   -0.502856   -0.143604
      4          6           0        0.267358    0.841251    0.359736
      5          6           0        2.945441   -0.348942    0.105152
      6          1           0        2.927261   -0.705393    1.141596
      7          1           0        3.563270   -1.031104   -0.492149
      8          1           0        3.401770    0.647562    0.087032
      9          7           0        1.579750   -0.271520   -0.411603
     10          1           0        1.170098   -1.208908   -0.433289
     11          1           0        1.608728    0.011014   -1.394966
     12          1           0        0.841020    1.739908    0.108227
     13          1           0        0.451059    0.411814    1.352133
     14          1           0       -1.286526    1.279279   -1.065469
     15          1           0       -1.536467   -0.852113    1.205591
 ---------------------------------------------------------------------
                    Distance matrix (angstroms):
                    1          2          3          4          5
     1  C    0.000000
     2  C    1.445685   0.000000
     3  O    2.367639   1.224888   0.000000
     4  C    1.372813   2.447561   3.586029   0.000000
     5  C    4.067162   4.855590   5.971531   2.941684   0.000000
     6  H    4.357187   4.920121   6.086858   3.174665   1.096176
     7  H    4.861653   5.578027   6.612546   3.885159   1.097190
     8  H    4.386286   5.393157   6.527015   3.152210   1.096168
     9  N    2.737001   3.560286   4.612279   1.885629   1.462239
    10  H    2.873436   3.297449   4.257969   2.376337   2.044824
    11  H    2.923914   3.920028   4.821318   2.359565   2.041256
    12  H    2.120695   3.418549   4.471304   1.095414   2.965113
    13  H    2.129661   2.666152   3.887751   1.096820   2.890615
    14  H    1.088381   2.177772   2.650855   2.153516   4.683055
    15  H    2.164275   1.116328   2.034693   2.614715   4.642375
                    6          7          8          9         10
     6  H    0.000000
     7  H    1.783176   0.000000
     8  H    1.779818   1.783102   0.000000
     9  N    2.101538   2.125513   2.100739   0.000000
    10  H    2.412761   2.400490   2.949165   1.023221   0.000000
    11  H    2.947188   2.391929   2.411745   1.023556   1.614134
    12  H    3.376352   3.930599   2.784082   2.204947   3.016131
    13  H    2.724712   3.894772   3.219124   2.202647   2.516244
    14  H    5.154228   5.402508   4.869029   3.323862   3.553270
    15  H    4.466598   5.377888   5.280757   3.558542   3.184136
                   11         12         13         14         15
    11  H    0.000000
    12  H    2.416204   0.000000
    13  H    3.007888   1.860970   0.000000
    14  H    3.177981   2.473094   3.101047   0.000000
    15  H    4.171347   3.684458   2.359925   3.124583   0.000000
 Stoichiometry    C4H9NO
 Framework group  C1[X(C4H9NO)]
 Deg. of freedom    39
 Full point group                 C1      NOp   1
 Largest Abelian subgroup         C1      NOp   1
 Largest concise Abelian subgroup C1      NOp   1
                         Standard orientation:                         
 ---------------------------------------------------------------------
 Center     Atomic      Atomic             Coordinates (Angstroms)
 Number     Number       Type             X           Y           Z
 ---------------------------------------------------------------------
      1          6           0       -0.973977    0.690067   -0.227024
      2          6           0       -1.908612   -0.274379    0.308050
      3          8           0       -3.018370   -0.502144   -0.157689
      4          6           0        0.262993    0.854023    0.345375
      5          6           0        2.943586   -0.339819    0.138819
      6          1           0        2.916653   -0.674400    1.182338
      7          1           0        3.566755   -1.034060   -0.438690
      8          1           0        3.399696    0.656330    0.103646
      9          7           0        1.582346   -0.274018   -0.391123
     10          1           0        1.173230   -1.211875   -0.396589
     11          1           0        1.619648   -0.012214   -1.379927
     12          1           0        0.838467    1.747501    0.079936
     13          1           0        0.438337    0.445653    1.348122
     14          1           0       -1.278778    1.261141   -1.101978
     15          1           0       -1.547407   -0.822148    1.211194
 ---------------------------------------------------------------------
 Rotational constants (GHZ):          11.2296236           1.2780381           1.2257558
 Standard basis: def2SVP (5D, 7F)
 There are   135 symmetry adapted cartesian basis functions of A   symmetry.
 There are   129 symmetry adapted basis functions of A   symmetry.
   129 basis functions,   213 primitive gaussians,   135 cartesian basis functions
    24 alpha electrons       24 beta electrons
       nuclear repulsion energy       225.7291443517 Hartrees.
 NAtoms=   15 NActive=   15 NUniq=   15 SFac= 1.00D+00 NAtFMM=   60 NAOKFM=F Big=F
 Integral buffers will be    131072 words long.
 Raffenetti 2 integral format.
 Two-electron integral symmetry is turned on.
 Nuclear repulsion after empirical dispersion term =      225.7223904548 Hartrees.
 ------------------------------------------------------------------------------
 Polarizable Continuum Model (PCM)
 =================================
 Model                : PCM.
 Atomic radii         : UFF (Universal Force Field).
 Polarization charges : Total charges.
 Charge compensation  : None.
 Solution method      : On-the-fly selection.
 Cavity type          : Scaled VdW (van der Waals Surface) (Alpha=1.100).
 Cavity algorithm     : GePol (No added spheres)
                        Default sphere list used, NSphG=   15.
                        Lebedev-Laikov grids with approx.  5.0 points / Ang**2.
                        Smoothing algorithm: York/Karplus (Gamma=1.0000).
                        Polarization charges: spherical gaussians, with
                                              point-specific exponents (IZeta= 3).
                        Self-potential: point-specific (ISelfS= 7).
                        Self-field    : sphere-specific E.n sum rule (ISelfD= 2).
 1st derivatives      : Analytical E(r).r(x)/FMM algorithm (CHGder, D1EAlg=3).
                        Cavity 1st derivative terms included.
 Solvent              : Toluene, Eps=   2.374100 Eps(inf)=   2.238315
 ------------------------------------------------------------------------------
 Spheres list:
 ISph  on   Nord     Re0    Alpha      Xe            Ye            Ze
    1   C      1    1.9255  1.100     -0.973977      0.690067     -0.227024
    2   C      2    1.9255  1.100     -1.908612     -0.274379      0.308050
    3   O      3    1.7500  1.100     -3.018370     -0.502144     -0.157689
    4   C      4    1.9255  1.100      0.262993      0.854023      0.345375
    5   C      5    1.9255  1.100      2.943586     -0.339819      0.138819
    6   H      6    1.4430  1.100      2.916653     -0.674400      1.182338
    7   H      7    1.4430  1.100      3.566755     -1.034060     -0.438690
    8   H      8    1.4430  1.100      3.399696      0.656330      0.103646
    9   N      9    1.8300  1.100      1.582346     -0.274018     -0.391123
   10   H     10    1.4430  1.100      1.173230     -1.211875     -0.396589
   11   H     11    1.4430  1.100      1.619648     -0.012214     -1.379927
   12   H     12    1.4430  1.100      0.838467      1.747501      0.079936
   13   H     13    1.4430  1.100      0.438337      0.445653      1.348122
   14   H     14    1.4430  1.100     -1.278778      1.261141     -1.101978
   15   H     15    1.4430  1.100     -1.547407     -0.822148      1.211194
 ------------------------------------------------------------------------------
 One-electron integrals computed using PRISM.
   1 Symmetry operations used in ECPInt.
 ECPInt:  NShTT=    2016 NPrTT=    7008 LenC2=    1986 LenP2D=    5677.
 LDataN:  DoStor=T MaxTD1= 4 Len=   56
 NBasis=   129 RedAO= T EigKep=  2.10D-03  NBF=   129
 NBsUse=   129 1.00D-06 EigRej= -1.00D+00 NBFU=   129
 Initial guess from the checkpoint file:  "TS-249_hf.chk"
 B after Tr=     0.000000    0.000000    0.000000
         Rot=    0.999985    0.005391    0.000073    0.001025 Ang=   0.63 deg.
 ExpMin= 1.22D-01 ExpMax= 2.27D+03 ExpMxC= 3.41D+02 IAcc=3 IRadAn=         5 AccDes= 0.00D+00
 Harris functional with IExCor= 4639 and IRadAn=       5 diagonalized for initial guess.
 HarFok:  IExCor= 4639 AccDes= 0.00D+00 IRadAn=         5 IDoV= 1 UseB2=F ITyADJ=14
 ICtDFT=  3500011 ScaDFX=  1.000000  1.000000  1.000000  1.000000
 FoFCou: FMM=F IPFlag=           0 FMFlag=      100000 FMFlg1=           0
         NFxFlg=           0 DoJE=T BraDBF=F KetDBF=T FulRan=T
         wScrn=  0.000000 ICntrl=       500 IOpCl=  0 I1Cent=   200000004 NGrid=           0
         NMat0=    1 NMatS0=      1 NMatT0=    0 NMatD0=    1 NMtDS0=    0 NMtDT0=    0
 Petite list used in FoFCou.
 Keep R1 ints in memory in canonical form, NReq=73012750.
 Requested convergence on RMS density matrix=1.00D-08 within 128 cycles.
 Requested convergence on MAX density matrix=1.00D-06.
 Requested convergence on             energy=1.00D-06.
 No special actions if energy rises.
 Inv3:  Mode=1 IEnd=     4899852.
 Iteration    1 A*A^-1 deviation from unit magnitude is 2.55D-15 for      2.
 Iteration    1 A*A^-1 deviation from orthogonality  is 1.50D-15 for    925    305.
 Iteration    1 A^-1*A deviation from unit magnitude is 2.66D-15 for    417.
 Iteration    1 A^-1*A deviation from orthogonality  is 2.11D-15 for   1115    768.
 Error on total polarization charges =  0.00621
 SCF Done:  E(RwB97XD) =  -287.445048792     A.U. after   12 cycles
            NFock= 12  Conv=0.96D-08     -V/T= 2.0101
   1 Symmetry operations used in ECPInt.
 ECPInt:  NShTT=    2016 NPrTT=    7008 LenC2=    1986 LenP2D=    5677.
 LDataN:  DoStor=T MaxTD1= 5 Len=  102
 D1PCM: PCM CHGder 1st derivatives, ID1Alg=3 FixD1E=F DoIter=F DoCFld=F I1PDM=0.
 Calling FoFJK, ICntrl=      2127 FMM=F ISym2X=0 I1Cent= 0 IOpClX= 0 NMat=1 NMatS=1 NMatT=0.
 ***** Axes restored to original set *****
 -------------------------------------------------------------------
 Center     Atomic                   Forces (Hartrees/Bohr)
 Number     Number              X              Y              Z
 -------------------------------------------------------------------
      1        6          -0.016535717   -0.012577548    0.005863490
      2        6          -0.001072969    0.014949851   -0.019597759
      3        8           0.000808382   -0.004331933    0.006039255
      4        6           0.009774732    0.007751750    0.007502067
      5        6          -0.001834307    0.002057653    0.001768241
      6        1          -0.000186015   -0.000177068    0.001652828
      7        1           0.002525056   -0.000985610   -0.000093388
      8        1           0.000506235    0.001592563    0.000290346
      9        7           0.013240344   -0.015967882   -0.017292609
     10        1          -0.003431425    0.001913872    0.001923116
     11        1          -0.002537269    0.001263285    0.001273917
     12        1          -0.000534422    0.001461492    0.006313384
     13        1          -0.001514051    0.004774512    0.002129911
     14        1          -0.000780545    0.001192793   -0.003063789
     15        1           0.001571971   -0.002917731    0.005290990
 -------------------------------------------------------------------
 Cartesian Forces:  Max     0.019597759 RMS     0.007065880

 GradGradGradGradGradGradGradGradGradGradGradGradGradGradGradGradGradGrad
 Berny optimization.
 FormGI is forming the generalized inverse of G from B-inverse, IUseBI=4.
 Internal  Forces:  Max     0.017133246 RMS     0.004122035
 Search for a saddle point.
 Step number   3 out of a maximum of   50
 All quantities printed in internal units (Hartrees-Bohrs-Radians)
 Swapping is turned off.
 Update second derivatives using D2CorX and points    1    2    3
 ITU=  0  0  0
     Eigenvalues ---   -0.03837   0.00093   0.00179   0.01086   0.01320
     Eigenvalues ---    0.01429   0.01863   0.03055   0.04648   0.05641
     Eigenvalues ---    0.05700   0.05724   0.05882   0.09539   0.10163
     Eigenvalues ---    0.10628   0.10846   0.11901   0.12476   0.15534
     Eigenvalues ---    0.15611   0.18431   0.19779   0.20457   0.21367
     Eigenvalues ---    0.25555   0.33056   0.34095   0.35144   0.35163
     Eigenvalues ---    0.35425   0.35574   0.36154   0.38662   0.39249
     Eigenvalues ---    0.43675   0.43945   0.63021   0.84551
 Eigenvectors required to have negative eigenvalues:
                          R6        A11       A10       D10       D6
   1                    0.87825  -0.18071  -0.16899   0.16896  -0.15925
                          R2        D7        D9        A19       R1
   1                   -0.13491   0.13242  -0.12272   0.10645   0.09060
 RFO step:  Lambda0=1.339997872D-03 Lambda=-6.08908534D-03.
 Linear search not attempted -- option 19 set.
 Maximum step size (   0.100) exceeded in Quadratic search.
    -- Step size scaled by   0.399
 Iteration  1 RMS(Cart)=  0.03014661 RMS(Int)=  0.00049717
 Iteration  2 RMS(Cart)=  0.00066475 RMS(Int)=  0.00019454
 Iteration  3 RMS(Cart)=  0.00000026 RMS(Int)=  0.00019454
 Variable       Old X    -DE/DX   Delta X   Delta X   Delta X     New X
                                 (Linear)    (Quad)   (Total)
    R1        2.73195  -0.00902   0.00000  -0.01926  -0.01926   2.71269
    R2        2.59424   0.01713   0.00000   0.02198   0.02198   2.61622
    R3        2.05674   0.00329   0.00000   0.00384   0.00384   2.06058
    R4        2.31470  -0.00224   0.00000   0.00132   0.00132   2.31602
    R5        2.10955   0.00622   0.00000   0.01074   0.01074   2.12029
    R6        3.56332   0.01613   0.00000  -0.03905  -0.03905   3.52427
    R7        2.07003  -0.00053   0.00000   0.00106   0.00106   2.07109
    R8        2.07269  -0.00020   0.00000   0.00212   0.00212   2.07481
    R9        2.07147   0.00162   0.00000   0.00146   0.00146   2.07293
   R10        2.07339   0.00209   0.00000   0.00143   0.00143   2.07482
   R11        2.07146   0.00166   0.00000   0.00149   0.00149   2.07295
   R12        2.76323   0.00209   0.00000  -0.00231  -0.00231   2.76092
   R13        1.93361  -0.00042   0.00000  -0.00128  -0.00128   1.93232
   R14        1.93424  -0.00095   0.00000  -0.00156  -0.00156   1.93268
    A1        2.10352   0.00190   0.00000   0.00061   0.00061   2.10413
    A2        2.05616  -0.00109   0.00000   0.00590   0.00590   2.06205
    A3        2.12335  -0.00081   0.00000  -0.00656  -0.00656   2.11679
    A4        2.17615   0.01080   0.00000   0.02312   0.02311   2.19926
    A5        2.00160  -0.00508   0.00000  -0.01208  -0.01208   1.98952
    A6        2.10543  -0.00572   0.00000  -0.01105  -0.01105   2.09438
    A7        1.97812  -0.00555   0.00000  -0.00462  -0.00456   1.97356
    A8        2.05980   0.00152   0.00000   0.00170   0.00140   2.06119
    A9        2.07233  -0.00093   0.00000  -0.01054  -0.01082   2.06151
   A10        1.59652   0.00369   0.00000   0.02758   0.02756   1.62408
   A11        1.59329   0.00532   0.00000   0.03110   0.03114   1.62443
   A12        2.02777  -0.00244   0.00000  -0.02023  -0.02117   2.00660
   A13        1.89852  -0.00075   0.00000   0.00043   0.00044   1.89896
   A14        1.89457  -0.00006   0.00000   0.00011   0.00010   1.89467
   A15        1.91333  -0.00070   0.00000  -0.00319  -0.00319   1.91013
   A16        1.89842  -0.00078   0.00000   0.00058   0.00058   1.89900
   A17        1.94599   0.00281   0.00000   0.00473   0.00474   1.95073
   A18        1.91222  -0.00059   0.00000  -0.00272  -0.00273   1.90950
   A19        2.13735  -0.00732   0.00000  -0.05520  -0.05526   2.08209
   A20        1.84487  -0.00061   0.00000  -0.00203  -0.00211   1.84275
   A21        1.82328   0.00070   0.00000   0.01441   0.01467   1.83795
   A22        1.91018   0.00467   0.00000   0.02035   0.01963   1.92981
   A23        1.90466   0.00378   0.00000   0.01989   0.01979   1.92445
   A24        1.81713  -0.00061   0.00000   0.01131   0.01094   1.82807
    D1       -3.11438  -0.00021   0.00000   0.00250   0.00251  -3.11187
    D2        0.03020   0.00065   0.00000   0.00642   0.00642   0.03662
    D3        0.00823  -0.00043   0.00000  -0.00007  -0.00008   0.00816
    D4       -3.13038   0.00042   0.00000   0.00384   0.00384  -3.12654
    D5        1.56653   0.00039   0.00000   0.00468   0.00466   1.57119
    D6       -2.88148   0.00230   0.00000   0.03784   0.03775  -2.84374
    D7       -0.27196  -0.00210   0.00000  -0.02589  -0.02576  -0.29772
    D8       -1.55534   0.00062   0.00000   0.00722   0.00719  -1.54815
    D9        0.27983   0.00253   0.00000   0.04038   0.04027   0.32011
   D10        2.88936  -0.00186   0.00000  -0.02336  -0.02323   2.86613
   D11       -3.05652   0.00062   0.00000   0.00831   0.00814  -3.04838
   D12       -0.85629   0.00078   0.00000  -0.00925  -0.00905  -0.86535
   D13        1.05519   0.00015   0.00000   0.00809   0.00805   1.06323
   D14        1.10565  -0.00139   0.00000  -0.00664  -0.00662   1.09903
   D15       -2.97730  -0.00123   0.00000  -0.02420  -0.02381  -3.00111
   D16       -1.06583  -0.00186   0.00000  -0.00686  -0.00671  -1.07254
   D17       -0.92305   0.00071   0.00000   0.01133   0.01099  -0.91207
   D18        1.27718   0.00086   0.00000  -0.00623  -0.00621   1.27097
   D19       -3.09453   0.00023   0.00000   0.01111   0.01089  -3.08364
   D20        1.06265  -0.00084   0.00000  -0.01164  -0.01166   1.05099
   D21       -1.10827   0.00166   0.00000   0.01838   0.01859  -1.08968
   D22       -3.08641  -0.00211   0.00000  -0.01644  -0.01663  -3.10304
   D23       -3.11718  -0.00043   0.00000  -0.01017  -0.01019  -3.12738
   D24        0.99508   0.00207   0.00000   0.01985   0.02006   1.01513
   D25       -0.98306  -0.00170   0.00000  -0.01497  -0.01516  -0.99822
   D26       -1.01470   0.00002   0.00000  -0.00821  -0.00823  -1.02293
   D27        3.09756   0.00251   0.00000   0.02181   0.02202   3.11958
   D28        1.11943  -0.00125   0.00000  -0.01301  -0.01320   1.10623
         Item               Value     Threshold  Converged?
 Maximum Force            0.017133     0.000450     NO 
 RMS     Force            0.004122     0.000300     NO 
 Maximum Displacement     0.103670     0.001800     NO 
 RMS     Displacement     0.030437     0.001200     NO 
 Predicted change in Energy=-1.551798D-03
 GradGradGradGradGradGradGradGradGradGradGradGradGradGradGradGradGradGrad

                          Input orientation:                          
 ---------------------------------------------------------------------
 Center     Atomic      Atomic             Coordinates (Angstroms)
 Number     Number       Type             X           Y           Z
 ---------------------------------------------------------------------
      1          6           0       -0.962748    0.683788   -0.206954
      2          6           0       -1.891157   -0.277994    0.316177
      3          8           0       -3.016041   -0.502360   -0.115516
      4          6           0        0.297684    0.820176    0.349282
      5          6           0        2.920444   -0.339121    0.112103
      6          1           0        2.872402   -0.687144    1.151267
      7          1           0        3.570555   -1.015749   -0.457998
      8          1           0        3.359381    0.666121    0.100548
      9          7           0        1.571219   -0.286127   -0.445885
     10          1           0        1.152568   -1.218883   -0.462871
     11          1           0        1.604577    0.002041   -1.426610
     12          1           0        0.864467    1.731320    0.126282
     13          1           0        0.470407    0.399846    1.348765
     14          1           0       -1.271952    1.284452   -1.062869
     15          1           0       -1.507616   -0.845896    1.204597
 ---------------------------------------------------------------------
                    Distance matrix (angstroms):
                    1          2          3          4          5
     1  C    0.000000
     2  C    1.435492   0.000000
     3  O    2.373041   1.225587   0.000000
     4  C    1.384445   2.449102   3.598043   0.000000
     5  C    4.028314   4.816315   5.943089   2.877341   0.000000
     6  H    4.293319   4.853481   6.025997   3.089396   1.096947
     7  H    4.847915   5.565422   6.615445   3.838490   1.097945
     8  H    4.333089   5.339101   6.485217   3.075644   1.096956
     9  N    2.723750   3.545258   4.604222   1.864963   1.461015
    10  H    2.856608   3.279703   4.243980   2.355457   2.056687
    11  H    2.922925   3.916105   4.829441   2.351830   2.053177
    12  H    2.132389   3.415680   4.483987   1.095972   2.917870
    13  H    2.134202   2.665088   3.887598   1.097942   2.842197
[...]
 ! A1    A(2,1,4)              120.5844         -DE/DX =    0.0                 !
 ! A2    A(2,1,14)             118.906          -DE/DX =    0.0                 !
 ! A3    A(4,1,14)             120.4826         -DE/DX =    0.0                 !
 ! A4    A(1,2,3)              128.4751         -DE/DX =    0.0                 !
 ! A5    A(1,2,15)             112.6037         -DE/DX =    0.0                 !
 ! A6    A(3,2,15)             118.9163         -DE/DX =    0.0                 !
 ! A7    A(1,4,9)              112.635          -DE/DX =    0.0                 !
 ! A8    A(1,4,12)             118.2807         -DE/DX =    0.0                 !
 ! A9    A(1,4,13)             116.4448         -DE/DX =    0.0                 !
 ! A10   A(9,4,12)              96.6326         -DE/DX =    0.0                 !
 ! A11   A(9,4,13)              97.0362         -DE/DX =    0.0                 !
 ! A12   A(12,4,13)            111.835          -DE/DX =    0.0                 !
 ! A13   A(6,5,7)              109.1164         -DE/DX =    0.0                 !
 ! A14   A(6,5,8)              108.5879         -DE/DX =    0.0                 !
 ! A15   A(6,5,9)              108.9712         -DE/DX =    0.0                 !
 ! A16   A(7,5,8)              109.0855         -DE/DX =    0.0                 !
 ! A17   A(7,5,9)              112.0534         -DE/DX =    0.0                 !
 ! A18   A(8,5,9)              108.9641         -DE/DX =    0.0                 !
 ! A19   A(4,9,5)              116.1893         -DE/DX =    0.0                 !
 ! A20   A(4,9,10)             104.2164         -DE/DX =    0.0                 !
 ! A21   A(4,9,11)             104.7293         -DE/DX =    0.0                 !
 ! A22   A(5,9,10)             112.4511         -DE/DX =    0.0                 !
 ! A23   A(5,9,11)             112.2992         -DE/DX =    0.0                 !
 ! A24   A(10,9,11)            106.043          -DE/DX =    0.0                 !
 ! D1    D(4,1,2,3)           -177.7974         -DE/DX =    0.0                 !
 ! D2    D(4,1,2,15)             3.0327         -DE/DX =    0.0                 !
 ! D3    D(14,1,2,3)             0.3246         -DE/DX =    0.0                 !
 ! D4    D(14,1,2,15)         -178.8452         -DE/DX =    0.0                 !
 ! D5    D(2,1,4,9)             91.5074         -DE/DX =    0.0                 !
 ! D6    D(2,1,4,12)          -156.9963         -DE/DX =    0.0                 !
 ! D7    D(2,1,4,13)           -19.3244         -DE/DX =    0.0                 !
 ! D8    D(14,1,4,9)           -86.5849         -DE/DX =    0.0                 !
 ! D9    D(14,1,4,12)           24.9114         -DE/DX =    0.0                 !
 ! D10   D(14,1,4,13)          162.5832         -DE/DX =    0.0                 !
 ! D11   D(1,4,9,5)            178.4568         -DE/DX =    0.0                 !
 ! D12   D(1,4,9,10)           -57.2359         -DE/DX =    0.0                 !
 ! D13   D(1,4,9,11)            53.949          -DE/DX =    0.0                 !
 ! D14   D(12,4,9,5)            54.0353         -DE/DX =    0.0                 !
 ! D15   D(12,4,9,10)          178.3426         -DE/DX =    0.0                 !
 ! D16   D(12,4,9,11)          -70.4725         -DE/DX =    0.0                 !
 ! D17   D(13,4,9,5)           -59.0209         -DE/DX =    0.0                 !
 ! D18   D(13,4,9,10)           65.2864         -DE/DX =    0.0                 !
 ! D19   D(13,4,9,11)          176.4713         -DE/DX =    0.0                 !
 ! D20   D(6,5,9,4)             58.926          -DE/DX =    0.0                 !
 ! D21   D(6,5,9,10)           -61.0313         -DE/DX =    0.0                 !
 ! D22   D(6,5,9,11)           179.4533         -DE/DX =    0.0                 !
 ! D23   D(7,5,9,4)            179.7832         -DE/DX =    0.0                 !
 ! D24   D(7,5,9,10)            59.8258         -DE/DX =    0.0                 !
 ! D25   D(7,5,9,11)           -59.6896         -DE/DX =    0.0                 !
 ! D26   D(8,5,9,4)            -59.4034         -DE/DX =    0.0                 !
 ! D27   D(8,5,9,10)          -179.3607         -DE/DX =    0.0                 !
 ! D28   D(8,5,9,11)            61.1239         -DE/DX =    0.0                 !
 --------------------------------------------------------------------------------
 GradGradGradGradGradGradGradGradGradGradGradGradGradGradGradGradGradGrad

                          Input orientation:                          
 ---------------------------------------------------------------------
 Center     Atomic      Atomic             Coordinates (Angstroms)
 Number     Number       Type             X           Y           Z
 ---------------------------------------------------------------------
      1          6           0       -0.924798    0.671306   -0.216913
      2          6           0       -1.890503   -0.249363    0.268085
      3          8           0       -3.025034   -0.457638   -0.151138
      4          6           0        0.357504    0.741744    0.368207
      5          6           0        2.907077   -0.289644    0.084227
      6          1           0        2.890596   -0.568176    1.145942
      7          1           0        3.575354   -0.973605   -0.456865
      8          1           0        3.294003    0.734167   -0.003048
      9          7           0        1.541815   -0.327920   -0.438579
     10          1           0        1.124667   -1.258853   -0.373087
     11          1           0        1.497138   -0.067223   -1.425717
     12          1           0        0.929756    1.671603    0.256378
     13          1           0        0.459066    0.317899    1.377809
     14          1           0       -1.180139    1.304115   -1.072187
     15          1           0       -1.522314   -0.833942    1.167207
 ---------------------------------------------------------------------
                    Distance matrix (angstroms):
                    1          2          3          4          5
     1  C    0.000000
     2  C    1.419662   0.000000
     3  O    2.385337   1.227309   0.000000
     4  C    1.411250   2.458832   3.626266   0.000000
     5  C    3.961991   4.801271   5.939155   2.764910   0.000000
     6  H    4.236853   4.871467   6.057171   2.955895   1.097767
     7  H    4.797361   5.561086   6.627580   3.738679   1.098716
     8  H    4.224686   5.283933   6.432150   2.959884   1.097960
     9  N    2.670537   3.505189   4.577724   1.788205   1.462440
    10  H    2.819612   3.243674   4.232166   2.267255   2.079781
    11  H    2.805781   3.791866   4.714553   2.274061   2.077819
    12  H    2.159622   3.412346   4.510000   1.097550   2.790327
    13  H    2.140821   2.659652   3.883052   1.099662   2.834647
    14  H    1.094140   2.171230   2.712148   2.180675   4.536816
    15  H    2.130395   1.133894   2.034160   2.579710   4.592234
                    6          7          8          9         10
     6  H    0.000000
     7  H    1.789485   0.000000
     8  H    1.782979   1.789299   0.000000
     9  N    2.094670   2.133665   2.094726   0.000000
    10  H    2.429607   2.468654   2.969019   1.022222   0.000000
    11  H    2.967510   2.465601   2.427949   1.021959   1.633017
    12  H    3.106901   3.808547   2.556512   2.203559   3.003629
    13  H    2.598313   3.839956   3.180709   2.211039   2.448430
    14  H    4.999646   5.308610   4.635282   3.236361   3.517055
    15  H    4.420957   5.351947   5.198592   3.496211   3.091854
                   11         12         13         14         15
    11  H    0.000000
    12  H    2.484931   0.000000
    13  H    3.014245   1.819800   0.000000
    14  H    3.028756   2.520275   3.108391   0.000000
    15  H    4.053171   3.622155   2.301511   3.115005   0.000000
 Stoichiometry    C4H9NO
 Framework group  C1[X(C4H9NO)]
 Deg. of freedom    39
 Full point group                 C1      NOp   1
 Largest Abelian subgroup         C1      NOp   1
 Largest concise Abelian subgroup C1      NOp   1
                         Standard orientation:                         
 ---------------------------------------------------------------------
 Center     Atomic      Atomic             Coordinates (Angstroms)
 Number     Number       Type             X           Y           Z
 ---------------------------------------------------------------------
      1          6           0       -0.929606    0.659185   -0.270735
      2          6           0       -1.900056   -0.211666    0.290769
      3          8           0       -3.032488   -0.455856   -0.114515
      4          6           0        0.349325    0.781124    0.313294
      5          6           0        2.898444   -0.275738    0.140761
      6          1           0        2.875067   -0.455643    1.223433
      7          1           0        3.568543   -1.007451   -0.331191
      8          1           0        3.287963    0.735172   -0.037712
      9          7           0        1.536247   -0.359809   -0.384677
     10          1           0        1.116825   -1.280187   -0.236602
     11          1           0        1.497986   -0.190729   -1.391826
     12          1           0        0.924123    1.695952    0.120126
     13          1           0        0.444004    0.451562    1.358130
     14          1           0       -1.178557    1.211218   -1.182011
     15          1           0       -1.538422   -0.711816    1.241972
 ---------------------------------------------------------------------
 Rotational constants (GHZ):          12.1168331           1.2987152           1.2542114

 **********************************************************************

            Population analysis using the SCF Density.

 **********************************************************************

 Orbital symmetries:
       Occupied  (A) (A) (A) (A) (A) (A) (A) (A) (A) (A) (A) (A)
                 (A) (A) (A) (A) (A) (A) (A) (A) (A) (A) (A) (A)
       Virtual   (A) (A) (A) (A) (A) (A) (A) (A) (A) (A) (A) (A)
                 (A) (A) (A) (A) (A) (A) (A) (A) (A) (A) (A) (A)
                 (A) (A) (A) (A) (A) (A) (A) (A) (A) (A) (A) (A)
                 (A) (A) (A) (A) (A) (A) (A) (A) (A) (A) (A) (A)
                 (A) (A) (A) (A) (A) (A) (A) (A) (A) (A) (A) (A)
                 (A) (A) (A) (A) (A) (A) (A) (A) (A) (A) (A) (A)
                 (A) (A) (A) (A) (A) (A) (A) (A) (A) (A) (A) (A)
                 (A) (A) (A) (A) (A) (A) (A) (A) (A) (A) (A) (A)
                 (A) (A) (A) (A) (A) (A) (A) (A) (A)
 The electronic state is 1-A.
 Alpha  occ. eigenvalues --  -19.17620 -14.52853 -10.36182 -10.34791 -10.32766
 Alpha  occ. eigenvalues --  -10.24024  -1.05991  -1.05760  -0.85810  -0.80346
 Alpha  occ. eigenvalues --   -0.71849  -0.65969  -0.61492  -0.59116  -0.55761
 Alpha  occ. eigenvalues --   -0.51938  -0.51351  -0.50212  -0.47114  -0.44923
 Alpha  occ. eigenvalues --   -0.43415  -0.42065  -0.28243  -0.25328
 Alpha virt. eigenvalues --    0.09026   0.10806   0.14933   0.15224   0.17066
 Alpha virt. eigenvalues --    0.17790   0.19848   0.20263   0.22480   0.23416
 Alpha virt. eigenvalues --    0.25427   0.26243   0.34155   0.37048   0.44793
 Alpha virt. eigenvalues --    0.46174   0.48011   0.51101   0.52303   0.57810
 Alpha virt. eigenvalues --    0.60205   0.61407   0.64576   0.67009   0.68926
 Alpha virt. eigenvalues --    0.69577   0.70598   0.72765   0.73662   0.73983
 Alpha virt. eigenvalues --    0.74991   0.77287   0.78935   0.79535   0.80361
 Alpha virt. eigenvalues --    0.81968   0.85094   0.88196   0.90526   0.96156
 Alpha virt. eigenvalues --    1.00228   1.05952   1.10216   1.16121   1.17703
 Alpha virt. eigenvalues --    1.22046   1.28358   1.32098   1.36597   1.37395
 Alpha virt. eigenvalues --    1.39761   1.43472   1.46918   1.56158   1.57534
 Alpha virt. eigenvalues --    1.60859   1.64586   1.74849   1.75971   1.80350
 Alpha virt. eigenvalues --    1.82590   1.83008   1.84174   1.85239   1.86675
 Alpha virt. eigenvalues --    1.87698   1.90118   1.92900   1.97669   2.01024
 Alpha virt. eigenvalues --    2.02730   2.05793   2.08888   2.10578   2.12554
 Alpha virt. eigenvalues --    2.14916   2.20877   2.25988   2.30883   2.36028
 Alpha virt. eigenvalues --    2.36357   2.39017   2.43963   2.48634   2.53183
 Alpha virt. eigenvalues --    2.61606   2.67895   2.68635   2.71691   2.72414
 Alpha virt. eigenvalues --    2.77940   2.81161   2.86160   2.88546   2.96302
 Alpha virt. eigenvalues --    3.02320   3.03065   3.04926   3.07438   3.22377
 Alpha virt. eigenvalues --    3.28635   3.33791   3.46574   3.57107   3.76157
          Condensed to atoms (all electrons):
               1          2          3          4          5          6
     1  C    5.693097   0.282006  -0.112279   0.344867   0.004283   0.000528
     2  C    0.282006   4.495930   0.670438   0.014825   0.000107  -0.000039
     3  O   -0.112279   0.670438   7.852087   0.005483  -0.000000   0.000000
     4  C    0.344867   0.014825   0.005483   4.759674  -0.012359  -0.001889
     5  C    0.004283   0.000107  -0.000000  -0.012359   4.517718   0.406808
     6  H    0.000528  -0.000039   0.000000  -0.001889   0.406808   0.573753
     7  H   -0.000347  -0.000005   0.000000   0.001832   0.404768  -0.020313
     8  H    0.000527   0.000009  -0.000000  -0.002661   0.406509  -0.017256
     9  N   -0.088741  -0.003798   0.000066   0.063457   0.290028  -0.025789
    10  H    0.009990   0.003133  -0.000190  -0.000058  -0.015503  -0.004997
    11  H    0.009570  -0.000522  -0.000030  -0.004348  -0.017186   0.006384
    12  H   -0.006747   0.004598  -0.000108   0.387476   0.002066  -0.001055
    13  H   -0.024158  -0.010256   0.000093   0.391175   0.000697   0.005787
    14  H    0.368167  -0.014700   0.005940  -0.041704  -0.000074   0.000012
    15  H   -0.198012   0.412719  -0.051246   0.017968  -0.000012  -0.000010
               7          8          9         10         11         12
     1  C   -0.000347   0.000527  -0.088741   0.009990   0.009570  -0.006747
     2  C   -0.000005   0.000009  -0.003798   0.003133  -0.000522   0.004598
     3  O    0.000000  -0.000000   0.000066  -0.000190  -0.000030  -0.000108
     4  C    0.001832  -0.002661   0.063457  -0.000058  -0.004348   0.387476
     5  C    0.404768   0.406509   0.290028  -0.015503  -0.017186   0.002066
     6  H   -0.020313  -0.017256  -0.025789  -0.004997   0.006384  -0.001055
     7  H    0.579595  -0.020255  -0.012974  -0.006395  -0.005930  -0.000306
     8  H   -0.020255   0.574845  -0.025134   0.006451  -0.005276   0.006455
     9  N   -0.012974  -0.025134   6.422052   0.326486   0.334049  -0.043239
    10  H   -0.006395   0.006451   0.326486   0.517349  -0.012827   0.005145
    11  H   -0.005930  -0.005276   0.334049  -0.012827   0.514423  -0.002111
    12  H   -0.000306   0.006455  -0.043239   0.005145  -0.002111   0.635147
    13  H   -0.000205  -0.001153  -0.031219  -0.003016   0.004548  -0.027828
    14  H    0.000004  -0.000029  -0.000687  -0.000114   0.001933  -0.009766
    15  H   -0.000001   0.000000  -0.001015   0.001246   0.000108  -0.000404
              13         14         15
     1  C   -0.024158   0.368167  -0.198012
     2  C   -0.010256  -0.014700   0.412719
     3  O    0.000093   0.005940  -0.051246
     4  C    0.391175  -0.041704   0.017968
     5  C    0.000697  -0.000074  -0.000012
     6  H    0.005787   0.000012  -0.000010
     7  H   -0.000205   0.000004  -0.000001
     8  H   -0.001153  -0.000029   0.000000
     9  N   -0.031219  -0.000687  -0.001015
    10  H   -0.003016  -0.000114   0.001246
    11  H    0.004548   0.001933   0.000108
    12  H   -0.027828  -0.009766  -0.000404
    13  H    0.625055   0.007246   0.011758
    14  H    0.007246   0.672781   0.011972
    15  H    0.011758   0.011972   0.859615
 Mulliken charges:
               1
     1  C   -0.282750
     2  C    0.145555
     3  O   -0.370255
     4  C    0.076261
     5  C    0.012151
     6  H    0.078076
     7  H    0.080532
     8  H    0.076968
     9  N   -0.203541
    10  H    0.173300
    11  H    0.177216
    12  H    0.050678
    13  H    0.051476
    14  H   -0.000980
    15  H   -0.064686
 Sum of Mulliken charges =  -0.00000
 Mulliken charges with hydrogens summed into heavy atoms:
               1
     1  C   -0.283730
     2  C    0.080868
     3  O   -0.370255
     4  C    0.178415
     5  C    0.247727
     9  N    0.146975
 Electronic spatial extent (au):  <R**2>=            937.4977
 Charge=             -0.0000 electrons
 Dipole moment (field-independent basis, Debye):
    X=             11.5316    Y=             -0.6969    Z=             -0.2759  Tot=             11.5559
 Quadrupole moment (field-independent basis, Debye-Ang):
   XX=            -48.5856   YY=            -36.6601   ZZ=            -35.2905
   XY=             -3.9226   XZ=             -2.7118   YZ=             -0.2828
 Traceless Quadrupole moment (field-independent basis, Debye-Ang):
   XX=             -8.4068   YY=              3.5186   ZZ=              4.8882
   XY=             -3.9226   XZ=             -2.7118   YZ=             -0.2828
 Octapole moment (field-independent basis, Debye-Ang**2):
  XXX=             98.3171  YYY=             -7.0078  ZZZ=             -4.2365  XYY=              8.6061
  XXY=              5.5488  XXZ=              0.9230  XZZ=              5.8371  YZZ=             -1.5618
  YYZ=             -2.2983  XYZ=              1.1970
 Hexadecapole moment (field-independent basis, Debye-Ang**3):
 XXXX=          -1115.1139 YYYY=           -117.0533 ZZZZ=            -79.0355 XXXY=            -41.1152
 XXXZ=            -15.0190 YYYX=              2.3728 YYYZ=              0.8545 ZZZX=             -2.7852
 ZZZY=              0.4987 XXYY=           -182.1296 XXZZ=           -170.9001 YYZZ=            -34.4180
 XXYZ=             -0.4883 YYXZ=             -0.5103 ZZXY=             -1.8867
 N-N= 2.275130677552D+02 E-N=-1.124056494458D+03  KE= 2.844657469006D+02
 Unable to Open any file for archive entry.
 1\1\GINC-NODE-008\FTS\RwB97XD\def2SVP\C4H9N1O1\JP2658\19-Dec-2023\0\\#
  wb97xd def2svp geom=allchk scrf=(iefpcm,solvent=toluene) opt=(readfc,
 ts,noeigen,maxcycles=50,maxstep=10)\\TS-249.out\\0,1\C,-0.9247977533,0
 .6713056764,-0.2169126855\C,-1.8905030616,-0.2493627694,0.2680850015\O
 ,-3.0250339732,-0.4576382153,-0.1511379814\C,0.3575043581,0.7417439189
 ,0.3682069035\C,2.907077353,-0.2896443141,0.0842266501\H,2.890596229,-
 0.5681759918,1.1459424881\H,3.575354451,-0.9736045144,-0.4568648938\H,
 3.2940028272,0.7341665749,-0.0030482234\N,1.5418150955,-0.3279199116,-
 0.4385788867\H,1.124667158,-1.2588529194,-0.3730873526\H,1.4971377453,
 -0.0672232043,-1.4257171593\H,0.9297560079,1.6716032044,0.2563776155\H
 ,0.4590659336,0.3178988992,1.3778090914\H,-1.1801387542,1.3041152439,-
 1.0721871886\H,-1.5223136162,-0.8339416773,1.1672066211\\Version=ES64L
 -G16RevC.01\State=1-A\HF=-287.4473884\RMSD=7.640e-09\RMSF=6.238e-06\Di
 pole=4.5365286,-0.2538265,-0.1602868\Quadrupole=-6.265955,2.6519136,3.
 6140415,-2.7389451,-2.2158601,-0.2880575\PG=C01 [X(C4H9N1O1)]\\@
 The archive entry for this job was punched.


 IF I AM NOT FOR MYSELF, WHO WILL BE?
 BUT IF I AM ONLY FOR MYSELF, WHAT AM I?
 THOUGH A SEEKER SINCE MY BIRTH,
 HERE IS ALL I'VE LEARNED ON EARTH,
 THIS IS THE GIST OF WHAT I KNOW:
 GIVE ADVICE AND BUY A FOE.

 PRESSED FOR RULES AND VERITIES,
 ALL I RECOLLECT ARE THESE:
 FEED A COLD TO STARVE A FEVER,
 ARGUE WITH NO TRUE-BELIEVER.
 THINK-TOO-LONG IS NEVER-ACT,
 SCRATCH A MYTH AND FIND A FACT.

 STITCH IN TIME SAVES TWENTY STITCHES,
 GIVE THE RICH TO PLEASE THEM, RICHES.
 GIVE TO LOVE YOU HEARTH AND HALL,
 BUT DO NOT GIVE ADVICE AT ALL.

                                  -- HILLEL
 Job cpu time:       0 days  0 hours 11 minutes 49.1 seconds.
 Elapsed time:       0 days  0 hours 11 minutes 50.9 seconds.
 File lengths (MBytes):  RWF=     68 Int=      0 D2E=      0 Chk=      7 Scr=      1
 Normal termination of Gaussian 16 at Tue Dec 19 13:38:59 2023.
