Unloading slurm/anatra/current
  ERROR: No such file or directory on
    '/cm/local/modulefiles/slurm/anatra/current'
environment: line 0: unalias: gv: not found
environment: line 0: unalias: sl: not found
 Entering Gaussian System, Link 0=g16
 Initial command:
 /apps/gaussian/g16/C.01/g16/l1.exe "/local/jobs/1153179/Gau-1739501.inp" -scrdir="/local/jobs/1153179/"
 Entering Link 1 = /apps/gaussian/g16/C.01/g16/l1.exe PID=   1739504.
  
 Copyright (c) 1988-2019, Gaussian, Inc.  All Rights Reserved.
  
 This is part of the Gaussian(R) 16 program.  It is based on
 the Gaussian(R) 09 system (copyright 2009, Gaussian, Inc.),
 the Gaussian(R) 03 system (copyright 2003, Gaussian, Inc.),
 the Gaussian(R) 98 system (copyright 1998, Gaussian, Inc.),
 the Gaussian(R) 94 system (copyright 1995, Gaussian, Inc.),
 the Gaussian 92(TM) system (copyright 1992, Gaussian, Inc.),
 the Gaussian 90(TM) system (copyright 1990, Gaussian, Inc.),
 the Gaussian 88(TM) system (copyright 1988, Gaussian, Inc.),
 the Gaussian 86(TM) system (copyright 1986, Carnegie Mellon
 University), and the Gaussian 82(TM) system (copyright 1983,
 Carnegie Mellon University). Gaussian is a federally registered
 trademark of Gaussian, Inc.
  
 This software contains proprietary and confidential information,
 including trade secrets, belonging to Gaussian, Inc.
  
 This software is provided under written license and may be
 used, copied, transmitted, or stored only in accord with that
 written license.
  
 The following legend is applicable only to US Government
 contracts under FAR:
  
                    RESTRICTED RIGHTS LEGEND
  
 Use, reproduction and disclosure by the US Government is
 subject to restrictions as set forth in subparagraphs (a)
 and (c) of the Commercial Computer Software - Restricted
 Rights clause in FAR 52.227-19.
  
 Gaussian, Inc.
 340 Quinnipiac St., Bldg. 40, Wallingford CT 06492
  
  
 ---------------------------------------------------------------
 Warning -- This program may not be used in any manner that
 competes with the business of Gaussian, Inc. or will provide
 assistance to any competitor of Gaussian, Inc.  The licensee
 of this program is prohibited from giving any competitor of
 Gaussian, Inc. access to this program.  By using this program,
 the user acknowledges that Gaussian, Inc. is engaged in the
 business of creating and licensing software in the field of
 computational chemistry and represents and warrants to the
 licensee that it is not a competitor of Gaussian, Inc. and that
 it will not use this program in any manner prohibited above.
 ---------------------------------------------------------------
  

 Cite this work as:
 Gaussian 16, Revision C.01,
 M. J. Frisch, G. W. Trucks, H. B. Schlegel, G. E. Scuseria, 
 M. A. Robb, J. R. Cheeseman, G. Scalmani, V. Barone, 
 G. A. Petersson, H. Nakatsuji, X. Li, M. Caricato, A. V. Marenich, 
 J. Bloino, B. G. Janesko, R. Gomperts, B. Mennucci, H. P. Hratchian, 
 J. V. Ortiz, A. F. Izmaylov, J. L. Sonnenberg, D. Williams-Young, 
 F. Ding, F. Lipparini, F. Egidi, J. Goings, B. Peng, A. Petrone, 
 T. Henderson, D. Ranasinghe, V. G. Zakrzewski, J. Gao, N. Rega, 
 G. Zheng, W. Liang, M. Hada, M. Ehara, K. Toyota, R. Fukuda, 
 J. Hasegawa, M. Ishida, T. Nakajima, Y. Honda, O. Kitao, H. Nakai, 
 T. Vreven, K. Throssell, J. A. Montgomery, Jr., J. E. Peralta, 
 F. Ogliaro, M. J. Bearpark, J. J. Heyd, E. N. Brothers, K. N. Kudin, 
 V. N. Staroverov, T. A. Keith, R. Kobayashi, J. Normand, 
 K. Raghavachari, A. P. Rendell, J. C. Burant, S. S. Iyengar, 
 J. Tomasi, M. Cossi, J. M. Millam, M. Klene, C. Adamo, R. Cammi, 
 J. W. Ochterski, R. L. Martin, K. Morokuma, O. Farkas, 
 J. B. Foresman, and D. J. Fox, Gaussian, Inc., Wallingford CT, 2019.
 
 ******************************************
 Gaussian 16:  ES64L-G16RevC.01  3-Jul-2019
                30-Dec-2023 
 ******************************************
 %chk=TS-249_opt_sqm_freq.chk
 %nprocshared=12
 Will use up to   12 processors via shared memory.
 %mem=48GB
 -----------------------------------------------------------
 # wb97xd def2svp scrf=(iefpcm,solvent=toluene) freq=noraman
 -----------------------------------------------------------
 1/10=4,30=1,38=1/1,3;
 2/12=2,17=6,18=5,40=1/2;
 3/5=43,7=101,11=2,25=1,30=1,70=2201,71=2,72=13,74=-58,140=1/1,2,3;
 4//1;
 5/5=2,38=5,53=13,98=1/2;
 8/6=4,10=90,11=11/1;
 11/6=1,8=1,9=11,15=111,16=1/1,2,10;
 10/6=1/2;
 6/7=2,8=2,9=2,10=2,28=1/1;
 7/8=1,10=1,25=1/1,2,3,16;
 1/10=4,30=1/3;
 99//99;
 ------------------
 TS-249_opt_sqm.out
 ------------------
 Symbolic Z-matrix:
 Charge =  0 Multiplicity = 1
 C                    -0.92959   0.65902  -0.27089 
 C                    -1.90015  -0.21155   0.29082 
 O                    -3.03255  -0.45581  -0.11451 
 C                     0.34927   0.78111   0.31323 
 C                     2.89857  -0.27559   0.14069 
 H                     2.87544  -0.45534   1.2234 
 H                     3.5687   -1.00727  -0.33129 
 H                     3.2879    0.73535  -0.038 
 N                     1.53629  -0.35996  -0.38447 
 H                     1.11701  -1.28038  -0.23615 
 H                     1.49787  -0.1911   -1.39164 
 H                     0.92409   1.69589   0.11992 
 H                     0.44385   0.45176   1.35814 
 H                    -1.17843   1.21076  -1.18238 
 H                    -1.53866  -0.71137   1.24224 
 

 GradGradGradGradGradGradGradGradGradGradGradGradGradGradGradGradGradGrad
 Berny optimization.
 Initialization pass.
 Trust Radius=3.00D-01 FncErr=1.00D-07 GrdErr=1.00D-07 EigMax=2.50D+02 EigMin=1.00D-04
 Number of steps in this run=      2 maximum allowed number of steps=      2.
 GradGradGradGradGradGradGradGradGradGradGradGradGradGradGradGradGradGrad

                          Input orientation:                          
 ---------------------------------------------------------------------
 Center     Atomic      Atomic             Coordinates (Angstroms)
 Number     Number       Type             X           Y           Z
 ---------------------------------------------------------------------
      1          6           0       -0.929590    0.659020   -0.270890
      2          6           0       -1.900150   -0.211550    0.290820
      3          8           0       -3.032550   -0.455810   -0.114510
      4          6           0        0.349270    0.781110    0.313230
      5          6           0        2.898570   -0.275590    0.140690
      6          1           0        2.875440   -0.455340    1.223400
      7          1           0        3.568700   -1.007270   -0.331290
      8          1           0        3.287900    0.735350   -0.038000
      9          7           0        1.536290   -0.359960   -0.384470
     10          1           0        1.117010   -1.280380   -0.236150
     11          1           0        1.497870   -0.191100   -1.391640
     12          1           0        0.924090    1.695890    0.119920
     13          1           0        0.443850    0.451760    1.358140
     14          1           0       -1.178430    1.210760   -1.182380
     15          1           0       -1.538660   -0.711370    1.242240
 ---------------------------------------------------------------------
                    Distance matrix (angstroms):
                    1          2          3          4          5
     1  C    0.000000
     2  C    1.419647   0.000000
     3  O    2.385318   1.227308   0.000000
     4  C    1.411235   2.458814   3.626243   0.000000
     5  C    3.962033   4.801495   5.939343   2.765016   0.000000
     6  H    4.237093   4.871899   6.057586   2.956138   1.097773
     7  H    4.797373   5.561341   6.627790   3.738775   1.098724
     8  H    4.224605   5.283995   6.432169   2.959899   1.097956
     9  N    2.670540   3.505305   4.577812   1.788251   1.462436
    10  H    2.819761   3.243971   4.232441   2.267374   2.079800
    11  H    2.805592   3.791785   4.714429   2.273996   2.077771
    12  H    2.159621   3.412311   4.509963   1.097547   2.790293
    13  H    2.140802   2.659603   3.883006   1.099661   2.834938
    14  H    1.094145   2.171213   2.712114   2.180669   4.536704
    15  H    2.130375   1.133885   2.034156   2.579697   4.592638
                    6          7          8          9         10
     6  H    0.000000
     7  H    1.789496   0.000000
     8  H    1.782974   1.789299   0.000000
     9  N    2.094676   2.133666   2.094727   0.000000
    10  H    2.429620   2.468689   2.969039   1.022237   0.000000
    11  H    2.967483   2.465525   2.427933   1.021950   1.633016
    12  H    3.106964   3.808494   2.556399   2.203569   3.003696
    13  H    2.598772   3.840264   3.180920   2.211109   2.448513
    14  H    4.999753   5.308414   4.635054   3.236283   3.517126
    15  H    4.421559   5.352446   5.198817   3.496426   3.092247
                   11         12         13         14         15
    11  H    0.000000
    12  H    2.484908   0.000000
    13  H    3.014219   1.819802   0.000000
    14  H    3.028462   2.520303   3.108394   0.000000
    15  H    4.053211   3.622104   2.301445   3.114985   0.000000
 Stoichiometry    C4H9NO
 Framework group  C1[X(C4H9NO)]
 Deg. of freedom    39
 Full point group                 C1      NOp   1
 Largest Abelian subgroup         C1      NOp   1
 Largest concise Abelian subgroup C1      NOp   1
                         Standard orientation:                         
 ---------------------------------------------------------------------
 Center     Atomic      Atomic             Coordinates (Angstroms)
 Number     Number       Type             X           Y           Z
 ---------------------------------------------------------------------
      1          6           0       -0.929590    0.659020   -0.270889
      2          6           0       -1.900150   -0.211550    0.290821
      3          8           0       -3.032550   -0.455810   -0.114509
      4          6           0        0.349270    0.781109    0.313231
      5          6           0        2.898570   -0.275592    0.140691
      6          1           0        2.875440   -0.455342    1.223401
      7          1           0        3.568700   -1.007272   -0.331289
      8          1           0        3.287900    0.735348   -0.037999
      9          7           0        1.536290   -0.359961   -0.384469
     10          1           0        1.117010   -1.280381   -0.236149
     11          1           0        1.497870   -0.191101   -1.391639
     12          1           0        0.924091    1.695889    0.119921
     13          1           0        0.443850    0.451759    1.358141
     14          1           0       -1.178430    1.210760   -1.182379
     15          1           0       -1.538660   -0.711370    1.242241
 ---------------------------------------------------------------------
 Rotational constants (GHZ):          12.1185484           1.2986405           1.2541552
 Standard basis: def2SVP (5D, 7F)
 There are   135 symmetry adapted cartesian basis functions of A   symmetry.
 There are   129 symmetry adapted basis functions of A   symmetry.
   129 basis functions,   213 primitive gaussians,   135 cartesian basis functions
    24 alpha electrons       24 beta electrons
       nuclear repulsion energy       227.5185690261 Hartrees.
 NAtoms=   15 NActive=   15 NUniq=   15 SFac= 1.00D+00 NAtFMM=   60 NAOKFM=F Big=F
 Integral buffers will be    131072 words long.
 Raffenetti 2 integral format.
 Two-electron integral symmetry is turned on.
 Nuclear repulsion after empirical dispersion term =      227.5116458954 Hartrees.
 Force inversion solution in PCM.
 ------------------------------------------------------------------------------
 Polarizable Continuum Model (PCM)
 =================================
 Model                : PCM.
 Atomic radii         : UFF (Universal Force Field).
 Polarization charges : Total charges.
 Charge compensation  : None.
 Solution method      : Matrix inversion.
 Cavity type          : Scaled VdW (van der Waals Surface) (Alpha=1.100).
 Cavity algorithm     : GePol (No added spheres)
                        Default sphere list used, NSphG=   15.
                        Lebedev-Laikov grids with approx.  5.0 points / Ang**2.
                        Smoothing algorithm: York/Karplus (Gamma=1.0000).
                        Polarization charges: spherical gaussians, with
                                              point-specific exponents (IZeta= 3).
                        Self-potential: point-specific (ISelfS= 7).
                        Self-field    : sphere-specific E.n sum rule (ISelfD= 2).
 1st derivatives      : Analytical E(r).r(x)/FMM algorithm (CHGder, D1EAlg=3).
                        Cavity 1st derivative terms included.
 2nd derivatives      : Analytical E(r).r(xy)/FMM algorithm (CHGder, D2EAlg=3).
                        Cavity 2nd derivative terms included.
 Solvent              : Toluene, Eps=   2.374100 Eps(inf)=   2.238315
 ------------------------------------------------------------------------------
 Spheres list:
 ISph  on   Nord     Re0    Alpha      Xe            Ye            Ze
    1   C      1    1.9255  1.100     -0.929590      0.659020     -0.270889
    2   C      2    1.9255  1.100     -1.900150     -0.211550      0.290821
    3   O      3    1.7500  1.100     -3.032550     -0.455810     -0.114509
    4   C      4    1.9255  1.100      0.349270      0.781109      0.313231
    5   C      5    1.9255  1.100      2.898570     -0.275592      0.140691
    6   H      6    1.4430  1.100      2.875440     -0.455342      1.223401
    7   H      7    1.4430  1.100      3.568700     -1.007272     -0.331289
    8   H      8    1.4430  1.100      3.287900      0.735348     -0.037999
    9   N      9    1.8300  1.100      1.536290     -0.359961     -0.384469
   10   H     10    1.4430  1.100      1.117010     -1.280381     -0.236149
   11   H     11    1.4430  1.100      1.497870     -0.191101     -1.391639
   12   H     12    1.4430  1.100      0.924091      1.695889      0.119921
   13   H     13    1.4430  1.100      0.443850      0.451759      1.358141
   14   H     14    1.4430  1.100     -1.178430      1.210760     -1.182379
   15   H     15    1.4430  1.100     -1.538660     -0.711370      1.242241
 ------------------------------------------------------------------------------
 One-electron integrals computed using PRISM.
   1 Symmetry operations used in ECPInt.
 ECPInt:  NShTT=    2016 NPrTT=    7008 LenC2=    1987 LenP2D=    5704.
 LDataN:  DoStor=T MaxTD1= 4 Len=   56
 NBasis=   129 RedAO= T EigKep=  2.19D-03  NBF=   129
 NBsUse=   129 1.00D-06 EigRej= -1.00D+00 NBFU=   129
 ExpMin= 1.22D-01 ExpMax= 2.27D+03 ExpMxC= 3.41D+02 IAcc=3 IRadAn=         5 AccDes= 0.00D+00
 Harris functional with IExCor= 4639 and IRadAn=       5 diagonalized for initial guess.
 HarFok:  IExCor= 4639 AccDes= 0.00D+00 IRadAn=         5 IDoV= 1 UseB2=F ITyADJ=14
 ICtDFT=  3500011 ScaDFX=  1.000000  1.000000  1.000000  1.000000
 FoFCou: FMM=F IPFlag=           0 FMFlag=      100000 FMFlg1=           0
         NFxFlg=           0 DoJE=T BraDBF=F KetDBF=T FulRan=T
         wScrn=  0.000000 ICntrl=       500 IOpCl=  0 I1Cent=   200000004 NGrid=           0
         NMat0=    1 NMatS0=      1 NMatT0=    0 NMatD0=    1 NMtDS0=    0 NMtDT0=    0
 Petite list used in FoFCou.
 Requested convergence on RMS density matrix=1.00D-08 within 128 cycles.
 Requested convergence on MAX density matrix=1.00D-06.
 Requested convergence on             energy=1.00D-06.
 No special actions if energy rises.
 Inv3:  Mode=1 IEnd=     4793088.
 Iteration    1 A*A^-1 deviation from unit magnitude is 2.89D-15 for    470.
 Iteration    1 A*A^-1 deviation from orthogonality  is 2.27D-15 for    926    470.
 Iteration    1 A^-1*A deviation from unit magnitude is 2.44D-15 for     44.
 Iteration    1 A^-1*A deviation from orthogonality  is 2.28D-15 for    960    302.
 Error on total polarization charges =  0.00624
 SCF Done:  E(RwB97XD) =  -287.447388354     A.U. after   14 cycles
            NFock= 14  Conv=0.74D-08     -V/T= 2.0105
 DoSCS=F DFT=T ScalE2(SS,OS)=  1.000000  1.000000
 Range of M.O.s used for correlation:     1   129
 NBasis=   129 NAE=    24 NBE=    24 NFC=     0 NFV=     0
 NROrb=    129 NOA=    24 NOB=    24 NVA=   105 NVB=   105
   1 Symmetry operations used in ECPInt.
 ECPInt:  NShTT=    2016 NPrTT=    7008 LenC2=    1987 LenP2D=    5704.
 LDataN:  DoStor=T MaxTD1= 5 Len=  102
 Symmetrizing basis deriv contribution to polar:
 IMax=3 JMax=2 DiffMx= 0.00D+00
 G2DrvN: will do    16 centers at a time, making    1 passes.
 Calling FoFCou, ICntrl=  3107 FMM=F I1Cent=   0 AccDes= 0.00D+00.
 NEqPCM:  Using equilibrium solvation (IEInf=0, Eps=   2.3741, EpsInf=   2.2383)
 G2PCM: DoFxE=T DoFxN=T DoGrad=T DoDP/DQ/DG/TGxP=FFFF NFrqRd=   0 IEInf=0 SqF1=F DoCFld=F IF1Alg=4.
 End of G2Drv F.D. properties file   721 does not exist.
 End of G2Drv F.D. properties file   722 does not exist.
 End of G2Drv F.D. properties file   788 does not exist.
          IDoAtm=111111111111111
 NEqPCM:  Using equilibrium solvation (IEInf=0, Eps=   2.3741, EpsInf=   2.2383)
          Differentiating once with respect to electric field.
                with respect to dipole field.
          Differentiating once with respect to nuclear coordinates.
 Keep R1 ints in memory in canonical form, NReq=82911873.
          There are    48 degrees of freedom in the 1st order CPHF.  IDoFFX=6 NUNeed=     3.
     45 vectors produced by pass  0 Test12= 5.25D-15 2.08D-09 XBig12= 4.83D+01 5.46D+00.
 AX will form    45 AO Fock derivatives at one time.
     45 vectors produced by pass  1 Test12= 5.25D-15 2.08D-09 XBig12= 5.47D+00 4.97D-01.
     45 vectors produced by pass  2 Test12= 5.25D-15 2.08D-09 XBig12= 1.36D-01 5.98D-02.
     45 vectors produced by pass  3 Test12= 5.25D-15 2.08D-09 XBig12= 1.39D-03 7.07D-03.
     45 vectors produced by pass  4 Test12= 5.25D-15 2.08D-09 XBig12= 1.10D-05 7.25D-04.
     45 vectors produced by pass  5 Test12= 5.25D-15 2.08D-09 XBig12= 5.78D-08 3.95D-05.
     23 vectors produced by pass  6 Test12= 5.25D-15 2.08D-09 XBig12= 2.48D-10 2.01D-06.
      5 vectors produced by pass  7 Test12= 5.25D-15 2.08D-09 XBig12= 8.69D-13 1.01D-07.
      1 vectors produced by pass  8 Test12= 5.25D-15 2.08D-09 XBig12= 3.05D-15 6.38D-09.
 InvSVY:  IOpt=1 It=  1 EMax= 3.55D-15
 Solved reduced A of dimension   299 with    48 vectors.
 Isotropic polarizability for W=    0.000000       71.35 Bohr**3.
 End of Minotr F.D. properties file   721 does not exist.
 End of Minotr F.D. properties file   722 does not exist.
 End of Minotr F.D. properties file   788 does not exist.

 **********************************************************************

            Population analysis using the SCF Density.

 **********************************************************************

 Orbital symmetries:
       Occupied  (A) (A) (A) (A) (A) (A) (A) (A) (A) (A) (A) (A)
                 (A) (A) (A) (A) (A) (A) (A) (A) (A) (A) (A) (A)
       Virtual   (A) (A) (A) (A) (A) (A) (A) (A) (A) (A) (A) (A)
                 (A) (A) (A) (A) (A) (A) (A) (A) (A) (A) (A) (A)
                 (A) (A) (A) (A) (A) (A) (A) (A) (A) (A) (A) (A)
                 (A) (A) (A) (A) (A) (A) (A) (A) (A) (A) (A) (A)
                 (A) (A) (A) (A) (A) (A) (A) (A) (A) (A) (A) (A)
                 (A) (A) (A) (A) (A) (A) (A) (A) (A) (A) (A) (A)
                 (A) (A) (A) (A) (A) (A) (A) (A) (A) (A) (A) (A)
                 (A) (A) (A) (A) (A) (A) (A) (A) (A) (A) (A) (A)
                 (A) (A) (A) (A) (A) (A) (A) (A) (A)
 The electronic state is 1-A.
 Alpha  occ. eigenvalues --  -19.17620 -14.52852 -10.36182 -10.34791 -10.32766
 Alpha  occ. eigenvalues --  -10.24024  -1.05991  -1.05759  -0.85811  -0.80345
 Alpha  occ. eigenvalues --   -0.71849  -0.65968  -0.61492  -0.59116  -0.55761
 Alpha  occ. eigenvalues --   -0.51938  -0.51352  -0.50211  -0.47114  -0.44923
 Alpha  occ. eigenvalues --   -0.43415  -0.42065  -0.28243  -0.25329
 Alpha virt. eigenvalues --    0.09026   0.10806   0.14933   0.15224   0.17066
 Alpha virt. eigenvalues --    0.17790   0.19848   0.20263   0.22480   0.23416
 Alpha virt. eigenvalues --    0.25426   0.26244   0.34155   0.37048   0.44793
 Alpha virt. eigenvalues --    0.46175   0.48012   0.51101   0.52304   0.57809
 Alpha virt. eigenvalues --    0.60205   0.61407   0.64576   0.67008   0.68927
 Alpha virt. eigenvalues --    0.69576   0.70598   0.72764   0.73662   0.73984
 Alpha virt. eigenvalues --    0.74991   0.77287   0.78935   0.79535   0.80361
 Alpha virt. eigenvalues --    0.81967   0.85094   0.88196   0.90527   0.96154
 Alpha virt. eigenvalues --    1.00229   1.05953   1.10216   1.16121   1.17702
 Alpha virt. eigenvalues --    1.22048   1.28358   1.32096   1.36597   1.37396
 Alpha virt. eigenvalues --    1.39762   1.43472   1.46914   1.56157   1.57534
 Alpha virt. eigenvalues --    1.60858   1.64585   1.74849   1.75972   1.80349
 Alpha virt. eigenvalues --    1.82591   1.83008   1.84173   1.85239   1.86675
 Alpha virt. eigenvalues --    1.87699   1.90119   1.92899   1.97670   2.01024
 Alpha virt. eigenvalues --    2.02729   2.05793   2.08888   2.10579   2.12554
 Alpha virt. eigenvalues --    2.14916   2.20878   2.25989   2.30885   2.36028
 Alpha virt. eigenvalues --    2.36356   2.39016   2.43964   2.48634   2.53184
 Alpha virt. eigenvalues --    2.61607   2.67896   2.68633   2.71691   2.72414
 Alpha virt. eigenvalues --    2.77940   2.81162   2.86160   2.88547   2.96303
 Alpha virt. eigenvalues --    3.02319   3.03066   3.04925   3.07440   3.22378
 Alpha virt. eigenvalues --    3.28635   3.33793   3.46574   3.57108   3.76158
          Condensed to atoms (all electrons):
               1          2          3          4          5          6
     1  C    5.693078   0.282004  -0.112282   0.344890   0.004282   0.000527
     2  C    0.282004   4.495917   0.670439   0.014825   0.000107  -0.000039
     3  O   -0.112282   0.670439   7.852086   0.005484  -0.000000   0.000000
     4  C    0.344890   0.014825   0.005484   4.759650  -0.012356  -0.001889
     5  C    0.004282   0.000107  -0.000000  -0.012356   4.517722   0.406807
     6  H    0.000527  -0.000039   0.000000  -0.001889   0.406807   0.573758
     7  H   -0.000347  -0.000005   0.000000   0.001832   0.404767  -0.020312
     8  H    0.000527   0.000009  -0.000000  -0.002661   0.406509  -0.017257
     9  N   -0.088739  -0.003798   0.000066   0.063452   0.290033  -0.025785
    10  H    0.009991   0.003131  -0.000190  -0.000057  -0.015504  -0.004998
    11  H    0.009570  -0.000522  -0.000030  -0.004354  -0.017189   0.006384
    12  H   -0.006752   0.004598  -0.000108   0.387479   0.002066  -0.001055
    13  H   -0.024155  -0.010257   0.000093   0.391169   0.000697   0.005783
    14  H    0.368162  -0.014699   0.005940  -0.041706  -0.000074   0.000012
    15  H   -0.198007   0.412727  -0.051244   0.017963  -0.000012  -0.000010
               7          8          9         10         11         12
     1  C   -0.000347   0.000527  -0.088739   0.009991   0.009570  -0.006752
     2  C   -0.000005   0.000009  -0.003798   0.003131  -0.000522   0.004598
     3  O    0.000000  -0.000000   0.000066  -0.000190  -0.000030  -0.000108
     4  C    0.001832  -0.002661   0.063452  -0.000057  -0.004354   0.387479
     5  C    0.404767   0.406509   0.290033  -0.015504  -0.017189   0.002066
     6  H   -0.020312  -0.017257  -0.025785  -0.004998   0.006384  -0.001055
     7  H    0.579602  -0.020257  -0.012975  -0.006394  -0.005933  -0.000306
     8  H   -0.020257   0.574849  -0.025136   0.006451  -0.005275   0.006457
     9  N   -0.012975  -0.025136   6.422048   0.326488   0.334053  -0.043245
    10  H   -0.006394   0.006451   0.326488   0.517349  -0.012828   0.005145
    11  H   -0.005933  -0.005275   0.334053  -0.012828   0.514434  -0.002109
    12  H   -0.000306   0.006457  -0.043245   0.005145  -0.002109   0.635159
    13  H   -0.000205  -0.001153  -0.031205  -0.003018   0.004547  -0.027830
    14  H    0.000004  -0.000029  -0.000688  -0.000115   0.001934  -0.009765
    15  H   -0.000001   0.000000  -0.001014   0.001244   0.000108  -0.000404
              13         14         15
     1  C   -0.024155   0.368162  -0.198007
     2  C   -0.010257  -0.014699   0.412727
     3  O    0.000093   0.005940  -0.051244
     4  C    0.391169  -0.041706   0.017963
     5  C    0.000697  -0.000074  -0.000012
     6  H    0.005783   0.000012  -0.000010
     7  H   -0.000205   0.000004  -0.000001
     8  H   -0.001153  -0.000029   0.000000
     9  N   -0.031205  -0.000688  -0.001014
    10  H   -0.003018  -0.000115   0.001244
    11  H    0.004547   0.001934   0.000108
    12  H   -0.027830  -0.009765  -0.000404
    13  H    0.625048   0.007246   0.011760
    14  H    0.007246   0.672783   0.011973
    15  H    0.011760   0.011973   0.859600
 Mulliken charges:
               1
     1  C   -0.282749
     2  C    0.145562
     3  O   -0.370253
     4  C    0.076280
     5  C    0.012145
     6  H    0.078075
     7  H    0.080529
     8  H    0.076964
     9  N   -0.203555
    10  H    0.173304
    11  H    0.177209
    12  H    0.050672
    13  H    0.051480
    14  H   -0.000978
    15  H   -0.064682
 Sum of Mulliken charges =  -0.00000
 Mulliken charges with hydrogens summed into heavy atoms:
               1
     1  C   -0.283728
     2  C    0.080880
     3  O   -0.370253
     4  C    0.178431
     5  C    0.247714
     9  N    0.146957
 APT charges:
               1
     1  C   -0.983789
     2  C    1.242453
     3  O   -1.110465
     4  C    1.172445
     5  C    0.240276
     6  H    0.027223
     7  H   -0.030438
     8  H    0.026724
     9  N   -0.755355
    10  H    0.172996
    11  H    0.184025
    12  H   -0.045312
    13  H   -0.026265
    14  H    0.019531
    15  H   -0.134048
 Sum of APT charges =   0.00000
 APT charges with hydrogens summed into heavy atoms:
               1
     1  C   -0.964258
     2  C    1.108405
     3  O   -1.110465
     4  C    1.100867
     5  C    0.263785
     9  N   -0.398334
 Electronic spatial extent (au):  <R**2>=            937.5331
 Charge=              0.0000 electrons
 Dipole moment (field-independent basis, Debye):
    X=             11.5313    Y=             -0.6970    Z=             -0.2752  Tot=             11.5556
 Quadrupole moment (field-independent basis, Debye-Ang):
   XX=            -48.5860   YY=            -36.6597   ZZ=            -35.2906
   XY=             -3.9230   XZ=             -2.7116   YZ=             -0.2826
 Traceless Quadrupole moment (field-independent basis, Debye-Ang):
   XX=             -8.4072   YY=              3.5191   ZZ=              4.8882
   XY=             -3.9230   XZ=             -2.7116   YZ=             -0.2826
 Octapole moment (field-independent basis, Debye-Ang**2):
  XXX=             98.3204  YYY=             -7.0100  ZZZ=             -4.2344  XYY=              8.6061
  XXY=              5.5482  XXZ=              0.9245  XZZ=              5.8356  YZZ=             -1.5616
  YYZ=             -2.2965  XYZ=              1.1967
 Hexadecapole moment (field-independent basis, Debye-Ang**3):
 XXXX=          -1115.1871 YYYY=           -117.0339 ZZZZ=            -79.0387 XXXY=            -41.1156
 XXXZ=            -15.0176 YYYX=              2.3722 YYYZ=              0.8541 ZZZX=             -2.7800
 ZZZY=              0.4998 XXYY=           -182.1363 XXZZ=           -170.9117 YYZZ=            -34.4154
 XXYZ=             -0.4868 YYXZ=             -0.5118 ZZXY=             -1.8880
 N-N= 2.275116458954D+02 E-N=-1.124053753598D+03  KE= 2.844657957008D+02
  Exact polarizability:     107.195       5.009      52.966       2.210      -5.279      53.903
 Approx polarizability:      93.186       6.548      52.410       4.325      -3.790      52.736
   1 Symmetry operations used in ECPInt.
 ECPInt:  NShTT=    2016 NPrTT=    7008 LenC2=    1987 LenP2D=    5704.
 LDataN:  DoStor=T MaxTD1= 6 Len=  172
 D2PCM: PCM CHGder 2nd derivatives, FixD1E=F FixD2E=F DoIter=F DoCFld=F I1PDM=0
 Calling FoFJK, ICntrl=    100127 FMM=F ISym2X=0 I1Cent= 0 IOpClX= 0 NMat=1 NMatS=1 NMatT=0.
 Full mass-weighted force constant matrix:
 Low frequencies --- -285.7062  -39.4011  -22.6063   -7.8772   -0.0009   -0.0004
 Low frequencies ---    0.0012   54.2738   95.9976
 ******    1 imaginary frequencies (negative Signs) ****** 
 Diagonal vibrational polarizability:
      263.1722067      40.5219659      41.9332488
 Harmonic frequencies (cm**-1), IR intensities (KM/Mole), Raman scattering
 activities (A**4/AMU), depolarization ratios for plane and unpolarized
 incident light, reduced masses (AMU), force constants (mDyne/A),
 and normal coordinates:
                      1                      2                      3
                      A                      A                      A
 Frequencies --   -285.7051                52.8257                95.8337
 Red. masses --      6.2861                 2.4403                 3.3671
 Frc consts  --      0.3023                 0.0040                 0.0182
 IR Inten    --    614.3084                 6.6396                 5.1859
  Atom  AN      X      Y      Z        X      Y      Z        X      Y      Z
     1   6     0.13  -0.15  -0.06     0.02  -0.05   0.03     0.01  -0.17  -0.08
     2   6     0.08   0.01  -0.04    -0.06   0.01  -0.02    -0.07  -0.03   0.00
     3   8     0.02   0.03   0.03    -0.05   0.09  -0.08    -0.15   0.16   0.11
     4   6     0.34  -0.28  -0.11     0.00  -0.10   0.09    -0.00  -0.15  -0.06
     5   6    -0.17   0.07   0.01     0.09   0.16  -0.14     0.06   0.11   0.11
     6   1    -0.10   0.00  -0.00     0.30   0.38  -0.10    -0.07  -0.18   0.06
     7   1    -0.40  -0.01  -0.15     0.08   0.13  -0.11     0.25   0.35   0.02
     8   1    -0.09   0.03  -0.01    -0.06   0.16  -0.43    -0.09   0.22   0.43
     9   7    -0.29   0.24   0.13     0.00  -0.11   0.12     0.14   0.02  -0.10
    10   1    -0.28   0.21   0.06     0.15  -0.14   0.36     0.22  -0.05  -0.29
    11   1    -0.29   0.20   0.11    -0.21  -0.29   0.10     0.27   0.16  -0.08
    12   1     0.09  -0.05   0.12     0.03  -0.11   0.12    -0.05  -0.11   0.02
    13   1     0.11  -0.04   0.01    -0.05  -0.10   0.09    -0.01  -0.22  -0.08
    14   1     0.17  -0.06  -0.03     0.09  -0.03   0.02    -0.01  -0.11  -0.04
    15   1     0.07   0.03  -0.00    -0.13  -0.02  -0.00    -0.07  -0.08  -0.03
                      4                      5                      6
                      A                      A                      A
 Frequencies --    172.9757               221.4547               267.5489
 Red. masses --      1.1541                 2.5284                 2.2674
 Frc consts  --      0.0203                 0.0731                 0.0956
 IR Inten    --      1.5186                 8.1313                 0.1555
  Atom  AN      X      Y      Z        X      Y      Z        X      Y      Z
     1   6    -0.01   0.01   0.02     0.01  -0.16  -0.06     0.02  -0.03   0.09
     2   6     0.02  -0.05  -0.03    -0.08  -0.00   0.03    -0.09   0.14   0.16
     3   8    -0.02   0.03   0.02    -0.07   0.01  -0.02     0.05  -0.06  -0.12
     4   6     0.01  -0.03  -0.00    -0.05   0.06   0.06     0.05  -0.07   0.02
     5   6    -0.02   0.01   0.04     0.14  -0.12  -0.07    -0.04   0.04   0.01
     6   1    -0.17   0.53   0.12     0.21  -0.02  -0.05    -0.18   0.18   0.04
     7   1    -0.10  -0.34   0.46    -0.13  -0.36  -0.08     0.01  -0.02   0.19
     8   1     0.20  -0.15  -0.40     0.41  -0.26  -0.21    -0.02   0.02  -0.06
     9   7     0.02   0.02  -0.05     0.05   0.18   0.07     0.02  -0.01  -0.12
    10   1     0.01   0.02  -0.08    -0.04   0.21  -0.03     0.05  -0.05  -0.23
    11   1     0.07   0.02  -0.06     0.01   0.28   0.09     0.08   0.10  -0.10
    12   1    -0.01  -0.01   0.06    -0.16   0.13   0.07     0.08  -0.09   0.01
    13   1     0.03  -0.10  -0.03    -0.09   0.12   0.08     0.07  -0.10   0.01
    14   1    -0.05   0.12   0.10     0.05  -0.27  -0.14     0.11  -0.27  -0.09
    15   1     0.07  -0.18  -0.12    -0.20   0.15   0.15    -0.35   0.51   0.45
                      7                      8                      9
                      A                      A                      A
 Frequencies --    336.3764               458.2741               624.7655
 Red. masses --      2.3125                 4.6078                 3.2583
 Frc consts  --      0.1542                 0.5702                 0.7493
 IR Inten    --     10.6962               192.0636                10.4303
  Atom  AN      X      Y      Z        X      Y      Z        X      Y      Z
     1   6    -0.02  -0.08   0.18    -0.14   0.23   0.09    -0.16   0.01  -0.02
     2   6    -0.03  -0.13   0.07    -0.16   0.10  -0.05     0.09  -0.02   0.17
     3   8    -0.02   0.09  -0.11    -0.15  -0.17   0.01     0.18   0.11  -0.07
     4   6     0.10   0.10  -0.10     0.16  -0.16  -0.19    -0.14  -0.13  -0.16
     5   6    -0.01   0.00   0.01     0.18  -0.03   0.03     0.05  -0.01   0.01
     6   1    -0.02  -0.05   0.00     0.27  -0.11   0.02     0.14  -0.07   0.00
     7   1     0.01   0.04  -0.02    -0.01  -0.10  -0.12    -0.09  -0.06  -0.10
     8   1    -0.03   0.02   0.07     0.27  -0.07   0.02     0.14  -0.04   0.00
     9   7    -0.00   0.00  -0.00     0.07   0.06   0.08    -0.01   0.06   0.06
    10   1    -0.05   0.04   0.11     0.15   0.02   0.11     0.05   0.04   0.12
    11   1     0.02  -0.12  -0.03     0.17  -0.10   0.05     0.06  -0.11   0.02
    12   1    -0.06   0.11  -0.51     0.09  -0.10  -0.16    -0.14  -0.07   0.16
    13   1     0.40   0.43  -0.02     0.18  -0.04  -0.15    -0.33  -0.34  -0.21
    14   1    -0.17  -0.12   0.19    -0.15   0.48   0.24    -0.58   0.08   0.14
    15   1    -0.15  -0.35  -0.00    -0.05   0.09  -0.09     0.03  -0.05   0.17
                     10                     11                     12
                      A                      A                      A
 Frequencies --    696.0379               751.4663               907.4714
 Red. masses --      1.1860                 1.2655                 1.4734
 Frc consts  --      0.3385                 0.4210                 0.7149
 IR Inten    --     32.7104               113.4160                 1.0301
  Atom  AN      X      Y      Z        X      Y      Z        X      Y      Z
     1   6    -0.04   0.05   0.02     0.05  -0.10  -0.07     0.03   0.01  -0.02
     2   6     0.02  -0.01  -0.01    -0.02   0.05   0.02    -0.03  -0.05   0.04
     3   8     0.02   0.02   0.00     0.01  -0.02  -0.01    -0.04  -0.01  -0.01
     4   6    -0.02  -0.04  -0.01    -0.01   0.02   0.01     0.10   0.12  -0.07
     5   6     0.01   0.00   0.00    -0.01  -0.00  -0.00    -0.01  -0.02   0.01
     6   1     0.16   0.09   0.02     0.05   0.05   0.01     0.20   0.12   0.04
     7   1    -0.01   0.01  -0.04     0.03   0.03  -0.00     0.08   0.11  -0.06
     8   1    -0.06   0.00  -0.14    -0.08   0.02  -0.06    -0.24   0.04  -0.17
     9   7    -0.02  -0.04   0.07    -0.00  -0.04   0.03    -0.00  -0.05   0.03
    10   1     0.13  -0.21  -0.53     0.01  -0.08  -0.21    -0.22   0.02  -0.19
    11   1     0.04   0.56   0.17    -0.02   0.23   0.07     0.17   0.17   0.06
    12   1     0.04  -0.13  -0.25    -0.10   0.03  -0.16     0.30   0.12   0.51
    13   1    -0.03   0.23   0.07     0.12   0.12   0.03    -0.23  -0.32  -0.17
    14   1     0.07  -0.23  -0.18    -0.25   0.68   0.49    -0.25  -0.08   0.00
    15   1     0.06  -0.08  -0.06    -0.03   0.11   0.06    -0.12  -0.09   0.06
                     13                     14                     15
                      A                      A                      A
 Frequencies --   1014.1837              1035.4214              1043.5981
 Red. masses --      1.1682                 1.5402                 1.4942
 Frc consts  --      0.7080                 0.9729                 0.9588
 IR Inten    --     13.6795                 3.5787                13.1920
  Atom  AN      X      Y      Z        X      Y      Z        X      Y      Z
     1   6    -0.01   0.00   0.04    -0.01   0.05   0.02    -0.03   0.01   0.00
     2   6     0.03  -0.02  -0.06     0.07  -0.16  -0.10     0.01  -0.00  -0.01
     3   8     0.01   0.02   0.02    -0.02   0.04   0.02     0.01   0.01   0.00
     4   6    -0.04  -0.03   0.01     0.02   0.02  -0.01     0.00  -0.03   0.01
     5   6    -0.03  -0.03   0.04     0.00   0.02  -0.02     0.17  -0.05   0.02
     6   1     0.39   0.10   0.07    -0.16  -0.07  -0.03    -0.07   0.17   0.05
     7   1    -0.04   0.11  -0.20    -0.03  -0.07   0.07     0.53   0.14   0.26
     8   1    -0.24   0.01  -0.25     0.14  -0.01   0.11    -0.18   0.10   0.07
     9   7     0.00   0.02  -0.01    -0.00  -0.01   0.02    -0.08  -0.01  -0.05
    10   1    -0.30   0.15  -0.05     0.21  -0.11  -0.01    -0.51   0.20   0.04
    11   1     0.49  -0.16  -0.06    -0.21   0.09   0.04    -0.37   0.15  -0.01
    12   1    -0.26   0.08  -0.10     0.05   0.00   0.03    -0.13   0.05  -0.01
    13   1     0.21  -0.07  -0.03     0.00  -0.04  -0.03    -0.00   0.09   0.04
    14   1     0.18   0.03   0.01    -0.11   0.08   0.06    -0.02  -0.02  -0.02
    15   1    -0.04   0.27   0.13    -0.33   0.64   0.47     0.01   0.07   0.03
                     16                     17                     18
                      A                      A                      A
 Frequencies --   1109.2021              1190.2551              1193.5987
 Red. masses --      2.5020                 1.4686                 1.4131
 Frc consts  --      1.8137                 1.2258                 1.1861
 IR Inten    --    120.0304               189.8853                15.3529
  Atom  AN      X      Y      Z        X      Y      Z        X      Y      Z
     1   6    -0.01   0.04   0.00     0.05   0.06  -0.06    -0.03   0.05  -0.10
     2   6    -0.01  -0.01   0.01    -0.04  -0.10   0.12     0.00  -0.06   0.04
     3   8     0.01   0.00   0.00    -0.01   0.01  -0.02    -0.01   0.01  -0.01
     4   6     0.00  -0.07  -0.03    -0.05   0.01  -0.05     0.03  -0.04   0.10
     5   6    -0.16  -0.09  -0.13     0.01   0.01   0.01    -0.01  -0.01   0.03
     6   1    -0.40   0.17  -0.09     0.05  -0.00   0.01     0.13   0.03   0.04
     7   1     0.24   0.10   0.15     0.00   0.00   0.00    -0.04   0.05  -0.09
     8   1    -0.50   0.06  -0.02     0.05  -0.01   0.01    -0.05  -0.01  -0.10
     9   7     0.23   0.04   0.10    -0.02   0.01   0.00     0.02   0.03  -0.05
    10   1    -0.22   0.29   0.25    -0.08   0.04   0.02    -0.15   0.14   0.09
    11   1    -0.12   0.28   0.18    -0.07   0.04   0.01     0.13  -0.14  -0.09
    12   1    -0.10  -0.02  -0.08     0.14  -0.13  -0.11     0.50  -0.39  -0.15
    13   1    -0.02   0.02  -0.01    -0.02  -0.12  -0.10    -0.13   0.42   0.27
    14   1     0.03   0.01  -0.03     0.80   0.40  -0.06    -0.32   0.04  -0.03
    15   1    -0.02   0.01   0.02    -0.15  -0.17   0.12    -0.10  -0.02   0.09
                     19                     20                     21
                      A                      A                      A
 Frequencies --   1242.4642              1252.8649              1279.5925
 Red. masses --      1.2806                 1.3761                 1.3619
 Frc consts  --      1.1648                 1.2726                 1.3138
 IR Inten    --     78.7578                13.3073               118.3793
  Atom  AN      X      Y      Z        X      Y      Z        X      Y      Z
     1   6     0.01  -0.00   0.01    -0.08   0.03  -0.11     0.05  -0.05   0.07
     2   6     0.00  -0.01   0.01    -0.01  -0.02   0.05     0.00   0.04  -0.07
     3   8    -0.00   0.00  -0.00     0.00   0.01  -0.01     0.01  -0.01   0.02
     4   6     0.01   0.00  -0.01     0.02   0.02   0.07    -0.08   0.04  -0.01
     5   6     0.03  -0.08  -0.06     0.01  -0.02  -0.02     0.01  -0.02  -0.02
     6   1    -0.21   0.18  -0.02    -0.06   0.04  -0.01     0.00   0.07   0.00
     7   1     0.34   0.06   0.16     0.10   0.00   0.08     0.13   0.04   0.06
     8   1    -0.26   0.06   0.09    -0.06   0.02   0.05    -0.01   0.00   0.05
     9   7    -0.07   0.07   0.03    -0.03   0.02   0.04    -0.03   0.05   0.03
    10   1     0.43  -0.21  -0.18     0.15  -0.08  -0.06    -0.03   0.06   0.02
    11   1     0.42  -0.35  -0.07     0.05  -0.04   0.02     0.01   0.01   0.02
    12   1    -0.02   0.03   0.06     0.04   0.02   0.06     0.54  -0.45  -0.40
    13   1    -0.25   0.18   0.08     0.87  -0.28  -0.09     0.06  -0.45  -0.19
    14   1     0.08   0.07   0.03    -0.11  -0.06  -0.17    -0.10  -0.09   0.10
    15   1    -0.02  -0.00   0.02     0.07  -0.02   0.01    -0.01   0.04  -0.06
                     22                     23                     24
                      A                      A                      A
 Frequencies --   1323.2511              1364.6922              1442.3568
 Red. masses --      1.3009                 1.3540                 1.3198
 Frc consts  --      1.3421                 1.4858                 1.6178
 IR Inten    --      1.2629                80.2768                 2.3207
  Atom  AN      X      Y      Z        X      Y      Z        X      Y      Z
     1   6    -0.01  -0.00  -0.00    -0.13  -0.09   0.04     0.04   0.04  -0.03
     2   6     0.00  -0.00  -0.00    -0.00  -0.01  -0.00     0.00  -0.05   0.07
     3   8     0.00   0.00  -0.00    -0.00   0.02  -0.03    -0.07   0.00  -0.05
     4   6     0.00  -0.01   0.01     0.01   0.03  -0.03     0.06   0.01   0.06
     5   6     0.03   0.09  -0.10    -0.00  -0.00   0.00     0.01   0.00   0.00
     6   1    -0.28  -0.19  -0.15    -0.03   0.00   0.00    -0.04   0.02   0.01
     7   1    -0.08  -0.23   0.23    -0.01   0.02  -0.03    -0.07  -0.04  -0.04
     8   1     0.23   0.08   0.26    -0.02  -0.01  -0.03    -0.06   0.03   0.01
     9   7    -0.02  -0.06   0.06     0.02  -0.01  -0.01    -0.00   0.00  -0.00
    10   1    -0.51   0.13  -0.16     0.01   0.01   0.02    -0.00  -0.01  -0.02
    11   1     0.54  -0.02   0.05    -0.03   0.03   0.00     0.00  -0.03  -0.01
    12   1     0.04  -0.03   0.00     0.35  -0.10   0.30    -0.24   0.08  -0.50
    13   1    -0.01   0.04   0.03     0.03   0.19   0.03    -0.32  -0.36  -0.03
    14   1     0.00   0.02   0.01     0.32   0.14   0.06    -0.13  -0.04  -0.04
    15   1     0.02   0.01   0.00     0.67   0.36  -0.04     0.58   0.23   0.03
                     25                     26                     27
                      A                      A                      A
 Frequencies --   1451.4225              1478.0993              1487.2239
 Red. masses --      1.1926                 1.0391                 1.0296
 Frc consts  --      1.4802                 1.3375                 1.3417
 IR Inten    --      1.4779                15.2756                18.4237
  Atom  AN      X      Y      Z        X      Y      Z        X      Y      Z
     1   6     0.01   0.01  -0.00    -0.00  -0.00   0.00    -0.00   0.00  -0.00
     2   6    -0.00  -0.01   0.01    -0.00   0.00  -0.00     0.00   0.00   0.00
     3   8    -0.01  -0.00  -0.01     0.00   0.00   0.00     0.00   0.00   0.00
     4   6     0.01  -0.01  -0.00    -0.00  -0.00  -0.00     0.01   0.00   0.00
     5   6    -0.12  -0.00  -0.04     0.00  -0.03  -0.03    -0.01  -0.02   0.02
     6   1     0.55  -0.01  -0.03     0.21   0.61   0.09    -0.43   0.29   0.05
     7   1     0.43   0.22   0.36    -0.26  -0.15  -0.18     0.15   0.44  -0.47
     8   1     0.47  -0.19   0.18    -0.01   0.10   0.66     0.47  -0.21  -0.07
     9   7    -0.01   0.00  -0.00     0.01  -0.02  -0.01    -0.01  -0.02   0.02
    10   1     0.01   0.00   0.04    -0.02   0.00   0.03    -0.10   0.01  -0.03
    11   1     0.03   0.03   0.00    -0.02   0.04  -0.00     0.10  -0.00   0.02
    12   1    -0.06   0.03   0.01     0.00   0.01   0.03    -0.03   0.02  -0.02
    13   1    -0.03   0.03   0.01     0.01   0.02   0.01     0.01  -0.02  -0.00
    14   1    -0.03  -0.01  -0.00     0.01   0.00   0.00    -0.00   0.00  -0.00
    15   1     0.11   0.05   0.00    -0.01  -0.00  -0.00    -0.01  -0.01   0.00
                     28                     29                     30
                      A                      A                      A
 Frequencies --   1521.3039              1628.5937              1779.3199
 Red. masses --      2.4795                 1.0922                 8.4421
 Frc consts  --      3.3809                 1.7067                15.7473
 IR Inten    --    100.0121                34.8399               877.7679
  Atom  AN      X      Y      Z        X      Y      Z        X      Y      Z
     1   6     0.25   0.08   0.03    -0.00  -0.00  -0.00    -0.14  -0.07   0.01
     2   6     0.02  -0.03   0.06     0.00  -0.00   0.00     0.63   0.20   0.14
     3   8    -0.09  -0.02  -0.04    -0.00  -0.00  -0.00    -0.36  -0.08  -0.12
     4   6    -0.17  -0.07  -0.09     0.01   0.00   0.00    -0.02   0.02   0.01
     5   6     0.02  -0.00   0.01     0.02  -0.01  -0.00    -0.01  -0.00  -0.00
     6   1    -0.10   0.02   0.01    -0.06  -0.01  -0.01     0.01   0.00  -0.01
     7   1    -0.04  -0.01  -0.07     0.03  -0.01  -0.00     0.02   0.01   0.02
     8   1    -0.03   0.02  -0.02    -0.04   0.01  -0.03     0.00  -0.01   0.01
     9   7    -0.02   0.01   0.01    -0.06  -0.03  -0.05     0.03  -0.01   0.00
    10   1    -0.02   0.02   0.02     0.22  -0.01   0.67    -0.03   0.01  -0.01
    11   1     0.01   0.02   0.01     0.42   0.56   0.06    -0.04   0.01   0.00
    12   1     0.04  -0.10   0.43    -0.01   0.01  -0.02     0.06  -0.05  -0.01
    13   1     0.42   0.39  -0.01    -0.01  -0.01   0.00    -0.00  -0.05  -0.04
    14   1    -0.30  -0.18   0.04     0.00   0.01  -0.00     0.25   0.09   0.05
    15   1     0.42   0.17   0.02    -0.00  -0.01   0.00    -0.45  -0.27   0.10
                     31                     32                     33
                      A                      A                      A
 Frequencies --   2748.3976              3070.9127              3089.2846
 Red. masses --      1.0768                 1.0344                 1.0604
 Frc consts  --      4.7922                 5.7472                 5.9624
 IR Inten    --    254.0452                24.8643                53.6748
  Atom  AN      X      Y      Z        X      Y      Z        X      Y      Z
     1   6    -0.00  -0.00  -0.00    -0.00  -0.00   0.00     0.00   0.00  -0.00
     2   6    -0.01   0.04  -0.07     0.00   0.00  -0.00     0.00   0.00  -0.00
     3   8    -0.01  -0.00  -0.00    -0.00  -0.00  -0.00    -0.00  -0.00  -0.00
     4   6    -0.00   0.00   0.00     0.00   0.00   0.00    -0.04  -0.02  -0.05
     5   6    -0.00  -0.00  -0.00    -0.05  -0.00  -0.01    -0.00   0.00  -0.00
     6   1     0.00   0.00  -0.00    -0.02  -0.09   0.53     0.00  -0.01   0.03
     7   1     0.00   0.00   0.00     0.37  -0.42  -0.27     0.02  -0.01  -0.01
     8   1    -0.00  -0.00   0.00     0.20   0.52  -0.09     0.01   0.01  -0.00
     9   7     0.00  -0.00  -0.00     0.00   0.00   0.00     0.00  -0.00   0.00
    10   1    -0.00  -0.00  -0.00    -0.00  -0.00  -0.00    -0.00  -0.00  -0.00
    11   1    -0.00   0.00  -0.00    -0.00  -0.00  -0.00    -0.00   0.00  -0.00
    12   1     0.00  -0.01   0.00    -0.02  -0.02   0.01     0.33   0.52  -0.12
    13   1     0.01   0.00  -0.01    -0.00   0.01  -0.02     0.06  -0.24   0.73
    14   1     0.01   0.00   0.00    -0.00   0.00  -0.00     0.01  -0.02   0.03
    15   1     0.29  -0.45   0.84     0.00  -0.00   0.00     0.00  -0.01   0.01
                     34                     35                     36
                      A                      A                      A
 Frequencies --   3176.7095              3178.0494              3189.7164
 Red. masses --      1.1095                 1.1092                 1.1075
 Frc consts  --      6.5970                 6.6004                 6.6389
 IR Inten    --      5.3069                 9.1183                 4.1823
  Atom  AN      X      Y      Z        X      Y      Z        X      Y      Z
     1   6    -0.00   0.01  -0.02    -0.01   0.01  -0.02     0.00  -0.00   0.00
     2   6    -0.00  -0.00   0.00    -0.00  -0.00   0.00     0.00   0.00  -0.00
     3   8     0.00   0.00   0.00     0.00   0.00   0.00    -0.00  -0.00   0.00
     4   6    -0.02  -0.04   0.04    -0.02  -0.05   0.04     0.00   0.00   0.00
     5   6    -0.02   0.06   0.03     0.02  -0.05  -0.03     0.03   0.05  -0.08
     6   1     0.00   0.04  -0.21    -0.01  -0.05   0.23    -0.02  -0.13   0.77
     7   1     0.34  -0.37  -0.25    -0.31   0.35   0.23    -0.07   0.09   0.04
     8   1    -0.15  -0.38   0.07     0.13   0.34  -0.07    -0.21  -0.56   0.09
     9   7    -0.00  -0.00  -0.00     0.00   0.00  -0.00    -0.00  -0.00   0.00
    10   1    -0.00   0.01  -0.00    -0.01  -0.01   0.00    -0.00   0.01  -0.00
    11   1     0.00  -0.00   0.01     0.00  -0.00  -0.00     0.01   0.00  -0.01
    12   1     0.25   0.39  -0.09     0.27   0.42  -0.09    -0.00  -0.01   0.00
    13   1    -0.04   0.12  -0.38    -0.04   0.13  -0.40    -0.00   0.00  -0.00
    14   1     0.06  -0.14   0.23     0.07  -0.15   0.25    -0.02   0.03  -0.06
    15   1     0.00   0.00  -0.00     0.00   0.00  -0.00     0.00  -0.00   0.00
                     37                     38                     39
                      A                      A                      A
 Frequencies --   3193.1683              3513.7442              3594.2862
 Red. masses --      1.0951                 1.0540                 1.0968
 Frc consts  --      6.5789                 7.6673                 8.3483
 IR Inten    --     23.6840                25.3802                49.5090
  Atom  AN      X      Y      Z        X      Y      Z        X      Y      Z
     1   6    -0.02   0.04  -0.07    -0.00  -0.00  -0.00     0.00  -0.00   0.00
     2   6    -0.00  -0.00   0.00     0.00   0.00  -0.00    -0.00  -0.00   0.00
     3   8     0.00   0.00   0.00    -0.00  -0.00  -0.00     0.00   0.00   0.00
     4   6     0.02   0.03  -0.02     0.00  -0.00  -0.00    -0.00  -0.00   0.00
     5   6     0.00   0.00  -0.00     0.00  -0.00  -0.00     0.00   0.00  -0.00
     6   1    -0.00  -0.01   0.04     0.00  -0.00   0.01     0.00  -0.00   0.01
     7   1    -0.00   0.00  -0.00    -0.01   0.01   0.00    -0.00  -0.00   0.00
     8   1    -0.02  -0.04   0.01     0.00   0.01  -0.00    -0.01  -0.01   0.00
     9   7    -0.00  -0.00   0.00    -0.03  -0.04  -0.04     0.02   0.05  -0.06
    10   1     0.00   0.00  -0.00     0.30   0.64  -0.13    -0.28  -0.62   0.10
    11   1    -0.00   0.00   0.00     0.02  -0.14   0.68     0.03  -0.12   0.71
    12   1    -0.18  -0.27   0.06     0.00   0.01   0.00     0.00  -0.01  -0.00
    13   1     0.02  -0.07   0.22    -0.00   0.00   0.00    -0.00   0.00   0.01
    14   1     0.21  -0.46   0.75    -0.00   0.00  -0.00    -0.00   0.00  -0.00
    15   1     0.00   0.00  -0.00     0.00  -0.00   0.00    -0.00   0.00  -0.00

 -------------------
 - Thermochemistry -
 -------------------
 Temperature   298.150 Kelvin.  Pressure   1.00000 Atm.
 Atom     1 has atomic number  6 and mass  12.00000
 Atom     2 has atomic number  6 and mass  12.00000
 Atom     3 has atomic number  8 and mass  15.99491
 Atom     4 has atomic number  6 and mass  12.00000
 Atom     5 has atomic number  6 and mass  12.00000
 Atom     6 has atomic number  1 and mass   1.00783
 Atom     7 has atomic number  1 and mass   1.00783
 Atom     8 has atomic number  1 and mass   1.00783
 Atom     9 has atomic number  7 and mass  14.00307
 Atom    10 has atomic number  1 and mass   1.00783
 Atom    11 has atomic number  1 and mass   1.00783
 Atom    12 has atomic number  1 and mass   1.00783
 Atom    13 has atomic number  1 and mass   1.00783
 Atom    14 has atomic number  1 and mass   1.00783
 Atom    15 has atomic number  1 and mass   1.00783
 Molecular mass:    87.06841 amu.
 Principal axes and moments of inertia in atomic units:
                           1         2         3
     Eigenvalues --   148.923881389.715831439.00942
           X            0.99997  -0.00765   0.00106
           Y            0.00771   0.99635  -0.08504
           Z           -0.00041   0.08505   0.99638
 This molecule is an asymmetric top.
 Rotational symmetry number  1.
 Rotational temperatures (Kelvin)      0.58160     0.06232     0.06019
 Rotational constants (GHZ):          12.11855     1.29864     1.25416
    1 imaginary frequencies ignored.
 Zero-point vibrational energy     341992.9 (Joules/Mol)
                                   81.73826 (Kcal/Mol)
 Warning -- explicit consideration of   7 degrees of freedom as
           vibrations may cause significant error
 Vibrational temperatures:     76.00   137.88   248.87   318.62   384.94
          (Kelvin)            483.97   659.35   898.90  1001.44  1081.19
                             1305.65  1459.18  1489.74  1501.50  1595.89
                             1712.51  1717.32  1787.63  1802.59  1841.05
                             1903.86  1963.49  2075.23  2088.27  2126.66
                             2139.78  2188.82  2343.18  2560.04  3954.33
                             4418.36  4444.79  4570.58  4572.50  4589.29
                             4594.26  5055.49  5171.38
 
 Zero-point correction=                           0.130258 (Hartree/Particle)
 Thermal correction to Energy=                    0.137545
 Thermal correction to Enthalpy=                  0.138489
 Thermal correction to Gibbs Free Energy=         0.098377
 Sum of electronic and zero-point Energies=           -287.317130
 Sum of electronic and thermal Energies=              -287.309844
 Sum of electronic and thermal Enthalpies=            -287.308900
 Sum of electronic and thermal Free Energies=         -287.349011
 
                     E (Thermal)             CV                S
                      KCal/Mol        Cal/Mol-Kelvin    Cal/Mol-Kelvin
 Total                   86.311             24.271             84.422
 Electronic               0.000              0.000              0.000
 Translational            0.889              2.981             39.305
 Rotational               0.889              2.981             27.190
 Vibrational             84.533             18.309             17.927
 Vibration     1          0.596              1.976              4.709
 Vibration     2          0.603              1.952              3.537
 Vibration     3          0.626              1.876              2.403
 Vibration     4          0.648              1.808              1.947
 Vibration     5          0.673              1.733              1.612
 Vibration     6          0.717              1.603              1.229
 Vibration     7          0.816              1.343              0.771
                       Q            Log10(Q)             Ln(Q)
 Total Bot       0.562052D-45        -45.250224       -104.192490
 Total V=0       0.461677D+15         14.664339         33.765887
 Vib (Bot)       0.900967D-58        -58.045291       -133.654222
 Vib (Bot)    1  0.391219D+01          0.592420          1.364099
 Vib (Bot)    2  0.214319D+01          0.331060          0.762293
 Vib (Bot)    3  0.116391D+01          0.065920          0.151787
 Vib (Bot)    4  0.892654D+00         -0.049317         -0.113556
 Vib (Bot)    5  0.723239D+00         -0.140718         -0.324015
 Vib (Bot)    6  0.553274D+00         -0.257060         -0.591902
 Vib (Bot)    7  0.371678D+00         -0.429833         -0.989728
 Vib (V=0)       0.740067D+02          1.869271          4.304156
 Vib (V=0)    1  0.444402D+01          0.647776          1.491559
 Vib (V=0)    2  0.270074D+01          0.431482          0.993525
 Vib (V=0)    3  0.176676D+01          0.247179          0.569150
 Vib (V=0)    4  0.152315D+01          0.182742          0.420779
 Vib (V=0)    5  0.137925D+01          0.139642          0.321538
 Vib (V=0)    6  0.124573D+01          0.095424          0.219721
 Vib (V=0)    7  0.112301D+01          0.050385          0.116015
 Electronic      0.100000D+01          0.000000          0.000000
 Translational   0.319334D+08          7.504245         17.279162
 Rotational      0.195354D+06          5.290823         12.182569
 ***** Axes restored to original set *****
 -------------------------------------------------------------------
 Center     Atomic                   Forces (Hartrees/Bohr)
 Number     Number              X              Y              Z
 -------------------------------------------------------------------
      1        6          -0.000002273    0.000003271   -0.000004417
      2        6           0.000001928   -0.000002975   -0.000008632
      3        8          -0.000000843   -0.000002493   -0.000014565
      4        6          -0.000004463   -0.000004485    0.000001925
      5        6           0.000006066   -0.000006735    0.000010187
      6        1          -0.000003064   -0.000003053   -0.000000260
      7        1          -0.000000792    0.000007810    0.000006471
      8        1           0.000000043    0.000005643    0.000010040
      9        7          -0.000005904   -0.000010973    0.000008006
     10        1           0.000007799    0.000013343   -0.000006994
     11        1           0.000003595    0.000010035   -0.000004970
     12        1           0.000000888    0.000002254    0.000009860
     13        1          -0.000003896   -0.000006670    0.000000142
     14        1           0.000003569    0.000003929    0.000002744
     15        1          -0.000002653   -0.000008903   -0.000009539
 -------------------------------------------------------------------
 Cartesian Forces:  Max     0.000014565 RMS     0.000006407

 GradGradGradGradGradGradGradGradGradGradGradGradGradGradGradGradGradGrad
 Berny optimization.
 Search for a local minimum.
 Step number   1 out of a maximum of    2
 All quantities printed in internal units (Hartrees-Bohrs-Radians)
 Second derivative matrix not updated -- analytic derivatives used.
 ITU=  0
     Eigenvalues ---   -0.02407   0.00028   0.00112   0.00219   0.00437
     Eigenvalues ---    0.00844   0.01216   0.02225   0.02672   0.04044
     Eigenvalues ---    0.04289   0.04959   0.06024   0.06460   0.07645
     Eigenvalues ---    0.08452   0.08766   0.09791   0.10173   0.13402
     Eigenvalues ---    0.14990   0.15581   0.16305   0.18419   0.19921
     Eigenvalues ---    0.26350   0.27330   0.34472   0.52469   0.58966
     Eigenvalues ---    0.61648   0.77584   0.82957   0.86992   0.98227
     Eigenvalues ---    1.03292   1.11666   1.12729   1.57825
 Eigenvalue     1 is  -2.41D-02 should be greater than     0.000000 Eigenvector:
                          X4        Y4        X7        X9        Y9
   1                    0.42434  -0.38577  -0.32470  -0.28769   0.26089
                          Y1        X11       Z4        X10       Y10
   1                   -0.22970  -0.18642  -0.18178  -0.17217   0.16748
 Angle between quadratic step and forces=  82.90 degrees.
 Linear search not attempted -- first point.
 B after Tr=    -0.000010   -0.000080    0.000292
         Rot=    1.000000    0.000082   -0.000065   -0.000011 Ang=   0.01 deg.
 Variable       Old X    -DE/DX   Delta X   Delta X   Delta X     New X
                                 (Linear)    (Quad)   (Total)
    X1       -1.75667  -0.00000   0.00000  -0.00033  -0.00043  -1.75710
    Y1        1.24537   0.00000   0.00000  -0.00037  -0.00058   1.24479
    Z1       -0.51191  -0.00000   0.00000  -0.00095  -0.00063  -0.51254
    X2       -3.59076   0.00000   0.00000   0.00052   0.00059  -3.59017
    Y2       -0.39977  -0.00000   0.00000  -0.00016  -0.00023  -0.40000
    Z2        0.54957  -0.00001   0.00000   0.00091   0.00173   0.55130
    X3       -5.73069  -0.00000   0.00000  -0.00008  -0.00010  -5.73079
    Y3       -0.86136  -0.00000   0.00000  -0.00047  -0.00071  -0.86207
    Z3       -0.21639  -0.00001   0.00000   0.00278   0.00396  -0.21243
    X4        0.66002  -0.00000   0.00000   0.00004   0.00007   0.66010
    Y4        1.47608  -0.00000   0.00000   0.00060   0.00063   1.47671
    Z4        0.59192   0.00000   0.00000  -0.00198  -0.00202   0.58990
    X5        5.47750   0.00001   0.00000  -0.00076  -0.00073   5.47678
    Y5       -0.52079  -0.00001   0.00000  -0.00103  -0.00094  -0.52173
    Z5        0.26587   0.00001   0.00000   0.00189   0.00156   0.26742
    X6        5.43379  -0.00000   0.00000  -0.00372  -0.00341   5.43038
    Y6       -0.86047  -0.00000   0.00000  -0.00399  -0.00357  -0.86404
    Z6        2.31189  -0.00000   0.00000   0.00133   0.00105   2.31294
    X7        6.74387  -0.00000   0.00000   0.00021   0.00016   6.74402
    Y7       -1.90346   0.00001   0.00000   0.00004   0.00000  -1.90346
    Z7       -0.62605   0.00001   0.00000   0.00168   0.00140  -0.62464
    X8        6.21323   0.00000   0.00000   0.00008   0.00003   6.21326
    Y8        1.38961   0.00001   0.00000  -0.00066  -0.00061   1.38900
    Z8       -0.07181   0.00001   0.00000   0.00578   0.00503  -0.06678
    X9        2.90317  -0.00001   0.00000   0.00056   0.00047   2.90364
    Y9       -0.68023  -0.00001   0.00000   0.00104   0.00090  -0.67933
    Z9       -0.72654   0.00001   0.00000  -0.00191  -0.00188  -0.72843
   X10        2.11084   0.00001   0.00000  -0.00062  -0.00064   2.11020
   Y10       -2.41957   0.00001   0.00000   0.00115   0.00104  -2.41852
   Z10       -0.44626  -0.00001   0.00000  -0.00477  -0.00436  -0.45062
   X11        2.83056   0.00000   0.00000   0.00338   0.00303   2.83360
   Y11       -0.36113   0.00001   0.00000   0.00310   0.00265  -0.35848
   Z11       -2.62982  -0.00000   0.00000  -0.00169  -0.00170  -2.63152
   X12        1.74628   0.00000   0.00000  -0.00057  -0.00062   1.74566
   Y12        3.20477   0.00000   0.00000   0.00086   0.00086   3.20562
   Z12        0.22662   0.00001   0.00000  -0.00260  -0.00306   0.22355
   X13        0.83875  -0.00000   0.00000   0.00081   0.00112   0.83987
   Y13        0.85370  -0.00001   0.00000   0.00099   0.00135   0.85505
   Z13        2.56651   0.00000   0.00000  -0.00193  -0.00189   2.56463
   X14       -2.22691   0.00000   0.00000  -0.00149  -0.00184  -2.22875
   Y14        2.28800   0.00000   0.00000  -0.00085  -0.00135   2.28666
   Z14       -2.23437   0.00000   0.00000  -0.00091  -0.00070  -2.23507
   X15       -2.90765  -0.00000   0.00000   0.00197   0.00230  -2.90535
   Y15       -1.34429  -0.00001   0.00000   0.00033   0.00057  -1.34373
   Z15        2.34749  -0.00001   0.00000   0.00061   0.00150   2.34899
         Item               Value     Threshold  Converged?
 Maximum Force            0.000015     0.000450     YES
 RMS     Force            0.000006     0.000300     YES
 Maximum Displacement     0.005031     0.001800     NO 
 RMS     Displacement     0.001867     0.001200     NO 
 Predicted change in Energy=-3.717571D-08
 GradGradGradGradGradGradGradGradGradGradGradGradGradGradGradGradGradGrad


 ----------------------------------------------------------------------

 Electric dipole moment (input orientation):
 (Debye = 10**-18 statcoulomb cm , SI units = C m)
                  (au)            (Debye)         (10**-30 SI)
   Tot        0.454634D+01      0.115556D+02      0.385455D+02
   x          0.453677D+01      0.115313D+02      0.384643D+02
   y         -0.274206D+00     -0.696963D+00     -0.232482D+01
   z         -0.108283D+00     -0.275229D+00     -0.918065D+00

 Dipole polarizability, Alpha (input orientation).
 (esu units = cm**3 , SI units = C**2 m**2 J**-1)
 Alpha(0;0):
               (au)            (10**-24 esu)      (10**-40 SI)
   iso        0.713546D+02      0.105737D+02      0.117648D+02
   aniso      0.553569D+02      0.820304D+01      0.912712D+01
   xx         0.107195D+03      0.158847D+02      0.176741D+02
   yx         0.500885D+01      0.742235D+00      0.825848D+00
   yy         0.529662D+02      0.784877D+01      0.873294D+01
   zx         0.220952D+01      0.327416D+00      0.364300D+00
   zy        -0.527857D+01     -0.782204D+00     -0.870319D+00
   zz         0.539026D+02      0.798754D+01      0.888734D+01

 ----------------------------------------------------------------------

 Dipole orientation:
     6          0.62290751          1.10154355         -1.81589338
     6         -0.50091864         -0.58652444         -3.57218335
     8          0.27796655         -1.22452441         -5.66152193
     6         -0.51292554          1.54697810          0.55550930
     6         -0.40746511         -0.16509703          5.49105323
     1         -2.46924892         -0.38280113          5.41919145
     1          0.37187875         -1.51833603          6.85938755
     1          0.03250375          1.76317858          6.11805126
     7          0.62474620         -0.54251607          2.95538848
     1          0.25373125         -2.30732209          2.26296206
     1          2.54514860         -0.34387590          2.90902364
     1         -0.06363325          3.31416018          1.54391286
     1         -2.52532724          1.05703071          0.72437120
     1          2.41548036          2.00741471         -2.30700317
     1         -2.36701714         -1.37697055         -2.87635882

 Electric dipole moment (dipole orientation):
 (Debye = 10**-18 statcoulomb cm , SI units = C m)
                  (au)            (Debye)         (10**-30 SI)
   Tot        0.454634D+01      0.115556D+02      0.385455D+02
   x          0.000000D+00      0.000000D+00      0.000000D+00
   y          0.000000D+00      0.000000D+00      0.000000D+00
   z          0.454634D+01      0.115556D+02      0.385455D+02

 Dipole polarizability, Alpha (dipole orientation).
 (esu units = cm**3 , SI units = C**2 m**2 J**-1)
 Alpha(0;0):
               (au)            (10**-24 esu)      (10**-40 SI)
   iso        0.713546D+02      0.105737D+02      0.117648D+02
   aniso      0.553569D+02      0.820304D+01      0.912712D+01
   xx         0.546463D+02      0.809774D+01      0.900995D+01
   yx         0.488483D+01      0.723857D+00      0.805400D+00
   yy         0.531731D+02      0.787944D+01      0.876706D+01
   zx        -0.325985D+01     -0.483060D+00     -0.537477D+00
   zy         0.857037D+01      0.127000D+01      0.141306D+01
   zz         0.106245D+03      0.157438D+02      0.175174D+02

 ----------------------------------------------------------------------
 Unable to Open any file for archive entry.
 1\1\GINC-NODE-001\Freq\RwB97XD\def2SVP\C4H9N1O1\JP2658\30-Dec-2023\0\\
 # wb97xd def2svp scrf=(iefpcm,solvent=toluene) freq=noraman\\TS-249_op
 t_sqm.out\\0,1\C,-0.92959,0.65902,-0.27089\C,-1.90015,-0.21155,0.29082
 \O,-3.03255,-0.45581,-0.11451\C,0.34927,0.78111,0.31323\C,2.89857,-0.2
 7559,0.14069\H,2.87544,-0.45534,1.2234\H,3.5687,-1.00727,-0.33129\H,3.
 2879,0.73535,-0.038\N,1.53629,-0.35996,-0.38447\H,1.11701,-1.28038,-0.
 23615\H,1.49787,-0.1911,-1.39164\H,0.92409,1.69589,0.11992\H,0.44385,0
 .45176,1.35814\H,-1.17843,1.21076,-1.18238\H,-1.53866,-0.71137,1.24224
 \\Version=ES64L-G16RevC.01\State=1-A\HF=-287.4473884\RMSD=7.372e-09\RM
 SF=6.407e-06\ZeroPoint=0.1302582\Thermal=0.1375446\ETot=-287.3098438\H
 Tot=-287.3088996\GTot=-287.3490114\Dipole=4.5367683,-0.2742062,-0.1082
 834\DipoleDeriv=-1.867503,-0.0745,0.1846392,-0.8184762,-0.7124924,-0.1
 731435,0.1939776,-0.1305491,-0.3713709,2.3567487,0.5119927,0.2194127,1
 .11501,0.6092935,-0.2839713,-0.0926918,-0.2820646,0.7613167,-2.1184418
 ,-0.3671177,-0.1907948,-0.4474457,-0.5870018,0.0261136,-0.4636447,-0.0
 525633,-0.6259509,2.7472309,-0.205107,-0.0942803,-1.1301923,0.4950468,
 0.1381692,-0.2490154,0.2401692,0.2750562,0.4629951,0.0145083,0.1055639
 ,0.2556696,0.1048435,0.0086685,0.3556419,-0.0078865,0.1529879,0.039572
 1,-0.0176251,0.0467369,-0.0128273,0.09751,0.0263626,-0.054563,0.027103
 8,-0.0554122,-0.1712644,0.0602371,0.0057055,0.0618098,0.0233277,-0.053
 3245,-0.031338,-0.0573817,0.0566238,0.0357055,-0.000002,-0.0257087,-0.
 0918834,-0.0412626,0.0249272,-0.0163511,0.0443505,0.0857281,-1.6584515
 ,0.1470834,0.0359229,0.9883951,-0.3722483,-0.0967005,0.426699,-0.14278
 05,-0.2353656,0.13318,-0.0262765,-0.0246014,-0.0374662,0.2068084,0.010
 2118,-0.0311898,-0.0133012,0.1789991,0.1585266,-0.0035478,-0.0437235,-
 0.0154231,0.196583,-0.0151639,-0.0558572,-0.0003871,0.1969657,-0.13049
 45,-0.1086316,0.0217354,-0.0031292,-0.0604495,-0.0122817,0.1599348,0.0
 227199,0.0550086,-0.0132974,0.0168053,-0.0190274,0.1647732,0.0260563,0
 .0902229,-0.0204791,0.0058293,-0.0915551,0.0219437,-0.0310307,-0.05918
 45,-0.054217,0.0870347,0.1411613,-0.0706743,0.1584373,-0.0503864,0.003
 55,0.0832116,-0.1623962,0.0254027,-0.0730492,0.1687482,-0.0504488,0.18
 83039,-0.3326451\Polar=107.1951791,5.008852,52.9661552,2.2095153,-5.27
 85712,53.9025947\Quadrupole=-6.2505639,2.6163373,3.6342266,-2.9166628,
 -2.015995,-0.2100828\PG=C01 [X(C4H9N1O1)]\NImag=1\\0.62762834,0.133429
 89,0.33693379,0.12700127,-0.25244325,0.50757523,-0.16269087,-0.0848066
 3,0.05574816,0.86155441,-0.08872940,-0.16240396,0.08758783,0.19792725,
 0.38530549,0.05728202,0.09022184,-0.14885401,0.15974864,-0.13377550,0.
 49022098,-0.07511893,-0.03934490,-0.00932265,-0.59458899,-0.10775597,-
 0.19220389,0.68264276,-0.04590492,0.00445262,-0.00885302,-0.10970557,-
 0.10674530,-0.02472005,0.14496018,0.08029598,0.00207014,-0.00540433,0.
 02802530,-0.18903388,-0.02318997,-0.16535279,0.22559503,0.02706754,0.1
 4297684,-0.25382600,-0.00730578,-0.11159767,-0.06995145,-0.03822624,0.
 00685750,0.03160073,0.00731432,0.00733271,0.42882961,-0.06753014,-0.09
 662007,0.00374188,-0.00545445,0.00574742,-0.02249132,-0.01561038,-0.00
 184271,0.00413722,0.24692879,0.42137729,-0.12371334,0.00850099,-0.1520
 7098,0.00359419,-0.00558655,0.00672373,0.00522991,0.00480058,0.0020589
 7,0.14879947,-0.14459004,0.55577757,0.00138908,0.00361281,0.00267220,-
 0.00143758,-0.00033509,0.00053515,0.00121707,0.00014218,0.00013137,-0.
 02348306,0.00619115,-0.00166528,0.51701653,0.00854164,-0.00002713,-0.0
 0208099,-0.00323129,-0.00388615,0.00124146,0.00275294,0.00142045,0.000
 71633,-0.00000308,0.00992930,0.00941640,-0.00609521,0.61647249,0.00830
 420,0.00059534,-0.00059770,-0.00361635,-0.00348446,0.00182545,0.002958
 22,0.00131312,0.00058326,-0.00752291,0.01104587,0.00855859,-0.04097572
 ,-0.00845236,0.60299250,-0.00011033,-0.00009884,0.00033113,0.00001274,
 0.00000697,-0.00008623,0.00003947,0.00000422,0.00003350,0.00170621,-0.
 00083015,-0.00145074,-0.05069801,-0.00410103,0.02055476,0.05786122,-0.
 00002783,-0.00015940,-0.00016635,0.00002107,0.00010772,-0.00007970,-0.
 00006690,-0.00005733,0.00000099,-0.00006388,-0.00014621,0.00051711,-0.
 00159474,-0.05815863,0.04784716,0.00277959,0.05359122,-0.00087161,-0.0
 0046415,0.00004537,0.00048063,0.00049458,-0.00028366,-0.00038029,-0.00
 016024,-0.00004553,0.00250160,-0.00110667,0.00026919,0.01081937,0.0467
 3629,-0.32273598,-0.00620771,-0.05017645,0.34336778,-0.00441868,-0.000
 55125,0.00046339,0.00212941,0.00216264,-0.00091890,-0.00172756,-0.0007
 9358,-0.00037258,0.00669606,-0.00679360,-0.00436864,-0.14217337,0.1082
 3724,0.07211544,0.00056323,-0.00023572,-0.00042061,0.16093027,-0.00056
 161,0.00012961,-0.00018612,0.00027917,0.00012540,-0.00012627,-0.000128
 67,-0.00004094,-0.00001984,0.00003320,0.00005020,-0.00009059,0.1119479
 0,-0.17833393,-0.08492120,-0.00509450,0.00500959,0.00384223,-0.1193594
 8,0.18145343,-0.00205399,-0.00038717,0.00041158,0.00078192,0.00096673,
 -0.00033362,-0.00066612,-0.00033427,-0.00016808,0.00208268,-0.00230091
 ,-0.00137023,0.07558243,-0.08617322,-0.10628320,0.01738539,-0.02136324
 ,-0.00975749,-0.07485039,0.09004400,0.10525241,-0.00011817,0.00033064,
 -0.00012938,0.00017064,0.00005042,0.00004533,-0.00004049,0.00001347,-0
 .00003916,0.00180021,-0.00213371,-0.00030353,-0.07920178,-0.08031075,0
 .01443646,-0.00025420,0.00016816,0.00000881,0.00808671,0.01720790,-0.0
 0444796,0.09294077,-0.00069456,-0.00034714,-0.00017878,0.00049417,0.00
 025411,-0.00016824,-0.00033257,-0.00008575,-0.00006118,0.00213691,0.00
 005253,-0.00013649,-0.08915550,-0.29220300,0.04569290,0.00002631,-0.00
 164053,-0.00134693,-0.00782339,-0.01517610,0.00524648,0.09684018,0.304
 64554,-0.00003788,-0.00015751,-0.00008738,0.00011441,-0.00001689,-0.00
 011085,-0.00010064,-0.00002217,-0.00000198,0.00062619,-0.00000596,-0.0
 0024487,0.01822178,0.04884283,-0.05935599,0.01041650,0.02825625,-0.001
 44567,-0.00570687,-0.01334857,0.00288990,-0.01267843,-0.04785648,0.055
 66672,-0.06386948,-0.00004787,0.00452210,0.02087279,0.02421669,-0.0093
 5499,-0.01564697,-0.00801443,-0.00355479,0.03894758,-0.05194905,-0.017
 91674,-0.21395471,-0.00273848,-0.03790609,-0.00378661,-0.00063019,-0.0
 0345566,-0.03080141,-0.00463055,-0.01428175,-0.01883683,-0.00115842,-0
 .00817987,0.45365289,0.03135500,0.01919374,0.00964612,-0.01401838,-0.0
 1027174,0.00717960,0.00907366,0.00322678,0.00104115,-0.07259613,-0.022
 43504,0.00979159,-0.02840843,-0.10002703,-0.00332571,0.00835785,0.0006
 6361,0.00249433,0.02406783,0.00575142,0.01339609,-0.03386557,0.0024982
 0,-0.01482720,0.19807657,0.54690583,0.00680795,0.01361772,0.01590519,-
 0.00396992,-0.00392656,0.00161208,0.00291319,0.00111939,0.00055526,-0.
 03678618,0.01710135,-0.05296933,-0.06241158,0.00516061,-0.12131020,-0.
 04009762,-0.00342568,-0.01055527,0.01252220,0.00395059,0.00785507,0.00
 620642,-0.00090420,0.00254458,0.08512954,-0.13553524,0.65779371,-0.000
 34085,-0.00306087,-0.00197425,-0.00062453,0.00021949,-0.00041323,0.000
 05523,-0.00010345,0.00022524,0.01095188,0.01158908,-0.00273746,-0.0120
 5264,-0.03065739,0.00614897,0.00112869,0.00014887,-0.00023499,0.000215
 78,-0.00000651,0.00071592,-0.00522838,0.00089892,-0.00283233,-0.110989
 17,-0.13248723,0.01803879,0.11902244,-0.00126335,0.00143409,0.00052692
 ,0.00136304,0.00111741,-0.00023298,-0.00097969,-0.00050739,-0.00035479
 ,-0.00090621,-0.01193270,0.00066039,0.00482473,0.00505828,-0.00133605,
 -0.00022023,0.00019684,0.00015653,0.00028478,0.00075467,-0.00010603,0.
 00093322,0.00097249,0.00001931,-0.15420426,-0.36042923,0.06858535,0.14
 968565,0.36833748,-0.00032370,0.00101776,-0.00085982,0.00008789,-0.000
 37991,0.00124773,-0.00015549,0.00008768,-0.00041541,-0.00338918,-0.009
 19099,0.00205486,-0.00380088,-0.01432531,0.00283306,-0.00018172,-0.000
 78304,-0.00003255,0.00032026,0.00054764,0.00028371,-0.00308059,-0.0006
 1825,-0.00050507,0.01311661,0.05289978,-0.06402237,-0.01916100,-0.0633
 2064,0.06560427,0.00091334,-0.00153103,-0.00324917,-0.00120845,-0.0010
 1207,0.00021776,0.00064535,0.00024802,0.00011761,0.00325919,-0.0034051
 6,0.01310135,-0.00010491,0.00694381,-0.03623706,-0.00633506,-0.0006892
 8,-0.00164077,0.00053455,0.00066099,-0.00000948,0.00091261,-0.00060327
 ,0.00016063,-0.05310180,-0.00930068,-0.00456864,0.00011698,-0.00097931
 ,0.01551501,0.05629873,-0.00134563,0.00024098,0.00147074,0.00058160,0.
 00042291,0.00010156,-0.00032348,-0.00014462,-0.00009679,-0.00049181,0.
 00340717,-0.01446722,0.00185137,-0.00009325,-0.00314424,-0.00071767,0.
 00069594,-0.00106733,-0.00000013,-0.00000622,0.00065331,-0.00024597,0.
 00016035,-0.00089477,-0.00867111,-0.05888000,0.05828512,0.00144482,-0.
 00462125,0.03589516,0.00609604,0.06192843,-0.00141941,-0.00085586,0.00
 102308,0.00096827,0.00053648,-0.00032021,-0.00088424,-0.00029093,-0.00
 023545,0.00443306,-0.00166383,-0.00592678,0.00270463,-0.00008195,-0.00
 516167,-0.00151763,-0.00046314,0.00088977,0.00014204,0.00013446,0.0007
 8620,0.00008880,-0.00001154,0.00030825,-0.01986498,0.08112017,-0.42335
 530,-0.00069877,-0.00291171,-0.00406903,0.01596453,-0.07499799,0.43544
 393,-0.01464265,-0.02452938,0.00752453,0.00147977,-0.00190107,-0.00883
 105,-0.00397016,-0.00020821,0.00152714,-0.12177575,-0.12804832,0.02769
 637,0.00224329,0.00098378,0.00028819,-0.00001738,0.00003705,-0.0001421
 5,-0.00003668,-0.00043109,0.00013280,-0.00020677,-0.00056643,-0.000014
 08,0.00107449,0.01974579,0.00006917,-0.00247679,0.00164882,0.00135668,
 0.00034391,-0.00038832,-0.00023082,0.13574048,0.00269426,0.00521487,0.
 00228539,-0.00157380,0.00175367,0.00090217,0.00094047,-0.00039157,-0.0
 0012466,-0.13199930,-0.23680195,0.04936962,-0.00140020,-0.00043428,-0.
 00057790,0.00009795,-0.00008503,0.00010227,0.00063174,0.00031741,0.000
 16595,0.00086785,0.00076849,-0.00012973,0.00206925,-0.02299611,-0.0020
 8777,0.00260789,-0.00086343,-0.00170090,-0.00007432,-0.00035687,0.0001
 1256,0.12782587,0.25702182,-0.00461718,-0.00928565,0.00730259,-0.00280
 873,0.00160582,-0.00017847,0.00065819,-0.00064708,0.00050817,0.0190515
 4,0.05422965,-0.06132067,-0.00137832,-0.00024760,-0.00043684,0.0001332
 0,0.00009949,0.00009993,0.00027473,0.00008431,0.00004188,-0.00014508,0
 .00030064,0.00032321,0.00211394,-0.01778744,-0.00103897,0.00212019,-0.
 00162684,-0.00107982,-0.00030968,-0.00048004,0.00024174,-0.02981263,-0
 .04688002,0.05590505,-0.00179975,0.00886792,-0.02611942,-0.00009141,0.
 00529772,-0.00185875,-0.00016757,-0.00127231,0.00041966,-0.04693151,0.
 00233230,-0.02519048,0.00138166,-0.00013858,0.00150172,-0.00017981,0.0
 0016565,-0.00059220,-0.00004665,0.00009505,-0.00050771,-0.00002463,-0.
 00005731,0.00006047,-0.00558970,0.00111120,0.01709026,0.00021770,-0.00
 026989,-0.00012524,-0.00184584,0.00195543,0.00033390,0.00190014,-0.003
 31878,0.01384349,0.05580181,0.00599191,0.00508496,-0.00047445,-0.00288
 808,-0.00441458,-0.00221032,0.00213655,0.00102281,0.00092181,-0.005994
 06,-0.07271419,0.08730694,-0.00168365,0.00008187,-0.00110966,-0.000181
 14,0.00001247,0.00059310,0.00017119,-0.00005414,0.00027098,0.00015003,
 0.00009141,0.00007962,0.00831683,-0.00243910,-0.02199852,-0.00024598,0
 .00053380,-0.00033895,0.00282290,-0.00253366,-0.00105244,0.00319302,-0
 .00269805,0.02188638,-0.01035477,0.07430911,-0.00265351,0.00583705,-0.
 00770599,0.00397505,0.00116034,-0.00012793,-0.00070950,-0.00003277,0.0
 0041437,-0.02763278,0.08600664,-0.29486231,-0.00044354,-0.00025958,-0.
 00028300,0.00057291,-0.00026388,0.00013345,0.00043684,0.00000501,0.000
 30404,0.00007321,-0.00001136,-0.00001162,0.00556270,-0.00259731,-0.012
 40672,0.00019177,-0.00010810,-0.00049652,0.00114207,-0.00153070,0.0002
 0914,-0.00164789,-0.00035257,-0.00056099,0.02309046,-0.08606668,0.3149
 4128,-0.06328758,0.02400780,-0.05736938,0.00789396,-0.00936788,0.01691
 282,0.00088828,0.00322388,-0.00122914,-0.00404465,0.01394361,-0.023169
 74,-0.00009330,0.00013599,0.00024972,0.00005936,-0.00002936,0.00008854
 ,-0.00013233,-0.00002995,0.00005836,0.00000074,-0.00003005,-0.00004931
 ,0.00015922,0.00003844,-0.00078700,-0.00007229,-0.00008557,-0.00004500
 ,-0.00035790,0.00022266,-0.00006330,-0.00010606,0.00055949,0.00110307,
 -0.00288270,-0.00144982,-0.00169271,0.06334502,0.02340143,-0.11060969,
 0.13668799,0.00920213,-0.00544236,0.01539472,0.00067065,-0.00057256,-0
 .00437915,-0.00277872,0.00370879,-0.00652081,0.00016287,0.00002109,-0.
 00029735,-0.00002050,-0.00003411,-0.00005460,0.00010723,0.00003313,-0.
 00002835,-0.00002233,0.00001027,0.00004142,0.00059431,-0.00125484,0.00
 025347,0.00004402,-0.00003437,0.00008068,0.00063080,-0.00009241,0.0003
 8693,0.00258678,-0.00042442,-0.00114139,-0.00380643,0.00299361,-0.0005
 5697,-0.02710008,0.11089485,-0.05952241,0.13468369,-0.23950911,-0.0073
 0350,0.00295797,-0.00768243,0.00157938,-0.00266237,0.00077635,0.001586
 07,0.00458832,-0.00701579,0.00010644,0.00007593,-0.00008570,0.00007005
 ,-0.00003727,-0.00003150,0.00004583,0.00003945,-0.00003612,-0.00000680
 ,0.00000409,0.00001519,0.00056652,-0.00112542,0.00020552,0.00012620,-0
 .00009477,-0.00006250,0.00001100,0.00018091,0.00007333,0.00141586,-0.0
 0084093,-0.00023705,-0.00347901,0.00213005,0.00012937,0.06459518,-0.14
 389837,0.25313530,0.01029251,-0.00897249,0.01149913,-0.06352044,0.0174
 4654,-0.02793218,-0.02582823,0.01009621,-0.04322286,-0.00377905,0.0007
 7003,0.00209467,-0.00004827,-0.00031960,-0.00029956,0.00001047,0.00001
 751,0.00004706,0.00018067,0.00001813,0.00007790,-0.00000044,0.00002501
 ,-0.00000055,0.00186970,-0.00114992,-0.00015658,0.00007596,0.00016827,
 -0.00013367,-0.00007072,0.00003219,0.00004393,0.00045017,0.00007164,-0
 .00022672,0.00025827,0.00001505,-0.00026509,-0.00136979,-0.00367215,0.
 00020920,0.08147918,0.00064330,-0.00251728,0.02243608,0.01180976,-0.10
 167004,0.06876303,0.00400811,0.01996952,-0.00025435,0.00395199,-0.0017
 7984,0.00102807,-0.00006018,0.00017993,0.00015452,-0.00000882,0.000003
 85,-0.00004298,-0.00010548,-0.00001352,-0.00005036,0.00001646,-0.00000
 088,0.00001986,-0.00122928,0.00049351,-0.00019564,-0.00007732,-0.00001
 670,0.00012932,0.00019254,-0.00012750,0.00003878,0.00005170,-0.0000245
 6,-0.00011024,-0.00060718,0.00072369,-0.00122913,-0.00403917,0.0008030
 4,0.00399872,-0.01454642,0.08397679,-0.00625255,0.01452355,-0.01060336
 ,-0.01876678,0.07505007,-0.17838600,-0.03451108,0.00333458,-0.00967928
 ,-0.00634209,0.00049879,0.00033804,-0.00009805,-0.00056886,-0.00054258
 ,0.00004421,0.00003776,0.00008215,0.00031727,0.00004488,0.00012395,-0.
 00002811,0.00004935,0.00001558,0.00350347,-0.00237052,-0.00081326,0.00
 048496,0.00014340,-0.00048054,-0.00021516,0.00009227,0.00009299,0.0006
 6787,-0.00024348,0.00043024,0.00153284,0.00006214,0.00032343,0.0013978
 7,0.00403175,0.00032516,0.05826533,-0.09468569,0.19877347\\0.00000227,
 -0.00000327,0.00000442,-0.00000193,0.00000297,0.00000863,0.00000084,0.
 00000249,0.00001456,0.00000446,0.00000449,-0.00000192,-0.00000607,0.00
 000673,-0.00001019,0.00000306,0.00000305,0.00000026,0.00000079,-0.0000
 0781,-0.00000647,-0.00000004,-0.00000564,-0.00001004,0.00000590,0.0000
 1097,-0.00000801,-0.00000780,-0.00001334,0.00000699,-0.00000359,-0.000
 01003,0.00000497,-0.00000089,-0.00000225,-0.00000986,0.00000390,0.0000
 0667,-0.00000014,-0.00000357,-0.00000393,-0.00000274,0.00000265,0.0000
 0890,0.00000954\\\@
 The archive entry for this job was punched.


 OPTIMIST - A PESSIMIST WHO LACKS EXPERIENCE
 Job cpu time:       0 days  0 hours  6 minutes 25.0 seconds.
 Elapsed time:       0 days  0 hours  0 minutes 32.7 seconds.
 File lengths (MBytes):  RWF=     62 Int=      0 D2E=      0 Chk=      6 Scr=      1
 Normal termination of Gaussian 16 at Sat Dec 30 20:58:47 2023.
