Unloading slurm/anatra/current
  ERROR: No such file or directory on
    '/cm/local/modulefiles/slurm/anatra/current'
environment: line 0: unalias: gv: not found
environment: line 0: unalias: sl: not found
 Entering Gaussian System, Link 0=g16
 Initial command:
 /apps/gaussian/g16/C.01/g16/l1.exe "/local/jobs/1153177/Gau-1738305.inp" -scrdir="/local/jobs/1153177/"
 Entering Link 1 = /apps/gaussian/g16/C.01/g16/l1.exe PID=   1738308.
  
 Copyright (c) 1988-2019, Gaussian, Inc.  All Rights Reserved.
  
 This is part of the Gaussian(R) 16 program.  It is based on
 the Gaussian(R) 09 system (copyright 2009, Gaussian, Inc.),
 the Gaussian(R) 03 system (copyright 2003, Gaussian, Inc.),
 the Gaussian(R) 98 system (copyright 1998, Gaussian, Inc.),
 the Gaussian(R) 94 system (copyright 1995, Gaussian, Inc.),
 the Gaussian 92(TM) system (copyright 1992, Gaussian, Inc.),
 the Gaussian 90(TM) system (copyright 1990, Gaussian, Inc.),
 the Gaussian 88(TM) system (copyright 1988, Gaussian, Inc.),
 the Gaussian 86(TM) system (copyright 1986, Carnegie Mellon
 University), and the Gaussian 82(TM) system (copyright 1983,
 Carnegie Mellon University). Gaussian is a federally registered
 trademark of Gaussian, Inc.
  
 This software contains proprietary and confidential information,
 including trade secrets, belonging to Gaussian, Inc.
  
 This software is provided under written license and may be
 used, copied, transmitted, or stored only in accord with that
 written license.
  
 The following legend is applicable only to US Government
 contracts under FAR:
  
                    RESTRICTED RIGHTS LEGEND
  
 Use, reproduction and disclosure by the US Government is
 subject to restrictions as set forth in subparagraphs (a)
 and (c) of the Commercial Computer Software - Restricted
 Rights clause in FAR 52.227-19.
  
 Gaussian, Inc.
 340 Quinnipiac St., Bldg. 40, Wallingford CT 06492
  
  
 ---------------------------------------------------------------
 Warning -- This program may not be used in any manner that
 competes with the business of Gaussian, Inc. or will provide
 assistance to any competitor of Gaussian, Inc.  The licensee
 of this program is prohibited from giving any competitor of
 Gaussian, Inc. access to this program.  By using this program,
 the user acknowledges that Gaussian, Inc. is engaged in the
 business of creating and licensing software in the field of
 computational chemistry and represents and warrants to the
 licensee that it is not a competitor of Gaussian, Inc. and that
 it will not use this program in any manner prohibited above.
 ---------------------------------------------------------------
  

 Cite this work as:
 Gaussian 16, Revision C.01,
 M. J. Frisch, G. W. Trucks, H. B. Schlegel, G. E. Scuseria, 
 M. A. Robb, J. R. Cheeseman, G. Scalmani, V. Barone, 
 G. A. Petersson, H. Nakatsuji, X. Li, M. Caricato, A. V. Marenich, 
 J. Bloino, B. G. Janesko, R. Gomperts, B. Mennucci, H. P. Hratchian, 
 J. V. Ortiz, A. F. Izmaylov, J. L. Sonnenberg, D. Williams-Young, 
 F. Ding, F. Lipparini, F. Egidi, J. Goings, B. Peng, A. Petrone, 
 T. Henderson, D. Ranasinghe, V. G. Zakrzewski, J. Gao, N. Rega, 
 G. Zheng, W. Liang, M. Hada, M. Ehara, K. Toyota, R. Fukuda, 
 J. Hasegawa, M. Ishida, T. Nakajima, Y. Honda, O. Kitao, H. Nakai, 
 T. Vreven, K. Throssell, J. A. Montgomery, Jr., J. E. Peralta, 
 F. Ogliaro, M. J. Bearpark, J. J. Heyd, E. N. Brothers, K. N. Kudin, 
 V. N. Staroverov, T. A. Keith, R. Kobayashi, J. Normand, 
 K. Raghavachari, A. P. Rendell, J. C. Burant, S. S. Iyengar, 
 J. Tomasi, M. Cossi, J. M. Millam, M. Klene, C. Adamo, R. Cammi, 
 J. W. Ochterski, R. L. Martin, K. Morokuma, O. Farkas, 
 J. B. Foresman, and D. J. Fox, Gaussian, Inc., Wallingford CT, 2019.
 
 ******************************************
 Gaussian 16:  ES64L-G16RevC.01  3-Jul-2019
                30-Dec-2023 
 ******************************************
 %chk=TS-249_opt_dft_freq.chk
 %nprocshared=12
 Will use up to   12 processors via shared memory.
 %mem=48GB
 -----------------------------------------------------------
 # wb97xd def2svp scrf=(iefpcm,solvent=toluene) freq=noraman
 -----------------------------------------------------------
 1/10=4,30=1,38=1/1,3;
 2/12=2,17=6,18=5,40=1/2;
 3/5=43,7=101,11=2,25=1,30=1,70=2201,71=2,72=13,74=-58,140=1/1,2,3;
 4//1;
 5/5=2,38=5,53=13,98=1/2;
 8/6=4,10=90,11=11/1;
 11/6=1,8=1,9=11,15=111,16=1/1,2,10;
 10/6=1/2;
 6/7=2,8=2,9=2,10=2,28=1/1;
 7/8=1,10=1,25=1/1,2,3,16;
 1/10=4,30=1/3;
 99//99;
 ------------------
 TS-249_opt_dft.out
 ------------------
 Symbolic Z-matrix:
 Charge =  0 Multiplicity = 1
 C                    -0.92961   0.65909  -0.27085 
 C                    -1.90014  -0.21159   0.29082 
 O                    -3.03254  -0.45584  -0.11451 
 C                     0.34926   0.78115   0.31322 
 C                     2.89855  -0.27562   0.14072 
 H                     2.87536  -0.45533   1.22343 
 H                     3.5687   -1.00731  -0.3312 
 H                     3.28791   0.73532  -0.03798 
 N                     1.5363   -0.35996  -0.38452 
 H                     1.11702  -1.28037  -0.23623 
 H                     1.49794  -0.19109  -1.39169 
 H                     0.92411   1.69591   0.1199 
 H                     0.44391   0.45176   1.35811 
 H                    -1.1785    1.2109   -1.18228 
 H                    -1.53862  -0.71149   1.24218 
 

 GradGradGradGradGradGradGradGradGradGradGradGradGradGradGradGradGradGrad
 Berny optimization.
 Initialization pass.
 Trust Radius=3.00D-01 FncErr=1.00D-07 GrdErr=1.00D-07 EigMax=2.50D+02 EigMin=1.00D-04
 Number of steps in this run=      2 maximum allowed number of steps=      2.
 GradGradGradGradGradGradGradGradGradGradGradGradGradGradGradGradGradGrad

                          Input orientation:                          
 ---------------------------------------------------------------------
 Center     Atomic      Atomic             Coordinates (Angstroms)
 Number     Number       Type             X           Y           Z
 ---------------------------------------------------------------------
      1          6           0       -0.929610    0.659090   -0.270850
      2          6           0       -1.900140   -0.211590    0.290820
      3          8           0       -3.032540   -0.455840   -0.114510
      4          6           0        0.349260    0.781150    0.313220
      5          6           0        2.898550   -0.275620    0.140720
      6          1           0        2.875360   -0.455330    1.223430
      7          1           0        3.568700   -1.007310   -0.331200
      8          1           0        3.287910    0.735320   -0.037980
      9          7           0        1.536300   -0.359960   -0.384520
     10          1           0        1.117020   -1.280370   -0.236230
     11          1           0        1.497940   -0.191090   -1.391690
     12          1           0        0.924110    1.695910    0.119900
     13          1           0        0.443910    0.451760    1.358110
     14          1           0       -1.178500    1.210900   -1.182280
     15          1           0       -1.538620   -0.711490    1.242180
 ---------------------------------------------------------------------
                    Distance matrix (angstroms):
                    1          2          3          4          5
     1  C    0.000000
     2  C    1.419678   0.000000
     3  O    2.385336   1.227306   0.000000
     4  C    1.411221   2.458828   3.626247   0.000000
     5  C    3.962055   4.801464   5.939314   2.765031   0.000000
     6  H    4.237051   4.871814   6.057505   2.956103   1.097768
     7  H    4.797429   5.561321   6.627778   3.738805   1.098717
     8  H    4.224632   5.283996   6.432170   2.959916   1.097968
     9  N    2.670598   3.505313   4.577816   1.788306   1.462435
    10  H    2.819822   3.243968   4.232436   2.267425   2.079775
    11  H    2.805724   3.791861   4.714502   2.274079   2.077771
    12  H    2.159620   3.412354   4.509995   1.097548   2.790301
    13  H    2.140807   2.659645   3.883047   1.099660   2.834851
    14  H    1.094141   2.171236   2.712125   2.180655   4.536784
    15  H    2.130409   1.133879   2.034149   2.579735   4.592567
                    6          7          8          9         10
     6  H    0.000000
     7  H    1.789491   0.000000
     8  H    1.782975   1.789296   0.000000
     9  N    2.094679   2.133672   2.094723   0.000000
    10  H    2.429621   2.468667   2.969019   1.022223   0.000000
    11  H    2.967484   2.465543   2.427912   1.021949   1.633009
    12  H    3.106926   3.808510   2.556406   2.203592   3.003712
    13  H    2.598634   3.840178   3.180850   2.211100   2.448524
    14  H    4.999754   5.308550   4.635129   3.236381   3.517222
    15  H    4.421446   5.352359   5.198794   3.496407   3.092207
                   11         12         13         14         15
    11  H    0.000000
    12  H    2.484946   0.000000
    13  H    3.014239   1.819798   0.000000
    14  H    3.028656   2.520293   3.108390   0.000000
    15  H    4.053244   3.622171   2.301525   3.115008   0.000000
 Stoichiometry    C4H9NO
 Framework group  C1[X(C4H9NO)]
 Deg. of freedom    39
 Full point group                 C1      NOp   1
 Largest Abelian subgroup         C1      NOp   1
 Largest concise Abelian subgroup C1      NOp   1
                         Standard orientation:                         
 ---------------------------------------------------------------------
 Center     Atomic      Atomic             Coordinates (Angstroms)
 Number     Number       Type             X           Y           Z
 ---------------------------------------------------------------------
      1          6           0       -0.929609    0.659090   -0.270850
      2          6           0       -1.900139   -0.211590    0.290820
      3          8           0       -3.032540   -0.455840   -0.114510
      4          6           0        0.349261    0.781149    0.313220
      5          6           0        2.898551   -0.275622    0.140720
      6          1           0        2.875360   -0.455332    1.223430
      7          1           0        3.568700   -1.007312   -0.331200
      8          1           0        3.287911    0.735318   -0.037980
      9          7           0        1.536300   -0.359961   -0.384520
     10          1           0        1.117020   -1.280371   -0.236230
     11          1           0        1.497941   -0.191091   -1.391690
     12          1           0        0.924111    1.695909    0.119900
     13          1           0        0.443911    0.451759    1.358110
     14          1           0       -1.178499    1.210900   -1.182280
     15          1           0       -1.538620   -0.711490    1.242180
 ---------------------------------------------------------------------
 Rotational constants (GHZ):          12.1175917           1.2986473           1.2541516
 Standard basis: def2SVP (5D, 7F)
 There are   135 symmetry adapted cartesian basis functions of A   symmetry.
 There are   129 symmetry adapted basis functions of A   symmetry.
   129 basis functions,   213 primitive gaussians,   135 cartesian basis functions
    24 alpha electrons       24 beta electrons
       nuclear repulsion energy       227.5175273324 Hartrees.
 NAtoms=   15 NActive=   15 NUniq=   15 SFac= 1.00D+00 NAtFMM=   60 NAOKFM=F Big=F
 Integral buffers will be    131072 words long.
 Raffenetti 2 integral format.
 Two-electron integral symmetry is turned on.
 Nuclear repulsion after empirical dispersion term =      227.5106041590 Hartrees.
 Force inversion solution in PCM.
 ------------------------------------------------------------------------------
 Polarizable Continuum Model (PCM)
 =================================
 Model                : PCM.
 Atomic radii         : UFF (Universal Force Field).
 Polarization charges : Total charges.
 Charge compensation  : None.
 Solution method      : Matrix inversion.
 Cavity type          : Scaled VdW (van der Waals Surface) (Alpha=1.100).
 Cavity algorithm     : GePol (No added spheres)
                        Default sphere list used, NSphG=   15.
                        Lebedev-Laikov grids with approx.  5.0 points / Ang**2.
                        Smoothing algorithm: York/Karplus (Gamma=1.0000).
                        Polarization charges: spherical gaussians, with
                                              point-specific exponents (IZeta= 3).
                        Self-potential: point-specific (ISelfS= 7).
                        Self-field    : sphere-specific E.n sum rule (ISelfD= 2).
 1st derivatives      : Analytical E(r).r(x)/FMM algorithm (CHGder, D1EAlg=3).
                        Cavity 1st derivative terms included.
 2nd derivatives      : Analytical E(r).r(xy)/FMM algorithm (CHGder, D2EAlg=3).
                        Cavity 2nd derivative terms included.
 Solvent              : Toluene, Eps=   2.374100 Eps(inf)=   2.238315
 ------------------------------------------------------------------------------
 Spheres list:
 ISph  on   Nord     Re0    Alpha      Xe            Ye            Ze
    1   C      1    1.9255  1.100     -0.929609      0.659090     -0.270850
    2   C      2    1.9255  1.100     -1.900139     -0.211590      0.290820
    3   O      3    1.7500  1.100     -3.032540     -0.455840     -0.114510
    4   C      4    1.9255  1.100      0.349261      0.781149      0.313220
    5   C      5    1.9255  1.100      2.898551     -0.275622      0.140720
    6   H      6    1.4430  1.100      2.875360     -0.455332      1.223430
    7   H      7    1.4430  1.100      3.568700     -1.007312     -0.331200
    8   H      8    1.4430  1.100      3.287911      0.735318     -0.037980
    9   N      9    1.8300  1.100      1.536300     -0.359961     -0.384520
   10   H     10    1.4430  1.100      1.117020     -1.280371     -0.236230
   11   H     11    1.4430  1.100      1.497941     -0.191091     -1.391690
   12   H     12    1.4430  1.100      0.924111      1.695909      0.119900
   13   H     13    1.4430  1.100      0.443911      0.451759      1.358110
   14   H     14    1.4430  1.100     -1.178499      1.210900     -1.182280
   15   H     15    1.4430  1.100     -1.538620     -0.711490      1.242180
 ------------------------------------------------------------------------------
 One-electron integrals computed using PRISM.
   1 Symmetry operations used in ECPInt.
 ECPInt:  NShTT=    2016 NPrTT=    7008 LenC2=    1987 LenP2D=    5704.
 LDataN:  DoStor=T MaxTD1= 4 Len=   56
 NBasis=   129 RedAO= T EigKep=  2.19D-03  NBF=   129
 NBsUse=   129 1.00D-06 EigRej= -1.00D+00 NBFU=   129
 ExpMin= 1.22D-01 ExpMax= 2.27D+03 ExpMxC= 3.41D+02 IAcc=3 IRadAn=         5 AccDes= 0.00D+00
 Harris functional with IExCor= 4639 and IRadAn=       5 diagonalized for initial guess.
 HarFok:  IExCor= 4639 AccDes= 0.00D+00 IRadAn=         5 IDoV= 1 UseB2=F ITyADJ=14
 ICtDFT=  3500011 ScaDFX=  1.000000  1.000000  1.000000  1.000000
 FoFCou: FMM=F IPFlag=           0 FMFlag=      100000 FMFlg1=           0
         NFxFlg=           0 DoJE=T BraDBF=F KetDBF=T FulRan=T
         wScrn=  0.000000 ICntrl=       500 IOpCl=  0 I1Cent=   200000004 NGrid=           0
         NMat0=    1 NMatS0=      1 NMatT0=    0 NMatD0=    1 NMtDS0=    0 NMtDT0=    0
 Petite list used in FoFCou.
 Requested convergence on RMS density matrix=1.00D-08 within 128 cycles.
 Requested convergence on MAX density matrix=1.00D-06.
 Requested convergence on             energy=1.00D-06.
 No special actions if energy rises.
 Inv3:  Mode=1 IEnd=     4785507.
 Iteration    1 A*A^-1 deviation from unit magnitude is 2.89D-15 for    102.
 Iteration    1 A*A^-1 deviation from orthogonality  is 2.46D-15 for    868    612.
 Iteration    1 A^-1*A deviation from unit magnitude is 2.66D-15 for    102.
 Iteration    1 A^-1*A deviation from orthogonality  is 1.78D-15 for   1198   1075.
 Error on total polarization charges =  0.00624
 SCF Done:  E(RwB97XD) =  -287.447388360     A.U. after   14 cycles
            NFock= 14  Conv=0.74D-08     -V/T= 2.0105
 DoSCS=F DFT=T ScalE2(SS,OS)=  1.000000  1.000000
 Range of M.O.s used for correlation:     1   129
 NBasis=   129 NAE=    24 NBE=    24 NFC=     0 NFV=     0
 NROrb=    129 NOA=    24 NOB=    24 NVA=   105 NVB=   105
   1 Symmetry operations used in ECPInt.
 ECPInt:  NShTT=    2016 NPrTT=    7008 LenC2=    1987 LenP2D=    5704.
 LDataN:  DoStor=T MaxTD1= 5 Len=  102
 Symmetrizing basis deriv contribution to polar:
 IMax=3 JMax=2 DiffMx= 0.00D+00
 G2DrvN: will do    16 centers at a time, making    1 passes.
 Calling FoFCou, ICntrl=  3107 FMM=F I1Cent=   0 AccDes= 0.00D+00.
 NEqPCM:  Using equilibrium solvation (IEInf=0, Eps=   2.3741, EpsInf=   2.2383)
 G2PCM: DoFxE=T DoFxN=T DoGrad=T DoDP/DQ/DG/TGxP=FFFF NFrqRd=   0 IEInf=0 SqF1=F DoCFld=F IF1Alg=4.
 End of G2Drv F.D. properties file   721 does not exist.
 End of G2Drv F.D. properties file   722 does not exist.
 End of G2Drv F.D. properties file   788 does not exist.
          IDoAtm=111111111111111
 NEqPCM:  Using equilibrium solvation (IEInf=0, Eps=   2.3741, EpsInf=   2.2383)
          Differentiating once with respect to electric field.
                with respect to dipole field.
          Differentiating once with respect to nuclear coordinates.
 Keep R1 ints in memory in canonical form, NReq=82911873.
          There are    48 degrees of freedom in the 1st order CPHF.  IDoFFX=6 NUNeed=     3.
     45 vectors produced by pass  0 Test12= 5.25D-15 2.08D-09 XBig12= 4.83D+01 5.46D+00.
 AX will form    45 AO Fock derivatives at one time.
     45 vectors produced by pass  1 Test12= 5.25D-15 2.08D-09 XBig12= 5.47D+00 4.97D-01.
     45 vectors produced by pass  2 Test12= 5.25D-15 2.08D-09 XBig12= 1.36D-01 5.98D-02.
     45 vectors produced by pass  3 Test12= 5.25D-15 2.08D-09 XBig12= 1.39D-03 7.07D-03.
     45 vectors produced by pass  4 Test12= 5.25D-15 2.08D-09 XBig12= 1.10D-05 7.25D-04.
     45 vectors produced by pass  5 Test12= 5.25D-15 2.08D-09 XBig12= 5.79D-08 3.95D-05.
     23 vectors produced by pass  6 Test12= 5.25D-15 2.08D-09 XBig12= 2.48D-10 2.01D-06.
      5 vectors produced by pass  7 Test12= 5.25D-15 2.08D-09 XBig12= 8.69D-13 1.01D-07.
      1 vectors produced by pass  8 Test12= 5.25D-15 2.08D-09 XBig12= 3.05D-15 6.38D-09.
 InvSVY:  IOpt=1 It=  1 EMax= 6.22D-15
 Solved reduced A of dimension   299 with    48 vectors.
 Isotropic polarizability for W=    0.000000       71.36 Bohr**3.
 End of Minotr F.D. properties file   721 does not exist.
 End of Minotr F.D. properties file   722 does not exist.
 End of Minotr F.D. properties file   788 does not exist.

 **********************************************************************

            Population analysis using the SCF Density.

 **********************************************************************

 Orbital symmetries:
       Occupied  (A) (A) (A) (A) (A) (A) (A) (A) (A) (A) (A) (A)
                 (A) (A) (A) (A) (A) (A) (A) (A) (A) (A) (A) (A)
       Virtual   (A) (A) (A) (A) (A) (A) (A) (A) (A) (A) (A) (A)
                 (A) (A) (A) (A) (A) (A) (A) (A) (A) (A) (A) (A)
                 (A) (A) (A) (A) (A) (A) (A) (A) (A) (A) (A) (A)
                 (A) (A) (A) (A) (A) (A) (A) (A) (A) (A) (A) (A)
                 (A) (A) (A) (A) (A) (A) (A) (A) (A) (A) (A) (A)
                 (A) (A) (A) (A) (A) (A) (A) (A) (A) (A) (A) (A)
                 (A) (A) (A) (A) (A) (A) (A) (A) (A) (A) (A) (A)
                 (A) (A) (A) (A) (A) (A) (A) (A) (A) (A) (A) (A)
                 (A) (A) (A) (A) (A) (A) (A) (A) (A)
 The electronic state is 1-A.
 Alpha  occ. eigenvalues --  -19.17621 -14.52851 -10.36181 -10.34791 -10.32767
 Alpha  occ. eigenvalues --  -10.24025  -1.05991  -1.05759  -0.85810  -0.80345
 Alpha  occ. eigenvalues --   -0.71848  -0.65967  -0.61493  -0.59115  -0.55760
 Alpha  occ. eigenvalues --   -0.51938  -0.51352  -0.50211  -0.47113  -0.44924
 Alpha  occ. eigenvalues --   -0.43415  -0.42066  -0.28244  -0.25329
 Alpha virt. eigenvalues --    0.09025   0.10806   0.14934   0.15224   0.17066
 Alpha virt. eigenvalues --    0.17790   0.19848   0.20263   0.22480   0.23417
 Alpha virt. eigenvalues --    0.25426   0.26244   0.34154   0.37049   0.44793
 Alpha virt. eigenvalues --    0.46174   0.48012   0.51102   0.52303   0.57809
 Alpha virt. eigenvalues --    0.60205   0.61407   0.64575   0.67008   0.68927
 Alpha virt. eigenvalues --    0.69577   0.70599   0.72765   0.73662   0.73984
 Alpha virt. eigenvalues --    0.74991   0.77287   0.78935   0.79535   0.80361
 Alpha virt. eigenvalues --    0.81968   0.85094   0.88195   0.90527   0.96155
 Alpha virt. eigenvalues --    1.00228   1.05953   1.10216   1.16120   1.17702
 Alpha virt. eigenvalues --    1.22047   1.28357   1.32096   1.36596   1.37396
 Alpha virt. eigenvalues --    1.39761   1.43473   1.46915   1.56157   1.57535
 Alpha virt. eigenvalues --    1.60857   1.64585   1.74847   1.75972   1.80348
 Alpha virt. eigenvalues --    1.82590   1.83009   1.84174   1.85239   1.86675
 Alpha virt. eigenvalues --    1.87699   1.90119   1.92899   1.97669   2.01024
 Alpha virt. eigenvalues --    2.02730   2.05794   2.08889   2.10579   2.12556
 Alpha virt. eigenvalues --    2.14917   2.20878   2.25989   2.30884   2.36027
 Alpha virt. eigenvalues --    2.36356   2.39016   2.43963   2.48635   2.53184
 Alpha virt. eigenvalues --    2.61608   2.67895   2.68633   2.71692   2.72414
 Alpha virt. eigenvalues --    2.77941   2.81163   2.86160   2.88546   2.96302
 Alpha virt. eigenvalues --    3.02319   3.03066   3.04925   3.07439   3.22378
 Alpha virt. eigenvalues --    3.28634   3.33794   3.46575   3.57107   3.76156
          Condensed to atoms (all electrons):
               1          2          3          4          5          6
     1  C    5.692994   0.282013  -0.112276   0.344911   0.004282   0.000527
     2  C    0.282013   4.495931   0.670431   0.014821   0.000107  -0.000039
     3  O   -0.112276   0.670431   7.852070   0.005484  -0.000000   0.000000
     4  C    0.344911   0.014821   0.005484   4.759652  -0.012355  -0.001889
     5  C    0.004282   0.000107  -0.000000  -0.012355   4.517720   0.406807
     6  H    0.000527  -0.000039   0.000000  -0.001889   0.406807   0.573763
     7  H   -0.000347  -0.000005   0.000000   0.001832   0.404768  -0.020314
     8  H    0.000527   0.000009  -0.000000  -0.002661   0.406507  -0.017257
     9  N   -0.088729  -0.003798   0.000066   0.063425   0.290039  -0.025788
    10  H    0.009987   0.003131  -0.000190  -0.000055  -0.015505  -0.004998
    11  H    0.009569  -0.000522  -0.000030  -0.004349  -0.017189   0.006384
    12  H   -0.006749   0.004598  -0.000108   0.387477   0.002066  -0.001055
    13  H   -0.024156  -0.010258   0.000093   0.391171   0.000697   0.005784
    14  H    0.368169  -0.014704   0.005940  -0.041704  -0.000074   0.000012
    15  H   -0.197992   0.412721  -0.051243   0.017965  -0.000012  -0.000010
               7          8          9         10         11         12
     1  C   -0.000347   0.000527  -0.088729   0.009987   0.009569  -0.006749
     2  C   -0.000005   0.000009  -0.003798   0.003131  -0.000522   0.004598
     3  O    0.000000  -0.000000   0.000066  -0.000190  -0.000030  -0.000108
     4  C    0.001832  -0.002661   0.063425  -0.000055  -0.004349   0.387477
     5  C    0.404768   0.406507   0.290039  -0.015505  -0.017189   0.002066
     6  H   -0.020314  -0.017257  -0.025788  -0.004998   0.006384  -0.001055
     7  H    0.579610  -0.020258  -0.012975  -0.006394  -0.005932  -0.000306
     8  H   -0.020258   0.574859  -0.025138   0.006452  -0.005276   0.006457
     9  N   -0.012975  -0.025138   6.422065   0.326494   0.334053  -0.043239
    10  H   -0.006394   0.006452   0.326494   0.517358  -0.012829   0.005144
    11  H   -0.005932  -0.005276   0.334053  -0.012829   0.514440  -0.002109
    12  H   -0.000306   0.006457  -0.043239   0.005144  -0.002109   0.635156
    13  H   -0.000205  -0.001153  -0.031210  -0.003017   0.004547  -0.027832
    14  H    0.000004  -0.000029  -0.000687  -0.000115   0.001933  -0.009766
    15  H   -0.000001   0.000000  -0.001014   0.001244   0.000108  -0.000404
              13         14         15
     1  C   -0.024156   0.368169  -0.197992
     2  C   -0.010258  -0.014704   0.412721
     3  O    0.000093   0.005940  -0.051243
     4  C    0.391171  -0.041704   0.017965
     5  C    0.000697  -0.000074  -0.000012
     6  H    0.005784   0.000012  -0.000010
     7  H   -0.000205   0.000004  -0.000001
     8  H   -0.001153  -0.000029   0.000000
     9  N   -0.031210  -0.000687  -0.001014
    10  H   -0.003017  -0.000115   0.001244
    11  H    0.004547   0.001933   0.000108
    12  H   -0.027832  -0.009766  -0.000404
    13  H    0.625059   0.007246   0.011758
    14  H    0.007246   0.672776   0.011971
    15  H    0.011758   0.011971   0.859577
 Mulliken charges:
               1
     1  C   -0.282731
     2  C    0.145562
     3  O   -0.370237
     4  C    0.076276
     5  C    0.012142
     6  H    0.078070
     7  H    0.080524
     8  H    0.076961
     9  N   -0.203564
    10  H    0.173293
    11  H    0.177202
    12  H    0.050672
    13  H    0.051473
    14  H   -0.000974
    15  H   -0.064668
 Sum of Mulliken charges =  -0.00000
 Mulliken charges with hydrogens summed into heavy atoms:
               1
     1  C   -0.283705
     2  C    0.080894
     3  O   -0.370237
     4  C    0.178421
     5  C    0.247696
     9  N    0.146931
 APT charges:
               1
     1  C   -0.983796
     2  C    1.242442
     3  O   -1.110443
     4  C    1.172477
     5  C    0.240294
     6  H    0.027219
     7  H   -0.030446
     8  H    0.026713
     9  N   -0.755385
    10  H    0.172982
    11  H    0.184012
    12  H   -0.045295
    13  H   -0.026276
    14  H    0.019536
    15  H   -0.134032
 Sum of APT charges =   0.00000
 APT charges with hydrogens summed into heavy atoms:
               1
     1  C   -0.964261
     2  C    1.108410
     3  O   -1.110443
     4  C    1.100905
     5  C    0.263780
     9  N   -0.398392
 Electronic spatial extent (au):  <R**2>=            937.5353
 Charge=             -0.0000 electrons
 Dipole moment (field-independent basis, Debye):
    X=             11.5305    Y=             -0.6970    Z=             -0.2753  Tot=             11.5548
 Quadrupole moment (field-independent basis, Debye-Ang):
   XX=            -48.5855   YY=            -36.6598   ZZ=            -35.2905
   XY=             -3.9228   XZ=             -2.7116   YZ=             -0.2827
 Traceless Quadrupole moment (field-independent basis, Debye-Ang):
   XX=             -8.4069   YY=              3.5188   ZZ=              4.8881
   XY=             -3.9228   XZ=             -2.7116   YZ=             -0.2827
 Octapole moment (field-independent basis, Debye-Ang**2):
  XXX=             98.3132  YYY=             -7.0099  ZZZ=             -4.2347  XYY=              8.6057
  XXY=              5.5483  XXZ=              0.9244  XZZ=              5.8353  YZZ=             -1.5619
  YYZ=             -2.2970  XYZ=              1.1970
 Hexadecapole moment (field-independent basis, Debye-Ang**3):
 XXXX=          -1115.1778 YYYY=           -117.0437 ZZZZ=            -79.0368 XXXY=            -41.1154
 XXXZ=            -15.0181 YYYX=              2.3726 YYYZ=              0.8537 ZZZX=             -2.7814
 ZZZY=              0.5000 XXYY=           -182.1377 XXZZ=           -170.9100 YYZZ=            -34.4167
 XXYZ=             -0.4874 YYXZ=             -0.5114 ZZXY=             -1.8873
 N-N= 2.275106041590D+02 E-N=-1.124051691609D+03  KE= 2.844657845406D+02
  Exact polarizability:     107.198       5.009      52.968       2.210      -5.279      53.901
 Approx polarizability:      93.188       6.547      52.411       4.325      -3.790      52.735
   1 Symmetry operations used in ECPInt.
 ECPInt:  NShTT=    2016 NPrTT=    7008 LenC2=    1987 LenP2D=    5704.
 LDataN:  DoStor=T MaxTD1= 6 Len=  172
 D2PCM: PCM CHGder 2nd derivatives, FixD1E=F FixD2E=F DoIter=F DoCFld=F I1PDM=0
 Calling FoFJK, ICntrl=    100127 FMM=F ISym2X=0 I1Cent= 0 IOpClX= 0 NMat=1 NMatS=1 NMatT=0.
 Full mass-weighted force constant matrix:
 Low frequencies --- -285.7342  -39.4025  -22.6132   -7.7926    0.0006    0.0007
 Low frequencies ---    0.0008   54.2828   96.0067
 ******    1 imaginary frequencies (negative Signs) ****** 
 Diagonal vibrational polarizability:
      263.1777646      40.5235818      41.9159670
 Harmonic frequencies (cm**-1), IR intensities (KM/Mole), Raman scattering
 activities (A**4/AMU), depolarization ratios for plane and unpolarized
 incident light, reduced masses (AMU), force constants (mDyne/A),
 and normal coordinates:
                      1                      2                      3
                      A                      A                      A
 Frequencies --   -285.7331                52.8274                95.8407
 Red. masses --      6.2858                 2.4410                 3.3659
 Frc consts  --      0.3024                 0.0040                 0.0182
 IR Inten    --    614.3932                 6.6392                 5.1905
  Atom  AN      X      Y      Z        X      Y      Z        X      Y      Z
     1   6     0.13  -0.15  -0.06     0.02  -0.05   0.03     0.01  -0.17  -0.08
     2   6     0.08   0.01  -0.04    -0.06   0.01  -0.02    -0.07  -0.03   0.00
     3   8     0.02   0.03   0.03    -0.05   0.09  -0.08    -0.15   0.16   0.11
     4   6     0.34  -0.28  -0.11     0.00  -0.10   0.09    -0.00  -0.15  -0.06
     5   6    -0.17   0.07   0.01     0.09   0.16  -0.14     0.06   0.11   0.11
     6   1    -0.10   0.00  -0.00     0.30   0.38  -0.10    -0.07  -0.18   0.06
     7   1    -0.40  -0.01  -0.15     0.08   0.13  -0.11     0.25   0.35   0.02
     8   1    -0.09   0.03  -0.01    -0.06   0.16  -0.43    -0.09   0.22   0.44
     9   7    -0.29   0.24   0.13     0.00  -0.11   0.12     0.14   0.02  -0.10
    10   1    -0.28   0.21   0.06     0.15  -0.14   0.36     0.22  -0.05  -0.29
    11   1    -0.29   0.20   0.11    -0.21  -0.29   0.10     0.27   0.16  -0.08
    12   1     0.09  -0.05   0.12     0.03  -0.11   0.12    -0.05  -0.11   0.02
    13   1     0.11  -0.04   0.01    -0.05  -0.10   0.09    -0.01  -0.22  -0.08
    14   1     0.17  -0.06  -0.03     0.09  -0.03   0.02    -0.01  -0.11  -0.04
    15   1     0.07   0.03  -0.00    -0.13  -0.02  -0.00    -0.07  -0.08  -0.03
                      4                      5                      6
                      A                      A                      A
 Frequencies --    172.9882               221.4505               267.5396
 Red. masses --      1.1540                 2.5289                 2.2670
 Frc consts  --      0.0203                 0.0731                 0.0956
 IR Inten    --      1.5178                 8.1300                 0.1563
  Atom  AN      X      Y      Z        X      Y      Z        X      Y      Z
     1   6    -0.01   0.01   0.02     0.01  -0.16  -0.06     0.02  -0.03   0.09
     2   6     0.02  -0.05  -0.03    -0.08  -0.00   0.03    -0.09   0.14   0.16
     3   8    -0.02   0.03   0.02    -0.07   0.01  -0.02     0.05  -0.06  -0.12
     4   6     0.01  -0.03  -0.00    -0.05   0.06   0.06     0.05  -0.07   0.02
     5   6    -0.02   0.01   0.04     0.14  -0.12  -0.07    -0.04   0.04   0.01
     6   1    -0.17   0.53   0.12     0.21  -0.02  -0.05    -0.18   0.18   0.04
     7   1    -0.10  -0.34   0.46    -0.13  -0.36  -0.08     0.01  -0.02   0.19
     8   1     0.20  -0.15  -0.40     0.41  -0.26  -0.21    -0.02   0.02  -0.06
     9   7     0.02   0.02  -0.05     0.05   0.18   0.07     0.02  -0.01  -0.12
    10   1     0.01   0.02  -0.08    -0.04   0.21  -0.03     0.05  -0.05  -0.23
    11   1     0.07   0.02  -0.06     0.01   0.28   0.09     0.08   0.10  -0.10
    12   1    -0.01  -0.01   0.06    -0.16   0.13   0.07     0.08  -0.09   0.01
    13   1     0.03  -0.10  -0.03    -0.09   0.12   0.08     0.07  -0.10   0.01
    14   1    -0.05   0.12   0.10     0.05  -0.27  -0.14     0.11  -0.27  -0.09
    15   1     0.07  -0.18  -0.12    -0.20   0.15   0.15    -0.35   0.51   0.45
                      7                      8                      9
                      A                      A                      A
 Frequencies --    336.3485               458.2617               624.7519
 Red. masses --      2.3126                 4.6074                 3.2583
 Frc consts  --      0.1541                 0.5701                 0.7493
 IR Inten    --     10.6944               192.0313                10.4278
  Atom  AN      X      Y      Z        X      Y      Z        X      Y      Z
     1   6    -0.02  -0.08   0.18    -0.14   0.23   0.09    -0.16   0.01  -0.02
     2   6    -0.03  -0.13   0.07    -0.16   0.10  -0.05     0.09  -0.02   0.17
     3   8    -0.02   0.09  -0.11    -0.15  -0.17   0.01     0.18   0.11  -0.07
     4   6     0.10   0.10  -0.10     0.16  -0.16  -0.19    -0.14  -0.13  -0.16
     5   6    -0.01   0.00   0.01     0.18  -0.03   0.03     0.05  -0.01   0.01
     6   1    -0.02  -0.05   0.00     0.27  -0.11   0.02     0.14  -0.07   0.00
     7   1     0.01   0.04  -0.02    -0.01  -0.10  -0.12    -0.09  -0.06  -0.10
     8   1    -0.03   0.02   0.07     0.27  -0.07   0.02     0.14  -0.04   0.00
     9   7    -0.00   0.00  -0.00     0.07   0.06   0.08    -0.01   0.06   0.06
    10   1    -0.05   0.04   0.11     0.15   0.02   0.11     0.05   0.04   0.12
    11   1     0.02  -0.12  -0.03     0.17  -0.10   0.05     0.06  -0.11   0.02
    12   1    -0.06   0.11  -0.51     0.09  -0.10  -0.16    -0.14  -0.07   0.16
    13   1     0.40   0.43  -0.02     0.18  -0.04  -0.15    -0.33  -0.34  -0.21
    14   1    -0.17  -0.12   0.19    -0.15   0.48   0.24    -0.58   0.08   0.14
    15   1    -0.15  -0.35  -0.00    -0.05   0.09  -0.09     0.03  -0.05   0.17
                     10                     11                     12
                      A                      A                      A
 Frequencies --    695.9780               751.4497               907.4557
 Red. masses --      1.1860                 1.2656                 1.4734
 Frc consts  --      0.3385                 0.4210                 0.7149
 IR Inten    --     32.6970               113.4241                 1.0296
  Atom  AN      X      Y      Z        X      Y      Z        X      Y      Z
     1   6    -0.04   0.05   0.02     0.05  -0.10  -0.07     0.03   0.01  -0.02
     2   6     0.02  -0.01  -0.01    -0.02   0.05   0.02    -0.03  -0.05   0.04
     3   8     0.02   0.02   0.00     0.01  -0.02  -0.01    -0.04  -0.01  -0.01
     4   6    -0.02  -0.04  -0.01    -0.01   0.02   0.01     0.10   0.12  -0.07
     5   6     0.01   0.00   0.00    -0.01  -0.00  -0.00    -0.01  -0.02   0.01
     6   1     0.16   0.09   0.02     0.05   0.05   0.01     0.20   0.12   0.04
     7   1    -0.01   0.01  -0.04     0.03   0.03  -0.00     0.08   0.11  -0.06
     8   1    -0.06   0.00  -0.14    -0.08   0.02  -0.06    -0.24   0.04  -0.17
     9   7    -0.02  -0.04   0.07    -0.00  -0.04   0.03    -0.00  -0.05   0.03
    10   1     0.13  -0.21  -0.53     0.01  -0.08  -0.21    -0.22   0.02  -0.19
    11   1     0.04   0.56   0.17    -0.02   0.23   0.07     0.17   0.17   0.06
    12   1     0.04  -0.13  -0.25    -0.10   0.03  -0.16     0.30   0.12   0.51
    13   1    -0.03   0.23   0.07     0.12   0.12   0.03    -0.23  -0.32  -0.17
    14   1     0.07  -0.23  -0.18    -0.25   0.68   0.49    -0.25  -0.08   0.00
    15   1     0.06  -0.08  -0.06    -0.03   0.11   0.06    -0.12  -0.09   0.06
                     13                     14                     15
                      A                      A                      A
 Frequencies --   1014.1650              1035.4081              1043.5828
 Red. masses --      1.1682                 1.5403                 1.4938
 Frc consts  --      0.7079                 0.9729                 0.9585
 IR Inten    --     13.6799                 3.5857                13.1792
  Atom  AN      X      Y      Z        X      Y      Z        X      Y      Z
     1   6    -0.01   0.00   0.04    -0.01   0.05   0.02    -0.03   0.01   0.00
     2   6     0.03  -0.02  -0.06     0.07  -0.16  -0.10     0.01  -0.00  -0.01
     3   8     0.01   0.01   0.02    -0.02   0.04   0.02     0.01   0.01   0.00
     4   6    -0.04  -0.03   0.01     0.02   0.02  -0.01     0.00  -0.03   0.01
     5   6    -0.03  -0.03   0.04     0.00   0.02  -0.02     0.17  -0.05   0.02
     6   1     0.39   0.10   0.07    -0.16  -0.07  -0.03    -0.07   0.17   0.05
     7   1    -0.04   0.11  -0.20    -0.03  -0.07   0.07     0.53   0.14   0.26
     8   1    -0.24   0.01  -0.25     0.14  -0.01   0.11    -0.18   0.10   0.07
     9   7     0.00   0.02  -0.01    -0.00  -0.01   0.02    -0.08  -0.01  -0.05
    10   1    -0.30   0.15  -0.05     0.21  -0.11  -0.01    -0.51   0.20   0.04
    11   1     0.49  -0.16  -0.06    -0.21   0.09   0.04    -0.37   0.15  -0.01
    12   1    -0.26   0.08  -0.10     0.05   0.00   0.03    -0.13   0.05  -0.01
    13   1     0.21  -0.07  -0.03     0.00  -0.04  -0.03    -0.00   0.09   0.04
    14   1     0.18   0.03   0.01    -0.11   0.08   0.06    -0.02  -0.02  -0.02
    15   1    -0.04   0.27   0.12    -0.33   0.64   0.47     0.01   0.07   0.03
                     16                     17                     18
                      A                      A                      A
 Frequencies --   1109.1811              1190.2174              1193.5782
 Red. masses --      2.5033                 1.4702                 1.4115
 Frc consts  --      1.8145                 1.2271                 1.1848
 IR Inten    --    120.1024               189.9652                15.2815
  Atom  AN      X      Y      Z        X      Y      Z        X      Y      Z
     1   6    -0.01   0.04   0.00     0.05   0.06  -0.06    -0.03   0.05  -0.10
     2   6    -0.01  -0.01   0.01    -0.04  -0.10   0.12     0.00  -0.06   0.04
     3   8     0.01   0.00   0.00    -0.01   0.01  -0.02    -0.01   0.01  -0.01
     4   6     0.00  -0.07  -0.03    -0.05   0.01  -0.05     0.03  -0.04   0.10
     5   6    -0.16  -0.09  -0.13     0.01   0.01   0.01    -0.01  -0.01   0.03
     6   1    -0.40   0.17  -0.09     0.05  -0.00   0.01     0.13   0.03   0.04
     7   1     0.24   0.10   0.15     0.00   0.00   0.00    -0.04   0.05  -0.09
     8   1    -0.50   0.06  -0.02     0.05  -0.01   0.01    -0.05  -0.01  -0.10
     9   7     0.23   0.04   0.10    -0.02   0.01   0.00     0.02   0.03  -0.05
    10   1    -0.22   0.29   0.25    -0.08   0.04   0.02    -0.15   0.14   0.09
    11   1    -0.12   0.28   0.18    -0.07   0.04   0.01     0.13  -0.14  -0.09
    12   1    -0.10  -0.02  -0.08     0.14  -0.13  -0.11     0.50  -0.39  -0.15
    13   1    -0.02   0.02  -0.01    -0.02  -0.12  -0.09    -0.13   0.42   0.27
    14   1     0.03   0.01  -0.03     0.80   0.40  -0.06    -0.32   0.04  -0.03
    15   1    -0.02   0.01   0.02    -0.15  -0.17   0.12    -0.10  -0.02   0.09
                     19                     20                     21
                      A                      A                      A
 Frequencies --   1242.4333              1252.8830              1279.5737
 Red. masses --      1.2809                 1.3758                 1.3619
 Frc consts  --      1.1649                 1.2724                 1.3138
 IR Inten    --     78.7936                13.2346               118.3683
  Atom  AN      X      Y      Z        X      Y      Z        X      Y      Z
     1   6     0.01  -0.00   0.01    -0.08   0.03  -0.11     0.05  -0.05   0.07
     2   6     0.00  -0.01   0.01    -0.01  -0.02   0.05     0.00   0.04  -0.07
     3   8    -0.00   0.00  -0.00     0.00   0.01  -0.01     0.01  -0.01   0.02
     4   6     0.01   0.00  -0.01     0.02   0.02   0.07    -0.08   0.04  -0.02
     5   6     0.03  -0.08  -0.06     0.01  -0.02  -0.02     0.01  -0.02  -0.02
     6   1    -0.21   0.18  -0.02    -0.05   0.04  -0.01     0.00   0.07   0.00
     7   1     0.34   0.06   0.16     0.10   0.00   0.08     0.13   0.04   0.06
     8   1    -0.26   0.06   0.09    -0.06   0.02   0.05    -0.01   0.00   0.05
     9   7    -0.07   0.07   0.03    -0.03   0.02   0.04    -0.03   0.05   0.03
    10   1     0.43  -0.21  -0.18     0.15  -0.08  -0.06    -0.03   0.06   0.02
    11   1     0.42  -0.35  -0.07     0.05  -0.04   0.02     0.01   0.01   0.02
    12   1    -0.02   0.03   0.06     0.04   0.02   0.06     0.54  -0.45  -0.40
    13   1    -0.25   0.18   0.08     0.87  -0.28  -0.09     0.06  -0.45  -0.19
    14   1     0.08   0.07   0.03    -0.11  -0.06  -0.17    -0.10  -0.09   0.10
    15   1    -0.02  -0.00   0.02     0.07  -0.02   0.01    -0.01   0.04  -0.06
                     22                     23                     24
                      A                      A                      A
 Frequencies --   1323.2427              1364.6713              1442.3522
 Red. masses --      1.3010                 1.3541                 1.3198
 Frc consts  --      1.3421                 1.4858                 1.6178
 IR Inten    --      1.2646                80.3147                 2.3156
  Atom  AN      X      Y      Z        X      Y      Z        X      Y      Z
     1   6    -0.01  -0.00  -0.00    -0.13  -0.09   0.04     0.04   0.04  -0.03
     2   6     0.00  -0.00  -0.00    -0.00  -0.01  -0.00     0.00  -0.05   0.07
     3   8     0.00   0.00  -0.00    -0.00   0.02  -0.03    -0.07   0.00  -0.05
     4   6     0.00  -0.01   0.01     0.01   0.03  -0.03     0.06   0.01   0.06
     5   6     0.03   0.09  -0.10    -0.00  -0.00   0.00     0.01   0.00   0.00
     6   1    -0.28  -0.19  -0.15    -0.03   0.00   0.00    -0.04   0.02   0.01
     7   1    -0.08  -0.23   0.23    -0.01   0.02  -0.03    -0.07  -0.04  -0.04
     8   1     0.23   0.08   0.26    -0.02  -0.01  -0.03    -0.06   0.03   0.01
     9   7    -0.02  -0.06   0.06     0.02  -0.01  -0.01    -0.00   0.00  -0.00
    10   1    -0.51   0.13  -0.16     0.01   0.01   0.02    -0.00  -0.01  -0.02
    11   1     0.54  -0.02   0.05    -0.03   0.03   0.00     0.00  -0.03  -0.01
    12   1     0.04  -0.03   0.00     0.35  -0.10   0.30    -0.24   0.08  -0.50
    13   1    -0.01   0.04   0.03     0.03   0.19   0.03    -0.32  -0.36  -0.03
    14   1     0.00   0.02   0.01     0.32   0.14   0.06    -0.13  -0.04  -0.04
    15   1     0.02   0.01   0.00     0.67   0.36  -0.04     0.58   0.23   0.03
                     25                     26                     27
                      A                      A                      A
 Frequencies --   1451.4252              1478.1059              1487.2262
 Red. masses --      1.1926                 1.0391                 1.0296
 Frc consts  --      1.4802                 1.3375                 1.3417
 IR Inten    --      1.4804                15.2730                18.4193
  Atom  AN      X      Y      Z        X      Y      Z        X      Y      Z
     1   6     0.01   0.01  -0.00    -0.00  -0.00   0.00    -0.00   0.00  -0.00
     2   6    -0.00  -0.01   0.01    -0.00   0.00  -0.00     0.00   0.00   0.00
     3   8    -0.01  -0.00  -0.01     0.00   0.00   0.00     0.00   0.00   0.00
     4   6     0.01  -0.01  -0.00    -0.00  -0.00  -0.00     0.01   0.00   0.00
     5   6    -0.12  -0.00  -0.04     0.00  -0.03  -0.03    -0.01  -0.02   0.02
     6   1     0.55  -0.01  -0.03     0.21   0.61   0.09    -0.43   0.29   0.05
     7   1     0.43   0.22   0.36    -0.26  -0.15  -0.18     0.15   0.44  -0.47
     8   1     0.47  -0.19   0.18    -0.01   0.10   0.66     0.47  -0.21  -0.07
     9   7    -0.01   0.00  -0.00     0.01  -0.02  -0.01    -0.01  -0.02   0.02
    10   1     0.01   0.00   0.04    -0.02   0.00   0.03    -0.10   0.01  -0.03
    11   1     0.03   0.03   0.00    -0.02   0.04  -0.00     0.10  -0.00   0.02
    12   1    -0.06   0.03   0.01     0.00   0.01   0.03    -0.03   0.02  -0.02
    13   1    -0.03   0.03   0.01     0.01   0.02   0.01     0.01  -0.02  -0.00
    14   1    -0.03  -0.01  -0.00     0.01   0.00   0.00    -0.00   0.00  -0.00
    15   1     0.11   0.05   0.00    -0.01  -0.00  -0.00    -0.01  -0.01   0.00
                     28                     29                     30
                      A                      A                      A
 Frequencies --   1521.3071              1628.5913              1779.3004
 Red. masses --      2.4791                 1.0922                 8.4428
 Frc consts  --      3.3805                 1.7067                15.7483
 IR Inten    --    100.0835                34.8345               877.6695
  Atom  AN      X      Y      Z        X      Y      Z        X      Y      Z
     1   6     0.25   0.08   0.03    -0.00  -0.00  -0.00    -0.14  -0.07   0.01
     2   6     0.02  -0.03   0.06     0.00  -0.00   0.00     0.63   0.20   0.14
     3   8    -0.09  -0.02  -0.04    -0.00  -0.00  -0.00    -0.36  -0.08  -0.12
     4   6    -0.17  -0.07  -0.09     0.01   0.00   0.00    -0.02   0.02   0.01
     5   6     0.02  -0.00   0.01     0.02  -0.01  -0.00    -0.01  -0.00  -0.00
     6   1    -0.10   0.02   0.01    -0.06  -0.01  -0.01     0.01   0.00  -0.01
     7   1    -0.04  -0.01  -0.07     0.03  -0.01  -0.00     0.02   0.01   0.02
     8   1    -0.03   0.02  -0.02    -0.04   0.01  -0.03     0.00  -0.01   0.01
     9   7    -0.02   0.01   0.01    -0.06  -0.03  -0.05     0.03  -0.01   0.00
    10   1    -0.02   0.02   0.02     0.22  -0.01   0.67    -0.03   0.01  -0.01
    11   1     0.01   0.02   0.01     0.42   0.56   0.06    -0.04   0.01   0.00
    12   1     0.04  -0.10   0.43    -0.01   0.01  -0.02     0.06  -0.05  -0.01
    13   1     0.42   0.39  -0.01    -0.01  -0.01   0.00    -0.00  -0.05  -0.04
    14   1    -0.30  -0.18   0.04     0.00   0.01  -0.00     0.25   0.09   0.05
    15   1     0.42   0.17   0.02    -0.00  -0.01   0.00    -0.45  -0.27   0.10
                     31                     32                     33
                      A                      A                      A
 Frequencies --   2748.4491              3070.9142              3089.2873
 Red. masses --      1.0768                 1.0344                 1.0604
 Frc consts  --      4.7924                 5.7472                 5.9624
 IR Inten    --    254.0066                24.8645                53.6826
  Atom  AN      X      Y      Z        X      Y      Z        X      Y      Z
     1   6    -0.00  -0.00  -0.00    -0.00  -0.00   0.00     0.00   0.00  -0.00
     2   6    -0.01   0.04  -0.07     0.00   0.00  -0.00     0.00   0.00  -0.00
     3   8    -0.01  -0.00  -0.00    -0.00  -0.00  -0.00    -0.00  -0.00  -0.00
     4   6    -0.00   0.00   0.00     0.00   0.00   0.00    -0.04  -0.02  -0.05
     5   6    -0.00  -0.00  -0.00    -0.05  -0.00  -0.01    -0.00   0.00  -0.00
     6   1     0.00   0.00  -0.00    -0.02  -0.09   0.53     0.00  -0.01   0.03
     7   1     0.00   0.00   0.00     0.37  -0.42  -0.27     0.02  -0.01  -0.01
     8   1    -0.00  -0.00   0.00     0.20   0.52  -0.09     0.01   0.01  -0.00
     9   7     0.00  -0.00  -0.00     0.00   0.00   0.00     0.00  -0.00   0.00
    10   1    -0.00  -0.00  -0.00    -0.00  -0.00  -0.00    -0.00  -0.00  -0.00
    11   1    -0.00   0.00  -0.00    -0.00  -0.00  -0.00    -0.00   0.00  -0.00
    12   1     0.00  -0.01   0.00    -0.02  -0.02   0.01     0.33   0.52  -0.12
    13   1     0.01   0.00  -0.01    -0.00   0.01  -0.02     0.06  -0.24   0.73
    14   1     0.01   0.00   0.00    -0.00   0.00  -0.00     0.01  -0.02   0.03
    15   1     0.29  -0.45   0.84     0.00  -0.00   0.00     0.00  -0.01   0.01
                     34                     35                     36
                      A                      A                      A
 Frequencies --   3176.7093              3178.0543              3189.7019
 Red. masses --      1.1095                 1.1092                 1.1075
 Frc consts  --      6.5970                 6.6005                 6.6389
 IR Inten    --      5.2928                 9.1472                 4.1977
  Atom  AN      X      Y      Z        X      Y      Z        X      Y      Z
     1   6    -0.00   0.01  -0.02    -0.01   0.01  -0.02     0.00  -0.00   0.00
     2   6    -0.00  -0.00   0.00    -0.00  -0.00   0.00     0.00   0.00  -0.00
     3   8     0.00   0.00   0.00     0.00   0.00   0.00    -0.00  -0.00   0.00
     4   6    -0.02  -0.04   0.04    -0.02  -0.05   0.04     0.00   0.00   0.00
     5   6    -0.02   0.06   0.03     0.02  -0.05  -0.03     0.03   0.05  -0.08
     6   1     0.00   0.04  -0.21    -0.01  -0.05   0.23    -0.02  -0.13   0.77
     7   1     0.34  -0.37  -0.25    -0.31   0.35   0.23    -0.07   0.09   0.04
     8   1    -0.15  -0.38   0.08     0.13   0.34  -0.07    -0.21  -0.56   0.09
     9   7    -0.00  -0.00  -0.00     0.00   0.00  -0.00    -0.00  -0.00   0.00
    10   1    -0.00   0.01  -0.00    -0.01  -0.01   0.00    -0.00   0.01  -0.00
    11   1     0.00  -0.00   0.01     0.00  -0.00  -0.00     0.01   0.00  -0.01
    12   1     0.25   0.39  -0.09     0.27   0.42  -0.09    -0.00  -0.01   0.00
    13   1    -0.04   0.12  -0.38    -0.04   0.13  -0.40    -0.00   0.00  -0.00
    14   1     0.06  -0.14   0.23     0.07  -0.15   0.25    -0.02   0.03  -0.06
    15   1     0.00   0.00  -0.00     0.00   0.00  -0.00     0.00  -0.00   0.00
                     37                     38                     39
                      A                      A                      A
 Frequencies --   3193.1911              3513.8246              3594.3660
 Red. masses --      1.0951                 1.0540                 1.0968
 Frc consts  --      6.5789                 7.6677                 8.3487
 IR Inten    --     23.6530                25.3849                49.4964
  Atom  AN      X      Y      Z        X      Y      Z        X      Y      Z
     1   6    -0.02   0.04  -0.07    -0.00  -0.00  -0.00     0.00  -0.00   0.00
     2   6    -0.00  -0.00   0.00     0.00   0.00  -0.00    -0.00  -0.00   0.00
     3   8     0.00   0.00   0.00    -0.00  -0.00  -0.00     0.00   0.00   0.00
     4   6     0.02   0.03  -0.02     0.00  -0.00  -0.00    -0.00  -0.00   0.00
     5   6     0.00   0.00  -0.00     0.00  -0.00  -0.00     0.00   0.00  -0.00
     6   1    -0.00  -0.01   0.04     0.00  -0.00   0.01     0.00  -0.00   0.01
     7   1    -0.00   0.00  -0.00    -0.01   0.01   0.00    -0.00  -0.00   0.00
     8   1    -0.02  -0.04   0.01     0.00   0.01  -0.00    -0.01  -0.01   0.00
     9   7    -0.00  -0.00   0.00    -0.03  -0.04  -0.04     0.02   0.05  -0.06
    10   1     0.00   0.00  -0.00     0.30   0.64  -0.13    -0.28  -0.62   0.10
    11   1    -0.00   0.00   0.00     0.02  -0.14   0.68     0.03  -0.12   0.71
    12   1    -0.18  -0.27   0.06     0.00   0.01   0.00     0.00  -0.01  -0.00
    13   1     0.02  -0.07   0.22    -0.00   0.00   0.00    -0.00   0.00   0.01
    14   1     0.21  -0.46   0.75    -0.00   0.00  -0.00    -0.00   0.00  -0.00
    15   1     0.00   0.00  -0.00     0.00  -0.00   0.00    -0.00   0.00  -0.00

 -------------------
 - Thermochemistry -
 -------------------
 Temperature   298.150 Kelvin.  Pressure   1.00000 Atm.
 Atom     1 has atomic number  6 and mass  12.00000
 Atom     2 has atomic number  6 and mass  12.00000
 Atom     3 has atomic number  8 and mass  15.99491
 Atom     4 has atomic number  6 and mass  12.00000
 Atom     5 has atomic number  6 and mass  12.00000
 Atom     6 has atomic number  1 and mass   1.00783
 Atom     7 has atomic number  1 and mass   1.00783
 Atom     8 has atomic number  1 and mass   1.00783
 Atom     9 has atomic number  7 and mass  14.00307
 Atom    10 has atomic number  1 and mass   1.00783
 Atom    11 has atomic number  1 and mass   1.00783
 Atom    12 has atomic number  1 and mass   1.00783
 Atom    13 has atomic number  1 and mass   1.00783
 Atom    14 has atomic number  1 and mass   1.00783
 Atom    15 has atomic number  1 and mass   1.00783
 Molecular mass:    87.06841 amu.
 Principal axes and moments of inertia in atomic units:
                           1         2         3
     Eigenvalues --   148.935631389.708551439.01359
           X            0.99997  -0.00765   0.00106
           Y            0.00771   0.99635  -0.08502
           Z           -0.00041   0.08503   0.99638
 This molecule is an asymmetric top.
 Rotational symmetry number  1.
 Rotational temperatures (Kelvin)      0.58155     0.06233     0.06019
 Rotational constants (GHZ):          12.11759     1.29865     1.25415
    1 imaginary frequencies ignored.
 Zero-point vibrational energy     341992.2 (Joules/Mol)
                                   81.73810 (Kcal/Mol)
 Warning -- explicit consideration of   7 degrees of freedom as
           vibrations may cause significant error
 Vibrational temperatures:     76.01   137.89   248.89   318.62   384.93
          (Kelvin)            483.93   659.34   898.88  1001.36  1081.17
                             1305.63  1459.16  1489.72  1501.48  1595.86
                             1712.46  1717.29  1787.58  1802.62  1841.02
                             1903.85  1963.46  2075.22  2088.28  2126.66
                             2139.79  2188.82  2343.18  2560.02  3954.41
                             4418.36  4444.80  4570.58  4572.51  4589.27
                             4594.29  5055.61  5171.49
 
 Zero-point correction=                           0.130258 (Hartree/Particle)
 Thermal correction to Energy=                    0.137544
 Thermal correction to Enthalpy=                  0.138489
 Thermal correction to Gibbs Free Energy=         0.098377
 Sum of electronic and zero-point Energies=           -287.317130
 Sum of electronic and thermal Energies=              -287.309844
 Sum of electronic and thermal Enthalpies=            -287.308900
 Sum of electronic and thermal Free Energies=         -287.349012
 
                     E (Thermal)             CV                S
                      KCal/Mol        Cal/Mol-Kelvin    Cal/Mol-Kelvin
 Total                   86.310             24.271             84.423
 Electronic               0.000              0.000              0.000
 Translational            0.889              2.981             39.305
 Rotational               0.889              2.981             27.190
 Vibrational             84.533             18.309             17.927
 Vibration     1          0.596              1.976              4.709
 Vibration     2          0.603              1.952              3.537
 Vibration     3          0.626              1.876              2.403
 Vibration     4          0.648              1.808              1.947
 Vibration     5          0.673              1.733              1.612
 Vibration     6          0.717              1.603              1.229
 Vibration     7          0.816              1.343              0.771
                       Q            Log10(Q)             Ln(Q)
 Total Bot       0.562196D-45        -45.250112       -104.192233
 Total V=0       0.461675D+15         14.664337         33.765883
 Vib (Bot)       0.901164D-58        -58.045196       -133.654003
 Vib (Bot)    1  0.391207D+01          0.592406          1.364066
 Vib (Bot)    2  0.214303D+01          0.331028          0.762220
 Vib (Bot)    3  0.116382D+01          0.065887          0.151711
 Vib (Bot)    4  0.892673D+00         -0.049308         -0.113535
 Vib (Bot)    5  0.723268D+00         -0.140701         -0.323976
 Vib (Bot)    6  0.553330D+00         -0.257016         -0.591801
 Vib (Bot)    7  0.371692D+00         -0.429817         -0.989691
 Vib (V=0)       0.740035D+02          1.869253          4.304113
 Vib (V=0)    1  0.444389D+01          0.647763          1.491530
 Vib (V=0)    2  0.270058D+01          0.431458          0.993468
 Vib (V=0)    3  0.176668D+01          0.247159          0.569104
 Vib (V=0)    4  0.152316D+01          0.182747          0.420790
 Vib (V=0)    5  0.137927D+01          0.139649          0.321555
 Vib (V=0)    6  0.124577D+01          0.095438          0.219754
 Vib (V=0)    7  0.112302D+01          0.050388          0.116022
 Electronic      0.100000D+01          0.000000          0.000000
 Translational   0.319334D+08          7.504245         17.279162
 Rotational      0.195362D+06          5.290839         12.182608
 ***** Axes restored to original set *****
 -------------------------------------------------------------------
 Center     Atomic                   Forces (Hartrees/Bohr)
 Number     Number              X              Y              Z
 -------------------------------------------------------------------
      1        6          -0.000015002   -0.000009320    0.000004133
      2        6           0.000010431    0.000011012   -0.000017998
      3        8           0.000001775   -0.000002304   -0.000013961
      4        6          -0.000005273   -0.000001696    0.000006197
      5        6           0.000006692    0.000008181    0.000003873
      6        1          -0.000004005   -0.000004383    0.000003241
      7        1           0.000001570    0.000003789    0.000004605
      8        1          -0.000001507   -0.000001593    0.000012337
      9        7           0.000005591   -0.000008560    0.000005950
     10        1           0.000001183    0.000004547   -0.000005528
     11        1           0.000003117    0.000011232   -0.000004730
     12        1          -0.000001314    0.000001796    0.000009274
     13        1          -0.000005517   -0.000007247    0.000000809
     14        1           0.000002964    0.000003497    0.000000629
     15        1          -0.000000706   -0.000008951   -0.000008829
 -------------------------------------------------------------------
 Cartesian Forces:  Max     0.000017998 RMS     0.000007037

 GradGradGradGradGradGradGradGradGradGradGradGradGradGradGradGradGradGrad
 Berny optimization.
 Search for a local minimum.
 Step number   1 out of a maximum of    2
 All quantities printed in internal units (Hartrees-Bohrs-Radians)
 Second derivative matrix not updated -- analytic derivatives used.
 ITU=  0
     Eigenvalues ---   -0.02407   0.00028   0.00112   0.00219   0.00437
     Eigenvalues ---    0.00843   0.01216   0.02224   0.02671   0.04044
     Eigenvalues ---    0.04289   0.04958   0.06024   0.06460   0.07645
     Eigenvalues ---    0.08452   0.08766   0.09791   0.10173   0.13402
     Eigenvalues ---    0.14990   0.15581   0.16305   0.18419   0.19920
     Eigenvalues ---    0.26351   0.27330   0.34472   0.52469   0.58967
     Eigenvalues ---    0.61648   0.77583   0.82959   0.86989   0.98228
     Eigenvalues ---    1.03286   1.11671   1.12732   1.57824
 Eigenvalue     1 is  -2.41D-02 should be greater than     0.000000 Eigenvector:
                          X4        Y4        X7        X9        Y9
   1                    0.42434  -0.38579  -0.32469  -0.28770   0.26090
                          Y1        X11       Z4        X10       Y10
   1                   -0.22968  -0.18645  -0.18181  -0.17216   0.16749
 Angle between quadratic step and forces=  83.43 degrees.
 Linear search not attempted -- first point.
 B after Tr=    -0.000012   -0.000073    0.000288
         Rot=    1.000000    0.000080   -0.000064   -0.000010 Ang=   0.01 deg.
 Variable       Old X    -DE/DX   Delta X   Delta X   Delta X     New X
                                 (Linear)    (Quad)   (Total)
    X1       -1.75671  -0.00002   0.00000  -0.00034  -0.00044  -1.75715
    Y1        1.24550  -0.00001   0.00000  -0.00042  -0.00061   1.24489
    Z1       -0.51183   0.00000   0.00000  -0.00096  -0.00064  -0.51248
    X2       -3.59074   0.00001   0.00000   0.00047   0.00054  -3.59021
    Y2       -0.39985   0.00001   0.00000  -0.00010  -0.00016  -0.40000
    Z2        0.54957  -0.00002   0.00000   0.00090   0.00171   0.55128
    X3       -5.73067   0.00000   0.00000  -0.00009  -0.00012  -5.73079
    Y3       -0.86141  -0.00000   0.00000  -0.00043  -0.00066  -0.86207
    Z3       -0.21639  -0.00001   0.00000   0.00272   0.00388  -0.21251
    X4        0.66001  -0.00001   0.00000  -0.00008  -0.00005   0.65996
    Y4        1.47616  -0.00000   0.00000   0.00063   0.00066   1.47682
    Z4        0.59190   0.00001   0.00000  -0.00186  -0.00189   0.59001
    X5        5.47747   0.00001   0.00000  -0.00067  -0.00064   5.47683
    Y5       -0.52085   0.00001   0.00000  -0.00101  -0.00093  -0.52178
    Z5        0.26592   0.00000   0.00000   0.00181   0.00148   0.26740
    X6        5.43364  -0.00000   0.00000  -0.00354  -0.00323   5.43041
    Y6       -0.86045  -0.00000   0.00000  -0.00406  -0.00365  -0.86410
    Z6        2.31195   0.00000   0.00000   0.00124   0.00097   2.31292
    X7        6.74387   0.00000   0.00000   0.00032   0.00027   6.74413
    Y7       -1.90354   0.00000   0.00000   0.00012   0.00008  -1.90346
    Z7       -0.62588   0.00000   0.00000   0.00149   0.00122  -0.62465
    X8        6.21325  -0.00000   0.00000   0.00008   0.00003   6.21328
    Y8        1.38955  -0.00000   0.00000  -0.00061  -0.00057   1.38898
    Z8       -0.07177   0.00001   0.00000   0.00576   0.00503  -0.06674
    X9        2.90319   0.00001   0.00000   0.00064   0.00055   2.90374
    Y9       -0.68023  -0.00001   0.00000   0.00097   0.00084  -0.67939
    Z9       -0.72664   0.00001   0.00000  -0.00187  -0.00184  -0.72848
   X10        2.11086   0.00000   0.00000  -0.00058  -0.00060   2.11026
   Y10       -2.41955   0.00000   0.00000   0.00109   0.00098  -2.41856
   Z10       -0.44641  -0.00001   0.00000  -0.00468  -0.00428  -0.45069
   X11        2.83070   0.00000   0.00000   0.00330   0.00296   2.83366
   Y11       -0.36111   0.00001   0.00000   0.00310   0.00266  -0.35845
   Z11       -2.62991  -0.00000   0.00000  -0.00162  -0.00164  -2.63155
   X12        1.74631  -0.00000   0.00000  -0.00062  -0.00067   1.74564
   Y12        3.20481   0.00000   0.00000   0.00084   0.00084   3.20565
   Z12        0.22658   0.00001   0.00000  -0.00249  -0.00294   0.22364
   X13        0.83887  -0.00001   0.00000   0.00065   0.00095   0.83982
   Y13        0.85370  -0.00001   0.00000   0.00094   0.00129   0.85499
   Z13        2.56646   0.00000   0.00000  -0.00184  -0.00179   2.56466
   X14       -2.22704   0.00000   0.00000  -0.00139  -0.00173  -2.22877
   Y14        2.28827   0.00000   0.00000  -0.00104  -0.00152   2.28675
   Z14       -2.23419   0.00000   0.00000  -0.00104  -0.00083  -2.23502
   X15       -2.90757  -0.00000   0.00000   0.00187   0.00218  -2.90539
   Y15       -1.34452  -0.00001   0.00000   0.00049   0.00074  -1.34378
   Z15        2.34738  -0.00001   0.00000   0.00068   0.00156   2.34894
         Item               Value     Threshold  Converged?
 Maximum Force            0.000018     0.000450     YES
 RMS     Force            0.000007     0.000300     YES
 Maximum Displacement     0.005028     0.001800     NO 
 RMS     Displacement     0.001832     0.001200     NO 
 Predicted change in Energy=-3.534080D-08
 GradGradGradGradGradGradGradGradGradGradGradGradGradGradGradGradGradGrad


 ----------------------------------------------------------------------

 Electric dipole moment (input orientation):
 (Debye = 10**-18 statcoulomb cm , SI units = C m)
                  (au)            (Debye)         (10**-30 SI)
   Tot        0.454602D+01      0.115548D+02      0.385428D+02
   x          0.453645D+01      0.115305D+02      0.384616D+02
   y         -0.274211D+00     -0.696976D+00     -0.232486D+01
   z         -0.108309D+00     -0.275294D+00     -0.918283D+00

 Dipole polarizability, Alpha (input orientation).
 (esu units = cm**3 , SI units = C**2 m**2 J**-1)
 Alpha(0;0):
               (au)            (10**-24 esu)      (10**-40 SI)
   iso        0.713555D+02      0.105738D+02      0.117649D+02
   aniso      0.553595D+02      0.820344D+01      0.912755D+01
   xx         0.107198D+03      0.158851D+02      0.176745D+02
   yx         0.500857D+01      0.742193D+00      0.825802D+00
   yy         0.529677D+02      0.784900D+01      0.873319D+01
   zx         0.221010D+01      0.327503D+00      0.364396D+00
   zy        -0.527877D+01     -0.782232D+00     -0.870351D+00
   zz         0.539009D+02      0.798730D+01      0.888706D+01

 ----------------------------------------------------------------------

 Dipole orientation:
     6          0.62285970          1.10166370         -1.81594287
     6         -0.50090191         -0.58661643         -3.57216005
     8          0.27799557         -1.22461387         -5.66149065
     6         -0.51289708          1.54705710          0.55547383
     6         -0.40756371         -0.16511854          5.49101569
     1         -2.46934126         -0.38274349          5.41902304
     1          0.37164812         -1.51836357          6.85939941
     1          0.03242902          1.76316064          6.11806270
     7          0.62481648         -0.54250698          2.95541708
     1          0.25385447         -2.30729956          2.26299845
     1          2.54521918         -0.34385175          2.90917653
     1         -0.06358666          3.31420713          1.54392965
     1         -2.52527224          1.05705225          0.72446195
     1          2.41533784          2.00765504         -2.30715031
     1         -2.36690690         -1.37720230         -2.87627562

 Electric dipole moment (dipole orientation):
 (Debye = 10**-18 statcoulomb cm , SI units = C m)
                  (au)            (Debye)         (10**-30 SI)
   Tot        0.454602D+01      0.115548D+02      0.385428D+02
   x          0.000000D+00      0.000000D+00      0.000000D+00
   y          0.000000D+00      0.000000D+00      0.000000D+00
   z          0.454602D+01      0.115548D+02      0.385428D+02

 Dipole polarizability, Alpha (dipole orientation).
 (esu units = cm**3 , SI units = C**2 m**2 J**-1)
 Alpha(0;0):
               (au)            (10**-24 esu)      (10**-40 SI)
   iso        0.713555D+02      0.105738D+02      0.117649D+02
   aniso      0.553595D+02      0.820344D+01      0.912755D+01
   xx         0.546448D+02      0.809752D+01      0.900971D+01
   yx         0.488509D+01      0.723896D+00      0.805443D+00
   yy         0.531746D+02      0.787967D+01      0.876731D+01
   zx        -0.326090D+01     -0.483215D+00     -0.537650D+00
   zy         0.857056D+01      0.127003D+01      0.141310D+01
   zz         0.106247D+03      0.157442D+02      0.175178D+02

 ----------------------------------------------------------------------
 Unable to Open any file for archive entry.
 1\1\GINC-NODE-001\Freq\RwB97XD\def2SVP\C4H9N1O1\JP2658\30-Dec-2023\0\\
 # wb97xd def2svp scrf=(iefpcm,solvent=toluene) freq=noraman\\TS-249_op
 t_dft.out\\0,1\C,-0.92961,0.65909,-0.27085\C,-1.90014,-0.21159,0.29082
 \O,-3.03254,-0.45584,-0.11451\C,0.34926,0.78115,0.31322\C,2.89855,-0.2
 7562,0.14072\H,2.87536,-0.45533,1.22343\H,3.5687,-1.00731,-0.3312\H,3.
 28791,0.73532,-0.03798\N,1.5363,-0.35996,-0.38452\H,1.11702,-1.28037,-
 0.23623\H,1.49794,-0.19109,-1.39169\H,0.92411,1.69591,0.1199\H,0.44391
 ,0.45176,1.35811\H,-1.1785,1.2109,-1.18228\H,-1.53862,-0.71149,1.24218
 \\Version=ES64L-G16RevC.01\State=1-A\HF=-287.4473884\RMSD=7.374e-09\RM
 SF=7.037e-06\ZeroPoint=0.130258\Thermal=0.1375444\ETot=-287.3098439\HT
 ot=-287.3088997\GTot=-287.3490116\Dipole=4.5364513,-0.2742113,-0.10830
 91\DipoleDeriv=-1.8675352,-0.074504,0.184632,-0.8185559,-0.7124703,-0.
 1731421,0.1939176,-0.1305531,-0.3713838,2.3566896,0.5119856,0.2194228,
 1.1150558,0.6093894,-0.2839795,-0.0926603,-0.282079,0.7612473,-2.11839
 92,-0.3671244,-0.1907912,-0.4474406,-0.5870064,0.0261213,-0.46363,-0.0
 525585,-0.625923,2.7473366,-0.2051301,-0.0943104,-1.1302961,0.4950271,
 0.1381802,-0.2490989,0.2401782,0.2750672,0.4630268,0.0144994,0.1055813
 ,0.2556777,0.1048551,0.0086668,0.3556824,-0.0078921,0.1530009,0.039572
 5,-0.0176228,0.0467407,-0.0128307,0.0975071,0.0263583,-0.0545644,0.027
 1016,-0.0554228,-0.1712802,0.0602489,0.0057045,0.0618214,0.0233169,-0.
 0533192,-0.0313568,-0.0573779,0.0566256,0.0356959,-0.0000151,-0.025709
 6,-0.091902,-0.0412798,0.024928,-0.0163461,0.044356,0.0857215,-1.65849
 2,0.1471072,0.035924,0.9884615,-0.3722769,-0.0967171,0.4267558,-0.1428
 016,-0.2353873,0.1331615,-0.026276,-0.0246035,-0.0374766,0.2067983,0.0
 10216,-0.0311964,-0.0132924,0.1789863,0.1585037,-0.0035484,-0.0437113,
 -0.0154049,0.1965852,-0.0151737,-0.0558555,-0.0003853,0.1969462,-0.130
 4549,-0.108621,0.0217364,-0.0031241,-0.0604391,-0.01228,0.1599326,0.02
 27141,0.0550078,-0.013316,0.0167979,-0.0190423,0.1648025,0.0260477,0.0
 90229,-0.0204658,0.0058315,-0.0915601,0.0219398,-0.0310221,-0.0591889,
 -0.0541953,0.0870146,0.141158,-0.0706705,0.1584431,-0.0503478,0.003551
 2,0.0832247,-0.1623845,0.0254074,-0.0730686,0.1687539,-0.0504434,0.188
 3153,-0.3325779\Polar=107.1978551,5.0085692,52.9676879,2.2100965,-5.27
 87653,53.900942\Quadrupole=-6.2503101,2.6161609,3.6341492,-2.916522,-2
 .0160108,-0.210179\PG=C01 [X(C4H9N1O1)]\NImag=1\\0.62761557,0.13338323
 ,0.33696663,0.12705163,-0.25244428,0.50752527,-0.16264702,-0.08477587,
 0.05571878,0.86152291,-0.08870095,-0.16240742,0.08757428,0.19788820,0.
 38532498,0.05724907,0.09020652,-0.14883643,0.15979176,-0.13377476,0.49
 019497,-0.07511552,-0.03934634,-0.00932359,-0.59459857,-0.10775195,-0.
 19221043,0.68264907,-0.04590691,0.00445186,-0.00885533,-0.10970271,-0.
 10674692,-0.02471714,0.14495656,0.08029885,0.00206887,-0.00540577,0.02
 802392,-0.18903861,-0.02318651,-0.16535182,0.22560072,0.02706508,0.142
 97448,-0.25385896,-0.00730224,-0.11160734,-0.06995152,-0.03822687,0.00
 685837,0.03160177,0.00731407,0.00733233,0.42887543,-0.06752986,-0.0966
 2286,0.00374627,-0.00545520,0.00575142,-0.02249270,-0.01561133,-0.0018
 4545,0.00413730,0.24692388,0.42136312,-0.12372370,0.00850579,-0.152066
 46,0.00359548,-0.00558610,0.00672245,0.00522854,0.00480043,0.00205915,
 0.14882767,-0.14460981,0.55575439,0.00139002,0.00361308,0.00267230,-0.
 00143785,-0.00033551,0.00053541,0.00121727,0.00014229,0.00013135,-0.02
 348291,0.00619179,-0.00166524,0.51702733,0.00854134,-0.00002744,-0.002
 08110,-0.00323144,-0.00388615,0.00124129,0.00275293,0.00142035,0.00071
 634,-0.00000279,0.00992791,0.00941612,-0.00611172,0.61644796,0.0083047
 7,0.00059566,-0.00059800,-0.00361677,-0.00348487,0.00182534,0.00295847
 ,0.00131315,0.00058332,-0.00752446,0.01104538,0.00855847,-0.04098394,-
 0.00844493,0.60300498,-0.00011020,-0.00009884,0.00033104,0.00001269,0.
 00000688,-0.00008622,0.00003950,0.00000424,0.00003351,0.00170608,-0.00
 083022,-0.00145106,-0.05069896,-0.00410305,0.02056995,0.05786103,-0.00
 002794,-0.00015945,-0.00016639,0.00002107,0.00010780,-0.00007975,-0.00
 006690,-0.00005735,0.00000100,-0.00006376,-0.00014625,0.00051711,-0.00
 159706,-0.05815400,0.04783923,0.00278124,0.05358711,-0.00087187,-0.000
 46429,0.00004535,0.00048071,0.00049471,-0.00028369,-0.00038036,-0.0001
 6027,-0.00004554,0.00250226,-0.00110695,0.00026907,0.01083576,0.046728
 52,-0.32274833,-0.00622441,-0.05016804,0.34338130,-0.00441868,-0.00055
 125,0.00046344,0.00212949,0.00216268,-0.00091882,-0.00172758,-0.000793
 55,-0.00037258,0.00669607,-0.00679318,-0.00436877,-0.14218435,0.108250
 19,0.07211468,0.00056221,-0.00023437,-0.00041998,0.16094083,-0.0005615
 4,0.00012967,-0.00018608,0.00027914,0.00012535,-0.00012626,-0.00012864
 ,-0.00004092,-0.00001982,0.00003299,0.00005032,-0.00009054,0.11196039,
 -0.17834366,-0.08491828,-0.00509422,0.00500923,0.00384169,-0.11937253,
 0.18146432,-0.00205434,-0.00038725,0.00041166,0.00078209,0.00096692,-0
 .00033362,-0.00066624,-0.00033431,-0.00016811,0.00208333,-0.00230121,-
 0.00137065,0.07558053,-0.08616996,-0.10627212,0.01738601,-0.02136414,-
 0.00975619,-0.07484752,0.09004035,0.10524113,-0.00011829,0.00033051,-0
 .00012938,0.00017069,0.00005045,0.00004531,-0.00004054,0.00001346,-0.0
 0003917,0.00180028,-0.00213370,-0.00030365,-0.07920517,-0.08030655,0.0
 1443699,-0.00025493,0.00016631,0.00000886,0.00808736,0.01720799,-0.004
 44790,0.09294551,-0.00069469,-0.00034715,-0.00017876,0.00049428,0.0002
 5416,-0.00016829,-0.00033266,-0.00008576,-0.00006119,0.00213698,0.0000
 5236,-0.00013650,-0.08915060,-0.29217461,0.04568963,0.00002660,-0.0016
 3999,-0.00134681,-0.00782433,-0.01517719,0.00524656,0.09683658,0.30461
 703,-0.00003787,-0.00015751,-0.00008739,0.00011438,-0.00001689,-0.0001
 1085,-0.00010061,-0.00002216,-0.00000197,0.00062616,-0.00000607,-0.000
 24496,0.01822275,0.04883993,-0.05935924,0.01041711,0.02825599,-0.00144
 583,-0.00570654,-0.01334701,0.00288954,-0.01267817,-0.04785325,0.05567
 050,-0.06386480,-0.00004818,0.00452196,0.02087222,0.02421601,-0.009353
 34,-0.01564636,-0.00801371,-0.00355472,0.03894655,-0.05194561,-0.01791
 688,-0.21395067,-0.00273599,-0.03791123,-0.00378403,-0.00063003,-0.003
 45563,-0.03080089,-0.00463018,-0.01428382,-0.01883803,-0.00115885,-0.0
 0818171,0.45364428,0.03135624,0.01919237,0.00964496,-0.01401886,-0.010
 27236,0.00717989,0.00907409,0.00322695,0.00104109,-0.07259145,-0.02242
 665,0.00979345,-0.02840827,-0.10002349,-0.00332521,0.00835722,0.000663
 48,0.00249485,0.02406708,0.00575143,0.01339737,-0.03386416,0.00249782,
 -0.01482869,0.19809539,0.54692633,0.00681143,0.01361704,0.01590526,-0.
 00397069,-0.00392790,0.00161242,0.00291394,0.00111980,0.00055534,-0.03
 678781,0.01710356,-0.05295990,-0.06241869,0.00516262,-0.12131530,-0.04
 009653,-0.00342473,-0.01055703,0.01251900,0.00395010,0.00785451,0.0062
 0573,-0.00090422,0.00254481,0.08511690,-0.13553684,0.65778963,-0.00034
 140,-0.00306088,-0.00197419,-0.00062423,0.00021992,-0.00041348,0.00005
 499,-0.00010356,0.00022524,0.01095178,0.01158718,-0.00273726,-0.012054
 60,-0.03065858,0.00614799,0.00112870,0.00014888,-0.00023495,0.00021594
 ,-0.00000652,0.00071599,-0.00522835,0.00089886,-0.00283280,-0.11099136
 ,-0.13250369,0.01803702,0.11902733,-0.00126310,0.00143404,0.00052701,0
 .00136305,0.00111739,-0.00023277,-0.00097965,-0.00050732,-0.00035482,-
 0.00090669,-0.01193016,0.00066008,0.00482521,0.00505819,-0.00133536,-0
 .00022032,0.00019670,0.00015666,0.00028486,0.00075480,-0.00010599,0.00
 093315,0.00097256,0.00001935,-0.15422578,-0.36046070,0.06858196,0.1497
 0683,0.36836668,-0.00032378,0.00101795,-0.00085950,0.00008822,-0.00037
 996,0.00124767,-0.00015564,0.00008768,-0.00041547,-0.00338925,-0.00918
 915,0.00205438,-0.00380241,-0.01432668,0.00283251,-0.00018139,-0.00078
 283,-0.00003265,0.00032020,0.00054767,0.00028378,-0.00308085,-0.000618
 27,-0.00050534,0.01311465,0.05289518,-0.06401697,-0.01915827,-0.063317
 69,0.06559928,0.00091224,-0.00153086,-0.00324892,-0.00120769,-0.001011
 47,0.00021760,0.00064483,0.00024783,0.00011749,0.00325993,-0.00340640,
 0.01309833,-0.00010318,0.00694400,-0.03623701,-0.00633493,-0.00068904,
 -0.00164109,0.00053453,0.00066100,-0.00000945,0.00091266,-0.00060328,0
 .00016066,-0.05310090,-0.00930672,-0.00454486,0.00011635,-0.00097906,0
 .01551600,0.05629631,-0.00134482,0.00024122,0.00147117,0.00058128,0.00
 042255,0.00010165,-0.00032322,-0.00014450,-0.00009672,-0.00049388,0.00
 340861,-0.01446425,0.00185142,-0.00009351,-0.00314368,-0.00071755,0.00
 069592,-0.00106757,-0.00000025,-0.00000624,0.00065336,-0.00024591,0.00
 016045,-0.00089483,-0.00867459,-0.05888059,0.05828624,0.00144326,-0.00
 462156,0.03589569,0.00610255,0.06192796,-0.00141864,-0.00085595,0.0010
 2238,0.00096804,0.00053625,-0.00032015,-0.00088403,-0.00029083,-0.0002
 3537,0.00443239,-0.00166344,-0.00592526,0.00270603,-0.00008208,-0.0051
 6330,-0.00151821,-0.00046317,0.00088945,0.00014209,0.00013456,0.000786
 15,0.00008886,-0.00001159,0.00030835,-0.01984430,0.08112586,-0.4233571
 8,-0.00069861,-0.00291212,-0.00406827,0.01594270,-0.07500320,0.4354460
 4,-0.01464092,-0.02452907,0.00752492,0.00147875,-0.00190020,-0.0088309
 6,-0.00396951,-0.00020862,0.00152731,-0.12178604,-0.12805063,0.0276980
 4,0.00224304,0.00098374,0.00028828,-0.00001736,0.00003707,-0.00014215,
 -0.00003670,-0.00043110,0.00013281,-0.00020686,-0.00056650,-0.00001396
 ,0.00107504,0.01974284,0.00006879,-0.00247652,0.00164859,0.00135646,0.
 00034391,-0.00038832,-0.00023071,0.13574814,0.00269513,0.00521498,0.00
 228548,-0.00157399,0.00175442,0.00090309,0.00094058,-0.00039168,-0.000
 12490,-0.13200265,-0.23679388,0.04937103,-0.00140006,-0.00043438,-0.00
 057791,0.00009796,-0.00008503,0.00010228,0.00063172,0.00031742,0.00016
 596,0.00086772,0.00076949,-0.00012975,0.00206880,-0.02299343,-0.002087
 69,0.00260773,-0.00086325,-0.00170068,-0.00007428,-0.00035689,0.000112
 41,0.12782969,0.25701054,-0.00461677,-0.00928491,0.00730246,-0.0028091
 5,0.00160661,-0.00017726,0.00065822,-0.00064733,0.00050783,0.01905340,
 0.05423103,-0.06132081,-0.00137833,-0.00024756,-0.00043699,0.00013320,
 0.00009951,0.00009997,0.00027475,0.00008429,0.00004191,-0.00014494,0.0
 0030059,0.00032321,0.00211364,-0.01778683,-0.00103901,0.00212024,-0.00
 162669,-0.00107988,-0.00030968,-0.00047994,0.00024161,-0.02981494,-0.0
 4688228,0.05590591,-0.00180213,0.00886945,-0.02611934,-0.00009065,0.00
 529809,-0.00185770,-0.00016801,-0.00127237,0.00041931,-0.04693477,0.00
 233790,-0.02520671,0.00138166,-0.00013852,0.00150222,-0.00017959,0.000
 16637,-0.00059277,-0.00004655,0.00009504,-0.00050778,-0.00002463,-0.00
 005734,0.00006048,-0.00558965,0.00111164,0.01708949,0.00021762,-0.0002
 6977,-0.00012525,-0.00184563,0.00195526,0.00033385,0.00190101,-0.00331
 971,0.01384387,0.05580591,0.00599319,0.00508560,-0.00047391,-0.0028884
 0,-0.00441516,-0.00221064,0.00213694,0.00102295,0.00092194,-0.00599022
 ,-0.07271974,0.08731644,-0.00168363,0.00008181,-0.00111012,-0.00018066
 ,0.00001211,0.00059281,0.00017118,-0.00005415,0.00027105,0.00015002,0.
 00009144,0.00007962,0.00831779,-0.00243982,-0.02199817,-0.00024593,0.0
 0053367,-0.00033906,0.00282274,-0.00253361,-0.00105235,0.00319420,-0.0
 0269909,0.02188576,-0.01036238,0.07431606,-0.00265298,0.00583741,-0.00
 770339,0.00397429,0.00115975,-0.00012797,-0.00070929,-0.00003264,0.000
 41441,-0.02765084,0.08601750,-0.29485308,-0.00044385,-0.00025951,-0.00
 028300,0.00057275,-0.00026431,0.00013345,0.00043691,0.00000500,0.00030
 414,0.00007323,-0.00001135,-0.00001162,0.00556432,-0.00259862,-0.01240
 875,0.00019179,-0.00010815,-0.00049647,0.00114222,-0.00153094,0.000209
 13,-0.00164800,-0.00035219,-0.00056149,0.02310716,-0.08607593,0.314931
 74,-0.06329286,0.02402011,-0.05737861,0.00789402,-0.00936841,0.0169112
 0,0.00088886,0.00322360,-0.00122915,-0.00404553,0.01394509,-0.02316915
 ,-0.00009331,0.00013605,0.00024965,0.00005933,-0.00002936,0.00008856,-
 0.00013234,-0.00002996,0.00005837,0.00000073,-0.00003006,-0.00004931,0
 .00015907,0.00003848,-0.00078701,-0.00007231,-0.00008555,-0.00004499,-
 0.00035777,0.00022262,-0.00006335,-0.00010604,0.00055966,0.00110323,-0
 .00288261,-0.00144987,-0.00169261,0.06335037,0.02341521,-0.11063180,0.
 13670031,0.00920286,-0.00544457,0.01539475,0.00067032,-0.00057105,-0.0
 0437983,-0.00277960,0.00370971,-0.00652037,0.00016285,0.00002103,-0.00
 029728,-0.00002046,-0.00003411,-0.00005460,0.00010725,0.00003313,-0.00
 002834,-0.00002232,0.00001028,0.00004142,0.00059450,-0.00125493,0.0002
 5361,0.00004403,-0.00003438,0.00008065,0.00063051,-0.00009235,0.000386
 86,0.00258659,-0.00042466,-0.00114176,-0.00380643,0.00299371,-0.000556
 80,-0.02711324,0.11091811,-0.05953254,0.13469654,-0.23948729,-0.007303
 18,0.00295702,-0.00768074,0.00157962,-0.00266268,0.00077632,0.00158496
 ,0.00458903,-0.00701497,0.00010645,0.00007583,-0.00008577,0.00007007,-
 0.00003727,-0.00003150,0.00004590,0.00003946,-0.00003611,-0.00000680,0
 .00000410,0.00001520,0.00056706,-0.00112583,0.00020554,0.00012621,-0.0
 0009477,-0.00006252,0.00001106,0.00018084,0.00007343,0.00141617,-0.000
 84133,-0.00023750,-0.00347948,0.00213056,0.00012974,0.06460577,-0.1439
 1009,0.25311022,0.01029296,-0.00897286,0.01149730,-0.06352322,0.017453
 14,-0.02793776,-0.02583020,0.01009937,-0.04322189,-0.00377815,0.000770
 30,0.00209435,-0.00004831,-0.00031959,-0.00029958,0.00001047,0.0000175
 2,0.00004707,0.00018067,0.00001813,0.00007791,-0.00000044,0.00002501,-
 0.00000055,0.00186952,-0.00114983,-0.00015669,0.00007608,0.00016823,-0
 .00013369,-0.00007066,0.00003216,0.00004391,0.00045008,0.00007169,-0.0
 0022674,0.00025801,0.00001505,-0.00026510,-0.00136962,-0.00367207,0.00
 020871,0.08148281,0.00064546,-0.00252025,0.02243638,0.01181659,-0.1016
 8549,0.06877511,0.00400927,0.01996996,-0.00025318,0.00395224,-0.001778
 46,0.00102711,-0.00006018,0.00017998,0.00015460,-0.00000881,0.00000384
 ,-0.00004299,-0.00010551,-0.00001352,-0.00005039,0.00001646,-0.0000008
 7,0.00001986,-0.00122955,0.00049358,-0.00019538,-0.00007754,-0.0000166
 7,0.00012950,0.00019248,-0.00012745,0.00003880,0.00005174,-0.00002458,
 -0.00011049,-0.00060724,0.00072423,-0.00122921,-0.00403916,0.00080188,
 0.00399858,-0.01455624,0.08399382,-0.00625327,0.01452304,-0.01059785,-
 0.01877534,0.07506146,-0.17838032,-0.03450932,0.00333656,-0.00967649,-
 0.00634117,0.00049925,0.00033818,-0.00009811,-0.00056883,-0.00054256,0
 .00004419,0.00003779,0.00008216,0.00031725,0.00004487,0.00012396,-0.00
 002811,0.00004936,0.00001559,0.00350308,-0.00237060,-0.00081339,0.0004
 8509,0.00014331,-0.00048057,-0.00021504,0.00009219,0.00009300,0.000667
 95,-0.00024354,0.00043005,0.00153263,0.00006199,0.00032313,0.00139742,
 0.00403146,0.00032596,0.05827276,-0.09469831,0.19875915\\0.00001500,0.
 00000932,-0.00000413,-0.00001043,-0.00001101,0.00001800,-0.00000177,0.
 00000230,0.00001396,0.00000527,0.00000170,-0.00000620,-0.00000669,-0.0
 0000818,-0.00000387,0.00000400,0.00000438,-0.00000324,-0.00000157,-0.0
 0000379,-0.00000461,0.00000151,0.00000159,-0.00001234,-0.00000559,0.00
 000856,-0.00000595,-0.00000118,-0.00000455,0.00000553,-0.00000312,-0.0
 0001123,0.00000473,0.00000131,-0.00000180,-0.00000927,0.00000552,0.000
 00725,-0.00000081,-0.00000296,-0.00000350,-0.00000063,0.00000071,0.000
 00895,0.00000883\\\@
 The archive entry for this job was punched.


 THE GREAT THING ABOUT BEING IMPERFECT IS THE JOY IT BRINGS OTHERS.
   -- SIGN OUTSIDE LAKE AGASSIZ JR. HIGH SCHOOL, FARGO, N.D.
 Job cpu time:       0 days  0 hours  6 minutes 24.6 seconds.
 Elapsed time:       0 days  0 hours  0 minutes 32.7 seconds.
 File lengths (MBytes):  RWF=     62 Int=      0 D2E=      0 Chk=      6 Scr=      1
 Normal termination of Gaussian 16 at Sat Dec 30 20:58:14 2023.
