Unloading slurm/anatra/current
  ERROR: No such file or directory on
    '/cm/local/modulefiles/slurm/anatra/current'
environment: line 0: unalias: gv: not found
environment: line 0: unalias: sl: not found
 Entering Gaussian System, Link 0=g16
 Initial command:
 /apps/gaussian/g16/C.01/g16/l1.exe "/local/jobs/1158117/Gau-1314962.inp" -scrdir="/local/jobs/1158117/"
 Entering Link 1 = /apps/gaussian/g16/C.01/g16/l1.exe PID=   1314965.
  
 Copyright (c) 1988-2019, Gaussian, Inc.  All Rights Reserved.
  
 This is part of the Gaussian(R) 16 program.  It is based on
 the Gaussian(R) 09 system (copyright 2009, Gaussian, Inc.),
 the Gaussian(R) 03 system (copyright 2003, Gaussian, Inc.),
 the Gaussian(R) 98 system (copyright 1998, Gaussian, Inc.),
 the Gaussian(R) 94 system (copyright 1995, Gaussian, Inc.),
 the Gaussian 92(TM) system (copyright 1992, Gaussian, Inc.),
 the Gaussian 90(TM) system (copyright 1990, Gaussian, Inc.),
 the Gaussian 88(TM) system (copyright 1988, Gaussian, Inc.),
 the Gaussian 86(TM) system (copyright 1986, Carnegie Mellon
 University), and the Gaussian 82(TM) system (copyright 1983,
 Carnegie Mellon University). Gaussian is a federally registered
 trademark of Gaussian, Inc.
  
 This software contains proprietary and confidential information,
 including trade secrets, belonging to Gaussian, Inc.
  
 This software is provided under written license and may be
 used, copied, transmitted, or stored only in accord with that
 written license.
  
 The following legend is applicable only to US Government
 contracts under FAR:
  
                    RESTRICTED RIGHTS LEGEND
  
 Use, reproduction and disclosure by the US Government is
 subject to restrictions as set forth in subparagraphs (a)
 and (c) of the Commercial Computer Software - Restricted
 Rights clause in FAR 52.227-19.
  
 Gaussian, Inc.
 340 Quinnipiac St., Bldg. 40, Wallingford CT 06492
  
  
 ---------------------------------------------------------------
 Warning -- This program may not be used in any manner that
 competes with the business of Gaussian, Inc. or will provide
 assistance to any competitor of Gaussian, Inc.  The licensee
 of this program is prohibited from giving any competitor of
 Gaussian, Inc. access to this program.  By using this program,
 the user acknowledges that Gaussian, Inc. is engaged in the
 business of creating and licensing software in the field of
 computational chemistry and represents and warrants to the
 licensee that it is not a competitor of Gaussian, Inc. and that
 it will not use this program in any manner prohibited above.
 ---------------------------------------------------------------
  

 Cite this work as:
 Gaussian 16, Revision C.01,
 M. J. Frisch, G. W. Trucks, H. B. Schlegel, G. E. Scuseria, 
 M. A. Robb, J. R. Cheeseman, G. Scalmani, V. Barone, 
 G. A. Petersson, H. Nakatsuji, X. Li, M. Caricato, A. V. Marenich, 
 J. Bloino, B. G. Janesko, R. Gomperts, B. Mennucci, H. P. Hratchian, 
 J. V. Ortiz, A. F. Izmaylov, J. L. Sonnenberg, D. Williams-Young, 
 F. Ding, F. Lipparini, F. Egidi, J. Goings, B. Peng, A. Petrone, 
 T. Henderson, D. Ranasinghe, V. G. Zakrzewski, J. Gao, N. Rega, 
 G. Zheng, W. Liang, M. Hada, M. Ehara, K. Toyota, R. Fukuda, 
 J. Hasegawa, M. Ishida, T. Nakajima, Y. Honda, O. Kitao, H. Nakai, 
 T. Vreven, K. Throssell, J. A. Montgomery, Jr., J. E. Peralta, 
 F. Ogliaro, M. J. Bearpark, J. J. Heyd, E. N. Brothers, K. N. Kudin, 
 V. N. Staroverov, T. A. Keith, R. Kobayashi, J. Normand, 
 K. Raghavachari, A. P. Rendell, J. C. Burant, S. S. Iyengar, 
 J. Tomasi, M. Cossi, J. M. Millam, M. Klene, C. Adamo, R. Cammi, 
 J. W. Ochterski, R. L. Martin, K. Morokuma, O. Farkas, 
 J. B. Foresman, and D. J. Fox, Gaussian, Inc., Wallingford CT, 2019.
 
 ******************************************
 Gaussian 16:  ES64L-G16RevC.01  3-Jul-2019
                17-Jan-2024 
 ******************************************
 %nprocshared=12
 Will use up to   12 processors via shared memory.
 %mem=48GB
 ----------------------------------------------------------------------
 # external="~/scripts/MiMe -H 'wb97xd def2svp' -EF 'wb97xd def2svp' -c
  12 -m 48GB" opt=(calcall,ts,noeigen,maxcycles=50,maxstep=10,nomicro)
 ----------------------------------------------------------------------
 1/5=1,6=50,8=10,10=4,11=1,18=20,26=1,38=1/1,3;
 2/9=110,12=2,17=6,18=5,40=1/2;
 3/11=9,25=1,30=1,41=9900000,43=2,71=2,140=1/1;
 4/20=17,22=2,24=3,113=1,114=1/2;
 6/7=2,8=2,9=2,10=2,18=1/1;
 7/25=1,44=-1/16;
 1/5=1,6=50,8=10,10=4,11=1,18=20,26=1/3(3);
 2/9=110/2;
 7/8=1,9=1,25=1,44=-1/16;
 99//99;
 2/9=110/2;
 3/11=9,25=1,30=1,41=9900000,43=2,71=2,140=1/1;
 4/16=2,20=17,22=2,24=3,113=1,114=1/2;
 7/25=1,44=-1/16;
 1/5=1,6=50,8=10,10=4,11=1,18=20,26=1/3(-4);
 2/9=110/2;
 6/7=2,8=2,9=2,10=2,18=1/1;
 7/8=1,9=1,25=1,44=-1/16;
 99//99;
 -----
 *****
 -----
 Symbolic Z-matrix:
 Charge =  0 Multiplicity = 1
 O                     1.4571    1.0277   -0.4703 
 C                    -0.2447    1.596     0.2715 
 C                     0.5243   -1.1064    1.1767 
 C                    -0.9704    0.443     0.8253 
 C                     1.7089   -0.117    -0.8424 
 C                     1.2547   -1.2973   -0.0698 
 H                     2.2458   -0.3433   -1.7784 
 H                     1.0475   -0.4791    1.9054 
 H                     1.2246   -2.2497   -0.583 
 H                     0.1869    2.2996    0.9795 
 H                    -0.5702    1.9784   -0.6958 
 H                    -1.207     0.503     1.8865 
 C                    -2.0063   -0.2391   -0.0068 
 O                    -1.9637   -0.3005   -1.2288 
 H                     0.0393   -1.9945    1.5795 
 H                    -2.818    -0.7085    0.5735 
 
 Add virtual bond connecting atoms C2         and O1         Dist= 3.67D+00.

 GradGradGradGradGradGradGradGradGradGradGradGradGradGradGradGradGradGrad
 Berny optimization.
 Initialization pass.
                           ----------------------------
                           !    Initial Parameters    !
                           ! (Angstroms and Degrees)  !
 --------------------------                            --------------------------
 ! Name  Definition              Value          Derivative Info.                !
 --------------------------------------------------------------------------------
 ! R1    R(1,2)                  1.9415         calculate D2E/DX2 analytically  !
 ! R2    R(1,5)                  1.2297         calculate D2E/DX2 analytically  !
 ! R3    R(2,4)                  1.4706         calculate D2E/DX2 analytically  !
 ! R4    R(2,10)                 1.0875         calculate D2E/DX2 analytically  !
 ! R5    R(2,11)                 1.0899         calculate D2E/DX2 analytically  !
 ! R6    R(3,6)                  1.4573         calculate D2E/DX2 analytically  !
 ! R7    R(3,8)                  1.0946         calculate D2E/DX2 analytically  !
 ! R8    R(3,15)                 1.0891         calculate D2E/DX2 analytically  !
 ! R9    R(4,12)                 1.0889         calculate D2E/DX2 analytically  !
 ! R10   R(4,13)                 1.4936         calculate D2E/DX2 analytically  !
 ! R11   R(5,6)                  1.482          calculate D2E/DX2 analytically  !
 ! R12   R(5,7)                  1.1025         calculate D2E/DX2 analytically  !
 ! R13   R(6,9)                  1.0823         calculate D2E/DX2 analytically  !
 ! R14   R(13,14)                1.2243         calculate D2E/DX2 analytically  !
 ! R15   R(13,16)                1.1027         calculate D2E/DX2 analytically  !
 ! A1    A(2,1,5)              124.5813         calculate D2E/DX2 analytically  !
 ! A2    A(1,2,4)              110.2997         calculate D2E/DX2 analytically  !
 ! A3    A(1,2,10)              95.1782         calculate D2E/DX2 analytically  !
 ! A4    A(1,2,11)              91.4545         calculate D2E/DX2 analytically  !
 ! A5    A(4,2,10)             117.2544         calculate D2E/DX2 analytically  !
 ! A6    A(4,2,11)             117.5115         calculate D2E/DX2 analytically  !
 ! A7    A(10,2,11)            117.9918         calculate D2E/DX2 analytically  !
 ! A8    A(6,3,8)              113.886          calculate D2E/DX2 analytically  !
 ! A9    A(6,3,15)             115.6401         calculate D2E/DX2 analytically  !
 ! A10   A(8,3,15)             115.7174         calculate D2E/DX2 analytically  !
 ! A11   A(2,4,12)             115.5318         calculate D2E/DX2 analytically  !
 ! A12   A(2,4,13)             119.3742         calculate D2E/DX2 analytically  !
 ! A13   A(12,4,13)            114.6711         calculate D2E/DX2 analytically  !
 ! A14   A(1,5,6)              121.3901         calculate D2E/DX2 analytically  !
 ! A15   A(1,5,7)              123.207          calculate D2E/DX2 analytically  !
 ! A16   A(6,5,7)              115.3633         calculate D2E/DX2 analytically  !
 ! A17   A(3,6,5)              119.6827         calculate D2E/DX2 analytically  !
 ! A18   A(3,6,9)              120.4595         calculate D2E/DX2 analytically  !
 ! A19   A(5,6,9)              117.527          calculate D2E/DX2 analytically  !
 ! A20   A(4,13,14)            123.7007         calculate D2E/DX2 analytically  !
 ! A21   A(4,13,16)            114.3155         calculate D2E/DX2 analytically  !
 ! A22   A(14,13,16)           121.9743         calculate D2E/DX2 analytically  !
 ! D1    D(5,1,2,4)             22.8218         calculate D2E/DX2 analytically  !
 ! D2    D(5,1,2,10)           144.4087         calculate D2E/DX2 analytically  !
 ! D3    D(5,1,2,11)           -97.3151         calculate D2E/DX2 analytically  !
 ! D4    D(2,1,5,6)            -41.0115         calculate D2E/DX2 analytically  !
 ! D5    D(2,1,5,7)            136.5934         calculate D2E/DX2 analytically  !
 ! D6    D(1,2,4,12)           120.4906         calculate D2E/DX2 analytically  !
 ! D7    D(1,2,4,13)           -96.409          calculate D2E/DX2 analytically  !
 ! D8    D(10,2,4,12)           13.1052         calculate D2E/DX2 analytically  !
 ! D9    D(10,2,4,13)          156.2056         calculate D2E/DX2 analytically  !
 ! D10   D(11,2,4,12)         -136.6141         calculate D2E/DX2 analytically  !
 ! D11   D(11,2,4,13)            6.4863         calculate D2E/DX2 analytically  !
 ! D12   D(8,3,6,5)            -54.9362         calculate D2E/DX2 analytically  !
 ! D13   D(8,3,6,9)            142.822          calculate D2E/DX2 analytically  !
 ! D14   D(15,3,6,5)           167.4198         calculate D2E/DX2 analytically  !
 ! D15   D(15,3,6,9)             5.1779         calculate D2E/DX2 analytically  !
 ! D16   D(2,4,13,14)           30.3105         calculate D2E/DX2 analytically  !
 ! D17   D(2,4,13,16)         -150.7955         calculate D2E/DX2 analytically  !
 ! D18   D(12,4,13,14)         173.712          calculate D2E/DX2 analytically  !
 ! D19   D(12,4,13,16)          -7.394          calculate D2E/DX2 analytically  !
 ! D20   D(1,5,6,3)             -1.6488         calculate D2E/DX2 analytically  !
 ! D21   D(1,5,6,9)            161.1057         calculate D2E/DX2 analytically  !
 ! D22   D(7,5,6,3)           -179.4312         calculate D2E/DX2 analytically  !
 ! D23   D(7,5,6,9)            -16.6767         calculate D2E/DX2 analytically  !
 --------------------------------------------------------------------------------
 Trust Radius=1.00D-01 FncErr=1.00D-07 GrdErr=1.00D-07 EigMax=2.50D+02 EigMin=1.00D-04
 Number of steps in this run=     50 maximum allowed number of steps=    100.
 Search for a saddle point of order  1.
 GradGradGradGradGradGradGradGradGradGradGradGradGradGradGradGradGradGrad

                          Input orientation:                          
 ---------------------------------------------------------------------
 Center     Atomic      Atomic             Coordinates (Angstroms)
 Number     Number       Type             X           Y           Z
 ---------------------------------------------------------------------
      1          8           0        1.457100    1.027700   -0.470300
      2          6           0       -0.244700    1.596000    0.271500
      3          6           0        0.524300   -1.106400    1.176700
      4          6           0       -0.970400    0.443000    0.825300
      5          6           0        1.708900   -0.117000   -0.842400
      6          6           0        1.254700   -1.297300   -0.069800
      7          1           0        2.245800   -0.343300   -1.778400
      8          1           0        1.047500   -0.479100    1.905400
      9          1           0        1.224600   -2.249700   -0.583000
     10          1           0        0.186900    2.299600    0.979500
     11          1           0       -0.570200    1.978400   -0.695800
     12          1           0       -1.207000    0.503000    1.886500
     13          6           0       -2.006300   -0.239100   -0.006800
     14          8           0       -1.963700   -0.300500   -1.228800
     15          1           0        0.039300   -1.994500    1.579500
     16          1           0       -2.818000   -0.708500    0.573500
 ---------------------------------------------------------------------
                    Distance matrix (angstroms):
                    1          2          3          4          5
     1  O    0.000000
     2  C    1.941483   0.000000
     3  C    2.852562   2.951900   0.000000
     4  C    2.813043   1.470627   2.181341   0.000000
     5  C    1.229715   2.826959   2.541447   3.205226   0.000000
     6  C    2.367909   3.276564   1.457288   2.963261   1.481997
     7  H    2.052514   3.763717   3.504069   4.212062   1.102529
     8  H    2.842916   2.940315   1.094645   2.467550   2.849381
     9  H    3.287569   4.204571   2.212261   3.748595   2.202327
    10  H    2.309341   1.087472   3.428347   2.193190   3.387589
    11  H    2.250472   1.089885   3.770965   2.198035   3.099434
    12  H    3.595448   2.174602   2.468073   1.088910   4.041506
    13  C    3.716820   2.558960   2.925204   1.493566   3.809967
    14  O    3.747174   2.966913   3.553315   2.399742   3.697427
    15  H    3.917337   3.831868   1.089126   2.744033   3.489723
    16  H    4.730792   3.467535   3.419524   2.191570   4.779903
                    6          7          8          9         10
     6  C    0.000000
     7  H    2.193561   0.000000
     8  H    2.147975   3.876177   0.000000
     9  H    1.082287   2.471071   3.059170   0.000000
    10  H    3.896013   4.339355   3.052720   4.920809   0.000000
    11  H    3.801624   3.806858   3.927149   4.594656   1.866280
    12  H    3.623280   5.105834   2.459197   4.425886   2.448138
    13  C    3.428976   4.607578   3.611067   3.848796   3.496843
    14  O    3.563003   4.245443   4.349992   3.792321   4.032640
    15  H    2.164134   4.344030   1.849085   2.479207   4.338327
    16  H    4.165022   5.595255   4.094957   4.478326   4.271174
                   11         12         13         14         15
    11  H    0.000000
    12  H    3.041479   0.000000
    13  C    2.730277   2.184989   0.000000
    14  O    2.723842   3.305042   1.224283   0.000000
    15  H    4.618703   2.808028   3.127660   3.842941   0.000000
    16  H    3.726011   2.405623   1.102697   2.035824   3.290896
                   16
    16  H    0.000000
 Stoichiometry    C6H8O2
 Framework group  C1[X(C6H8O2)]
 Deg. of freedom    42
 Full point group                 C1      NOp   1
 Largest Abelian subgroup         C1      NOp   1
 Largest concise Abelian subgroup C1      NOp   1
                         Standard orientation:                         
 ---------------------------------------------------------------------
 Center     Atomic      Atomic             Coordinates (Angstroms)
 Number     Number       Type             X           Y           Z
 ---------------------------------------------------------------------
      1          8           0        1.456663    1.150187   -0.166589
      2          6           0       -0.295156    1.484708    0.600602
      3          6           0        0.577324   -1.309812    0.978956
      4          6           0       -0.980385    0.214072    0.881122
      5          6           0        1.777583    0.115798   -0.749039
      6          6           0        1.357444   -1.214233   -0.248222
      7          1           0        2.355984    0.105909   -1.687615
      8          1           0        1.043980   -0.820927    1.840043
      9          1           0        1.392065   -2.043889   -0.942352
     10          1           0        0.076943    2.048562    1.452780
     11          1           0       -0.606967    2.040330   -0.283653
     12          1           0       -1.254887    0.048655    1.921800
     13          6           0       -1.952636   -0.329229   -0.114011
     14          8           0       -1.866360   -0.140930   -1.320646
     15          1           0        0.124155   -2.280601    1.174920
     16          1           0       -2.758742   -0.939929    0.325510
 ---------------------------------------------------------------------
 Rotational constants (GHZ):           2.7622736           1.6518644           1.4942764
 Standard basis: STO-3G (5D, 7F)
 There are    48 symmetry adapted cartesian basis functions of A   symmetry.
 There are    48 symmetry adapted basis functions of A   symmetry.
    48 basis functions,   144 primitive gaussians,    48 cartesian basis functions
    30 alpha electrons       30 beta electrons
       nuclear repulsion energy       354.7323196843 Hartrees.
 NAtoms=   16 NActive=   16 NUniq=   16 SFac= 1.00D+00 NAtFMM=   60 NAOKFM=F Big=F
 Integral buffers will be    131072 words long.
 Raffenetti 1 integral format.
 Two-electron integral symmetry is turned on.
 External calculation of energy, first and second derivatives.
 Running external command "~/scripts/MiMe -H 'wb97xd def2svp' -EF 'wb97xd def2svp' -c 12 -m 48GB R"
         input file       "/local/jobs/1158117/Gau-1314965.EIn"
         output file      "/local/jobs/1158117/Gau-1314965.EOu"
         message file     "/local/jobs/1158117/Gau-1314965.EMs"
         fchk file        "/local/jobs/1158117/Gau-1314965.EFC"
         mat. el file     "/local/jobs/1158117/Gau-1314965.EUF"
 Read checkpoint file Gau-1314965_H.chk type G16
 Write formatted file Gau-1314965_H.fchk

deriv: 2

spelevel: wb97xd def2svp
gradlevel: wb97xd def2svp
hesslevel: wb97xd def2svp

runspe: False
runforce: False
runfreq: True

Running Gaussian ...

Parsing files ...
SPE file: Gau-1314965_H.out
FORCE file: Gau-1314965_H.out
HESS file: Gau-1314965_H.out

 ExternalExternalExternalExternalExternalExternalExternalExternalExternalExternal
 Output from external command:
 "~/scripts/MiMe -H 'wb97xd def2svp' -EF 'wb97xd def2svp' -c 12 -m 48GB R /local/jobs/1158117/Gau-1314965.EIn /local/jobs/1158117/Gau-1314965.EOu /local/jobs/1158117/Gau-1314965.EMs /local/jobs/1158117/Gau-1314965.EFC /local/jobs/1158117/Gau-1314965.EUF"
  
 --------------------------------------------------
 Hessian calculation at wb97xd def2svp
 ExternalExternalExternalExternalExternalExternalExternalExternalExternalExternal

 Recovered energy= -383.350862788     dipole=      0.111200000000     -0.472700000000      2.721500000000
 Energy=    -383.350863     NIter=   0.
 Dipole moment=       0.111200      -0.472700       2.721500
 ***** Axes restored to original set *****
 -------------------------------------------------------------------
 Center     Atomic                   Forces (Hartrees/Bohr)
 Number     Number              X              Y              Z
 -------------------------------------------------------------------
      1        8          -0.000889665    0.042989829    0.009589756
      2        6          -0.017691260   -0.051241754    0.008575791
      3        6           0.032606798    0.006862943   -0.046765389
      4        6           0.013935932    0.018567655   -0.016312770
      5        6          -0.020384530   -0.081331990    0.036937832
      6        6          -0.011134781    0.049725083    0.007985470
      7        1          -0.002144649    0.007664424   -0.006353060
      8        1          -0.008803803    0.005326047    0.000881817
      9        1          -0.001567510   -0.006457468   -0.004267550
     10        1           0.003000679    0.001492007   -0.000928861
     11        1           0.002526325   -0.000292793   -0.001800962
     12        1           0.001019634    0.000014916    0.004672313
     13        6           0.024748504    0.010477005   -0.024056200
     14        8          -0.001929395    0.001653691    0.025999212
     15        1          -0.006487349    0.000170303    0.003095855
     16        1          -0.006804931   -0.005619897    0.002746746
 -------------------------------------------------------------------
 Cartesian Forces:  Max     0.081331990 RMS     0.021673989
 FormGI is forming the generalized inverse of G from B-inverse, IUseBI=4.

 GradGradGradGradGradGradGradGradGradGradGradGradGradGradGradGradGradGrad
 Berny optimization.
 Internal  Forces:  Max     0.092349869 RMS     0.021336701
 Search for a saddle point.
 Step number   1 out of a maximum of   50
 All quantities printed in internal units (Hartrees-Bohrs-Radians)
 Swapping is turned off.
 Second derivative matrix not updated -- analytic derivatives used.
 ITU=  0
     Eigenvalues ---   -0.55948   0.00486   0.00845   0.00942   0.01138
     Eigenvalues ---    0.01723   0.02284   0.02914   0.03430   0.04578
     Eigenvalues ---    0.05396   0.05806   0.07616   0.07935   0.08280
     Eigenvalues ---    0.08963   0.10103   0.11156   0.13020   0.13205
     Eigenvalues ---    0.13376   0.14284   0.16371   0.17564   0.21535
     Eigenvalues ---    0.22249   0.26389   0.29359   0.32895   0.33712
     Eigenvalues ---    0.34004   0.35949   0.37081   0.37365   0.37434
     Eigenvalues ---    0.37934   0.38807   0.43151   0.56866   0.63123
     Eigenvalues ---    0.81710   0.93020
 Eigenvectors required to have negative eigenvalues:
                          A1        R1        D4        R6        R3
   1                   -0.47683  -0.34815   0.28525   0.25908   0.25259
                          R11       A14       A17       D5        D12
   1                   -0.24323  -0.22438  -0.21605   0.19549  -0.18584
 RFO step:  Lambda0=1.662603583D-02 Lambda=-5.06622954D-02.
 Linear search not attempted -- option 19 set.
 Maximum step size (   0.100) exceeded in Quadratic search.
    -- Step size scaled by   0.274
 Iteration  1 RMS(Cart)=  0.02966981 RMS(Int)=  0.00037098
 Iteration  2 RMS(Cart)=  0.00049281 RMS(Int)=  0.00016079
 Iteration  3 RMS(Cart)=  0.00000019 RMS(Int)=  0.00016079
 Variable       Old X    -DE/DX   Delta X   Delta X   Delta X     New X
                                 (Linear)    (Quad)   (Total)
    R1        3.66887  -0.02421   0.00000   0.02715   0.02715   3.69602
    R2        2.32383   0.01569   0.00000   0.00700   0.00700   2.33082
    R3        2.77908  -0.03757   0.00000  -0.04698  -0.04698   2.73211
    R4        2.05502   0.00155   0.00000   0.00120   0.00120   2.05622
    R5        2.05958   0.00074   0.00000   0.00046   0.00046   2.06004
    R6        2.75388  -0.04366   0.00000  -0.04699  -0.04699   2.70689
    R7        2.06858  -0.00057   0.00000  -0.00127  -0.00127   2.06731
    R8        2.05815   0.00389   0.00000   0.00234   0.00234   2.06049
    R9        2.05774   0.00433   0.00000   0.00241   0.00241   2.06015
   R10        2.82243  -0.01669   0.00000  -0.01343  -0.01343   2.80900
   R11        2.80057  -0.06609   0.00000  -0.03446  -0.03446   2.76611
   R12        2.08348   0.00278   0.00000   0.00293   0.00293   2.08641
   R13        2.04523   0.00775   0.00000   0.00468   0.00468   2.04990
   R14        2.31356  -0.02610   0.00000  -0.00687  -0.00687   2.30669
   R15        2.08380   0.00885   0.00000   0.00706   0.00706   2.09086
    A1        2.17435  -0.09235   0.00000  -0.02876  -0.02876   2.14559
    A2        1.92509  -0.02602   0.00000   0.00708   0.00708   1.93218
    A3        1.66117   0.00893   0.00000  -0.00689  -0.00691   1.65426
    A4        1.59618   0.00518   0.00000  -0.02098  -0.02097   1.57521
    A5        2.04648   0.00056   0.00000   0.00872   0.00866   2.05514
    A6        2.05096   0.00829   0.00000   0.00589   0.00585   2.05681
    A7        2.05935  -0.00260   0.00000  -0.00461  -0.00475   2.05459
    A8        1.98769   0.01064   0.00000   0.02510   0.02451   2.01219
    A9        2.01830   0.00656   0.00000   0.01613   0.01554   2.03385
   A10        2.01965  -0.00426   0.00000   0.00016  -0.00061   2.01904
   A11        2.01641   0.00307   0.00000   0.01196   0.01186   2.02827
   A12        2.08347  -0.00815   0.00000  -0.00626  -0.00636   2.07711
   A13        2.00139   0.00574   0.00000   0.01016   0.01004   2.01143
   A14        2.11866  -0.04313   0.00000   0.00904   0.00903   2.12768
   A15        2.15037   0.01302   0.00000  -0.01810  -0.01811   2.13226
   A16        2.01347   0.02956   0.00000   0.00876   0.00875   2.02222
   A17        2.08886  -0.03981   0.00000  -0.00073  -0.00074   2.08811
   A18        2.10242   0.01640   0.00000   0.00188   0.00186   2.10428
   A19        2.05123   0.01990   0.00000   0.00120   0.00119   2.05242
   A20        2.15898  -0.00054   0.00000  -0.00153  -0.00153   2.15745
   A21        1.99518   0.00268   0.00000   0.00551   0.00551   2.00069
   A22        2.12885  -0.00215   0.00000  -0.00399  -0.00399   2.12486
    D1        0.39832   0.01079   0.00000   0.00242   0.00242   0.40073
    D2        2.52041   0.00710   0.00000   0.01115   0.01107   2.53147
    D3       -1.69847   0.00578   0.00000   0.00353   0.00361  -1.69486
    D4       -0.71579   0.03512   0.00000  -0.01176  -0.01181  -0.72759
    D5        2.38401   0.01913   0.00000  -0.02062  -0.02057   2.36343
    D6        2.10296  -0.00009   0.00000  -0.00521  -0.00521   2.09775
    D7       -1.68265   0.00321   0.00000   0.02348   0.02352  -1.65914
    D8        0.22873   0.00549   0.00000  -0.00602  -0.00603   0.22270
    D9        2.72630   0.00878   0.00000   0.02268   0.02270   2.74900
   D10       -2.38437  -0.00568   0.00000  -0.02376  -0.02379  -2.40816
   D11        0.11321  -0.00238   0.00000   0.00494   0.00493   0.11814
   D12       -0.95882   0.00397   0.00000   0.04947   0.04969  -0.90913
   D13        2.49271   0.01354   0.00000   0.04057   0.04079   2.53350
   D14        2.92203  -0.00962   0.00000   0.00004  -0.00017   2.92185
   D15        0.09037  -0.00005   0.00000  -0.00885  -0.00907   0.08130
   D16        0.52902  -0.00201   0.00000  -0.01625  -0.01626   0.51276
   D17       -2.63188  -0.00245   0.00000  -0.01699  -0.01700  -2.64888
   D18        3.03185   0.00038   0.00000   0.01291   0.01292   3.04476
   D19       -0.12905  -0.00006   0.00000   0.01217   0.01218  -0.11687
   D20       -0.02878   0.00508   0.00000  -0.00638  -0.00640  -0.03518
   D21        2.81182  -0.00443   0.00000   0.00239   0.00237   2.81419
   D22       -3.13166   0.02009   0.00000   0.00243   0.00246  -3.12921
   D23       -0.29106   0.01059   0.00000   0.01121   0.01123  -0.27984
         Item               Value     Threshold  Converged?
 Maximum Force            0.092350     0.000450     NO 
 RMS     Force            0.021337     0.000300     NO 
 Maximum Displacement     0.094059     0.001800     NO 
 RMS     Displacement     0.029686     0.001200     NO 
 Predicted change in Energy=-8.428354D-03
 GradGradGradGradGradGradGradGradGradGradGradGradGradGradGradGradGradGrad

                          Input orientation:                          
 ---------------------------------------------------------------------
 Center     Atomic      Atomic             Coordinates (Angstroms)
 Number     Number       Type             X           Y           Z
 ---------------------------------------------------------------------
      1          8           0        1.462440    1.023596   -0.461898
      2          6           0       -0.254761    1.583863    0.288218
      3          6           0        0.547000   -1.098673    1.173404
      4          6           0       -0.970633    0.450149    0.829019
      5          6           0        1.686848   -0.130569   -0.834541
      6          6           0        1.234420   -1.292750   -0.068219
      7          1           0        2.198769   -0.351567   -1.787477
      8          1           0        1.054503   -0.448292    1.891887
      9          1           0        1.183619   -2.245809   -0.583785
     10          1           0        0.179951    2.291051    0.991699
     11          1           0       -0.562515    1.962552   -0.686594
     12          1           0       -1.210031    0.494167    1.891684
     13          6           0       -1.978411   -0.237761   -0.019935
     14          8           0       -1.913926   -0.289407   -1.237782
     15          1           0        0.048942   -1.971735    1.596010
     16          1           0       -2.797415   -0.726517    0.540912
 ---------------------------------------------------------------------
                    Distance matrix (angstroms):
                    1          2          3          4          5
     1  O    0.000000
     2  C    1.955851   0.000000
     3  C    2.831302   2.936389   0.000000
     4  C    2.813388   1.445768   2.195600   0.000000
     5  C    1.233418   2.823067   2.503662   3.188553   0.000000
     6  C    2.360601   3.258775   1.432424   2.950422   1.463764
     7  H    2.047050   3.751560   3.471789   4.187351   1.104079
     8  H    2.805917   2.900962   1.093971   2.457245   2.816774
     9  H    3.283536   4.182788   2.192924   3.728942   2.188689
    10  H    2.316066   1.088106   3.414377   2.176976   3.386758
    11  H    2.243338   1.090127   3.749895   2.179680   3.076146
    12  H    3.600242   2.161268   2.477948   1.090186   4.026724
    13  C    3.691315   2.526705   2.922829   1.486459   3.756221
    14  O    3.704837   2.930980   3.539052   2.389229   3.626763
    15  H    3.899355   3.800636   1.090364   2.737395   3.461243
    16  H    4.713267   3.444822   3.423983   2.191959   4.728175
                    6          7          8          9         10
     6  C    0.000000
     7  H    2.184409   0.000000
     8  H    2.141843   3.854402   0.000000
     9  H    1.084763   2.463241   3.062138   0.000000
    10  H    3.883163   4.333921   3.013167   4.906383   0.000000
    11  H    3.769397   3.767197   3.882715   4.557395   1.864359
    12  H    3.606887   5.086394   2.452823   4.400565   2.443525
    13  C    3.381955   4.537178   3.591372   3.787957   3.475172
    14  O    3.505234   4.149734   4.316438   3.721560   4.001708
    15  H    2.153146   4.323735   1.849209   2.472673   4.307401
    16  H    4.116717   5.524838   4.091432   4.407020   4.263055
                   11         12         13         14         15
    11  H    0.000000
    12  H    3.036931   0.000000
    13  C    2.700106   2.186416   0.000000
    14  O    2.683550   3.301971   1.220646   0.000000
    15  H    4.589420   2.784441   3.118991   3.835813   0.000000
    16  H    3.705758   2.415459   1.106436   2.033561   3.281090
                   16
    16  H    0.000000
 Stoichiometry    C6H8O2
 Framework group  C1[X(C6H8O2)]
 Deg. of freedom    42
 Full point group                 C1      NOp   1
 Largest Abelian subgroup         C1      NOp   1
 Largest concise Abelian subgroup C1      NOp   1
                         Standard orientation:                         
 ---------------------------------------------------------------------
 Center     Atomic      Atomic             Coordinates (Angstroms)
 Number     Number       Type             X           Y           Z
 ---------------------------------------------------------------------
      1          8           0        1.444859    1.155091   -0.179741
      2          6           0       -0.323784    1.474476    0.591780
      3          6           0        0.607136   -1.281144    0.994672
      4          6           0       -0.987748    0.223717    0.883327
      5          6           0        1.747517    0.104671   -0.750999
      6          6           0        1.341386   -1.202645   -0.232745
      7          1           0        2.299636    0.093438   -1.707047
      8          1           0        1.054044   -0.751712    1.841282
      9          1           0        1.361895   -2.043295   -0.918017
     10          1           0        0.047608    2.058656    1.431290
     11          1           0       -0.624065    2.012911   -0.307272
     12          1           0       -1.260825    0.054936    1.925175
     13          6           0       -1.927769   -0.344052   -0.118452
     14          8           0       -1.824163   -0.162717   -1.321099
     15          1           0        0.148754   -2.242725    1.227357
     16          1           0       -2.733042   -0.971338    0.308454
 ---------------------------------------------------------------------
 Rotational constants (GHZ):           2.7775267           1.6801916           1.5261775
 Standard basis: STO-3G (5D, 7F)
 There are    48 symmetry adapted cartesian basis functions of A   symmetry.
 There are    48 symmetry adapted basis functions of A   symmetry.
    48 basis functions,   144 primitive gaussians,    48 cartesian basis functions
    30 alpha electrons       30 beta electrons
       nuclear repulsion energy       356.7850994406 Hartrees.
 NAtoms=   16 NActive=   16 NUniq=   16 SFac= 1.00D+00 NAtFMM=   60 NAOKFM=F Big=F
 Integral buffers will be    131072 words long.
 Raffenetti 1 integral format.
 Two-electron integral symmetry is turned on.
 External calculation of energy, first and second derivatives.
 Running external command "~/scripts/MiMe -H 'wb97xd def2svp' -EF 'wb97xd def2svp' -c 12 -m 48GB R"
         input file       "/local/jobs/1158117/Gau-1314965.EIn"
         output file      "/local/jobs/1158117/Gau-1314965.EOu"
         message file     "/local/jobs/1158117/Gau-1314965.EMs"
         fchk file        "/local/jobs/1158117/Gau-1314965.EFC"
         mat. el file     "/local/jobs/1158117/Gau-1314965.EUF"
 Read checkpoint file Gau-1314965_H.chk type G16
 Write formatted file Gau-1314965_H.fchk

deriv: 2

spelevel: wb97xd def2svp
gradlevel: wb97xd def2svp
hesslevel: wb97xd def2svp

runspe: False
runforce: False
runfreq: True

Running Gaussian ...

Parsing files ...
SPE file: Gau-1314965_H.out
FORCE file: Gau-1314965_H.out
HESS file: Gau-1314965_H.out

 ExternalExternalExternalExternalExternalExternalExternalExternalExternalExternal
 Output from external command:
 "~/scripts/MiMe -H 'wb97xd def2svp' -EF 'wb97xd def2svp' -c 12 -m 48GB R /local/jobs/1158117/Gau-1314965.EIn /local/jobs/1158117/Gau-1314965.EOu /local/jobs/1158117/Gau-1314965.EMs /local/jobs/1158117/Gau-1314965.EFC /local/jobs/1158117/Gau-1314965.EUF"
  
 --------------------------------------------------
 Hessian calculation at wb97xd def2svp
 ExternalExternalExternalExternalExternalExternalExternalExternalExternalExternal

 Recovered energy= -383.359248856     dipole=      0.137100000000     -0.629400000000      2.706000000000
 Energy=    -383.359249     NIter=   0.
 Dipole moment=       0.137100      -0.629400       2.706000
 ***** Axes restored to original set *****
 -------------------------------------------------------------------
 Center     Atomic                   Forces (Hartrees/Bohr)
 Number     Number              X              Y              Z
 -------------------------------------------------------------------
      1        8           0.001374676    0.032117026    0.008176625
      2        6          -0.014587494   -0.038370455    0.006193340
      3        6           0.025777218    0.003493720   -0.034207970
      4        6           0.008195013    0.015671181   -0.011604356
      5        6          -0.014795385   -0.062014592    0.027951128
      6        6          -0.008566628    0.037624107    0.004909027
      7        1          -0.002400060    0.006415209   -0.005221981
      8        1          -0.007943459    0.005220987    0.000200863
      9        1          -0.001584891   -0.004712090   -0.003461314
     10        1           0.002750440    0.001216842   -0.001076037
     11        1           0.002617112   -0.000469152   -0.001624910
     12        1           0.001546419   -0.000829307    0.003743030
     13        6           0.019703031    0.007623390   -0.017764672
     14        8          -0.001827944    0.001085328    0.019255968
     15        1          -0.005058931    0.000477567    0.002676939
     16        1          -0.005199116   -0.004549761    0.001854319
 -------------------------------------------------------------------
 Cartesian Forces:  Max     0.062014592 RMS     0.016416869
 FormGI is forming the generalized inverse of G from B-inverse, IUseBI=4.

 GradGradGradGradGradGradGradGradGradGradGradGradGradGradGradGradGradGrad
 Berny optimization.
 Internal  Forces:  Max     0.070371509 RMS     0.016069066
 Search for a saddle point.
 Step number   2 out of a maximum of   50
 All quantities printed in internal units (Hartrees-Bohrs-Radians)
 Swapping is turned off.
 Second derivative matrix not updated -- analytic derivatives used.
 ITU=  0  0
     Eigenvalues ---   -0.45414   0.00652   0.00851   0.01035   0.01313
     Eigenvalues ---    0.01796   0.02301   0.03058   0.03570   0.04575
     Eigenvalues ---    0.05428   0.05940   0.07800   0.08199   0.08485
     Eigenvalues ---    0.09040   0.10293   0.11263   0.13219   0.13372
     Eigenvalues ---    0.13544   0.14179   0.17026   0.17634   0.22084
     Eigenvalues ---    0.22585   0.28196   0.31067   0.32908   0.33783
     Eigenvalues ---    0.35951   0.36799   0.37022   0.37154   0.37335
     Eigenvalues ---    0.37747   0.38247   0.47531   0.56195   0.59176
     Eigenvalues ---    0.83596   0.91636
 Eigenvectors required to have negative eigenvalues:
                          A1        R1        D4        R6        R3
   1                    0.44911   0.38641  -0.27362  -0.26072  -0.25215
                          R11       D12       A17       A14       D5
   1                    0.25158   0.20779   0.20623   0.19962  -0.19025
 RFO step:  Lambda0=1.029511445D-02 Lambda=-3.28874334D-02.
 Linear search not attempted -- option 19 set.
 Maximum step size (   0.100) exceeded in Quadratic search.
    -- Step size scaled by   0.351
 Iteration  1 RMS(Cart)=  0.04093463 RMS(Int)=  0.00060355
 Iteration  2 RMS(Cart)=  0.00088575 RMS(Int)=  0.00020266
 Iteration  3 RMS(Cart)=  0.00000048 RMS(Int)=  0.00020266
 Variable       Old X    -DE/DX   Delta X   Delta X   Delta X     New X
                                 (Linear)    (Quad)   (Total)
    R1        3.69602  -0.01731   0.00000   0.03107   0.03107   3.72709
    R2        2.33082   0.01214   0.00000   0.00873   0.00873   2.33955
    R3        2.73211  -0.02768   0.00000  -0.04023  -0.04023   2.69188
    R4        2.05622   0.00119   0.00000   0.00129   0.00129   2.05751
    R5        2.06004   0.00055   0.00000   0.00024   0.00024   2.06028
    R6        2.70689  -0.03205   0.00000  -0.03956  -0.03956   2.66733
    R7        2.06731  -0.00045   0.00000  -0.00150  -0.00150   2.06580
    R8        2.06049   0.00296   0.00000   0.00227   0.00227   2.06276
    R9        2.06015   0.00328   0.00000   0.00229   0.00229   2.06244
   R10        2.80900  -0.01243   0.00000  -0.01231  -0.01231   2.79669
   R11        2.76611  -0.04989   0.00000  -0.03426  -0.03426   2.73186
   R12        2.08641   0.00211   0.00000   0.00274   0.00274   2.08915
   R13        2.04990   0.00586   0.00000   0.00449   0.00449   2.05440
   R14        2.30669  -0.01936   0.00000  -0.00672  -0.00672   2.29997
   R15        2.09086   0.00680   0.00000   0.00731   0.00731   2.09817
    A1        2.14559  -0.07037   0.00000  -0.03487  -0.03487   2.11072
    A2        1.93218  -0.01910   0.00000   0.00601   0.00602   1.93820
    A3        1.65426   0.00653   0.00000  -0.00673  -0.00674   1.64752
    A4        1.57521   0.00302   0.00000  -0.02587  -0.02585   1.54937
    A5        2.05514   0.00067   0.00000   0.00975   0.00966   2.06480
    A6        2.05681   0.00633   0.00000   0.00760   0.00751   2.06432
    A7        2.05459  -0.00217   0.00000  -0.00501  -0.00521   2.04938
    A8        2.01219   0.00837   0.00000   0.02358   0.02282   2.03501
    A9        2.03385   0.00525   0.00000   0.01841   0.01766   2.05150
   A10        2.01904  -0.00361   0.00000   0.00111   0.00018   2.01922
   A11        2.02827   0.00269   0.00000   0.01417   0.01397   2.04225
   A12        2.07711  -0.00616   0.00000  -0.00648  -0.00667   2.07044
   A13        2.01143   0.00459   0.00000   0.01307   0.01285   2.02428
   A14        2.12768  -0.03212   0.00000   0.00739   0.00738   2.13506
   A15        2.13226   0.00903   0.00000  -0.01964  -0.01965   2.11261
   A16        2.02222   0.02256   0.00000   0.01175   0.01173   2.03395
   A17        2.08811  -0.02991   0.00000  -0.00551  -0.00553   2.08258
   A18        2.10428   0.01244   0.00000   0.00390   0.00389   2.10817
   A19        2.05242   0.01504   0.00000   0.00453   0.00451   2.05693
   A20        2.15745  -0.00049   0.00000  -0.00243  -0.00243   2.15502
   A21        2.00069   0.00224   0.00000   0.00670   0.00670   2.00740
   A22        2.12486  -0.00175   0.00000  -0.00432  -0.00432   2.12054
    D1        0.40073   0.00837   0.00000   0.01007   0.01009   0.41082
    D2        2.53147   0.00597   0.00000   0.01967   0.01956   2.55104
    D3       -1.69486   0.00441   0.00000   0.01179   0.01188  -1.68297
    D4       -0.72759   0.02568   0.00000  -0.01943  -0.01949  -0.74709
    D5        2.36343   0.01349   0.00000  -0.03125  -0.03118   2.33226
    D6        2.09775  -0.00020   0.00000  -0.00556  -0.00556   2.09218
    D7       -1.65914   0.00335   0.00000   0.03341   0.03346  -1.62568
    D8        0.22270   0.00398   0.00000  -0.00657  -0.00658   0.21612
    D9        2.74900   0.00753   0.00000   0.03240   0.03244   2.78144
   D10       -2.40816  -0.00514   0.00000  -0.03002  -0.03008  -2.43824
   D11        0.11814  -0.00159   0.00000   0.00895   0.00894   0.12708
   D12       -0.90913   0.00493   0.00000   0.06432   0.06456  -0.84457
   D13        2.53350   0.01173   0.00000   0.05241   0.05265   2.58615
   D14        2.92185  -0.00719   0.00000   0.00552   0.00528   2.92714
   D15        0.08130  -0.00039   0.00000  -0.00639  -0.00663   0.07467
   D16        0.51276  -0.00210   0.00000  -0.02112  -0.02114   0.49162
   D17       -2.64888  -0.00253   0.00000  -0.02391  -0.02392  -2.67280
   D18        3.04476   0.00082   0.00000   0.01795   0.01796   3.06273
   D19       -0.11687   0.00039   0.00000   0.01516   0.01518  -0.10169
   D20       -0.03518   0.00350   0.00000  -0.00626  -0.00630  -0.04148
   D21        2.81419  -0.00324   0.00000   0.00526   0.00522   2.81942
   D22       -3.12921   0.01521   0.00000   0.00571   0.00575  -3.12346
   D23       -0.27984   0.00847   0.00000   0.01723   0.01727  -0.26256
         Item               Value     Threshold  Converged?
 Maximum Force            0.070372     0.000450     NO 
 RMS     Force            0.016069     0.000300     NO 
 Maximum Displacement     0.130930     0.001800     NO 
 RMS     Displacement     0.040846     0.001200     NO 
 Predicted change in Energy=-6.869564D-03
 GradGradGradGradGradGradGradGradGradGradGradGradGradGradGradGradGradGrad

                          Input orientation:                          
 ---------------------------------------------------------------------
 Center     Atomic      Atomic             Coordinates (Angstroms)
 Number     Number       Type             X           Y           Z
 ---------------------------------------------------------------------
      1          8           0        1.473145    1.018765   -0.448461
      2          6           0       -0.261371    1.572858    0.309408
      3          6           0        0.565329   -1.083506    1.172316
      4          6           0       -0.970164    0.455068    0.836001
      5          6           0        1.659102   -0.144739   -0.828474
      6          6           0        1.203044   -1.287932   -0.070197
      7          1           0        2.136251   -0.356844   -1.802917
      8          1           0        1.061545   -0.405213    1.871401
      9          1           0        1.121942   -2.240817   -0.587212
     10          1           0        0.176329    2.282891    1.009214
     11          1           0       -0.545010    1.947437   -0.674406
     12          1           0       -1.214201    0.479133    1.899492
     13          6           0       -1.939894   -0.244472   -0.036072
     14          8           0       -1.844641   -0.284921   -1.248755
     15          1           0        0.052696   -1.935454    1.622769
     16          1           0       -2.765300   -0.759953    0.498495
 ---------------------------------------------------------------------
                    Distance matrix (angstroms):
                    1          2          3          4          5
     1  O    0.000000
     2  C    1.972290   0.000000
     3  C    2.805457   2.912784   0.000000
     4  C    2.817331   1.424479   2.199558   0.000000
     5  C    1.238035   2.816582   2.465924   3.169115   0.000000
     6  C    2.353059   3.236159   1.411491   2.929518   1.445636
     7  H    2.041216   3.732862   3.442070   4.156068   1.105531
     8  H    2.752977   2.846523   1.093175   2.437207   2.777453
     9  H    3.281382   4.154708   2.178331   3.697329   2.177221
    10  H    2.324771   1.088787   3.392720   2.164575   3.386606
    11  H    2.233032   1.090252   3.718850   2.165467   3.042869
    12  H    3.609143   2.152321   2.477368   1.091397   4.010846
    13  C    3.662604   2.497896   2.905223   1.479947   3.686547
    14  O    3.653460   2.895852   3.508173   2.378760   3.531644
    15  H    3.877509   3.759229   1.091566   2.716586   3.434500
    16  H    4.693078   3.427451   3.413475   2.193787   4.659901
                    6          7          8          9         10
     6  C    0.000000
     7  H    2.177182   0.000000
     8  H    2.137525   3.828570   0.000000
     9  H    1.087140   2.460918   3.068855   0.000000
    10  H    3.869114   4.326382   2.958526   4.889447   0.000000
    11  H    3.726710   3.711120   3.820616   4.508636   1.862105
    12  H    3.584028   5.062827   2.441695   4.363414   2.445345
    13  C    3.311802   4.444022   3.559905   3.696483   3.458119
    14  O    3.418101   4.019922   4.265649   3.614386   3.971952
    15  H    2.146792   4.309122   1.849657   2.473974   4.264524
    16  H    4.043504   5.429936   4.081109   4.299113   4.262970
                   11         12         13         14         15
    11  H    0.000000
    12  H    3.037875   0.000000
    13  C    2.675376   2.190124   0.000000
    14  O    2.646193   3.300408   1.217091   0.000000
    15  H    4.550945   2.740772   3.095414   3.817041   0.000000
    16  H    3.692607   2.429822   1.110305   2.031293   3.253752
                   16
    16  H    0.000000
 Stoichiometry    C6H8O2
 Framework group  C1[X(C6H8O2)]
 Deg. of freedom    42
 Full point group                 C1      NOp   1
 Largest Abelian subgroup         C1      NOp   1
 Largest concise Abelian subgroup C1      NOp   1
                         Standard orientation:                         
 ---------------------------------------------------------------------
 Center     Atomic      Atomic             Coordinates (Angstroms)
 Number     Number       Type             X           Y           Z
 ---------------------------------------------------------------------
      1          8           0        1.444951    1.145245   -0.205254
      2          6           0       -0.340758    1.477398    0.563411
      3          6           0        0.618596   -1.232387    1.033532
      4          6           0       -0.996094    0.253571    0.882666
      5          6           0        1.711209    0.067985   -0.754207
      6          6           0        1.302906   -1.203518   -0.200645
      7          1           0        2.228056    0.038308   -1.731033
      8          1           0        1.052921   -0.646434    1.847812
      9          1           0        1.294006   -2.066159   -0.862192
     10          1           0        0.033256    2.091332    1.381125
     11          1           0       -0.617929    1.986042   -0.360227
     12          1           0       -1.271630    0.096581    1.926975
     13          6           0       -1.896633   -0.352023   -0.123578
     14          8           0       -1.764276   -0.195852   -1.323329
     15          1           0        0.145233   -2.171370    1.326369
     16          1           0       -2.704676   -0.989597    0.292768
 ---------------------------------------------------------------------
 Rotational constants (GHZ):           2.7898240           1.7195749           1.5707537
 Standard basis: STO-3G (5D, 7F)
 There are    48 symmetry adapted cartesian basis functions of A   symmetry.
 There are    48 symmetry adapted basis functions of A   symmetry.
    48 basis functions,   144 primitive gaussians,    48 cartesian basis functions
    30 alpha electrons       30 beta electrons
       nuclear repulsion energy       359.2395263076 Hartrees.
 NAtoms=   16 NActive=   16 NUniq=   16 SFac= 1.00D+00 NAtFMM=   60 NAOKFM=F Big=F
 Integral buffers will be    131072 words long.
 Raffenetti 1 integral format.
 Two-electron integral symmetry is turned on.
 External calculation of energy, first and second derivatives.
 Running external command "~/scripts/MiMe -H 'wb97xd def2svp' -EF 'wb97xd def2svp' -c 12 -m 48GB R"
         input file       "/local/jobs/1158117/Gau-1314965.EIn"
         output file      "/local/jobs/1158117/Gau-1314965.EOu"
         message file     "/local/jobs/1158117/Gau-1314965.EMs"
         fchk file        "/local/jobs/1158117/Gau-1314965.EFC"
         mat. el file     "/local/jobs/1158117/Gau-1314965.EUF"
 Read checkpoint file Gau-1314965_H.chk type G16
 Write formatted file Gau-1314965_H.fchk

deriv: 2

spelevel: wb97xd def2svp
gradlevel: wb97xd def2svp
hesslevel: wb97xd def2svp

runspe: False
runforce: False
runfreq: True

Running Gaussian ...

Parsing files ...
SPE file: Gau-1314965_H.out
FORCE file: Gau-1314965_H.out
HESS file: Gau-1314965_H.out

 ExternalExternalExternalExternalExternalExternalExternalExternalExternalExternal
 Output from external command:
 "~/scripts/MiMe -H 'wb97xd def2svp' -EF 'wb97xd def2svp' -c 12 -m 48GB R /local/jobs/1158117/Gau-1314965.EIn /local/jobs/1158117/Gau-1314965.EOu /local/jobs/1158117/Gau-1314965.EMs /local/jobs/1158117/Gau-1314965.EFC /local/jobs/1158117/Gau-1314965.EUF"
  
 --------------------------------------------------
 Hessian calculation at wb97xd def2svp
 ExternalExternalExternalExternalExternalExternalExternalExternalExternalExternal

 Recovered energy= -383.366092981     dipole=      0.068600000000     -0.730000000000      2.707900000000
 Energy=    -383.366093     NIter=   0.
 Dipole moment=       0.068600      -0.730000       2.707900
 ***** Axes restored to original set *****
 -------------------------------------------------------------------
 Center     Atomic                   Forces (Hartrees/Bohr)
 Number     Number              X              Y              Z
 -------------------------------------------------------------------
      1        8           0.002886767    0.021213058    0.007238945
      2        6          -0.010597752   -0.025376471    0.003459640
      3        6           0.018206833    0.000974892   -0.021918661
      4        6           0.003264078    0.011775704   -0.007040242
      5        6          -0.009624102   -0.042122851    0.017980850
      6        6          -0.005736109    0.025316346    0.002387579
      7        1          -0.002426444    0.004916782   -0.003861548
      8        1          -0.006495896    0.004529840   -0.000303929
      9        1          -0.001423279   -0.003022768   -0.002515464
     10        1           0.002293465    0.000899420   -0.001066947
     11        1           0.002264186   -0.000609743   -0.001282200
     12        1           0.001708090   -0.001230613    0.002685303
     13        6           0.014138243    0.004905667   -0.011673645
     14        8          -0.001557264    0.000604537    0.012702208
     15        1          -0.003410158    0.000598263    0.002144313
     16        1          -0.003490661   -0.003372062    0.001063796
 -------------------------------------------------------------------
 Cartesian Forces:  Max     0.042122851 RMS     0.011065546
 FormGI is forming the generalized inverse of G from B-inverse, IUseBI=4.

 GradGradGradGradGradGradGradGradGradGradGradGradGradGradGradGradGradGrad
 Berny optimization.
 Internal  Forces:  Max     0.047977171 RMS     0.010807335
 Search for a saddle point.
 Step number   3 out of a maximum of   50
 All quantities printed in internal units (Hartrees-Bohrs-Radians)
 Swapping is turned off.
 Second derivative matrix not updated -- analytic derivatives used.
 ITU=  0  0  0
     Eigenvalues ---   -0.33901   0.00682   0.00854   0.01073   0.01442
     Eigenvalues ---    0.01828   0.02396   0.03276   0.03700   0.04610
     Eigenvalues ---    0.05421   0.06180   0.07895   0.08223   0.08893
     Eigenvalues ---    0.09457   0.10395   0.11372   0.13395   0.13588
     Eigenvalues ---    0.13746   0.14129   0.17525   0.17824   0.22695
     Eigenvalues ---    0.22951   0.29797   0.32202   0.32452   0.33887
     Eigenvalues ---    0.36230   0.36572   0.36872   0.37167   0.37561
     Eigenvalues ---    0.37711   0.40970   0.51760   0.56313   0.58972
     Eigenvalues ---    0.85323   0.91685
 Eigenvectors required to have negative eigenvalues:
                          R1        A1        R6        R11       D4
   1                   -0.44644  -0.39003   0.25944  -0.25762   0.25417
                          R3        D12       A17       D5        A14
   1                    0.24939  -0.23940  -0.19178   0.18242  -0.16635
 RFO step:  Lambda0=4.864303687D-03 Lambda=-1.81467801D-02.
 Linear search not attempted -- option 19 set.
 Maximum step size (   0.100) exceeded in Quadratic search.
    -- Step size scaled by   0.501
 Iteration  1 RMS(Cart)=  0.05892342 RMS(Int)=  0.00115767
 Iteration  2 RMS(Cart)=  0.00202632 RMS(Int)=  0.00025332
 Iteration  3 RMS(Cart)=  0.00000217 RMS(Int)=  0.00025331
 Iteration  4 RMS(Cart)=  0.00000000 RMS(Int)=  0.00025331
 Variable       Old X    -DE/DX   Delta X   Delta X   Delta X     New X
                                 (Linear)    (Quad)   (Total)
    R1        3.72709  -0.01098   0.00000   0.02207   0.02207   3.74916
    R2        2.33955   0.00851   0.00000   0.01231   0.01231   2.35186
    R3        2.69188  -0.01779   0.00000  -0.03173  -0.03173   2.66015
    R4        2.05751   0.00082   0.00000   0.00134   0.00134   2.05885
    R5        2.06028   0.00036   0.00000   0.00001   0.00001   2.06028
    R6        2.66733  -0.02054   0.00000  -0.03117  -0.03117   2.63617
    R7        2.06580  -0.00033   0.00000  -0.00181  -0.00181   2.06399
    R8        2.06276   0.00202   0.00000   0.00212   0.00212   2.06488
    R9        2.06244   0.00221   0.00000   0.00201   0.00201   2.06445
   R10        2.79669  -0.00820   0.00000  -0.01141  -0.01141   2.78528
   R11        2.73186  -0.03342   0.00000  -0.03543  -0.03543   2.69642
   R12        2.08915   0.00141   0.00000   0.00204   0.00204   2.09119
   R13        2.05440   0.00395   0.00000   0.00409   0.00409   2.05849
   R14        2.29997  -0.01280   0.00000  -0.00633  -0.00633   2.29364
   R15        2.09817   0.00467   0.00000   0.00739   0.00739   2.10557
    A1        2.11072  -0.04798   0.00000  -0.04260  -0.04260   2.06811
    A2        1.93820  -0.01244   0.00000   0.00472   0.00473   1.94293
    A3        1.64752   0.00422   0.00000  -0.00631  -0.00632   1.64120
    A4        1.54937   0.00134   0.00000  -0.02716  -0.02713   1.52224
    A5        2.06480   0.00062   0.00000   0.01071   0.01060   2.07540
    A6        2.06432   0.00430   0.00000   0.00740   0.00728   2.07161
    A7        2.04938  -0.00161   0.00000  -0.00552  -0.00574   2.04364
    A8        2.03501   0.00577   0.00000   0.02030   0.01936   2.05437
    A9        2.05150   0.00376   0.00000   0.02140   0.02046   2.07196
   A10        2.01922  -0.00276   0.00000   0.00177   0.00066   2.01989
   A11        2.04225   0.00210   0.00000   0.01752   0.01713   2.05937
   A12        2.07044  -0.00419   0.00000  -0.00803  -0.00840   2.06204
   A13        2.02428   0.00333   0.00000   0.01724   0.01683   2.04112
   A14        2.13506  -0.02150   0.00000   0.00331   0.00328   2.13834
   A15        2.11261   0.00554   0.00000  -0.02124  -0.02127   2.09134
   A16        2.03395   0.01552   0.00000   0.01715   0.01711   2.05106
   A17        2.08258  -0.02028   0.00000  -0.01387  -0.01389   2.06869
   A18        2.10817   0.00852   0.00000   0.00735   0.00733   2.11549
   A19        2.05693   0.01028   0.00000   0.01001   0.00999   2.06693
   A20        2.15502  -0.00042   0.00000  -0.00404  -0.00404   2.15098
   A21        2.00740   0.00169   0.00000   0.00848   0.00848   2.01587
   A22        2.12054  -0.00127   0.00000  -0.00457  -0.00457   2.11596
    D1        0.41082   0.00604   0.00000   0.02913   0.02915   0.43997
    D2        2.55104   0.00467   0.00000   0.03956   0.03946   2.59049
    D3       -1.68297   0.00323   0.00000   0.03187   0.03195  -1.65103
    D4       -0.74709   0.01634   0.00000  -0.03979  -0.03990  -0.78698
    D5        2.33226   0.00806   0.00000  -0.05473  -0.05462   2.27764
    D6        2.09218  -0.00024   0.00000  -0.00845  -0.00847   2.08372
    D7       -1.62568   0.00310   0.00000   0.04495   0.04501  -1.58067
    D8        0.21612   0.00257   0.00000  -0.00979  -0.00981   0.20631
    D9        2.78144   0.00590   0.00000   0.04360   0.04366   2.82510
   D10       -2.43824  -0.00417   0.00000  -0.03550  -0.03558  -2.47381
   D11        0.12708  -0.00083   0.00000   0.01790   0.01790   0.14498
   D12       -0.84457   0.00498   0.00000   0.08417   0.08442  -0.76015
   D13        2.58615   0.00920   0.00000   0.06868   0.06893   2.65508
   D14        2.92714  -0.00466   0.00000   0.01537   0.01512   2.94225
   D15        0.07467  -0.00044   0.00000  -0.00012  -0.00037   0.07430
   D16        0.49162  -0.00192   0.00000  -0.03087  -0.03091   0.46071
   D17       -2.67280  -0.00234   0.00000  -0.03701  -0.03705  -2.70985
   D18        3.06273   0.00102   0.00000   0.02218   0.02222   3.08494
   D19       -0.10169   0.00060   0.00000   0.01605   0.01608  -0.08562
   D20       -0.04148   0.00216   0.00000  -0.00133  -0.00138  -0.04286
   D21        2.81942  -0.00203   0.00000   0.01342   0.01337   2.83279
   D22       -3.12346   0.01035   0.00000   0.01425   0.01430  -3.10916
   D23       -0.26256   0.00616   0.00000   0.02900   0.02905  -0.23351
         Item               Value     Threshold  Converged?
 Maximum Force            0.047977     0.000450     NO 
 RMS     Force            0.010807     0.000300     NO 
 Maximum Displacement     0.185779     0.001800     NO 
 RMS     Displacement     0.058535     0.001200     NO 
 Predicted change in Energy=-5.308263D-03
 GradGradGradGradGradGradGradGradGradGradGradGradGradGradGradGradGradGrad

                          Input orientation:                          
 ---------------------------------------------------------------------
 Center     Atomic      Atomic             Coordinates (Angstroms)
 Number     Number       Type             X           Y           Z
 ---------------------------------------------------------------------
      1          8           0        1.488422    1.010622   -0.420555
      2          6           0       -0.261476    1.562205    0.334257
      3          6           0        0.579229   -1.060964    1.174647
      4          6           0       -0.968929    0.458149    0.846275
      5          6           0        1.619121   -0.159852   -0.822820
      6          6           0        1.155416   -1.283852   -0.076093
      7          1           0        2.044524   -0.352780   -1.826013
      8          1           0        1.070363   -0.347673    1.840183
      9          1           0        1.031801   -2.234622   -0.593143
     10          1           0        0.177093    2.275860    1.030930
     11          1           0       -0.514378    1.930473   -0.660267
     12          1           0       -1.221506    0.459117    1.909137
     13          6           0       -1.885324   -0.260214   -0.057373
     14          8           0       -1.746331   -0.286245   -1.262851
     15          1           0        0.055237   -1.884612    1.665563
     16          1           0       -2.714460   -0.813310    0.440724
 ---------------------------------------------------------------------
                    Distance matrix (angstroms):
                    1          2          3          4          5
     1  O    0.000000
     2  C    1.983968   0.000000
     3  C    2.768171   2.879941   0.000000
     4  C    2.819337   1.407691   2.193701   0.000000
     5  C    1.244551   2.800170   2.425542   3.140988   0.000000
     6  C    2.343962   3.205622   1.394999   2.897960   1.426885
     7  H    2.035541   3.694803   3.413587   4.108483   1.106610
     8  H    2.670333   2.772949   1.092216   2.407471   2.725435
     9  H    3.281753   4.116860   2.169649   3.650460   2.168495
    10  H    2.329640   1.089495   3.364040   2.156743   3.383568
    11  H    2.216933   1.090256   3.675810   2.154999   2.991270
    12  H    3.615983   2.149118   2.468353   1.092461   3.989470
    13  C    3.623408   2.472139   2.869337   1.473907   3.588469
    14  O    3.585381   2.858727   3.456850   2.367886   3.396450
    15  H    3.845555   3.708535   1.092686   2.684898   3.407724
    16  H    4.661839   3.416364   3.383543   2.197261   4.561083
                    6          7          8          9         10
     6  C    0.000000
     7  H    2.172471   0.000000
     8  H    2.134427   3.793416   0.000000
     9  H    1.089305   2.467166   3.079470   0.000000
    10  H    3.854111   4.308036   2.887170   4.869558   0.000000
    11  H    3.668972   3.622180   3.735452   4.443331   1.859455
    12  H    3.553708   5.027671   2.430706   4.312195   2.455174
    13  C    3.208471   4.310494   3.513468   3.562998   3.445234
    14  O    3.289947   3.833036   4.191224   3.458714   3.940226
    15  H    2.145850   4.300567   1.850177   2.485545   4.210361
    16  H    3.932487   5.291324   4.062043   4.138053   4.272282
                   11         12         13         14         15
    11  H    0.000000
    12  H    3.044134   0.000000
    13  C    2.653692   2.196646   0.000000
    14  O    2.606656   3.300380   1.213743   0.000000
    15  H    4.504311   2.680013   3.061528   3.791573   0.000000
    16  H    3.685226   2.450351   1.114218   2.029097   3.212342
                   16
    16  H    0.000000
 Stoichiometry    C6H8O2
 Framework group  C1[X(C6H8O2)]
 Deg. of freedom    42
 Full point group                 C1      NOp   1
 Largest Abelian subgroup         C1      NOp   1
 Largest concise Abelian subgroup C1      NOp   1
                         Standard orientation:                         
 ---------------------------------------------------------------------
 Center     Atomic      Atomic             Coordinates (Angstroms)
 Number     Number       Type             X           Y           Z
 ---------------------------------------------------------------------
      1          8           0        1.455541    1.112901   -0.249491
      2          6           0       -0.341966    1.499106    0.496124
      3          6           0        0.612468   -1.148815    1.105738
      4          6           0       -1.004137    0.315926    0.874553
      5          6           0        1.659586   -0.004173   -0.758825
      6          6           0        1.235089   -1.218134   -0.140681
      7          1           0        2.123050   -0.075678   -1.761159
      8          1           0        1.045887   -0.480984    1.853458
      9          1           0        1.176893   -2.118250   -0.751410
     10          1           0        0.038075    2.161598    1.273088
     11          1           0       -0.585604    1.950568   -0.465895
     12          1           0       -1.286602    0.199409    1.923414
     13          6           0       -1.854986   -0.354730   -0.124786
     14          8           0       -1.680504   -0.254734   -1.321753
     15          1           0        0.119145   -2.042047    1.496545
     16          1           0       -2.667462   -0.995043    0.289176
 ---------------------------------------------------------------------
 Rotational constants (GHZ):           2.8005767           1.7794044           1.6361903
 Standard basis: STO-3G (5D, 7F)
 There are    48 symmetry adapted cartesian basis functions of A   symmetry.
 There are    48 symmetry adapted basis functions of A   symmetry.
    48 basis functions,   144 primitive gaussians,    48 cartesian basis functions
    30 alpha electrons       30 beta electrons
       nuclear repulsion energy       362.4733435630 Hartrees.
 NAtoms=   16 NActive=   16 NUniq=   16 SFac= 1.00D+00 NAtFMM=   60 NAOKFM=F Big=F
 Integral buffers will be    131072 words long.
 Raffenetti 1 integral format.
 Two-electron integral symmetry is turned on.
 External calculation of energy, first and second derivatives.
 Running external command "~/scripts/MiMe -H 'wb97xd def2svp' -EF 'wb97xd def2svp' -c 12 -m 48GB R"
         input file       "/local/jobs/1158117/Gau-1314965.EIn"
         output file      "/local/jobs/1158117/Gau-1314965.EOu"
         message file     "/local/jobs/1158117/Gau-1314965.EMs"
         fchk file        "/local/jobs/1158117/Gau-1314965.EFC"
         mat. el file     "/local/jobs/1158117/Gau-1314965.EUF"
 Read checkpoint file Gau-1314965_H.chk type G16
 Write formatted file Gau-1314965_H.fchk

deriv: 2

spelevel: wb97xd def2svp
gradlevel: wb97xd def2svp
hesslevel: wb97xd def2svp

runspe: False
runforce: False
runfreq: True

Running Gaussian ...

Parsing files ...
SPE file: Gau-1314965_H.out
FORCE file: Gau-1314965_H.out
HESS file: Gau-1314965_H.out

 ExternalExternalExternalExternalExternalExternalExternalExternalExternalExternal
 Output from external command:
 "~/scripts/MiMe -H 'wb97xd def2svp' -EF 'wb97xd def2svp' -c 12 -m 48GB R /local/jobs/1158117/Gau-1314965.EIn /local/jobs/1158117/Gau-1314965.EOu /local/jobs/1158117/Gau-1314965.EMs /local/jobs/1158117/Gau-1314965.EFC /local/jobs/1158117/Gau-1314965.EUF"
  
 --------------------------------------------------
 Hessian calculation at wb97xd def2svp
 ExternalExternalExternalExternalExternalExternalExternalExternalExternalExternal

 Recovered energy= -383.371379478     dipole=     -0.105800000000     -0.731400000000      2.722300000000
 Energy=    -383.371379     NIter=   0.
 Dipole moment=      -0.105800      -0.731400       2.722300
 ***** Axes restored to original set *****
 -------------------------------------------------------------------
 Center     Atomic                   Forces (Hartrees/Bohr)
 Number     Number              X              Y              Z
 -------------------------------------------------------------------
      1        8           0.003230302    0.010372240    0.006251022
      2        6          -0.005739320   -0.012896846    0.000704219
      3        6           0.010165205   -0.000606808   -0.010541964
      4        6          -0.000245741    0.007056642   -0.003060271
      5        6          -0.004705202   -0.021614122    0.007370286
      6        6          -0.002940451    0.012901068    0.001187478
      7        1          -0.002102172    0.003075395   -0.002244043
      8        1          -0.004318292    0.003118289   -0.000495889
      9        1          -0.000974350   -0.001443422   -0.001434745
     10        1           0.001493024    0.000601229   -0.000857930
     11        1           0.001379769   -0.000596397   -0.000752825
     12        1           0.001425821   -0.001104103    0.001508844
     13        6           0.007948565    0.002414013   -0.005772785
     14        8          -0.001224407    0.000301790    0.006303811
     15        1          -0.001682026    0.000470048    0.001407819
     16        1          -0.001710725   -0.002049015    0.000426972
 -------------------------------------------------------------------
 Cartesian Forces:  Max     0.021614122 RMS     0.005721559
 FormGI is forming the generalized inverse of G from B-inverse, IUseBI=4.

 GradGradGradGradGradGradGradGradGradGradGradGradGradGradGradGradGradGrad
 Berny optimization.
 Internal  Forces:  Max     0.024694218 RMS     0.005498251
 Search for a saddle point.
 Step number   4 out of a maximum of   50
 All quantities printed in internal units (Hartrees-Bohrs-Radians)
 Swapping is turned off.
 Second derivative matrix not updated -- analytic derivatives used.
 ITU=  0  0  0  0
     Eigenvalues ---   -0.23920   0.00664   0.00900   0.01135   0.01526
     Eigenvalues ---    0.01911   0.02547   0.03563   0.03813   0.04841
     Eigenvalues ---    0.05508   0.06572   0.07983   0.08256   0.09183
     Eigenvalues ---    0.10260   0.10549   0.11477   0.13446   0.13812
     Eigenvalues ---    0.14116   0.14695   0.18399   0.18578   0.23185
     Eigenvalues ---    0.23802   0.31339   0.31603   0.32883   0.35155
     Eigenvalues ---    0.36315   0.36584   0.36681   0.37157   0.37314
     Eigenvalues ---    0.37474   0.44953   0.54021   0.57908   0.63327
     Eigenvalues ---    0.86713   0.93380
 Eigenvectors required to have negative eigenvalues:
                          R1        A1        D12       R11       R6
   1                   -0.51920  -0.29961  -0.27416  -0.24882   0.24798
                          R3        D4        D13       D5        R2
   1                    0.23818   0.23110  -0.18827   0.17266   0.16772
 RFO step:  Lambda0=1.035815387D-03 Lambda=-6.68392403D-03.
 Linear search not attempted -- option 19 set.
 Maximum step size (   0.100) exceeded in Quadratic search.
    -- Step size scaled by   0.816
 Iteration  1 RMS(Cart)=  0.07004624 RMS(Int)=  0.00207162
 Iteration  2 RMS(Cart)=  0.00498634 RMS(Int)=  0.00030980
 Iteration  3 RMS(Cart)=  0.00001094 RMS(Int)=  0.00030973
 Iteration  4 RMS(Cart)=  0.00000000 RMS(Int)=  0.00030973
 Variable       Old X    -DE/DX   Delta X   Delta X   Delta X     New X
                                 (Linear)    (Quad)   (Total)
    R1        3.74916  -0.00525   0.00000  -0.02818  -0.02818   3.72098
    R2        2.35186   0.00470   0.00000   0.01735   0.01735   2.36921
    R3        2.66015  -0.00853   0.00000  -0.01796  -0.01796   2.64219
    R4        2.05885   0.00045   0.00000   0.00099   0.00099   2.05984
    R5        2.06028   0.00017   0.00000  -0.00009  -0.00009   2.06020
    R6        2.63617  -0.00987   0.00000  -0.02053  -0.02053   2.61563
    R7        2.06399  -0.00021   0.00000  -0.00230  -0.00230   2.06168
    R8        2.06488   0.00109   0.00000   0.00161   0.00161   2.06649
    R9        2.06445   0.00114   0.00000   0.00117   0.00117   2.06562
   R10        2.78528  -0.00403   0.00000  -0.01053  -0.01053   2.77475
   R11        2.69642  -0.01662   0.00000  -0.03262  -0.03262   2.66380
   R12        2.09119   0.00069   0.00000   0.00003   0.00003   2.09122
   R13        2.05849   0.00205   0.00000   0.00309   0.00309   2.06158
   R14        2.29364  -0.00641   0.00000  -0.00450  -0.00450   2.28915
   R15        2.10557   0.00248   0.00000   0.00649   0.00649   2.11206
    A1        2.06811  -0.02469   0.00000  -0.04596  -0.04596   2.02215
    A2        1.94293  -0.00578   0.00000   0.00624   0.00623   1.94916
    A3        1.64120   0.00176   0.00000  -0.00854  -0.00856   1.63264
    A4        1.52224   0.00030   0.00000  -0.00687  -0.00686   1.51537
    A5        2.07540   0.00048   0.00000   0.00994   0.00993   2.08533
    A6        2.07161   0.00212   0.00000   0.00059   0.00059   2.07220
    A7        2.04364  -0.00091   0.00000  -0.00749  -0.00752   2.03612
    A8        2.05437   0.00308   0.00000   0.01374   0.01264   2.06701
    A9        2.07196   0.00214   0.00000   0.02431   0.02321   2.09517
   A10        2.01989  -0.00167   0.00000   0.00351   0.00228   2.02217
   A11        2.05937   0.00129   0.00000   0.02081   0.02012   2.07949
   A12        2.06204  -0.00214   0.00000  -0.00751  -0.00818   2.05386
   A13        2.04112   0.00178   0.00000   0.01879   0.01806   2.05918
   A14        2.13834  -0.01113   0.00000  -0.00746  -0.00751   2.13083
   A15        2.09134   0.00249   0.00000  -0.01864  -0.01868   2.07266
   A16        2.05106   0.00836   0.00000   0.02485   0.02479   2.07585
   A17        2.06869  -0.01050   0.00000  -0.02329  -0.02331   2.04538
   A18        2.11549   0.00447   0.00000   0.01105   0.01103   2.12652
   A19        2.06693   0.00540   0.00000   0.01581   0.01579   2.08272
   A20        2.15098  -0.00009   0.00000  -0.00262  -0.00263   2.14834
   A21        2.01587   0.00090   0.00000   0.00756   0.00755   2.02342
   A22        2.11596  -0.00081   0.00000  -0.00516  -0.00517   2.11079
    D1        0.43997   0.00345   0.00000   0.08208   0.08209   0.52205
    D2        2.59049   0.00292   0.00000   0.09101   0.09098   2.68147
    D3       -1.65103   0.00199   0.00000   0.08329   0.08333  -1.56770
    D4       -0.78698   0.00698   0.00000  -0.08884  -0.08900  -0.87599
    D5        2.27764   0.00284   0.00000  -0.10737  -0.10721   2.17042
    D6        2.08372  -0.00044   0.00000  -0.03456  -0.03462   2.04910
    D7       -1.58067   0.00195   0.00000   0.03506   0.03514  -1.54553
    D8        0.20631   0.00109   0.00000  -0.03380  -0.03388   0.17243
    D9        2.82510   0.00347   0.00000   0.03582   0.03588   2.86098
   D10       -2.47381  -0.00260   0.00000  -0.03893  -0.03901  -2.51282
   D11        0.14498  -0.00021   0.00000   0.03068   0.03075   0.17573
   D12       -0.76015   0.00391   0.00000   0.10443   0.10467  -0.65548
   D13        2.65508   0.00577   0.00000   0.08719   0.08743   2.74252
   D14        2.94225  -0.00217   0.00000   0.02593   0.02569   2.96794
   D15        0.07430  -0.00030   0.00000   0.00869   0.00845   0.08275
   D16        0.46071  -0.00153   0.00000  -0.06194  -0.06198   0.39874
   D17       -2.70985  -0.00177   0.00000  -0.07075  -0.07079  -2.78063
   D18        3.08494   0.00071   0.00000   0.00766   0.00769   3.09264
   D19       -0.08562   0.00046   0.00000  -0.00115  -0.00111  -0.08673
   D20       -0.04286   0.00111   0.00000   0.01446   0.01437  -0.02849
   D21        2.83279  -0.00076   0.00000   0.03068   0.03061   2.86340
   D22       -3.10916   0.00538   0.00000   0.03436   0.03443  -3.07473
   D23       -0.23351   0.00351   0.00000   0.05058   0.05066  -0.18285
         Item               Value     Threshold  Converged?
 Maximum Force            0.024694     0.000450     NO 
 RMS     Force            0.005498     0.000300     NO 
 Maximum Displacement     0.228451     0.001800     NO 
 RMS     Displacement     0.068468     0.001200     NO 
 Predicted change in Energy=-3.020658D-03
 GradGradGradGradGradGradGradGradGradGradGradGradGradGradGradGradGradGrad

                          Input orientation:                          
 ---------------------------------------------------------------------
 Center     Atomic      Atomic             Coordinates (Angstroms)
 Number     Number       Type             X           Y           Z
 ---------------------------------------------------------------------
      1          8           0        1.507623    0.995045   -0.351635
      2          6           0       -0.247462    1.551421    0.346437
      3          6           0        0.589875   -1.047942    1.180529
      4          6           0       -0.969076    0.466565    0.853673
      5          6           0        1.569844   -0.170809   -0.808528
      6          6           0        1.099141   -1.284932   -0.084505
      7          1           0        1.923633   -0.317524   -1.846762
      8          1           0        1.073269   -0.292680    1.801964
      9          1           0        0.929695   -2.228205   -0.605727
     10          1           0        0.181604    2.279348    1.035040
     11          1           0       -0.469133    1.902986   -0.661442
     12          1           0       -1.230786    0.450673    1.914841
     13          6           0       -1.824490   -0.279123   -0.078115
     14          8           0       -1.649447   -0.284446   -1.276753
     15          1           0        0.065655   -1.843324    1.717547
     16          1           0       -2.641144   -0.884754    0.386037
 ---------------------------------------------------------------------
                    Distance matrix (angstroms):
                    1          2          3          4          5
     1  O    0.000000
     2  C    1.969056   0.000000
     3  C    2.713592   2.855439   0.000000
     4  C    2.804656   1.398187   2.197930   0.000000
     5  C    1.253730   2.757286   2.384544   3.100850   0.000000
     6  C    2.331633   3.169219   1.384133   2.868003   1.409624
     7  H    2.032561   3.607870   3.387758   4.034217   1.106625
     8  H    2.546544   2.695105   1.090996   2.376316   2.660096
     9  H    3.284494   4.071595   2.167765   3.605130   2.164208
    10  H    2.308815   1.090022   3.355400   2.154794   3.365891
    11  H    2.197249   1.090210   3.636253   2.146816   2.911991
    12  H    3.596128   2.153709   2.469792   1.093080   3.955567
    13  C    3.577889   2.453193   2.829210   1.468337   3.473721
    14  O    3.529877   2.823246   3.411118   2.359160   3.255147
    15  H    3.796989   3.674545   1.093540   2.674423   3.382447
    16  H    4.614116   3.415586   3.331266   2.200127   4.434988
                    6          7          8          9         10
     6  C    0.000000
     7  H    2.172835   0.000000
     8  H    2.131665   3.746589   0.000000
     9  H    1.090939   2.485715   3.092547   0.000000
    10  H    3.846991   4.252433   2.828173   4.854872   0.000000
    11  H    3.599328   3.472892   3.642571   4.361945   1.855575
    12  H    3.526793   4.968917   2.423630   4.265833   2.472438
    13  C    3.091814   4.144636   3.454256   3.415089   3.436466
    14  O    3.158665   3.618412   4.109957   3.298553   3.907707
    15  H    2.151113   4.299354   1.851192   2.508446   4.180393
    16  H    3.790948   5.113152   4.018987   3.941998   4.289597
                   11         12         13         14         15
    11  H    0.000000
    12  H    3.053942   0.000000
    13  C    2.634172   2.203851   0.000000
    14  O    2.560587   3.301810   1.211363   0.000000
    15  H    4.469947   2.642367   3.040358   3.786491   0.000000
    16  H    3.685964   2.471783   1.117653   2.026993   3.165207
                   16
    16  H    0.000000
 Stoichiometry    C6H8O2
 Framework group  C1[X(C6H8O2)]
 Deg. of freedom    42
 Full point group                 C1      NOp   1
 Largest Abelian subgroup         C1      NOp   1
 Largest concise Abelian subgroup C1      NOp   1
                         Standard orientation:                         
 ---------------------------------------------------------------------
 Center     Atomic      Atomic             Coordinates (Angstroms)
 Number     Number       Type             X           Y           Z
 ---------------------------------------------------------------------
      1          8           0        1.471621    1.058476   -0.292380
      2          6           0       -0.315685    1.529968    0.386159
      3          6           0        0.612024   -1.050166    1.183528
      4          6           0       -1.001175    0.407076    0.859597
[...]
 Vibration     3          0.650              1.802              1.913
 Vibration     4          0.655              1.786              1.836
 Vibration     5          0.681              1.707              1.523
 Vibration     6          0.704              1.641              1.326
 Vibration     7          0.758              1.492              1.001
 Vibration     8          0.821              1.332              0.757
 Vibration     9          0.873              1.211              0.615
                       Q            Log10(Q)             Ln(Q)
 Total Bot       0.114403D-43        -43.941563       -101.179187
 Total V=0       0.565866D+15         14.752714         33.969378
 Vib (Bot)       0.850899D-57        -57.070122       -131.408812
 Vib (Bot)    1  0.253077D+01          0.403253          0.928523
 Vib (Bot)    2  0.146025D+01          0.164426          0.378606
 Vib (Bot)    3  0.874534D+00         -0.058223         -0.134064
 Vib (Bot)    4  0.833769D+00         -0.078954         -0.181798
 Vib (Bot)    5  0.681805D+00         -0.166340         -0.383012
 Vib (Bot)    6  0.594126D+00         -0.226122         -0.520665
 Vib (Bot)    7  0.460650D+00         -0.336629         -0.775116
 Vib (Bot)    8  0.366254D+00         -0.436218         -1.004428
 Vib (Bot)    9  0.312476D+00         -0.505184         -1.163229
 Vib (V=0)       0.420876D+02          1.624154          3.739753
 Vib (V=0)    1  0.307969D+01          0.488507          1.124828
 Vib (V=0)    2  0.204348D+01          0.310370          0.714653
 Vib (V=0)    3  0.150738D+01          0.178222          0.410371
 Vib (V=0)    4  0.147220D+01          0.167967          0.386757
 Vib (V=0)    5  0.134549D+01          0.128881          0.296760
 Vib (V=0)    6  0.127652D+01          0.106028          0.244139
 Vib (V=0)    7  0.117985D+01          0.071827          0.165389
 Vib (V=0)    8  0.111979D+01          0.049137          0.113143
 Vib (V=0)    9  0.108961D+01          0.037271          0.085821
 Electronic      0.100000D+01          0.000000          0.000000
 Translational   0.466215D+08          7.668586         17.657571
 Rotational      0.288386D+06          5.459974         12.572054
 ***** Axes restored to original set *****
 -------------------------------------------------------------------
 Center     Atomic                   Forces (Hartrees/Bohr)
 Number     Number              X              Y              Z
 -------------------------------------------------------------------
      1        8           0.000002776   -0.000004100   -0.000000397
      2        6          -0.000001559   -0.000001337   -0.000003113
      3        6           0.000001887   -0.000008543   -0.000001058
      4        6          -0.000000610    0.000006017   -0.000002440
      5        6           0.000000551    0.000004651   -0.000005952
      6        6          -0.000007136   -0.000000274    0.000010473
      7        1          -0.000001257   -0.000000677   -0.000001426
      8        1          -0.000001343    0.000002025   -0.000001220
      9        1          -0.000001681   -0.000000929   -0.000000799
     10        1          -0.000000103    0.000002055   -0.000001160
     11        1           0.000002705    0.000000588   -0.000000438
     12        1           0.000004912   -0.000001570    0.000001709
     13        6           0.000000758    0.000000123    0.000006262
     14        8          -0.000002189    0.000000266   -0.000003245
     15        1           0.000002545   -0.000000099    0.000000079
     16        1          -0.000000254    0.000001805    0.000002725
 -------------------------------------------------------------------
 Cartesian Forces:  Max     0.000010473 RMS     0.000003253
 Unable to Open any file for archive entry.
 1\1\GINC-NODE-001\Freq\External='~/scripts/MiMe -H 'wb97xd def2svp' -E
 F 'wb97xd def2svp' -c 12 -m 48GB'\ZDO\C6H8O2\JP2658\17-Jan-2024\0\\# e
 xternal="~/scripts/MiMe -H 'wb97xd def2svp' -EF 'wb97xd def2svp' -c 12
  -m 48GB" opt=(calcall,ts,noeigen,maxcycles=50,maxstep=10,nomicro)\\**
 ***\\0,1\O,1.5382560799,0.9855459736,-0.2698361806\C,-0.2316097941,1.5
 444821306,0.3237128509\C,0.5796629263,-1.0591994642,1.174075853\C,-0.9
 616963048,0.4765927034,0.854828442\C,1.5716738781,-0.162437992,-0.7849
 604953\C,1.0825069532,-1.2846888539,-0.0947922292\H,1.8975632944,-0.26
 36552565,-1.8370785371\H,1.054477486,-0.2997788789,1.7957304811\H,0.89
 74789044,-2.2149041388,-0.6347006903\H,0.1713265536,2.3088712332,0.987
 949889\H,-0.4458626117,1.8545163964,-0.6993724444\H,-1.2112538868,0.46
 81010083,1.9189591773\C,-1.8123115351,-0.2877189368,-0.0649595415\O,-1
 .6648754233,-0.2806276614,-1.266728092\H,0.0418815812,-1.8483387035,1.
 7074145177\H,-2.5984181013,-0.9244595598,0.4123569994\\Version=ES64L-G
 16RevC.01\HF=-383.3748815\RMSD=0.000e+00\RMSF=3.253e-06\ZeroPoint=0.12
 76052\Thermal=0.1353191\ETot=-383.2395624\HTot=-383.2386182\GTot=-383.
 2793497\Dipole=-0.201298,-0.6101617,2.5845784\PG=C01 [X(C6H8O2)]\NImag
 =1\\0.07262551,0.04492407,0.54902748,-0.00660575,0.18185915,0.16079318
 ,0.04547052,-0.08841833,-0.05143516,0.19965022,-0.00979437,-0.02630254
 ,-0.00264714,0.22367091,0.60798242,-0.03386428,0.03625134,0.00898615,0
 .12774428,-0.03929573,0.64503653,-0.02940178,0.04477577,0.02646108,0.0
 5224036,0.01620695,-0.02623054,0.28630557,0.01774157,-0.03643815,-0.01
 423814,-0.03438256,-0.01756220,0.02181268,0.26876282,0.48425345,0.0085
 5815,-0.03052639,-0.02071627,-0.02393159,-0.00195396,0.00760249,-0.118
 76251,0.05370965,0.70734750,-0.02054896,-0.00352507,0.00135064,-0.1453
 4623,-0.15191512,0.06007091,0.01932237,-0.03521365,-0.00790704,0.35141
 444,-0.04407993,0.06245327,0.03280294,-0.05883734,-0.25947284,0.051092
 43,-0.06731564,0.04157249,0.02016222,0.27646647,0.36858995,0.01754812,
 -0.01894589,-0.01385324,0.03412867,0.08915822,-0.14620196,0.02404598,-
 0.01989606,-0.02119191,-0.07660854,-0.00310324,0.68844661,-0.09416981,
 0.01693160,0.02571824,0.02193698,0.01456678,-0.00429926,-0.02000831,0.
 00354858,0.02767637,-0.00067620,-0.01972151,0.00882648,0.27019436,-0.0
 3674555,-0.42046179,-0.14304050,0.11202624,-0.00458968,-0.05214587,-0.
 06165905,0.05299130,0.04840055,0.00999481,-0.07135689,0.02515320,0.047
 00474,0.74282727,0.01658490,-0.18438263,-0.18081114,0.00948595,-0.0052
 2058,-0.01016799,0.02222951,0.02534172,-0.02057175,-0.00001862,-0.0005
 1978,-0.00100404,-0.17971711,0.07256318,0.67792513,0.02693910,-0.03946
 478,-0.01082755,-0.03112628,-0.00266908,0.01437638,-0.08318431,-0.0224
 0145,0.10729920,-0.02016913,0.03662625,-0.00811566,-0.10001574,-0.0582
 8594,0.06536546,0.24028762,0.00056625,-0.09624264,-0.01435596,-0.02625
 528,-0.00340588,0.01310191,0.01544908,-0.12314134,-0.07483343,-0.00238
 084,0.01364078,-0.00904436,-0.07236943,-0.22885369,0.11348569,0.133925
 65,0.68993758,-0.02478382,0.04726679,0.05732945,0.05570361,0.00749187,
 -0.02522812,0.07616175,-0.01931359,-0.36845506,0.02147533,-0.05751144,
 0.02030297,0.03342069,0.03090126,-0.19007786,-0.16051671,0.10509541,0.
 65263896,0.01224773,0.00615838,0.00357529,-0.00107445,0.00054114,0.001
 02187,0.00311828,-0.00319760,0.00219741,0.00408974,0.00147446,-0.00022
 412,-0.07569504,-0.00140490,0.07212690,0.00790982,0.00068555,0.0111893
 8,0.05231604,0.01318569,-0.01375916,-0.04099977,-0.00501651,0.00027478
 ,-0.00022921,-0.00216124,-0.00435237,0.00181537,0.00078161,0.00142716,
 -0.00056387,0.00301950,-0.05787153,-0.00457630,-0.00763560,0.00755558,
 0.02240477,-0.00323371,0.06703980,0.00773128,-0.02219921,-0.01233757,-
 0.00485149,0.00092936,0.00097274,0.00324473,0.00194184,0.00056059,0.00
 181701,0.00183246,-0.00029879,0.07704009,0.00212113,-0.28242998,0.0041
 9230,-0.00517550,-0.00841261,-0.08833225,0.02156683,0.30283313,0.00357
 596,-0.00600081,-0.00304125,-0.00719182,-0.00168079,0.00282625,-0.0878
 8173,-0.11167372,-0.07816137,-0.01310797,0.01028416,-0.00838477,-0.000
 95647,0.00902631,-0.00019646,0.00474347,0.00753491,0.01747301,-0.00025
 188,0.00008989,-0.00044999,0.09846763,-0.00254985,0.00475198,0.0017997
 3,0.00724886,0.00044268,0.00028878,-0.10921117,-0.18899565,-0.11843024
 ,0.01089110,-0.00680246,0.00661012,0.00088138,-0.00745774,0.00249957,0
 .00256312,0.00082340,-0.01071533,-0.00021709,-0.00013242,-0.00045959,0
 .10043803,0.20485545,0.00144139,-0.00188470,0.00179261,-0.00475267,0.0
 0026121,0.00102447,-0.06555041,-0.12481421,-0.14955247,-0.00391405,0.0
 0509332,-0.00232870,0.00008854,0.00018417,-0.00149757,-0.01282653,-0.0
 2119205,-0.00730539,-0.00001721,-0.00000728,0.00036753,0.07289203,0.13
 171143,0.14998650,0.00710873,-0.00882877,0.00004873,-0.00384039,-0.001
 23400,0.00284466,0.00924178,0.00770567,0.00372196,-0.00164504,0.003920
 53,-0.00100786,0.00067359,0.00119762,-0.01138428,-0.05080056,-0.056361
 41,-0.01153272,-0.00136423,0.00082064,-0.00040873,0.00283469,-0.002649
 81,0.00250521,0.03924894,-0.00401263,-0.00272238,0.00405413,-0.0000277
 5,0.00078498,-0.00065230,-0.00242072,0.00320177,0.00326764,0.00083532,
 -0.00054636,0.00033622,0.00011319,-0.01392362,-0.01641270,-0.04865778,
 -0.26730368,-0.12639966,0.00081951,-0.00004013,0.00078175,-0.00111896,
 0.00159947,0.00034557,0.05388456,0.27916272,0.00287008,0.00244124,-0.0
 0214613,-0.00051228,-0.00030022,0.00051263,-0.00701325,-0.02396193,-0.
 01073562,-0.00039870,0.00118711,-0.00039933,0.00173841,0.01656390,0.01
 104940,-0.01523459,-0.12959735,-0.12196080,-0.00077135,-0.00024998,-0.
 00026362,0.00384674,-0.00177551,-0.00317273,0.01664595,0.13487237,0.12
 647534,-0.00478161,0.01486246,0.01086699,-0.07669416,-0.08525827,-0.07
 847401,-0.00233122,0.00133882,0.00107467,-0.00039167,-0.01385102,-0.00
 735809,-0.00348673,-0.00282114,0.00138475,0.00079173,0.00117222,-0.001
 81426,-0.00022180,0.00068184,0.00039200,0.00023920,-0.00046563,-0.0000
 4178,0.00014672,0.00000145,-0.00000711,0.08552709,0.00221821,-0.005463
 41,-0.00382374,-0.08937819,-0.19860676,-0.12513434,0.00072425,-0.00083
 279,-0.00061109,-0.00768808,-0.00698568,-0.01749346,0.00173640,0.00138
 085,-0.00048574,-0.00031407,-0.00043626,0.00112249,-0.00006571,-0.0002
 3049,-0.00014320,0.00007934,-0.00022488,0.00008537,-0.00009233,0.00001
 821,0.00003714,0.09128324,0.20245419,0.00037025,-0.00161685,-0.0006738
 6,-0.07431434,-0.13037941,-0.17183026,0.00014603,0.00024503,-0.0000170
 8,0.00612251,0.01301485,0.01167836,0.00050098,0.00040371,-0.00002143,-
 0.00002740,0.00000962,-0.00011118,0.00009576,-0.00003302,0.00003639,-0
 .00007025,0.00001875,-0.00002636,0.00003508,0.00001156,-0.00002249,0.0
 7451388,0.13608900,0.16966090,-0.01906383,0.01449747,0.00150901,-0.036
 74951,0.01377242,-0.06735980,-0.00552634,0.00281247,0.00240480,0.00518
 592,-0.01494531,0.01573557,-0.00345265,-0.00869832,-0.00236012,0.00241
 718,0.00286755,-0.00465318,0.00024387,0.00009059,0.00014560,0.00055318
 ,-0.00002426,0.00023240,0.00064691,-0.00022976,0.00014077,0.00120083,0
 .00240616,-0.00767577,0.05326196,0.01000460,-0.00742808,-0.00092304,0.
 00080807,-0.07640119,0.08213852,0.00234853,-0.00286532,-0.00086747,0.0
 0347495,0.00429403,0.02140578,0.00266855,0.00463642,0.00146818,-0.0013
 2196,-0.00149819,0.00264995,-0.00031759,-0.00001447,-0.00020003,-0.000
 56477,0.00006051,-0.00018487,-0.00033085,0.00008061,-0.00005596,-0.005
 12594,0.00962593,-0.01850394,-0.01095297,0.07159560,0.00623612,-0.0050
 7304,0.00032874,-0.06436897,0.08181132,-0.32060920,0.00191899,-0.00141
 157,-0.00086951,-0.00012067,0.00512724,-0.00572358,0.00181917,0.002198
 75,0.00172350,-0.00081902,-0.00102350,0.00104741,0.00013108,-0.0000571
 3,-0.00003419,-0.00014975,-0.00007031,-0.00002878,-0.00024767,0.000010
 46,-0.00001863,-0.00060055,0.00660338,-0.00811030,0.05789785,-0.087427
 84,0.33372466,-0.00600104,0.00557498,0.00396828,0.00756998,0.00337188,
 0.01085883,-0.00969865,0.00726190,0.00691282,-0.05506479,-0.02393449,0
 .07127408,-0.00178960,-0.00770177,-0.00007671,0.00188467,0.00230863,-0
 .00547828,0.00022846,0.00030425,0.00029177,-0.00012380,-0.00011579,0.0
 0115165,0.00038379,-0.00005693,0.00005712,-0.00250007,0.00196531,0.000
 25010,0.00217735,-0.00279789,-0.00093394,0.05678102,0.00392529,-0.0054
 6286,-0.00218046,-0.01106126,-0.00109451,0.02824675,0.00869635,-0.0062
 0894,-0.00638802,-0.01665510,-0.03184338,-0.00759343,0.00187353,0.0055
 8339,-0.00062298,-0.00153823,-0.00208695,0.00507736,-0.00050526,-0.000
 11947,-0.00019829,-0.00077624,0.00097379,-0.00048910,-0.00025190,0.000
 05566,-0.00009980,0.00265418,-0.00040242,-0.00054453,-0.00432135,-0.00
 185237,0.00214745,0.01278306,0.04207913,-0.00163956,0.00077621,0.00108
 056,0.00144178,-0.00110403,-0.00613634,-0.00241968,0.00123075,0.000442
 14,0.06362216,-0.00278470,-0.33000797,-0.00043488,-0.00086109,-0.00018
 181,0.00047396,0.00029500,-0.00009156,-0.00006906,0.00004886,0.0000909
 0,-0.00013731,0.00058595,0.00053914,0.00015413,-0.00002336,0.00009569,
 -0.00065981,0.00050459,0.00084661,0.00139244,0.00031228,-0.00005974,-0
 .06737244,-0.00157955,0.34600505,0.00304101,0.00004685,0.00076240,-0.0
 1573638,-0.01502559,-0.00889474,-0.01741600,0.01019568,-0.00338989,-0.
 14566682,-0.08320193,-0.05001951,-0.00150828,-0.00189988,0.00061910,-0
 .00072092,0.00174656,-0.00492685,-0.00055258,-0.00018962,-0.00063741,0
 .00093800,-0.00058632,0.00093195,0.00054668,-0.00029050,-0.00012775,0.
 00399571,-0.00366891,0.00020240,-0.00261218,0.00124385,0.00014520,0.00
 793970,0.01041141,0.00968981,0.44389030,0.00460324,-0.00086609,0.00094
 316,-0.02936941,-0.02169265,-0.01264845,-0.00168452,0.00643561,0.00530
 609,-0.06618694,-0.12683849,-0.04557634,0.00104197,-0.00350408,0.00039
 243,0.00746799,0.00193566,-0.00434180,-0.00145867,-0.00023022,-0.00083
 246,0.00140410,-0.00214623,0.00047032,0.00038890,-0.00051411,-0.000280
 62,-0.00511802,-0.00079638,0.00252955,0.00216726,-0.00144488,-0.002122
 25,0.00473545,0.00142389,0.00637438,0.19877286,0.37172379,0.01215597,-
 0.00438072,-0.00202369,-0.01381530,-0.00387327,0.02513226,-0.01978624,
 0.01274814,0.00280790,-0.02099240,-0.03408428,-0.14502272,0.00512547,-
 0.00136514,0.00262439,0.00752984,0.00300107,-0.01017009,-0.00183625,-0
 .00066631,-0.00182824,0.00201651,-0.00135172,0.00017370,0.00113512,-0.
 00167365,0.00022127,0.00092399,0.00421526,-0.00306840,0.00417704,0.002
 36241,-0.00181458,-0.01898018,-0.01257049,-0.00980965,-0.08995831,-0.0
 1130116,0.98739182,0.00096020,-0.00064187,0.00002705,-0.00322392,-0.00
 095414,0.00206610,-0.00222187,0.00075902,0.00184802,0.02431055,0.00487
 058,-0.02531751,0.00285268,-0.00186723,0.00069105,0.00128950,0.0015633
 6,-0.00467966,-0.00034666,-0.00003521,-0.00033202,0.00034816,-0.000211
 01,-0.00016013,0.00002752,-0.00054242,0.00018601,-0.00069329,0.0012455
 7,-0.00093349,0.00055319,0.00038057,-0.00099802,-0.00196784,-0.0048964
 9,-0.00318927,-0.10401132,-0.02573855,0.08726814,0.07271156,0.00131034
 ,-0.00140245,-0.00168801,0.00005099,-0.00181675,-0.00037348,0.00248329
 ,-0.00170382,-0.00122258,-0.00050578,0.01419246,-0.02949846,0.00147310
 ,0.00177962,0.00074720,-0.00139179,-0.00114148,0.00258722,0.00006322,-
 0.00005817,0.00015462,-0.00032017,0.00052025,-0.00009669,-0.00022212,0
 .00048724,0.00011558,0.00006316,0.00123346,-0.00118616,0.00089893,0.00
 080598,-0.00110103,-0.00416919,-0.00008052,-0.00330332,-0.02366743,-0.
 08598163,0.01080476,0.03078333,0.05692987,-0.00680836,0.00181087,0.001
 44902,0.01359947,0.00787022,-0.00765866,0.01150317,-0.01037857,-0.0042
 0851,-0.03268415,-0.02405091,-0.06365425,-0.00187788,0.00143012,-0.002
 33154,-0.00268160,-0.00230568,0.00684305,0.00094201,0.00035791,0.00132
 445,-0.00160130,0.00171431,-0.00027609,-0.00089781,0.00105509,-0.00011
 512,-0.00006402,-0.00022920,0.00132149,-0.00158478,-0.00176827,0.00065
 748,-0.00292380,-0.00363948,-0.00312892,0.09449852,0.01691241,-0.76299
 755,-0.08963431,0.00060737,0.86784927,0.00110290,0.00014900,-0.0015235
 1,-0.00316188,-0.00042598,0.00061389,-0.11439427,-0.11179186,0.0701828
 2,0.00169406,0.00730402,-0.00313081,0.00509262,0.00068010,0.00497031,0
 .00023745,-0.01053492,0.00220171,-0.00057201,-0.00067921,0.00016802,-0
 .00212775,-0.00605286,0.00816735,-0.00309714,0.00168186,-0.00147293,0.
 00007554,0.00006514,-0.00000746,0.00054764,0.00009961,-0.00014563,0.00
 064845,-0.00018659,-0.00011234,0.00122326,0.00100695,-0.00015503,-0.00
 043118,-0.00028290,0.00005955,0.11343514,0.00027899,-0.00071664,0.0015
 9936,-0.00007811,0.00008287,0.00014147,-0.11452216,-0.20643771,0.10210
 186,-0.00122224,-0.00237343,0.00157520,-0.00234311,0.00020384,-0.00388
 869,0.00302923,0.01004380,-0.00606202,0.00052258,0.00038665,-0.0001792
 6,-0.00682540,-0.00837121,0.01052283,0.00205789,-0.00035894,0.00106343
 ,-0.00004717,0.00006884,-0.00002543,-0.00005304,-0.00012325,-0.0000030
 1,0.00003300,-0.00034071,-0.00013045,-0.00052461,-0.00076311,-0.000086
 37,0.00024633,0.00014234,0.00001371,0.11925542,0.20832508,-0.00015194,
 -0.00088508,0.00078640,-0.00105446,-0.00033151,0.00041580,0.07369219,0
 .09659851,-0.12254362,-0.00089531,0.00188158,-0.00121980,0.00452630,-0
 .00290921,-0.00394688,0.01185258,0.02253058,-0.00675683,0.00008295,0.0
 0119634,-0.00060232,-0.00703291,-0.01220892,0.01028467,-0.00160797,0.0
 0037337,0.00053599,-0.00002350,0.00009892,-0.00001940,0.00011463,-0.00
 001535,0.00002619,0.00011596,-0.00030850,0.00002932,0.00063145,0.00115
 107,0.00023409,-0.00018841,-0.00033441,-0.00021235,-0.07986049,-0.1066
 6161,0.12294991,0.00089536,-0.00104094,-0.00085449,-0.00272302,-0.0031
 7274,-0.00330052,0.00183613,-0.00146568,0.00027618,-0.00340027,-0.0150
 5929,0.00860797,0.00100861,0.00115395,0.00029536,-0.00048361,0.0000821
 1,0.00076000,-0.00007530,-0.00002291,-0.00001091,-0.00005888,0.0000612
 9,-0.00014774,-0.00011198,0.00002155,0.00005289,-0.00087625,-0.0005163
 2,0.00079174,0.00061647,0.00038324,0.00023581,-0.00046763,-0.00015140,
 -0.00073993,-0.17335019,-0.09203261,0.04519164,0.00984272,-0.00656699,
 0.02015530,-0.00027283,0.00019242,-0.00020106,0.16762068,-0.00157591,0
 .00103345,0.00083830,-0.00098033,0.00137727,-0.00259450,-0.00047253,0.
 00008367,0.00006980,-0.01715145,0.00004939,0.00747637,-0.00042527,-0.0
 0138366,-0.00038857,0.00006843,0.00017330,-0.00025327,0.00013570,0.000
 12445,0.00005956,0.00010412,0.00010307,-0.00000531,-0.00000462,0.00001
 858,0.00004063,0.00062981,-0.00080242,-0.00003274,-0.00028784,0.000528
 66,0.00039109,0.00043759,-0.00062373,-0.00034151,-0.09336242,-0.136741
 07,0.03822148,-0.00496183,0.01609359,0.01060010,-0.00028778,0.00023157
 ,-0.00017577,0.11813433,0.11973389,0.00035747,-0.00051108,0.00001579,-
 0.00306748,-0.00241634,-0.00185053,0.00035919,0.00038575,0.00010118,-0
 .01091907,-0.01013980,0.01047836,-0.00015159,0.00040185,-0.00028043,-0
 .00004066,0.00000856,0.00040767,-0.00011240,-0.00000720,0.00002161,0.0
 0017083,-0.00021701,0.00001948,-0.00000380,0.00005352,-0.00005584,-0.0
 0011314,-0.00083538,0.00035702,-0.00011646,-0.00039036,-0.00023945,0.0
 0088473,0.00074310,0.00028658,0.05047363,0.04302366,-0.08185051,0.0333
 4646,0.02378740,-0.03486178,0.00004455,0.00001899,0.00003881,-0.071112
 25,-0.05390565,0.10741206\\-0.00000278,0.00000410,0.00000040,0.0000015
 6,0.00000134,0.00000311,-0.00000189,0.00000854,0.00000106,0.00000061,-
 0.00000602,0.00000244,-0.00000055,-0.00000465,0.00000595,0.00000714,0.
 00000027,-0.00001047,0.00000126,0.00000068,0.00000143,0.00000134,-0.00
 000202,0.00000122,0.00000168,0.00000093,0.00000080,0.00000010,-0.00000
 205,0.00000116,-0.00000271,-0.00000059,0.00000044,-0.00000491,0.000001
 57,-0.00000171,-0.00000076,-0.00000012,-0.00000626,0.00000219,-0.00000
 027,0.00000324,-0.00000254,0.00000010,-0.00000008,0.00000025,-0.000001
 81,-0.00000272\\\@
 The archive entry for this job was punched.


 EVERYTHING'S GOT A MORAL, IF ONLY YOU CAN FIND IT.

                                    -- LEWIS CARROL, ALICE IN WONDERLAND
 Job cpu time:       0 days  1 hours 11 minutes  8.7 seconds.
 Elapsed time:       0 days  0 hours 11 minutes 50.3 seconds.
 File lengths (MBytes):  RWF=      6 Int=      0 D2E=      0 Chk=      1 Scr=      1
 Normal termination of Gaussian 16 at Wed Jan 17 20:15:41 2024.
