Unloading slurm/anatra/current
  ERROR: No such file or directory on
    '/cm/local/modulefiles/slurm/anatra/current'
environment: line 0: unalias: gv: not found
environment: line 0: unalias: sl: not found
 Entering Gaussian System, Link 0=g16
 Initial command:
 /apps/gaussian/g16/C.01/g16/l1.exe "/local/jobs/1158119/Gau-717949.inp" -scrdir="/local/jobs/1158119/"
 Entering Link 1 = /apps/gaussian/g16/C.01/g16/l1.exe PID=    717950.
  
 Copyright (c) 1988-2019, Gaussian, Inc.  All Rights Reserved.
  
 This is part of the Gaussian(R) 16 program.  It is based on
 the Gaussian(R) 09 system (copyright 2009, Gaussian, Inc.),
 the Gaussian(R) 03 system (copyright 2003, Gaussian, Inc.),
 the Gaussian(R) 98 system (copyright 1998, Gaussian, Inc.),
 the Gaussian(R) 94 system (copyright 1995, Gaussian, Inc.),
 the Gaussian 92(TM) system (copyright 1992, Gaussian, Inc.),
 the Gaussian 90(TM) system (copyright 1990, Gaussian, Inc.),
 the Gaussian 88(TM) system (copyright 1988, Gaussian, Inc.),
 the Gaussian 86(TM) system (copyright 1986, Carnegie Mellon
 University), and the Gaussian 82(TM) system (copyright 1983,
 Carnegie Mellon University). Gaussian is a federally registered
 trademark of Gaussian, Inc.
  
 This software contains proprietary and confidential information,
 including trade secrets, belonging to Gaussian, Inc.
  
 This software is provided under written license and may be
 used, copied, transmitted, or stored only in accord with that
 written license.
  
 The following legend is applicable only to US Government
 contracts under FAR:
  
                    RESTRICTED RIGHTS LEGEND
  
 Use, reproduction and disclosure by the US Government is
 subject to restrictions as set forth in subparagraphs (a)
 and (c) of the Commercial Computer Software - Restricted
 Rights clause in FAR 52.227-19.
  
 Gaussian, Inc.
 340 Quinnipiac St., Bldg. 40, Wallingford CT 06492
  
  
 ---------------------------------------------------------------
 Warning -- This program may not be used in any manner that
 competes with the business of Gaussian, Inc. or will provide
 assistance to any competitor of Gaussian, Inc.  The licensee
 of this program is prohibited from giving any competitor of
 Gaussian, Inc. access to this program.  By using this program,
 the user acknowledges that Gaussian, Inc. is engaged in the
 business of creating and licensing software in the field of
 computational chemistry and represents and warrants to the
 licensee that it is not a competitor of Gaussian, Inc. and that
 it will not use this program in any manner prohibited above.
 ---------------------------------------------------------------
  

 Cite this work as:
 Gaussian 16, Revision C.01,
 M. J. Frisch, G. W. Trucks, H. B. Schlegel, G. E. Scuseria, 
 M. A. Robb, J. R. Cheeseman, G. Scalmani, V. Barone, 
 G. A. Petersson, H. Nakatsuji, X. Li, M. Caricato, A. V. Marenich, 
 J. Bloino, B. G. Janesko, R. Gomperts, B. Mennucci, H. P. Hratchian, 
 J. V. Ortiz, A. F. Izmaylov, J. L. Sonnenberg, D. Williams-Young, 
 F. Ding, F. Lipparini, F. Egidi, J. Goings, B. Peng, A. Petrone, 
 T. Henderson, D. Ranasinghe, V. G. Zakrzewski, J. Gao, N. Rega, 
 G. Zheng, W. Liang, M. Hada, M. Ehara, K. Toyota, R. Fukuda, 
 J. Hasegawa, M. Ishida, T. Nakajima, Y. Honda, O. Kitao, H. Nakai, 
 T. Vreven, K. Throssell, J. A. Montgomery, Jr., J. E. Peralta, 
 F. Ogliaro, M. J. Bearpark, J. J. Heyd, E. N. Brothers, K. N. Kudin, 
 V. N. Staroverov, T. A. Keith, R. Kobayashi, J. Normand, 
 K. Raghavachari, A. P. Rendell, J. C. Burant, S. S. Iyengar, 
 J. Tomasi, M. Cossi, J. M. Millam, M. Klene, C. Adamo, R. Cammi, 
 J. W. Ochterski, R. L. Martin, K. Morokuma, O. Farkas, 
 J. B. Foresman, and D. J. Fox, Gaussian, Inc., Wallingford CT, 2019.
 
 ******************************************
 Gaussian 16:  ES64L-G16RevC.01  3-Jul-2019
                17-Jan-2024 
 ******************************************
 %nprocshared=12
 Will use up to   12 processors via shared memory.
 %mem=48GB
 ----------------------------------------------------------------------
 # external="~/scripts/MiMe -H 'wb97xd def2svp' -EF 'wb97xd def2svp' -c
  12 -m 48GB" opt=(calcall,ts,noeigen,maxcycles=50,maxstep=10,nomicro)
 ----------------------------------------------------------------------
 1/5=1,6=50,8=10,10=4,11=1,18=20,26=1,38=1/1,3;
 2/9=110,12=2,17=6,18=5,40=1/2;
 3/11=9,25=1,30=1,41=9900000,43=2,71=2,140=1/1;
 4/20=17,22=2,24=3,113=1,114=1/2;
 6/7=2,8=2,9=2,10=2,18=1/1;
 7/25=1,44=-1/16;
 1/5=1,6=50,8=10,10=4,11=1,18=20,26=1/3(3);
 2/9=110/2;
 7/8=1,9=1,25=1,44=-1/16;
 99//99;
 2/9=110/2;
 3/11=9,25=1,30=1,41=9900000,43=2,71=2,140=1/1;
 4/16=2,20=17,22=2,24=3,113=1,114=1/2;
 7/25=1,44=-1/16;
 1/5=1,6=50,8=10,10=4,11=1,18=20,26=1/3(-4);
 2/9=110/2;
 6/7=2,8=2,9=2,10=2,18=1/1;
 7/8=1,9=1,25=1,44=-1/16;
 99//99;
 -----
 *****
 -----
 Symbolic Z-matrix:
 Charge =  0 Multiplicity = 1
 C                    -1.3702   -1.1403    0.2064 
 C                    -0.7558    1.0745    0.4479 
 C                     0.8224   -1.0488   -0.4901 
 C                     0.4828    1.0089   -0.3265 
 C                    -0.5147   -1.684     1.261 
 C                     0.7603   -1.6448    0.8547 
 H                     1.6214   -1.9327    1.4402 
 C                     2.1344   -0.8467   -1.1832 
 H                     2.732    -1.7637   -1.2043 
 H                     1.9589   -0.5494   -2.2243 
 C                     2.8795    0.2805   -0.4393 
 H                     3.5219   -0.1491    0.3372 
 H                     3.493     0.8687   -1.1278 
 C                     1.8545    1.1796    0.2336 
 O                     2.1015    1.9406    1.1586 
 H                    -0.8674   -2.0171    2.2257 
 H                     0.4116    1.3562   -1.3585 
 H                    -0.7091    1.1299    1.5312 
 C                    -0.5513   -1.3121   -1.0671 
 H                    -0.6272   -2.3346   -1.4563 
 H                    -0.8476   -0.617    -1.8576 
 Cl                   -2.0176    2.097    -0.1611 
 C                    -2.8412   -1.3691    0.2271 
 H                    -3.3446   -0.7133   -0.4888 
 H                    -3.0749   -2.4056   -0.0352 
 H                    -3.253    -1.1641    1.2206 
 

 GradGradGradGradGradGradGradGradGradGradGradGradGradGradGradGradGradGrad
 Berny optimization.
 Initialization pass.
                           ----------------------------
                           !    Initial Parameters    !
                           ! (Angstroms and Degrees)  !
 --------------------------                            --------------------------
 ! Name  Definition              Value          Derivative Info.                !
 --------------------------------------------------------------------------------
 ! R1    R(1,5)                  1.4628         calculate D2E/DX2 analytically  !
 ! R2    R(1,19)                 1.5238         calculate D2E/DX2 analytically  !
 ! R3    R(1,23)                 1.4888         calculate D2E/DX2 analytically  !
 ! R4    R(2,4)                  1.4622         calculate D2E/DX2 analytically  !
 ! R5    R(2,18)                 1.0857         calculate D2E/DX2 analytically  !
 ! R6    R(2,22)                 1.7345         calculate D2E/DX2 analytically  !
 ! R7    R(3,6)                  1.4723         calculate D2E/DX2 analytically  !
 ! R8    R(3,8)                  1.4975         calculate D2E/DX2 analytically  !
 ! R9    R(3,19)                 1.513          calculate D2E/DX2 analytically  !
 ! R10   R(4,14)                 1.4914         calculate D2E/DX2 analytically  !
 ! R11   R(4,17)                 1.0912         calculate D2E/DX2 analytically  !
 ! R12   R(5,6)                  1.3387         calculate D2E/DX2 analytically  !
 ! R13   R(5,16)                 1.0798         calculate D2E/DX2 analytically  !
 ! R14   R(6,7)                  1.0804         calculate D2E/DX2 analytically  !
 ! R15   R(8,9)                  1.0947         calculate D2E/DX2 analytically  !
 ! R16   R(8,10)                 1.0968         calculate D2E/DX2 analytically  !
 ! R17   R(8,11)                 1.5424         calculate D2E/DX2 analytically  !
 ! R18   R(11,12)                1.0955         calculate D2E/DX2 analytically  !
 ! R19   R(11,13)                1.0938         calculate D2E/DX2 analytically  !
 ! R20   R(11,14)                1.5205         calculate D2E/DX2 analytically  !
 ! R21   R(14,15)                1.223          calculate D2E/DX2 analytically  !
 ! R22   R(19,20)                1.0967         calculate D2E/DX2 analytically  !
 ! R23   R(19,21)                1.0935         calculate D2E/DX2 analytically  !
 ! R24   R(23,24)                1.0936         calculate D2E/DX2 analytically  !
 ! R25   R(23,25)                1.0944         calculate D2E/DX2 analytically  !
 ! R26   R(23,26)                1.0948         calculate D2E/DX2 analytically  !
 ! A1    A(5,1,19)             104.2605         calculate D2E/DX2 analytically  !
 ! A2    A(5,1,23)             120.7107         calculate D2E/DX2 analytically  !
 ! A3    A(19,1,23)            121.6864         calculate D2E/DX2 analytically  !
 ! A4    A(4,2,18)             119.6219         calculate D2E/DX2 analytically  !
 ! A5    A(4,2,22)             117.1749         calculate D2E/DX2 analytically  !
 ! A6    A(18,2,22)            110.5813         calculate D2E/DX2 analytically  !
 ! A7    A(6,3,8)              120.9539         calculate D2E/DX2 analytically  !
 ! A8    A(6,3,19)             103.8625         calculate D2E/DX2 analytically  !
 ! A9    A(8,3,19)             129.9718         calculate D2E/DX2 analytically  !
 ! A10   A(2,4,14)             125.1017         calculate D2E/DX2 analytically  !
 ! A11   A(2,4,17)             115.5514         calculate D2E/DX2 analytically  !
 ! A12   A(14,4,17)            112.2564         calculate D2E/DX2 analytically  !
 ! A13   A(1,5,6)              109.1057         calculate D2E/DX2 analytically  !
 ! A14   A(1,5,16)             124.5925         calculate D2E/DX2 analytically  !
 ! A15   A(6,5,16)             126.2457         calculate D2E/DX2 analytically  !
 ! A16   A(3,6,5)              109.2228         calculate D2E/DX2 analytically  !
 ! A17   A(3,6,7)              124.7004         calculate D2E/DX2 analytically  !
 ! A18   A(5,6,7)              125.9312         calculate D2E/DX2 analytically  !
 ! A19   A(3,8,9)              111.9706         calculate D2E/DX2 analytically  !
 ! A20   A(3,8,10)             109.6154         calculate D2E/DX2 analytically  !
 ! A21   A(3,8,11)             107.3751         calculate D2E/DX2 analytically  !
 ! A22   A(9,8,10)             107.223          calculate D2E/DX2 analytically  !
 ! A23   A(9,8,11)             110.9612         calculate D2E/DX2 analytically  !
 ! A24   A(10,8,11)            109.6933         calculate D2E/DX2 analytically  !
 ! A25   A(8,11,12)            109.7873         calculate D2E/DX2 analytically  !
 ! A26   A(8,11,13)            111.122          calculate D2E/DX2 analytically  !
 ! A27   A(8,11,14)            108.6587         calculate D2E/DX2 analytically  !
 ! A28   A(12,11,13)           109.1555         calculate D2E/DX2 analytically  !
 ! A29   A(12,11,14)           108.2705         calculate D2E/DX2 analytically  !
 ! A30   A(13,11,14)           109.7975         calculate D2E/DX2 analytically  !
 ! A31   A(4,14,11)            112.714          calculate D2E/DX2 analytically  !
 ! A32   A(4,14,15)            122.7514         calculate D2E/DX2 analytically  !
 ! A33   A(11,14,15)           124.5081         calculate D2E/DX2 analytically  !
 ! A34   A(1,19,3)              98.6029         calculate D2E/DX2 analytically  !
 ! A35   A(1,19,20)            111.378          calculate D2E/DX2 analytically  !
 ! A36   A(1,19,21)            112.7595         calculate D2E/DX2 analytically  !
 ! A37   A(3,19,20)            111.1257         calculate D2E/DX2 analytically  !
 ! A38   A(3,19,21)            114.2711         calculate D2E/DX2 analytically  !
 ! A39   A(20,19,21)           108.5024         calculate D2E/DX2 analytically  !
 ! A40   A(1,23,24)            110.7039         calculate D2E/DX2 analytically  !
 ! A41   A(1,23,25)            110.6828         calculate D2E/DX2 analytically  !
 ! A42   A(1,23,26)            110.8222         calculate D2E/DX2 analytically  !
 ! A43   A(24,23,25)           108.2245         calculate D2E/DX2 analytically  !
 ! A44   A(24,23,26)           107.9756         calculate D2E/DX2 analytically  !
 ! A45   A(25,23,26)           108.331          calculate D2E/DX2 analytically  !
 ! D1    D(19,1,5,6)            23.0327         calculate D2E/DX2 analytically  !
 ! D2    D(19,1,5,16)         -159.5491         calculate D2E/DX2 analytically  !
 ! D3    D(23,1,5,6)           164.4171         calculate D2E/DX2 analytically  !
 ! D4    D(23,1,5,16)          -18.1646         calculate D2E/DX2 analytically  !
 ! D5    D(5,1,19,3)           -35.7111         calculate D2E/DX2 analytically  !
 ! D6    D(5,1,19,20)           81.0757         calculate D2E/DX2 analytically  !
 ! D7    D(5,1,19,21)         -156.6622         calculate D2E/DX2 analytically  !
 ! D8    D(23,1,19,3)         -176.6196         calculate D2E/DX2 analytically  !
 ! D9    D(23,1,19,20)         -59.8327         calculate D2E/DX2 analytically  !
 ! D10   D(23,1,19,21)          62.4294         calculate D2E/DX2 analytically  !
 ! D11   D(5,1,23,24)          166.9633         calculate D2E/DX2 analytically  !
 ! D12   D(5,1,23,25)          -73.0335         calculate D2E/DX2 analytically  !
 ! D13   D(5,1,23,26)           47.1809         calculate D2E/DX2 analytically  !
 ! D14   D(19,1,23,24)         -58.3383         calculate D2E/DX2 analytically  !
 ! D15   D(19,1,23,25)          61.6649         calculate D2E/DX2 analytically  !
 ! D16   D(19,1,23,26)        -178.1206         calculate D2E/DX2 analytically  !
 ! D17   D(18,2,4,14)           -7.977          calculate D2E/DX2 analytically  !
 ! D18   D(18,2,4,17)         -156.0965         calculate D2E/DX2 analytically  !
 ! D19   D(22,2,4,14)          130.3078         calculate D2E/DX2 analytically  !
 ! D20   D(22,2,4,17)          -17.8117         calculate D2E/DX2 analytically  !
 ! D21   D(8,3,6,5)            178.4424         calculate D2E/DX2 analytically  !
 ! D22   D(8,3,6,7)              2.6139         calculate D2E/DX2 analytically  !
 ! D23   D(19,3,6,5)           -24.693          calculate D2E/DX2 analytically  !
 ! D24   D(19,3,6,7)           159.4785         calculate D2E/DX2 analytically  !
 ! D25   D(6,3,8,9)             51.8848         calculate D2E/DX2 analytically  !
 ! D26   D(6,3,8,10)           170.7483         calculate D2E/DX2 analytically  !
 ! D27   D(6,3,8,11)           -70.1496         calculate D2E/DX2 analytically  !
 ! D28   D(19,3,8,9)           -98.2635         calculate D2E/DX2 analytically  !
 ! D29   D(19,3,8,10)           20.6            calculate D2E/DX2 analytically  !
 ! D30   D(19,3,8,11)          139.702          calculate D2E/DX2 analytically  !
 ! D31   D(6,3,19,1)            36.0362         calculate D2E/DX2 analytically  !
 ! D32   D(6,3,19,20)          -80.9441         calculate D2E/DX2 analytically  !
 ! D33   D(6,3,19,21)          155.8657         calculate D2E/DX2 analytically  !
 ! D34   D(8,3,19,1)          -170.0468         calculate D2E/DX2 analytically  !
 ! D35   D(8,3,19,20)           72.9729         calculate D2E/DX2 analytically  !
 ! D36   D(8,3,19,21)          -50.2173         calculate D2E/DX2 analytically  !
 ! D37   D(2,4,14,11)          143.9173         calculate D2E/DX2 analytically  !
 ! D38   D(2,4,14,15)          -34.2897         calculate D2E/DX2 analytically  !
 ! D39   D(17,4,14,11)         -67.0704         calculate D2E/DX2 analytically  !
 ! D40   D(17,4,14,15)         114.7226         calculate D2E/DX2 analytically  !
 ! D41   D(1,5,6,3)              0.9437         calculate D2E/DX2 analytically  !
 ! D42   D(1,5,6,7)            176.7081         calculate D2E/DX2 analytically  !
 ! D43   D(16,5,6,3)          -176.4209         calculate D2E/DX2 analytically  !
 ! D44   D(16,5,6,7)            -0.6565         calculate D2E/DX2 analytically  !
 ! D45   D(3,8,11,12)           92.0212         calculate D2E/DX2 analytically  !
 ! D46   D(3,8,11,13)         -147.1267         calculate D2E/DX2 analytically  !
 ! D47   D(3,8,11,14)          -26.2174         calculate D2E/DX2 analytically  !
 ! D48   D(9,8,11,12)          -30.6399         calculate D2E/DX2 analytically  !
 ! D49   D(9,8,11,13)           90.2121         calculate D2E/DX2 analytically  !
 ! D50   D(9,8,11,14)         -148.8786         calculate D2E/DX2 analytically  !
 ! D51   D(10,8,11,12)        -148.9268         calculate D2E/DX2 analytically  !
 ! D52   D(10,8,11,13)         -28.0748         calculate D2E/DX2 analytically  !
 ! D53   D(10,8,11,14)          92.8345         calculate D2E/DX2 analytically  !
 ! D54   D(8,11,14,4)          -17.7035         calculate D2E/DX2 analytically  !
 ! D55   D(8,11,14,15)         160.4666         calculate D2E/DX2 analytically  !
 ! D56   D(12,11,14,4)        -136.897          calculate D2E/DX2 analytically  !
 ! D57   D(12,11,14,15)         41.273          calculate D2E/DX2 analytically  !
 ! D58   D(13,11,14,4)         104.0181         calculate D2E/DX2 analytically  !
 ! D59   D(13,11,14,15)        -77.8119         calculate D2E/DX2 analytically  !
 --------------------------------------------------------------------------------
 Trust Radius=1.00D-01 FncErr=1.00D-07 GrdErr=1.00D-07 EigMax=2.50D+02 EigMin=1.00D-04
 Number of steps in this run=     50 maximum allowed number of steps=    156.
 Search for a saddle point of order  1.
 GradGradGradGradGradGradGradGradGradGradGradGradGradGradGradGradGradGrad

                          Input orientation:                          
 ---------------------------------------------------------------------
 Center     Atomic      Atomic             Coordinates (Angstroms)
 Number     Number       Type             X           Y           Z
 ---------------------------------------------------------------------
      1          6           0       -1.370200   -1.140300    0.206400
      2          6           0       -0.755800    1.074500    0.447900
      3          6           0        0.822400   -1.048800   -0.490100
      4          6           0        0.482800    1.008900   -0.326500
      5          6           0       -0.514700   -1.684000    1.261000
      6          6           0        0.760300   -1.644800    0.854700
      7          1           0        1.621400   -1.932700    1.440200
      8          6           0        2.134400   -0.846700   -1.183200
      9          1           0        2.732000   -1.763700   -1.204300
     10          1           0        1.958900   -0.549400   -2.224300
     11          6           0        2.879500    0.280500   -0.439300
     12          1           0        3.521900   -0.149100    0.337200
     13          1           0        3.493000    0.868700   -1.127800
     14          6           0        1.854500    1.179600    0.233600
     15          8           0        2.101500    1.940600    1.158600
     16          1           0       -0.867400   -2.017100    2.225700
     17          1           0        0.411600    1.356200   -1.358500
     18          1           0       -0.709100    1.129900    1.531200
     19          6           0       -0.551300   -1.312100   -1.067100
     20          1           0       -0.627200   -2.334600   -1.456300
     21          1           0       -0.847600   -0.617000   -1.857600
     22         17           0       -2.017600    2.097000   -0.161100
     23          6           0       -2.841200   -1.369100    0.227100
     24          1           0       -3.344600   -0.713300   -0.488800
     25          1           0       -3.074900   -2.405600   -0.035200
     26          1           0       -3.253000   -1.164100    1.220600
 ---------------------------------------------------------------------
                    Distance matrix (angstroms):
                    1          2          3          4          5
     1  C    0.000000
     2  C    2.311093   0.000000
     3  C    2.302386   2.806949   0.000000
     4  C    2.887326   1.462234   2.091942   0.000000
     5  C    1.462761   2.885928   2.292960   3.281291   0.000000
     6  C    2.283384   3.139847   1.472263   2.917938   1.338746
     7  H    3.331641   3.959671   2.268422   3.615335   2.157982
     8  C    3.781456   3.834678   1.497523   2.627731   3.700394
     9  H    4.382550   4.790605   2.160494   3.676513   4.077391
    10  H    4.164177   4.140930   2.132717   2.865103   4.421915
    11  C    4.527201   3.825306   2.449751   2.507481   4.274444
    12  H    4.993218   4.450637   2.963307   3.319276   4.416273
    13  H    5.428341   4.536241   3.348966   3.118179   5.318299
    14  C    3.972577   2.621190   2.560222   1.491446   3.856017
    15  O    4.738284   3.069102   3.645658   2.386164   4.471321
    16  H    2.258132   3.568055   3.341945   4.182516   1.079814
    17  H    3.443288   2.169161   2.589768   1.091197   4.118571
    18  H    2.710342   1.085720   3.343334   2.210501   2.833519
    19  C    1.523783   2.834238   1.513046   2.646676   2.357901
    20  H    2.177837   3.906978   2.165217   3.699668   2.796365
    21  H    2.192498   2.860932   2.201229   2.599573   3.312850
    22  Cl   3.321791   1.734510   4.250870   2.731908   4.310109
    23  C    1.488831   3.220066   3.746856   4.124358   2.565290
    24  H    2.136326   3.282609   4.180485   4.200155   3.465890
    25  H    2.136670   4.209834   4.151721   4.939726   2.958964
    26  H    2.138715   3.441570   4.421388   4.590387   2.787511
                    6          7          8          9         10
     6  C    0.000000
     7  H    1.080366   0.000000
     8  C    2.584212   2.885272   0.000000
     9  H    2.853282   2.873217   1.094742   0.000000
    10  H    3.480917   3.931410   1.096849   1.764259   0.000000
    11  C    3.142010   3.164426   1.542446   2.187632   2.173123
    12  H    3.182980   2.830148   2.173343   2.367931   3.027291
    13  H    4.208995   4.236196   2.188940   2.741259   2.359403
    14  C    3.091969   3.346137   2.488284   3.391250   3.006927
    15  O    3.840087   3.913087   3.640625   4.438768   4.202909
    16  H    2.160476   2.611180   4.690548   4.978433   5.472167
    17  H    3.745110   4.484774   2.802060   3.891248   2.602894
    18  H    3.211814   3.849549   4.400046   5.262799   4.903270
    19  C    2.350383   3.375252   2.728197   3.317051   2.867390
    20  H    2.782391   3.688826   3.148788   3.416673   3.234915
    21  H    3.316366   4.324640   3.065926   3.815135   2.831162
    22  Cl   4.769659   5.660827   5.191258   6.209023   5.203151
    23  C    3.666155   4.658761   5.197927   5.767597   5.451810
    24  H    4.418471   5.465266   5.524439   6.208087   5.582646
    25  H    4.009925   4.945268   5.557417   5.958097   5.794547
    26  H    4.058514   4.939509   5.907883   6.485359   6.277666
                   11         12         13         14         15
    11  C    0.000000
    12  H    1.095530   0.000000
    13  H    1.093798   1.784090   0.000000
    14  C    1.520461   2.134572   2.152847   0.000000
    15  O    2.431975   2.656893   2.883204   1.223011   0.000000
    16  H    5.140083   5.130479   6.211835   4.647160   5.061270
    17  H    2.844748   3.849064   3.128243   2.155906   3.087568
    18  H    4.181196   4.578519   4.979573   2.873722   2.948820
    19  C    3.834175   4.462688   4.595208   3.699765   4.750910
    20  H    4.491100   5.020765   5.229253   4.622142   5.706211
    21  H    4.087586   4.912088   4.645505   3.860341   4.933150
    22  Cl   5.230550   5.998277   5.727996   3.998821   4.328170
    23  C    5.990966   6.479935   6.853145   5.342800   6.020971
    24  H    6.303135   6.938978   7.047256   5.579926   6.278305
    25  H    6.544716   6.981994   7.419712   6.101221   6.863653
    26  H    6.515343   6.907235   7.426693   5.705581   6.189804
                   16         17         18         19         20
    16  H    0.000000
    17  H    5.085419   0.000000
    18  H    3.226608   3.107659   0.000000
    19  C    3.382229   2.851651   3.569233   0.000000
    20  H    3.703461   3.835450   4.575437   1.096697   0.000000
    21  H    4.316713   2.393367   3.815076   1.093548   1.777574
    22  Cl   4.893423   2.807769   2.347623   3.820057   4.821808
    23  C    2.882740   4.530132   3.534336   2.630940   2.944116
    24  H    3.899349   4.375871   3.797848   2.914707   3.308917
    25  H    3.183655   5.296975   4.533253   2.937536   2.831219
    26  H    2.725605   5.141300   3.439525   3.543255   3.928192
                   21         22         23         24         25
    21  H    0.000000
    22  Cl   3.407757   0.000000
    23  C    2.980951   3.583694   0.000000
    24  H    2.849192   3.125076   1.093617   0.000000
    25  H    3.388377   4.626785   1.094417   1.772673   0.000000
    26  H    3.944690   3.751011   1.094827   1.770215   1.774845
                   26
    26  H    0.000000
 Stoichiometry    C11H13ClO
 Framework group  C1[X(C11H13ClO)]
 Deg. of freedom    72
 Full point group                 C1      NOp   1
 Largest Abelian subgroup         C1      NOp   1
 Largest concise Abelian subgroup C1      NOp   1
                         Standard orientation:                         
 ---------------------------------------------------------------------
 Center     Atomic      Atomic             Coordinates (Angstroms)
 Number     Number       Type             X           Y           Z
 ---------------------------------------------------------------------
      1          6           0       -1.441238   -1.145665    0.162447
      2          6           0       -0.738135    1.047558    0.353671
      3          6           0        0.784761   -1.178142   -0.424794
      4          6           0        0.532613    0.897341   -0.353975
      5          6           0       -0.664408   -1.685256    1.278265
      6          6           0        0.629432   -1.718174    0.936013
      7          1           0        1.446623   -2.020862    1.574581
      8          6           0        2.137078   -1.061207   -1.057363
      9          1           0        2.692155   -2.003820   -1.014576
     10          1           0        2.026706   -0.797082   -2.116198
     11          6           0        2.895894    0.060027   -0.318327
     12          1           0        3.478994   -0.367049    0.504951
     13          1           0        3.568836    0.593406   -0.995859
     14          6           0        1.881601    1.028935    0.268381
     15          8           0        2.117711    1.813619    1.176279
     16          1           0       -1.078943   -1.964768    2.235361
     17          1           0        0.528161    1.207128   -1.400265
     18          1           0       -0.742108    1.142847    1.435195
     19          6           0       -0.569655   -1.402744   -1.060733
     20          1           0       -0.673360   -2.435232   -1.415638
     21          1           0       -0.794532   -0.726448   -1.890131
     22         17           0       -1.920157    2.100352   -0.355537
     23          6           0       -2.920453   -1.308333    0.116841
     24          1           0       -3.357428   -0.659232   -0.647174
     25          1           0       -3.188467   -2.342906   -0.118907
     26          1           0       -3.370600   -1.046949    1.080009
 ---------------------------------------------------------------------
 Rotational constants (GHZ):           0.9244285           0.6743049           0.4755489
 Standard basis: STO-3G (5D, 7F)
 There are    82 symmetry adapted cartesian basis functions of A   symmetry.
 There are    82 symmetry adapted basis functions of A   symmetry.
    82 basis functions,   246 primitive gaussians,    82 cartesian basis functions
    52 alpha electrons       52 beta electrons
       nuclear repulsion energy       908.0129164764 Hartrees.
 NAtoms=   26 NActive=   26 NUniq=   26 SFac= 1.00D+00 NAtFMM=   60 NAOKFM=F Big=F
 Integral buffers will be    131072 words long.
 Raffenetti 1 integral format.
 Two-electron integral symmetry is turned on.
 External calculation of energy, first and second derivatives.
 Running external command "~/scripts/MiMe -H 'wb97xd def2svp' -EF 'wb97xd def2svp' -c 12 -m 48GB R"
         input file       "/local/jobs/1158119/Gau-717950.EIn"
         output file      "/local/jobs/1158119/Gau-717950.EOu"
         message file     "/local/jobs/1158119/Gau-717950.EMs"
         fchk file        "/local/jobs/1158119/Gau-717950.EFC"
         mat. el file     "/local/jobs/1158119/Gau-717950.EUF"
 Read checkpoint file Gau-717950_H.chk type G16
 Write formatted file Gau-717950_H.fchk

deriv: 2

spelevel: wb97xd def2svp
gradlevel: wb97xd def2svp
hesslevel: wb97xd def2svp

runspe: False
runforce: False
runfreq: True

Running Gaussian ...

Parsing files ...
SPE file: Gau-717950_H.out
FORCE file: Gau-717950_H.out
HESS file: Gau-717950_H.out

 ExternalExternalExternalExternalExternalExternalExternalExternalExternalExternal
 Output from external command:
 "~/scripts/MiMe -H 'wb97xd def2svp' -EF 'wb97xd def2svp' -c 12 -m 48GB R /local/jobs/1158119/Gau-717950.EIn /local/jobs/1158119/Gau-717950.EOu /local/jobs/1158119/Gau-717950.EMs /local/jobs/1158119/Gau-717950.EFC /local/jobs/1158119/Gau-717950.EUF"
  
 --------------------------------------------------
 Hessian calculation at wb97xd def2svp
 ExternalExternalExternalExternalExternalExternalExternalExternalExternalExternal

 Recovered energy= -961.646326437     dipole=     -0.013600000000     -3.841900000000     -1.684100000000
 Energy=    -961.646326     NIter=   0.
 Dipole moment=      -0.013600      -3.841900      -1.684100
 ***** Axes restored to original set *****
 -------------------------------------------------------------------
 Center     Atomic                   Forces (Hartrees/Bohr)
 Number     Number              X              Y              Z
 -------------------------------------------------------------------
      1        6           0.015534276   -0.002419620    0.014527655
      2        6           0.025165460   -0.022585668   -0.018047436
      3        6          -0.004429335    0.012610082    0.015743331
      4        6          -0.021236225   -0.032971712    0.026292277
      5        6          -0.037879607    0.012672307   -0.016281519
      6        6           0.027636103    0.016673924   -0.030992173
      7        1           0.007459484    0.000724715    0.004393524
      8        6           0.002409326    0.002146362   -0.006570415
      9        1           0.003197174   -0.003573800   -0.001107518
     10        1          -0.001042977   -0.000650928   -0.002835174
     11        6          -0.004833236   -0.008862506   -0.001695690
     12        1           0.004303113    0.003908736    0.002499569
     13        1           0.005662964    0.003040961    0.000434486
     14        6          -0.002934437    0.023313384    0.025673252
     15        8           0.000713731   -0.019685487   -0.018114633
     16        1          -0.003500551   -0.000526457    0.007940079
     17        1          -0.002224943   -0.004554298   -0.006165094
     18        1           0.003099557   -0.001799130    0.003737807
     19        6           0.002900822    0.019773422    0.009087448
     20        1          -0.001481477   -0.006229005    0.002473783
     21        1          -0.000650856    0.000848145   -0.004001381
     22       17          -0.010341671    0.000337161   -0.005595914
     23        6          -0.000933156    0.009902642   -0.000069257
     24        1          -0.003325322    0.002729021   -0.002740165
     25        1          -0.001444547   -0.004850756   -0.001392684
     26        1          -0.001823672    0.000028504    0.002805842
 -------------------------------------------------------------------
 Cartesian Forces:  Max     0.037879607 RMS     0.012266822
 FormGI is forming the generalized inverse of G from B-inverse, IUseBI=4.

 GradGradGradGradGradGradGradGradGradGradGradGradGradGradGradGradGradGrad
 Berny optimization.
 Internal  Forces:  Max     0.200674620 RMS     0.033152262
 Search for a saddle point.
 Step number   1 out of a maximum of   50
 All quantities printed in internal units (Hartrees-Bohrs-Radians)
 Swapping is turned off.
 Second derivative matrix not updated -- analytic derivatives used.
 ITU=  0
     Eigenvalues ---   -1.08117  -0.00306   0.00008   0.00160   0.00427
     Eigenvalues ---    0.00505   0.01283   0.01566   0.01623   0.01958
     Eigenvalues ---    0.02256   0.02313   0.02855   0.03522   0.03680
     Eigenvalues ---    0.03767   0.04553   0.05191   0.05564   0.05646
     Eigenvalues ---    0.06254   0.06436   0.07189   0.07531   0.08209
     Eigenvalues ---    0.09044   0.09315   0.09778   0.09892   0.10605
     Eigenvalues ---    0.10883   0.11164   0.11956   0.12386   0.13126
     Eigenvalues ---    0.14495   0.16148   0.17539   0.19800   0.20499
     Eigenvalues ---    0.21140   0.22002   0.22626   0.23466   0.23605
     Eigenvalues ---    0.25098   0.27164   0.27873   0.29619   0.30583
     Eigenvalues ---    0.31936   0.34165   0.34713   0.35031   0.35248
     Eigenvalues ---    0.35339   0.35407   0.35518   0.35579   0.35688
     Eigenvalues ---    0.35877   0.35981   0.36702   0.36862   0.37991
     Eigenvalues ---    0.39047   0.39264   0.49062   0.67288   0.82725
     Eigenvalues ---    1.02314   1.98281
 Eigenvectors required to have negative eigenvalues:
                          A27       A21       R4        D47       A30
   1                   -0.36599  -0.32245   0.28687   0.23132   0.22614
                          A31       A19       D56       D46       D54
   1                   -0.22507   0.20864   0.18617   0.18112   0.18062
 RFO step:  Lambda0=6.795035508D-02 Lambda=-8.09535474D-02.
 Linear search not attempted -- option 19 set.
 Maximum step size (   0.100) exceeded in Quadratic search.
    -- Step size scaled by   0.299
 Iteration  1 RMS(Cart)=  0.01441982 RMS(Int)=  0.00028106
 Iteration  2 RMS(Cart)=  0.00042830 RMS(Int)=  0.00008674
 Iteration  3 RMS(Cart)=  0.00000009 RMS(Int)=  0.00008674
 Variable       Old X    -DE/DX   Delta X   Delta X   Delta X     New X
                                 (Linear)    (Quad)   (Total)
    R1        2.76422  -0.02123   0.00000  -0.03878  -0.03876   2.72546
    R2        2.87953  -0.00114   0.00000  -0.00407  -0.00413   2.87540
    R3        2.81348   0.00622   0.00000   0.00410   0.00410   2.81758
    R4        2.76322  -0.02681   0.00000  -0.05449  -0.05449   2.70874
    R5        2.05171   0.00377   0.00000   0.00190   0.00190   2.05361
    R6        3.27775   0.00969   0.00000   0.00700   0.00700   3.28475
    R7        2.78217  -0.02556   0.00000  -0.04472  -0.04472   2.73746
    R8        2.82991  -0.00596   0.00000   0.00165   0.00165   2.83156
    R9        2.85924  -0.00364   0.00000  -0.00387  -0.00386   2.85539
   R10        2.81842   0.01206   0.00000  -0.00186  -0.00186   2.81656
   R11        2.06206   0.00453   0.00000   0.00245   0.00245   2.06451
   R12        2.52986   0.03177   0.00000   0.02986   0.02989   2.55976
   R13        2.04055   0.00840   0.00000   0.00557   0.00557   2.04613
   R14        2.04160   0.00813   0.00000   0.00504   0.00504   2.04664
   R15        2.06876   0.00476   0.00000   0.00276   0.00276   2.07153
   R16        2.07274   0.00268   0.00000   0.00160   0.00160   2.07434
   R17        2.91480  -0.04067   0.00000   0.00092   0.00092   2.91572
   R18        2.07025   0.00276   0.00000   0.00199   0.00199   2.07224
   R19        2.06698   0.00454   0.00000   0.00344   0.00344   2.07041
   R20        2.87325  -0.02560   0.00000   0.00541   0.00541   2.87866
   R21        2.31116  -0.02581   0.00000  -0.00843  -0.00843   2.30273
   R22        2.07246   0.00503   0.00000   0.00316   0.00316   2.07561
   R23        2.06651   0.00361   0.00000   0.00249   0.00249   2.06900
   R24        2.06664   0.00496   0.00000   0.00332   0.00332   2.06996
   R25        2.06815   0.00523   0.00000   0.00335   0.00335   2.07150
   R26        2.06892   0.00324   0.00000   0.00223   0.00223   2.07116
    A1        1.81969  -0.00313   0.00000   0.00025   0.00007   1.81976
    A2        2.10680   0.00450   0.00000   0.01209   0.01207   2.11887
    A3        2.12383   0.00048   0.00000   0.00172   0.00167   2.12549
    A4        2.08780  -0.00400   0.00000   0.00806   0.00770   2.09550
    A5        2.04509   0.00724   0.00000   0.01681   0.01645   2.06154
    A6        1.93001   0.00273   0.00000   0.00591   0.00546   1.93547
    A7        2.11104   0.00232   0.00000   0.01176   0.01173   2.12277
    A8        1.81274   0.00230   0.00000   0.00624   0.00611   1.81885
    A9        2.26844   0.00229   0.00000  -0.00556  -0.00582   2.26261
   A10        2.18344   0.02135   0.00000  -0.00164  -0.00183   2.18161
   A11        2.01675  -0.00529   0.00000   0.00518   0.00496   2.02171
   A12        1.95924  -0.00464   0.00000   0.01399   0.01380   1.97305
   A13        1.90425   0.00007   0.00000   0.00499   0.00497   1.90922
   A14        2.17455  -0.00122   0.00000  -0.00129  -0.00128   2.17327
   A15        2.20340   0.00095   0.00000  -0.00382  -0.00382   2.19959
   A16        1.90630  -0.00557   0.00000  -0.00089  -0.00092   1.90538
   A17        2.17643   0.00157   0.00000   0.00178   0.00180   2.17823
   A18        2.19791   0.00356   0.00000  -0.00103  -0.00102   2.19689
   A19        1.95426   0.07941   0.00000  -0.00050  -0.00052   1.95373
   A20        1.91315   0.01788   0.00000   0.00341   0.00342   1.91657
   A21        1.87405  -0.16146   0.00000  -0.00701  -0.00702   1.86703
   A22        1.87139  -0.02294   0.00000   0.00065   0.00064   1.87204
   A23        1.93664   0.04897   0.00000  -0.00080  -0.00082   1.93582
   A24        1.91451   0.04095   0.00000   0.00456   0.00457   1.91908
   A25        1.91615   0.07493   0.00000   0.00102   0.00104   1.91719
   A26        1.93944   0.03552   0.00000   0.00899   0.00896   1.94841
   A27        1.89645  -0.20067   0.00000   0.00616   0.00614   1.90259
   A28        1.90512  -0.02997   0.00000  -0.00887  -0.00889   1.89624
   A29        1.88968   0.02869   0.00000  -0.00786  -0.00787   1.88181
   A30        1.91633   0.09176   0.00000   0.00020   0.00013   1.91645
   A31        1.96723  -0.10886   0.00000   0.01103   0.01103   1.97826
   A32        2.14242   0.06131   0.00000   0.00062   0.00062   2.14303
   A33        2.17308   0.04648   0.00000  -0.01177  -0.01177   2.16131
   A34        1.72095   0.00297   0.00000   0.01021   0.01014   1.73108
   A35        1.94391   0.00510   0.00000  -0.01513  -0.01519   1.92873
   A36        1.96802  -0.00804   0.00000   0.00726   0.00727   1.97530
   A37        1.93951   0.00207   0.00000  -0.00932  -0.00927   1.93024
   A38        1.99441  -0.00294   0.00000   0.00450   0.00440   1.99881
   A39        1.89372   0.00111   0.00000   0.00195   0.00198   1.89570
   A40        1.93215   0.00152   0.00000   0.00241   0.00241   1.93456
   A41        1.93178  -0.00004   0.00000   0.00016   0.00016   1.93194
   A42        1.93421   0.00070   0.00000   0.00063   0.00063   1.93485
   A43        1.88887  -0.00072   0.00000  -0.00080  -0.00080   1.88807
   A44        1.88453  -0.00091   0.00000  -0.00151  -0.00151   1.88302
   A45        1.89073  -0.00065   0.00000  -0.00104  -0.00104   1.88969
    D1        0.40200   0.00213   0.00000  -0.01495  -0.01495   0.38705
    D2       -2.78466  -0.00224   0.00000  -0.01784  -0.01787  -2.80253
    D3        2.86962   0.00411   0.00000   0.00210   0.00214   2.87176
    D4       -0.31703  -0.00025   0.00000  -0.00079  -0.00078  -0.31781
    D5       -0.62328  -0.00403   0.00000   0.02398   0.02398  -0.59930
    D6        1.41504   0.00173   0.00000   0.01311   0.01306   1.42810
    D7       -2.73427   0.00112   0.00000   0.00970   0.00961  -2.72466
    D8       -3.08259  -0.00798   0.00000   0.00167   0.00173  -3.08086
    D9       -1.04428  -0.00222   0.00000  -0.00920  -0.00919  -1.05347
   D10        1.08960  -0.00283   0.00000  -0.01261  -0.01264   1.07696
   D11        2.91406  -0.00091   0.00000  -0.01123  -0.01123   2.90282
   D12       -1.27468  -0.00084   0.00000  -0.01055  -0.01055  -1.28523
   D13        0.82346  -0.00122   0.00000  -0.01134  -0.01134   0.81212
   D14       -1.01819   0.00050   0.00000   0.00933   0.00932  -1.00887
   D15        1.07626   0.00056   0.00000   0.01001   0.01001   1.08626
   D16       -3.10879   0.00019   0.00000   0.00922   0.00922  -3.09957
   D17       -0.13922   0.00969   0.00000   0.01522   0.01510  -0.12413
   D18       -2.72440  -0.01162   0.00000  -0.02555  -0.02565  -2.75005
   D19        2.27430   0.01937   0.00000   0.06137   0.06147   2.33577
   D20       -0.31087  -0.00195   0.00000   0.02060   0.02072  -0.29015
   D21        3.11441  -0.01644   0.00000  -0.00598  -0.00621   3.10819
   D22        0.04562  -0.01021   0.00000  -0.00391  -0.00408   0.04154
   D23       -0.43097  -0.00154   0.00000   0.01801   0.01802  -0.41296
   D24        2.78343   0.00469   0.00000   0.02008   0.02015   2.80358
   D25        0.90556  -0.00158   0.00000   0.00644   0.00645   0.91201
   D26        2.98012   0.03149   0.00000   0.00917   0.00918   2.98930
   D27       -1.22434  -0.00345   0.00000   0.01246   0.01246  -1.21188
   D28       -1.71502  -0.02082   0.00000  -0.02934  -0.02934  -1.74437
   D29        0.35954   0.01226   0.00000  -0.02661  -0.02662   0.33292
   D30        2.43826  -0.02269   0.00000  -0.02333  -0.02334   2.41493
   D31        0.62895   0.00591   0.00000  -0.02229  -0.02239   0.60656
   D32       -1.41274  -0.00215   0.00000  -0.00694  -0.00694  -1.41968
   D33        2.72037  -0.00304   0.00000  -0.00557  -0.00555   2.71482
   D34       -2.96788   0.02272   0.00000   0.01094   0.01075  -2.95712
   D35        1.27362   0.01466   0.00000   0.02629   0.02620   1.29982
   D36       -0.87646   0.01377   0.00000   0.02765   0.02759  -0.84887
   D37        2.51183  -0.03791   0.00000  -0.00353  -0.00360   2.50823
   D38       -0.59847  -0.00181   0.00000   0.00072   0.00068  -0.59779
   D39       -1.17060  -0.01771   0.00000   0.03388   0.03392  -1.13668
   D40        2.00229   0.01840   0.00000   0.03814   0.03820   2.04049
   D41        0.01647  -0.00090   0.00000  -0.00203  -0.00205   0.01443
   D42        3.08414  -0.00733   0.00000  -0.00399  -0.00406   3.08008
   D43       -3.07913   0.00363   0.00000   0.00082   0.00084  -3.07829
   D44       -0.01146  -0.00280   0.00000  -0.00113  -0.00117  -0.01263
   D45        1.60607   0.02033   0.00000  -0.01070  -0.01070   1.59538
   D46       -2.56785   0.05566   0.00000  -0.01531  -0.01532  -2.58317
   D47       -0.45758   0.06079   0.00000  -0.00542  -0.00539  -0.46297
   D48       -0.53477  -0.00221   0.00000  -0.00499  -0.00499  -0.53976
   D49        1.57450   0.03313   0.00000  -0.00960  -0.00962   1.56488
   D50       -2.59842   0.03826   0.00000   0.00029   0.00031  -2.59811
   D51       -2.59926  -0.02960   0.00000  -0.00816  -0.00816  -2.60742
   D52       -0.49000   0.00573   0.00000  -0.01277  -0.01279  -0.50279
   D53        1.62027   0.01086   0.00000  -0.00288  -0.00286   1.61741
   D54       -0.30898   0.04619   0.00000  -0.01567  -0.01569  -0.32467
   D55        2.80067   0.00958   0.00000  -0.01975  -0.01975   2.78092
   D56       -2.38930   0.05379   0.00000  -0.01589  -0.01588  -2.40518
   D57        0.72035   0.01718   0.00000  -0.01997  -0.01994   0.70041
   D58        1.81546   0.01993   0.00000  -0.00059  -0.00061   1.81485
   D59       -1.35807  -0.01669   0.00000  -0.00467  -0.00467  -1.36275
         Item               Value     Threshold  Converged?
 Maximum Force            0.200675     0.000450     NO 
 RMS     Force            0.033152     0.000300     NO 
 Maximum Displacement     0.067159     0.001800     NO 
 RMS     Displacement     0.014496     0.001200     NO 
 Predicted change in Energy=-3.816274D-03
 GradGradGradGradGradGradGradGradGradGradGradGradGradGradGradGradGradGrad

                          Input orientation:                          
 ---------------------------------------------------------------------
 Center     Atomic      Atomic             Coordinates (Angstroms)
 Number     Number       Type             X           Y           Z
 ---------------------------------------------------------------------
      1          6           0       -1.368710   -1.148740    0.212271
      2          6           0       -0.736383    1.092287    0.445502
      3          6           0        0.831224   -1.064843   -0.484535
      4          6           0        0.473441    1.028633   -0.320601
      5          6           0       -0.521070   -1.676113    1.253169
      6          6           0        0.769650   -1.639310    0.843862
      7          1           0        1.631571   -1.920512    1.436299
      8          6           0        2.136444   -0.853538   -1.189472
      9          1           0        2.742006   -1.767004   -1.212682
     10          1           0        1.953360   -0.557611   -2.230547
     11          6           0        2.873884    0.277323   -0.442492
     12          1           0        3.516562   -0.148811    0.337167
     13          1           0        3.494530    0.872312   -1.121582
     14          6           0        1.847600    1.174108    0.237969
     15          8           0        2.105106    1.911726    1.173103
     16          1           0       -0.872161   -2.001579    2.224346
     17          1           0        0.396979    1.357868   -1.359493
     18          1           0       -0.691923    1.141670    1.530195
     19          6           0       -0.545695   -1.307165   -1.057694
     20          1           0       -0.628337   -2.331856   -1.444465
     21          1           0       -0.837310   -0.609982   -1.849924
     22         17           0       -2.043281    2.061461   -0.166138
     23          6           0       -2.843290   -1.369047    0.225024
     24          1           0       -3.342474   -0.706902   -0.490674
     25          1           0       -3.082519   -2.404723   -0.042884
     26          1           0       -3.259604   -1.166150    1.218377
 ---------------------------------------------------------------------
                    Distance matrix (angstroms):
                    1          2          3          4          5
     1  C    0.000000
     2  C    2.340179   0.000000
     3  C    2.309174   2.824105   0.000000
     4  C    2.901452   1.433402   2.130146   0.000000
     5  C    1.442250   2.891838   2.285162   3.283513   0.000000
     6  C    2.283014   3.144590   1.448600   2.926027   1.354565
     7  H    3.331000   3.958010   2.249962   3.622902   2.174197
     8  C    3.786573   3.835689   1.498395   2.657646   3.702095
     9  H    4.394397   4.798365   2.162017   3.709148   4.091008
    10  H    4.165686   4.137405   2.136594   2.890368   4.417027
    11  C    4.523492   3.806144   2.444512   2.518224   4.268126
    12  H    4.988120   4.431659   2.953870   3.328606   4.412956
    13  H    5.432763   4.517163   3.354340   3.129374   5.315915
    14  C    3.967484   2.593594   2.562798   1.490462   3.842524
    15  O    4.728325   3.045480   3.637376   2.381877   4.447000
    16  H    2.241057   3.571376   3.334221   4.179663   1.082763
    17  H    3.445458   2.147801   2.612211   1.092491   4.107780
    18  H    2.727809   1.086726   3.353775   2.190045   2.836518
    19  C    1.521598   2.837839   1.511005   2.652903   2.340260
    20  H    2.166261   3.912595   2.158033   3.710777   2.778261
    21  H    2.196656   2.859526   2.203450   2.596527   3.296336
    22  Cl   3.302065   1.738213   4.258865   2.724790   4.277969
    23  C    1.491001   3.247435   3.754739   4.128835   2.558140
    24  H    2.141284   3.302305   4.189023   4.195499   3.455529
    25  H    2.140032   4.239334   4.160254   4.950748   2.961696
    26  H    2.141970   3.473402   4.432273   4.595775   2.785829
                    6          7          8          9         10
     6  C    0.000000
     7  H    1.083034   0.000000
     8  C    2.572938   2.878889   0.000000
     9  H    2.852344   2.876410   1.096204   0.000000
    10  H    3.467454   3.925151   1.097694   1.766534   0.000000
    11  C    3.123458   3.147011   1.542933   2.188574   2.177526
    12  H    3.166046   2.810731   2.175314   2.370763   3.033789
    13  H    4.194780   4.220573   2.197172   2.746012   2.376908
    14  C    3.073175   3.325559   2.496471   3.399190   3.017219
    15  O    3.808110   3.870344   3.637228   4.430652   4.207789
    16  H    2.175435   2.626074   4.692958   4.993034   5.469432
    17  H    3.738546   4.482014   2.818681   3.909671   2.617273
    18  H    3.215757   3.845049   4.401943   5.270259   4.901863
    19  C    2.335887   3.366999   2.723420   3.323319   2.860541
    20  H    2.769554   3.684452   3.145546   3.425199   3.229710
    21  H    3.301261   4.314177   3.055933   3.815269   2.816994
    22  Cl   4.756930   5.650527   5.197551   6.217023   5.205234
    23  C    3.675506   4.668585   5.202336   5.781081   5.449413
    24  H    4.422662   5.470576   5.525248   6.218200   5.576316
    25  H    4.026336   4.964382   5.564028   5.974964   5.792906
    26  H    4.074191   4.953801   5.917161   6.503107   6.280159
                   11         12         13         14         15
    11  C    0.000000
    12  H    1.096582   0.000000
    13  H    1.095616   1.780765   0.000000
    14  C    1.523323   2.131992   2.156812   0.000000
    15  O    2.423313   2.633783   2.876883   1.218551   0.000000
    16  H    5.132083   5.123971   6.206647   4.629015   5.028239
    17  H    2.853687   3.857529   3.144390   2.165629   3.104593
    18  H    4.165762   4.560702   4.962949   2.849575   2.922991
    19  C    3.818717   4.448522   4.591037   3.682841   4.729108
    20  H    4.480772   5.011994   5.231536   4.610057   5.686067
    21  H    4.067079   4.894103   4.636002   3.840705   4.914826
    22  Cl   5.238133   6.004204   5.744066   4.011190   4.361777
    23  C    5.986835   6.476825   6.856019   5.335940   6.012400
    24  H    6.293976   6.931317   7.045323   5.568302   6.269091
    25  H    6.544600   6.984371   7.426986   6.098605   6.857245
    26  H    6.516271   6.908541   7.432971   5.702766   6.185103
                   16         17         18         19         20
    16  H    0.000000
    17  H    5.073509   0.000000
    18  H    3.224026   3.095600   0.000000
    19  C    3.370545   2.842906   3.565858   0.000000
    20  H    3.691707   3.830477   4.573623   1.098368   0.000000
    21  H    4.305512   2.374115   3.809807   1.094867   1.781268
    22  Cl   4.857389   2.806066   2.355786   3.792793   4.789303
    23  C    2.877974   4.521736   3.554652   2.632135   2.936019
    24  H    3.892295   4.359085   3.811371   2.916127   3.304048
    25  H    3.191949   5.291261   4.557020   2.944477   2.827145
    26  H    2.722094   5.136796   3.466446   3.544811   3.920863
                   21         22         23         24         25
    21  H    0.000000
    22  Cl   3.380253   0.000000
    23  C    2.984216   3.544207   0.000000
    24  H    2.851807   3.075233   1.095374   0.000000
    25  H    3.395210   4.587157   1.096189   1.775018   0.000000
    26  H    3.948583   3.716692   1.096009   1.771618   1.776570
                   26
    26  H    0.000000
 Stoichiometry    C11H13ClO
 Framework group  C1[X(C11H13ClO)]
 Deg. of freedom    72
 Full point group                 C1      NOp   1
 Largest Abelian subgroup         C1      NOp   1
 Largest concise Abelian subgroup C1      NOp   1
                         Standard orientation:                         
 ---------------------------------------------------------------------
 Center     Atomic      Atomic             Coordinates (Angstroms)
 Number     Number       Type             X           Y           Z
 ---------------------------------------------------------------------
      1          6           0       -1.430553   -1.154932    0.173692
      2          6           0       -0.719746    1.067649    0.350673
      3          6           0        0.801430   -1.184302   -0.417641
      4          6           0        0.521345    0.926343   -0.352439
      5          6           0       -0.655071   -1.671949    1.274331
      6          6           0        0.653973   -1.701600    0.927387
      7          1           0        1.474856   -1.991578    1.571613
      8          6           0        2.145974   -1.052280   -1.065682
      9          1           0        2.714480   -1.988616   -1.023971
     10          1           0        2.024400   -0.791990   -2.125116
     11          6           0        2.892482    0.078664   -0.327891
     12          1           0        3.479836   -0.339964    0.498098
     13          1           0        3.568089    0.621227   -0.998381
     14          6           0        1.872347    1.041240    0.266485
     15          8           0        2.115044    1.805706    1.183850
     16          1           0       -1.064532   -1.943960    2.239074
     17          1           0        0.507431    1.215864   -1.405777
     18          1           0       -0.724609    1.159245    1.433521
     19          6           0       -0.555559   -1.396380   -1.047516
     20          1           0       -0.661253   -2.431967   -1.397946
     21          1           0       -0.780964   -0.721181   -1.879401
     22         17           0       -1.955987    2.060906   -0.361038
     23          6           0       -2.911798   -1.317491    0.122974
     24          1           0       -3.349404   -0.666163   -0.641301
     25          1           0       -3.179835   -2.353183   -0.116041
     26          1           0       -3.366013   -1.058552    1.086237
 ---------------------------------------------------------------------
 Rotational constants (GHZ):           0.9342812           0.6713412           0.4766395
 Standard basis: STO-3G (5D, 7F)
 There are    82 symmetry adapted cartesian basis functions of A   symmetry.
 There are    82 symmetry adapted basis functions of A   symmetry.
    82 basis functions,   246 primitive gaussians,    82 cartesian basis functions
    52 alpha electrons       52 beta electrons
       nuclear repulsion energy       909.0203478079 Hartrees.
 NAtoms=   26 NActive=   26 NUniq=   26 SFac= 1.00D+00 NAtFMM=   60 NAOKFM=F Big=F
 Integral buffers will be    131072 words long.
 Raffenetti 1 integral format.
 Two-electron integral symmetry is turned on.
 External calculation of energy, first and second derivatives.
 Running external command "~/scripts/MiMe -H 'wb97xd def2svp' -EF 'wb97xd def2svp' -c 12 -m 48GB R"
         input file       "/local/jobs/1158119/Gau-717950.EIn"
         output file      "/local/jobs/1158119/Gau-717950.EOu"
         message file     "/local/jobs/1158119/Gau-717950.EMs"
         fchk file        "/local/jobs/1158119/Gau-717950.EFC"
         mat. el file     "/local/jobs/1158119/Gau-717950.EUF"
 Read checkpoint file Gau-717950_H.chk type G16
 Write formatted file Gau-717950_H.fchk

deriv: 2

spelevel: wb97xd def2svp
gradlevel: wb97xd def2svp
hesslevel: wb97xd def2svp

runspe: False
runforce: False
runfreq: True

Running Gaussian ...

Parsing files ...
SPE file: Gau-717950_H.out
FORCE file: Gau-717950_H.out
HESS file: Gau-717950_H.out

 ExternalExternalExternalExternalExternalExternalExternalExternalExternalExternal
 Output from external command:
 "~/scripts/MiMe -H 'wb97xd def2svp' -EF 'wb97xd def2svp' -c 12 -m 48GB R /local/jobs/1158119/Gau-717950.EIn /local/jobs/1158119/Gau-717950.EOu /local/jobs/1158119/Gau-717950.EMs /local/jobs/1158119/Gau-717950.EFC /local/jobs/1158119/Gau-717950.EUF"
  
 --------------------------------------------------
 Hessian calculation at wb97xd def2svp
 ExternalExternalExternalExternalExternalExternalExternalExternalExternalExternal

 Recovered energy= -961.650134296     dipole=     -0.010200000000     -3.768900000000     -1.703900000000
 Energy=    -961.650134     NIter=   0.
 Dipole moment=      -0.010200      -3.768900      -1.703900
 ***** Axes restored to original set *****
 -------------------------------------------------------------------
 Center     Atomic                   Forces (Hartrees/Bohr)
 Number     Number              X              Y              Z
 -------------------------------------------------------------------
      1        6           0.012136357   -0.009957339    0.010311116
      2        6           0.019127895   -0.013290951   -0.012529103
      3        6          -0.003334583    0.002696214    0.010687254
      4        6          -0.016880963   -0.022499519    0.019625408
      5        6          -0.028771884    0.010829170   -0.011872576
      6        6           0.020935138    0.013271356   -0.023179176
      7        1           0.005528532    0.001430153    0.003831650
      8        6           0.001908902    0.003856708   -0.005188969
      9        1           0.002403471   -0.002646237   -0.000986296
     10        1          -0.000975458   -0.000586638   -0.002120121
     11        6          -0.003742377   -0.007442375   -0.001879509
     12        1           0.003563658    0.003630045    0.001988896
     13        1           0.004401690    0.002264906    0.000443259
     14        6          -0.000805694    0.016314815    0.020281312
     15        8           0.000540962   -0.014530466   -0.013127766
     16        1          -0.002396815    0.000189822    0.006285976
     17        1          -0.001170718   -0.004760171   -0.004984779
     18        1           0.002202308   -0.002130960    0.002820559
     19        6           0.001682209    0.020739935    0.006812620
     20        1          -0.001191058   -0.004858392    0.002077718
     21        1          -0.000600091    0.000103771   -0.003399088
     22       17          -0.008603120   -0.000984229   -0.004879194
     23        6          -0.000958656    0.009938255   -0.000045512
     24        1          -0.002508118    0.002177491   -0.001963453
     25        1          -0.001080322   -0.003601136   -0.001169346
     26        1          -0.001411263   -0.000154229    0.002159123
 -------------------------------------------------------------------
 Cartesian Forces:  Max     0.028771884 RMS     0.009315226
 FormGI is forming the generalized inverse of G from B-inverse, IUseBI=4.

 GradGradGradGradGradGradGradGradGradGradGradGradGradGradGradGradGradGrad
 Berny optimization.
 Internal  Forces:  Max     0.143022574 RMS     0.023868397
 Search for a saddle point.
 Step number   2 out of a maximum of   50
 All quantities printed in internal units (Hartrees-Bohrs-Radians)
 Swapping is turned off.
 Second derivative matrix not updated -- analytic derivatives used.
 ITU=  0  0
     Eigenvalues ---   -1.05306   0.00025   0.00163   0.00276   0.00722
     Eigenvalues ---    0.00962   0.01569   0.01674   0.01814   0.02022
     Eigenvalues ---    0.02471   0.02871   0.02927   0.03585   0.03805
     Eigenvalues ---    0.03877   0.04814   0.05162   0.05577   0.05641
     Eigenvalues ---    0.06250   0.06447   0.07303   0.07529   0.08166
     Eigenvalues ---    0.08528   0.09259   0.09766   0.10152   0.10756
     Eigenvalues ---    0.10940   0.11200   0.12072   0.12347   0.13060
     Eigenvalues ---    0.14476   0.15997   0.16752   0.19717   0.20499
     Eigenvalues ---    0.20611   0.22017   0.22964   0.23345   0.24157
     Eigenvalues ---    0.26097   0.27195   0.27627   0.29826   0.30760
     Eigenvalues ---    0.32873   0.34535   0.34686   0.34930   0.35061
     Eigenvalues ---    0.35125   0.35221   0.35308   0.35426   0.35495
     Eigenvalues ---    0.35726   0.36543   0.36572   0.37774   0.38296
     Eigenvalues ---    0.38681   0.38863   0.49810   0.65914   0.85094
     Eigenvalues ---    0.94787   1.71755
 Eigenvectors required to have negative eigenvalues:
                          A27       A21       R4        A30       A31
   1                    0.36877   0.32543  -0.28951  -0.22488   0.22375
                          D47       A19       D56       R12       D46
   1                   -0.22253  -0.20540  -0.17832   0.17547  -0.17538
 RFO step:  Lambda0=3.542952484D-02 Lambda=-4.98189242D-02.
 Linear search not attempted -- option 19 set.
 Maximum step size (   0.100) exceeded in Quadratic search.
    -- Step size scaled by   0.416
 Iteration  1 RMS(Cart)=  0.01972290 RMS(Int)=  0.00047722
 Iteration  2 RMS(Cart)=  0.00061278 RMS(Int)=  0.00015095
 Iteration  3 RMS(Cart)=  0.00000019 RMS(Int)=  0.00015095
 Variable       Old X    -DE/DX   Delta X   Delta X   Delta X     New X
                                 (Linear)    (Quad)   (Total)
    R1        2.72546  -0.01603   0.00000  -0.03980  -0.03974   2.68571
    R2        2.87540  -0.00115   0.00000  -0.00706  -0.00706   2.86834
    R3        2.81758   0.00465   0.00000   0.00341   0.00341   2.82100
    R4        2.70874  -0.01927   0.00000  -0.04895  -0.04895   2.65979
    R5        2.05361   0.00281   0.00000   0.00208   0.00208   2.05570
    R6        3.28475   0.00764   0.00000   0.00777   0.00777   3.29252
    R7        2.73746  -0.01923   0.00000  -0.04064  -0.04067   2.69678
    R8        2.83156  -0.00406   0.00000   0.00480   0.00480   2.83636
    R9        2.85539  -0.00247   0.00000  -0.00271  -0.00276   2.85263
   R10        2.81656   0.00915   0.00000   0.00458   0.00458   2.82115
   R11        2.06451   0.00339   0.00000   0.00328   0.00328   2.06779
   R12        2.55976   0.02404   0.00000   0.03289   0.03292   2.59268
   R13        2.04613   0.00636   0.00000   0.00625   0.00625   2.05238
   R14        2.04664   0.00612   0.00000   0.00572   0.00572   2.05236
   R15        2.07153   0.00355   0.00000   0.00292   0.00292   2.07445
   R16        2.07434   0.00202   0.00000   0.00187   0.00187   2.07621
   R17        2.91572  -0.02873   0.00000   0.00076   0.00076   2.91648
   R18        2.07224   0.00209   0.00000   0.00224   0.00224   2.07449
   R19        2.07041   0.00345   0.00000   0.00406   0.00406   2.07447
   R20        2.87866  -0.01768   0.00000   0.00645   0.00645   2.88511
   R21        2.30273  -0.01876   0.00000  -0.01012  -0.01012   2.29261
   R22        2.07561   0.00389   0.00000   0.00427   0.00427   2.07988
   R23        2.06900   0.00268   0.00000   0.00265   0.00265   2.07165
   R24        2.06996   0.00374   0.00000   0.00369   0.00369   2.07365
   R25        2.07150   0.00392   0.00000   0.00396   0.00396   2.07545
   R26        2.07116   0.00247   0.00000   0.00250   0.00250   2.07366
    A1        1.81976  -0.00177   0.00000   0.00626   0.00586   1.82562
    A2        2.11887   0.00398   0.00000   0.02010   0.01990   2.13877
    A3        2.12549   0.00020   0.00000   0.00284   0.00235   2.12785
    A4        2.09550  -0.00247   0.00000   0.01411   0.01336   2.10886
    A5        2.06154   0.00571   0.00000   0.01607   0.01531   2.07685
    A6        1.93547   0.00240   0.00000   0.01138   0.01049   1.94596
    A7        2.12277   0.00205   0.00000   0.00875   0.00876   2.13154
    A8        1.81885   0.00226   0.00000   0.00802   0.00776   1.82661
    A9        2.26261   0.00076   0.00000  -0.00584  -0.00598   2.25664
   A10        2.18161   0.01563   0.00000   0.01091   0.01081   2.19242
   A11        2.02171  -0.00411   0.00000  -0.00118  -0.00129   2.02042
   A12        1.97305  -0.00353   0.00000   0.00075   0.00065   1.97370
   A13        1.90922   0.00008   0.00000   0.00364   0.00363   1.91285
   A14        2.17327  -0.00076   0.00000   0.00003   0.00003   2.17330
   A15        2.19959   0.00052   0.00000  -0.00396  -0.00396   2.19562
   A16        1.90538  -0.00425   0.00000  -0.00093  -0.00104   1.90434
   A17        2.17823   0.00138   0.00000   0.00240   0.00244   2.18067
   A18        2.19689   0.00251   0.00000  -0.00202  -0.00199   2.19490
   A19        1.95373   0.05735   0.00000   0.00163   0.00162   1.95535
   A20        1.91657   0.01255   0.00000   0.00131   0.00132   1.91789
   A21        1.86703  -0.11603   0.00000  -0.00731  -0.00731   1.85973
   A22        1.87204  -0.01667   0.00000  -0.00087  -0.00088   1.87116
   A23        1.93582   0.03491   0.00000   0.00004   0.00004   1.93586
   A24        1.91908   0.02985   0.00000   0.00546   0.00546   1.92454
   A25        1.91719   0.05397   0.00000   0.00820   0.00820   1.92539
   A26        1.94841   0.02525   0.00000   0.00542   0.00542   1.95383
   A27        1.90259  -0.14302   0.00000   0.00626   0.00624   1.90883
   A28        1.89624  -0.02175   0.00000  -0.01152  -0.01155   1.88468
   A29        1.88181   0.01985   0.00000  -0.00438  -0.00443   1.87738
   A30        1.91645   0.06690   0.00000  -0.00436  -0.00439   1.91206
   A31        1.97826  -0.07816   0.00000   0.00038   0.00037   1.97863
   A32        2.14303   0.04434   0.00000   0.00722   0.00721   2.15024
   A33        2.16131   0.03294   0.00000  -0.00732  -0.00733   2.15398
   A34        1.73108   0.00234   0.00000   0.01118   0.01105   1.74213
   A35        1.92873   0.00311   0.00000  -0.01757  -0.01757   1.91116
   A36        1.97530  -0.00536   0.00000   0.00955   0.00949   1.98479
   A37        1.93024   0.00130   0.00000  -0.01007  -0.01007   1.92017
   A38        1.99881  -0.00181   0.00000   0.00601   0.00592   2.00473
   A39        1.89570   0.00069   0.00000   0.00017   0.00022   1.89592
   A40        1.93456   0.00116   0.00000   0.00215   0.00215   1.93671
   A41        1.93194  -0.00009   0.00000  -0.00040  -0.00040   1.93154
   A42        1.93485   0.00060   0.00000   0.00151   0.00151   1.93636
   A43        1.88807  -0.00052   0.00000  -0.00106  -0.00106   1.88702
   A44        1.88302  -0.00070   0.00000  -0.00084  -0.00085   1.88217
   A45        1.88969  -0.00052   0.00000  -0.00151  -0.00151   1.88818
    D1        0.38705   0.00081   0.00000  -0.02322  -0.02324   0.36380
    D2       -2.80253  -0.00270   0.00000  -0.02946  -0.02956  -2.83208
    D3        2.87176   0.00359   0.00000   0.01416   0.01437   2.88613
    D4       -0.31781   0.00009   0.00000   0.00792   0.00805  -0.30976
    D5       -0.59930  -0.00173   0.00000   0.03393   0.03399  -0.56531
    D6        1.42810   0.00203   0.00000   0.02173   0.02167   1.44977
    D7       -2.72466   0.00143   0.00000   0.01575   0.01563  -2.70903
    D8       -3.08086  -0.00632   0.00000  -0.01185  -0.01165  -3.09252
    D9       -1.05347  -0.00256   0.00000  -0.02405  -0.02397  -1.07743
   D10        1.07696  -0.00316   0.00000  -0.03003  -0.03001   1.04695
   D11        2.90282  -0.00175   0.00000  -0.02727  -0.02733   2.87550
   D12       -1.28523  -0.00170   0.00000  -0.02745  -0.02751  -1.31273
   D13        0.81212  -0.00202   0.00000  -0.02862  -0.02868   0.78345
   D14       -1.00887   0.00119   0.00000   0.01958   0.01964  -0.98923
   D15        1.08626   0.00124   0.00000   0.01940   0.01946   1.10572
   D16       -3.09957   0.00092   0.00000   0.01823   0.01829  -3.08128
   D17       -0.12413   0.00684   0.00000  -0.00644  -0.00664  -0.13077
   D18       -2.75005  -0.00953   0.00000  -0.02982  -0.03002  -2.78007
   D19        2.33577   0.01663   0.00000   0.06303   0.06324   2.39901
   D20       -0.29015   0.00026   0.00000   0.03966   0.03986  -0.25029
   D21        3.10819  -0.01205   0.00000  -0.00063  -0.00084   3.10736
   D22        0.04154  -0.00713   0.00000   0.00717   0.00703   0.04857
   D23       -0.41296  -0.00037   0.00000   0.02257   0.02258  -0.39037
   D24        2.80358   0.00454   0.00000   0.03036   0.03044   2.83402
   D25        0.91201  -0.00035   0.00000   0.01587   0.01584   0.92785
   D26        2.98930   0.02352   0.00000   0.01668   0.01664   3.00594
   D27       -1.21188  -0.00158   0.00000   0.01967   0.01964  -1.19225
   D28       -1.74437  -0.01575   0.00000  -0.01841  -0.01838  -1.76274
   D29        0.33292   0.00812   0.00000  -0.01760  -0.01757   0.31535
   D30        2.41493  -0.01699   0.00000  -0.01461  -0.01458   2.40035
   D31        0.60656   0.00312   0.00000  -0.03219  -0.03226   0.57431
   D32       -1.41968  -0.00203   0.00000  -0.01426  -0.01424  -1.43392
   D33        2.71482  -0.00263   0.00000  -0.01102  -0.01097   2.70385
   D34       -2.95712   0.01655   0.00000  -0.00148  -0.00162  -2.95874
   D35        1.29982   0.01140   0.00000   0.01645   0.01640   1.31622
   D36       -0.84887   0.01080   0.00000   0.01968   0.01967  -0.82919
   D37        2.50823  -0.02668   0.00000   0.01813   0.01814   2.52637
   D38       -0.59779  -0.00063   0.00000   0.00983   0.00979  -0.58800
   D39       -1.13668  -0.01105   0.00000   0.04035   0.04039  -1.09628
   D40        2.04049   0.01500   0.00000   0.03204   0.03204   2.07253
   D41        0.01443  -0.00061   0.00000   0.00094   0.00092   0.01535
   D42        3.08008  -0.00566   0.00000  -0.00672  -0.00678   3.07330
   D43       -3.07829   0.00300   0.00000   0.00716   0.00719  -3.07109
   D44       -0.01263  -0.00205   0.00000  -0.00051  -0.00051  -0.01314
   D45        1.59538   0.01513   0.00000   0.00032   0.00034   1.59572
   D46       -2.58317   0.04064   0.00000  -0.00511  -0.00511  -2.58828
   D47       -0.46297   0.04426   0.00000  -0.00284  -0.00284  -0.46581
   D48       -0.53976  -0.00150   0.00000   0.00301   0.00303  -0.53673
   D49        1.56488   0.02401   0.00000  -0.00241  -0.00242   1.56245
   D50       -2.59811   0.02763   0.00000  -0.00015  -0.00015  -2.59827
   D51       -2.60742  -0.02138   0.00000   0.00062   0.00063  -2.60680
   D52       -0.50279   0.00413   0.00000  -0.00481  -0.00482  -0.50761
   D53        1.61741   0.00776   0.00000  -0.00254  -0.00255   1.61485
   D54       -0.32467   0.03379   0.00000  -0.00304  -0.00302  -0.32769
   D55        2.78092   0.00765   0.00000   0.00571   0.00570   2.78662
   D56       -2.40518   0.03799   0.00000  -0.01385  -0.01381  -2.41899
   D57        0.70041   0.01185   0.00000  -0.00510  -0.00509   0.69532
   D58        1.81485   0.01524   0.00000   0.00495   0.00494   1.81979
   D59       -1.36275  -0.01090   0.00000   0.01370   0.01366  -1.34909
         Item               Value     Threshold  Converged?
 Maximum Force            0.143023     0.000450     NO 
 RMS     Force            0.023868     0.000300     NO 
 Maximum Displacement     0.119715     0.001800     NO 
 RMS     Displacement     0.019780     0.001200     NO 
 Predicted change in Energy=-5.339959D-03
 GradGradGradGradGradGradGradGradGradGradGradGradGradGradGradGradGradGrad

                          Input orientation:                          
 ---------------------------------------------------------------------
 Center     Atomic      Atomic             Coordinates (Angstroms)
 Number     Number       Type             X           Y           Z
 ---------------------------------------------------------------------
      1          6           0       -1.368597   -1.165968    0.219868
      2          6           0       -0.722217    1.104309    0.445927
      3          6           0        0.837194   -1.074340   -0.480163
      4          6           0        0.469896    1.028956   -0.298551
      5          6           0       -0.526465   -1.668592    1.248481
      6          6           0        0.780787   -1.627758    0.834027
      7          1           0        1.645699   -1.892814    1.435026
      8          6           0        2.136475   -0.855617   -1.199075
      9          1           0        2.746571   -1.767560   -1.233695
     10          1           0        1.942788   -0.554466   -2.237778
     11          6           0        2.872500    0.271374   -0.444067
     12          1           0        3.525873   -0.151890    0.329916
     13          1           0        3.492644    0.878537   -1.116271
     14          6           0        1.850067    1.164765    0.254075
     15          8           0        2.123972    1.891770    1.185891
     16          1           0       -0.872570   -1.982229    2.228988
     17          1           0        0.395777    1.332821   -1.347123
     18          1           0       -0.698828    1.153064    1.532409
     19          6           0       -0.543873   -1.296336   -1.047702
     20          1           0       -0.630295   -2.321631   -1.438448
     21          1           0       -0.835752   -0.594698   -1.837843
     22         17           0       -2.069016    1.998110   -0.204417
     23          6           0       -2.847809   -1.366961    0.223179
     24          1           0       -3.337557   -0.690482   -0.488612
     25          1           0       -3.099492   -2.398515   -0.057493
     26          1           0       -3.268172   -1.170347    1.217552
 ---------------------------------------------------------------------
                    Distance matrix (angstroms):
                    1          2          3          4          5
     1  C    0.000000
     2  C    2.371301   0.000000
     3  C    2.316021   2.834769   0.000000
     4  C    2.909727   1.407501   2.142835   0.000000
     5  C    1.421218   2.893335   2.280550   3.265395   0.000000
     6  C    2.282606   3.142265   1.427077   2.904740   1.371987
     7  H    3.330300   3.945642   2.234173   3.595072   2.191660
     8  C    3.794107   3.836594   1.500935   2.672085   3.707116
     9  H    4.405606   4.806375   2.166584   3.725351   4.108985
    10  H    4.168841   4.129897   2.140518   2.904691   4.415030
    11  C    4.526994   3.795768   2.440230   2.523412   4.263936
    12  H    4.999631   4.431451   2.955696   3.335920   4.423301
    13  H    5.440307   4.500721   3.357050   3.135012   5.313489
    14  C    3.974076   2.580136   2.564879   1.492886   3.829446
    15  O    4.741414   3.044410   3.637216   2.384111   4.439022
    16  H    2.224609   3.567720   3.329722   4.154263   1.086071
    17  H    3.436921   2.125360   2.596322   1.094225   4.073839
    18  H    2.747593   1.087827   3.372112   2.175715   2.841138
    19  C    1.517861   2.832990   1.509546   2.644984   2.326228
    20  H    2.151897   3.911059   2.151178   3.706240   2.767097
    21  H    2.201011   2.848704   2.207283   2.590441   3.282423
    22  Cl   3.268333   1.742326   4.238165   2.719228   4.234983
    23  C    1.492808   3.267252   3.762919   4.125505   2.555555
    24  H    2.145888   3.306758   4.192370   4.182020   3.446219
    25  H    2.142918   4.263173   4.174875   4.954412   2.976377
    26  H    2.145641   3.500193   4.443588   4.594415   2.786783
                    6          7          8          9         10
     6  C    0.000000
     7  H    1.086061   0.000000
     8  C    2.562732   2.873174   0.000000
     9  H    2.856453   2.889581   1.097751   0.000000
    10  H    3.455168   3.920322   1.098685   1.768007   0.000000
    11  C    3.100886   3.117651   1.543334   2.190119   2.182607
    12  H    3.157185   2.790545   2.182538   2.379618   3.043235
    13  H    4.176045   4.195321   2.203031   2.751771   2.390257
    14  C    3.045963   3.284083   2.505118   3.408182   3.028808
    15  O    3.783522   3.822812   3.638180   4.430882   4.211698
    16  H    2.192066   2.641978   4.698427   5.013425   5.469620
    17  H    3.697387   4.439299   2.800215   3.892487   2.597760
    18  H    3.226449   3.844953   4.419813   5.296428   4.910000
    19  C    2.324966   3.363622   2.720554   3.329214   2.854844
    20  H    2.763467   3.690648   3.140304   3.428139   3.222197
    21  H    3.289270   4.307479   3.051267   3.817543   2.807463
    22  Cl   4.727226   5.623716   5.178731   6.199159   5.171535
    23  C    3.688883   4.683664   5.208394   5.794829   5.446676
    24  H    4.425903   5.475293   5.522414   6.223493   5.564182
    25  H    4.055297   5.000018   5.576656   5.996499   5.794717
    26  H    4.092723   4.971456   5.928688   6.522453   6.282731
                   11         12         13         14         15
    11  C    0.000000
    12  H    1.097770   0.000000
    13  H    1.097763   1.776047   0.000000
    14  C    1.526735   2.132524   2.158202   0.000000
    15  O    2.417176   2.621939   2.863538   1.213195   0.000000
    16  H    5.123427   5.128637   6.199181   4.606148   5.007513
    17  H    2.841889   3.848938   3.138511   2.169570   3.116928
    18  H    4.175909   4.582247   4.965814   2.851515   2.938360
    19  C    3.807059   4.446395   4.585657   3.671865   4.719148
    20  H    4.470128   5.010850   5.229101   4.601280   5.676785
    21  H    4.055098   4.890708   4.628834   3.832160   4.907693
    22  Cl   5.240003   6.017541   5.746041   4.032851   4.418758
    23  C    5.987595   6.489346   6.858406   5.336724   6.022022
    24  H    6.284263   6.933019   7.036152   5.559224   6.268995
    25  H    6.553048   7.006630   7.437496   6.106731   6.872927
    26  H    6.522836   6.927062   7.439979   5.707661   6.201030
                   16         17         18         19         20
    16  H    0.000000
    17  H    5.038534   0.000000
    18  H    3.216438   3.085802   0.000000
    19  C    3.363806   2.808035   3.560976   0.000000
    20  H    3.691067   3.796865   4.572111   1.100627   0.000000
    21  H    4.297174   2.339401   3.798950   1.096271   1.784384
    22  Cl   4.816227   2.797069   2.368140   3.727005   4.717300
    23  C    2.881560   4.502835   3.561282   2.632156   2.930831
    24  H    3.889745   4.332272   3.800801   2.912784   3.300319
    25  H    3.218768   5.272847   4.572165   2.954065   2.830174
    26  H    2.724162   5.125224   3.478348   3.545286   3.916400
                   21         22         23         24         25
    21  H    0.000000
    22  Cl   3.303283   0.000000
    23  C    2.982042   3.480383   0.000000
    24  H    2.844051   2.986385   1.097326   0.000000
    25  H    3.398223   4.518162   1.098283   1.777615   0.000000
    26  H    3.947591   3.674111   1.097332   1.773719   1.778367
                   26
    26  H    0.000000
 Stoichiometry    C11H13ClO
 Framework group  C1[X(C11H13ClO)]
 Deg. of freedom    72
 Full point group                 C1      NOp   1
 Largest Abelian subgroup         C1      NOp   1
 Largest concise Abelian subgroup C1      NOp   1
                         Standard orientation:                         
 ---------------------------------------------------------------------
 Center     Atomic      Atomic             Coordinates (Angstroms)
 Number     Number       Type             X           Y           Z
 ---------------------------------------------------------------------
      1          6           0       -1.435102   -1.152670    0.191921
      2          6           0       -0.694329    1.093555    0.361615
      3          6           0        0.799005   -1.186492   -0.417650
      4          6           0        0.522095    0.936519   -0.328829
      5          6           0       -0.659223   -1.652348    1.272752
      6          6           0        0.664172   -1.685823    0.912401
      7          1           0        1.490992   -1.965829    1.558538
      8          6           0        2.134929   -1.053755   -1.088838
      9          1           0        2.703209   -1.992645   -1.064341
     10          1           0        1.997391   -0.784495   -2.145101
     11          6           0        2.891107    0.067544   -0.345358
     12          1           0        3.492511   -0.354304    0.470397
     13          1           0        3.565205    0.620120   -1.012693
     14          6           0        1.883648    1.031849    0.275982
     15          8           0        2.152992    1.781267    1.191223
     16          1           0       -1.058692   -1.912251    2.248675
[...]
 00001426,-0.01017076,-0.00566659,-0.00860191,-0.00000195,0.00004681,-0
 .00001304,0.00133325,0.00052134,-0.00062398,-0.00148616,0.00039980,0.0
 0104017,-0.00024953,-0.00035412,-0.00015409,-0.00010703,-0.00024195,-0
 .00041073,-0.00034848,-0.00039183,0.00062660,-0.00000173,-0.00001734,-
 0.00082613,-0.00224328,0.00172009,-0.00174515,0.00003956,0.00072551,-0
 .00077789,-0.00004529,0.00006810,-0.00007680,0.45009061,0.00230629,-0.
 04714569,-0.00339813,-0.01810179,-0.02337918,-0.00649343,-0.01622011,-
 0.04023609,-0.00583892,0.00737912,-0.03295429,-0.01608837,0.00284826,-
 0.00171206,0.01581925,0.00898897,-0.00157070,0.01688836,-0.00052201,0.
 00406420,0.00421569,0.00011883,-0.00327532,-0.00022664,0.00127501,-0.0
 0040228,-0.00061153,-0.00067042,0.00017993,0.00007968,-0.00195345,-0.0
 0224696,0.00096888,0.00002227,0.00025613,0.00018330,-0.00055378,-0.000
 13307,-0.00012182,0.00070555,0.00199164,-0.00053518,-0.00029293,0.0001
 1915,-0.00005349,0.00230475,0.00487377,0.00349094,-0.00097987,0.000293
 77,-0.00099158,-0.00004200,-0.00026152,0.00054470,-0.01664107,0.566759
 48,0.04895922,0.00629664,-0.16711155,-0.00666061,-0.01015860,-0.001739
 21,-0.04032649,0.00847933,-0.09900774,0.00348230,-0.01121565,-0.005082
 34,0.00012801,-0.00139038,-0.04369137,-0.02488702,-0.00249368,-0.02797
 142,0.00130990,0.00202933,-0.00377080,0.01265212,0.00496917,0.01271092
 ,0.00123397,-0.00027557,-0.00072869,-0.00023296,-0.00036038,0.00113314
 ,0.00254049,-0.00010348,-0.00162000,0.00030917,0.00046842,0.00032568,0
 .00053791,0.00074840,0.00053580,0.00110415,0.00018285,-0.00220859,-0.0
 0064886,0.00026950,0.00115565,-0.00280222,0.00128474,-0.00172781,0.000
 36348,0.00165684,-0.00017006,0.00003671,0.00046120,0.00010644,0.071160
 42,-0.05827522,0.59563288,0.00025235,0.01688149,0.00877669,-0.00145666
 ,0.00039921,0.00228614,-0.00437981,-0.02479111,-0.01264856,-0.00116920
 ,-0.00295973,-0.00167105,-0.00106236,-0.00056946,0.00125003,-0.0016336
 2,-0.00011915,-0.00011854,-0.00004383,0.00094950,0.00029721,0.00033112
 ,0.00115375,0.00070746,-0.00028463,-0.00007016,-0.00005834,-0.00000353
 ,-0.00011588,0.00017146,-0.00012977,-0.00032841,-0.00010423,0.00007785
 ,0.00011731,0.00004523,-0.00004272,0.00014275,0.00014280,0.00113516,0.
 00005642,0.00003532,-0.00040775,-0.00006365,-0.00033111,-0.00006706,-0
 .00053469,-0.00018365,0.00005422,0.00046779,0.00001203,0.00012175,0.00
 055905,-0.00011175,-0.03684325,-0.02024103,-0.01043570,0.04449673,-0.0
 0078752,-0.00346904,-0.00192570,-0.00224280,-0.00114434,-0.00015053,-0
 .00056576,-0.00396748,-0.00243410,0.00052842,-0.00243447,-0.00184428,0
 .00374624,0.00074888,0.00166359,-0.00195170,0.00074816,0.00344750,-0.0
 0004596,-0.00016002,-0.00013754,-0.00005999,0.00020186,-0.00027051,-0.
 00021058,0.00002041,0.00000609,-0.00001745,-0.00011654,-0.00002705,-0.
 00031239,-0.00008323,-0.00000106,-0.00004755,0.00004769,0.00003149,-0.
 00001656,0.00001154,0.00000436,0.00101560,-0.00025263,0.00029917,-0.00
 043776,0.00018984,-0.00031756,-0.00002587,-0.00018738,-0.00015188,0.00
 000175,0.00065879,-0.00021819,0.00003013,-0.00012054,0.00000795,-0.018
 95829,-0.27553055,-0.07730405,0.02240174,0.29869348,-0.00258145,-0.019
 70133,-0.00983753,-0.00227554,-0.00121485,-0.00106302,0.00181515,-0.00
 419882,-0.00230570,0.00231028,-0.00115596,-0.00120634,-0.00055380,-0.0
 0091730,-0.00157255,0.00094830,-0.00101328,-0.00108021,-0.00003727,0.0
 0058317,0.00011311,-0.00000778,-0.00001269,0.00009268,-0.00005855,-0.0
 0003962,0.00004638,-0.00003320,0.00004071,-0.00000699,-0.00007975,-0.0
 0004685,-0.00007699,-0.00000479,-0.00000115,0.00000117,0.00000935,0.00
 002846,0.00002701,0.00002193,0.00049442,-0.00012763,0.00000682,-0.0000
 4586,0.00028265,0.00013355,0.00117037,0.00024534,-0.00000320,-0.000160
 57,0.00041980,-0.00011479,-0.00041301,0.00013723,-0.01122374,-0.080965
 04,-0.06802113,0.00917774,0.08627384,0.07447691,0.00777387,-0.01393112
 ,0.01082176,0.00060736,-0.00022500,0.00117200,-0.00279515,0.01733582,-
 0.01935475,-0.00116661,0.00067672,-0.00139870,-0.00237024,0.00140857,0
 .00375515,-0.00532343,-0.00121906,-0.00273262,0.00039289,-0.00024920,-
 0.00134366,0.00124737,-0.00014007,-0.00072986,0.00024837,0.00004675,0.
 00009166,-0.00012916,-0.00020972,0.00071860,0.00010514,-0.00006369,0.0
 0020814,0.00007040,0.00007965,0.00006355,-0.00003121,-0.00003285,-0.00
 001086,0.00018068,-0.00030342,-0.00001681,-0.00007050,0.00006451,0.000
 05172,0.00075055,0.00028091,0.00061325,-0.00026625,-0.00078366,0.00008
 571,-0.00011960,0.00025738,-0.00003995,-0.07143582,0.04867448,-0.05592
 945,0.00064202,-0.00169149,0.00213581,0.07105310,-0.00156505,0.0010816
 4,-0.00557684,-0.00043835,-0.00029623,-0.00100353,-0.00293420,0.001995
 68,-0.00736152,-0.00117578,-0.00132404,-0.00163489,0.00212487,0.000564
 49,-0.00032823,-0.00241047,0.00060157,0.00081768,-0.00003237,0.0003368
 0,-0.00036156,0.00045100,-0.00036398,-0.00004453,0.00008612,0.00001881
 ,-0.00001964,0.00032875,0.00009349,0.00008562,0.00007447,0.00010051,-0
 .00006896,-0.00000672,-0.00004491,-0.00001880,0.00001940,-0.00000063,0
 .00000493,-0.00033256,-0.00033249,-0.00023237,0.00003599,0.00010075,-0
 .00001534,-0.00012689,0.00035282,-0.00024323,-0.00112610,-0.00055976,-
 0.00068547,0.00002215,0.00009918,0.00004253,0.05045143,-0.15210570,0.1
 3279839,0.00743867,-0.01488629,0.02038814,-0.05007081,0.16453194,-0.01
 004202,0.01269589,-0.01358437,0.00028698,0.00148521,-0.00130229,0.0006
 6238,0.00195677,-0.00491862,-0.00023569,0.00102196,0.00022900,0.001865
 64,0.00050715,-0.00427769,-0.00085663,0.00092733,-0.00089861,-0.000011
 06,0.00002419,-0.00036170,0.00014918,-0.00039411,0.00028576,0.00001419
 ,0.00002061,0.00005594,-0.00036475,0.00000419,0.00006662,0.00003653,0.
 00001514,0.00006684,0.00003756,-0.00000099,-0.00000943,-0.00002702,-0.
 00003612,-0.00002167,-0.00034794,0.00018350,0.00019110,0.00027487,-0.0
 0003125,0.00022202,-0.00080534,-0.00032957,-0.00083657,-0.00025946,-0.
 00066712,0.00051370,-0.00006681,-0.00025588,0.00013153,-0.05671573,0.1
 2807179,-0.19536981,0.00305652,-0.00698845,0.00827624,0.06285409,-0.13
 696399,0.21024654,-0.00266452,0.00108050,-0.00221054,-0.11060758,0.044
 35777,-0.05138364,0.00016140,-0.00280280,-0.00088798,-0.03579015,0.019
 90728,-0.02011544,0.00007737,0.00037542,0.00107823,-0.00057426,0.00170
 589,-0.00114496,0.00006878,-0.00038980,-0.00000525,-0.00011257,-0.0002
 5757,-0.00021077,-0.00002626,0.00009603,0.00003040,0.00000839,-0.00006
 135,0.00010945,-0.00180061,-0.00038977,-0.00014253,-0.00035316,0.00011
 662,0.00015985,-0.00032874,0.00018577,0.00018234,0.00268174,0.00439515
 ,0.00686120,-0.00035612,-0.00081485,-0.00239221,-0.00003435,-0.0000103
 8,-0.00014459,0.00056948,-0.00177832,-0.00099197,-0.00797577,0.0071883
 9,-0.00306591,0.00019092,0.00100989,-0.00093033,0.00020081,0.00004513,
 0.00067335,-0.00001169,-0.00039713,0.00060624,0.15655260,0.00350994,-0
 .01441402,0.00662283,0.05757875,-0.04089426,0.03058205,0.00178054,-0.0
 0842284,0.00395863,0.00295108,0.00405159,0.00577462,-0.00439554,0.0019
 5872,-0.00255142,0.00503289,-0.00128877,-0.00468877,-0.00002962,0.0005
 2102,0.00001450,-0.00040129,0.00041218,0.00017265,-0.00005864,0.000029
 81,0.00005237,0.00005586,0.00012356,-0.00013661,0.00000726,0.00010689,
 -0.00002370,-0.00005676,-0.00002171,0.00003954,0.00008687,0.00005954,-
 0.00007264,-0.00259960,0.00155173,-0.00151473,0.00068438,0.00014362,0.
 00158783,-0.00016594,0.00003265,0.00009587,-0.00026097,-0.00278650,-0.
 00036237,0.00344725,-0.00201521,0.00105492,0.00112421,0.00176658,0.001
 60380,-0.00024010,0.00037590,0.00005460,-0.00032397,0.00005387,-0.0004
 4324,-0.06896925,0.06482649,-0.00095400,0.00225803,-0.00165969,-0.0507
 2348,0.02582474,-0.07683319,0.00050752,-0.00045478,-0.00094360,0.00095
 342,0.00010087,0.00606557,0.00088997,-0.00084486,0.00108069,-0.0008692
 8,0.00140250,0.00034706,0.00005781,-0.00015356,0.00006098,0.00002345,-
 0.00010473,-0.00007489,0.00003303,0.00004137,-0.00003151,-0.00005122,-
 0.00001494,0.00006948,-0.00006850,0.00004374,-0.00000373,-0.00002964,0
 .00001768,0.00003513,-0.00003392,0.00002065,0.00003037,0.00204109,-0.0
 0031059,0.00063209,-0.00031103,0.00033934,0.00014222,-0.00000160,-0.00
 008619,-0.00000226,0.00052198,-0.00100150,0.00144834,-0.02364700,0.015
 53795,-0.00532079,0.00017827,0.00078890,-0.00015925,-0.00005486,0.0000
 8268,0.00046449,-0.00045976,0.00004929,0.00063933,0.07261246,-0.043462
 01,0.07336921,-0.24839134,-0.00507010,0.00339018,0.00111405,-0.0045691
 1,0.00084047,-0.00087802,-0.00297256,0.00163485,-0.00205764,0.00190996
 ,0.00093093,-0.02215391,-0.00319642,-0.00011615,0.00184284,0.00089676,
 -0.00383637,-0.00013210,0.00032599,0.00027860,0.00021530,-0.00014887,-
 0.00027588,-0.00002781,0.00005724,0.00001392,0.00001394,0.00003235,-0.
 00001236,-0.00009155,0.00002364,0.00009821,0.00000735,-0.00001266,-0.0
 0001828,-0.00004536,-0.00000033,-0.00001097,0.00025393,-0.00027978,0.0
 0031175,-0.00004247,0.00005512,-0.00025704,0.00162290,0.00000844,0.000
 91861,0.00001610,-0.00000612,-0.00003582,0.00016096,0.00032184,-0.0002
 6708,-0.01075408,0.00132631,0.00155070,0.00020416,-0.00055385,-0.00027
 798,0.00078254,-0.00027019,-0.00067612,-0.00209888,0.00117121,-0.00180
 498,0.51607830,-0.01296632,-0.06396584,0.00064677,-0.00864032,-0.00374
 745,0.00028492,-0.00467739,0.00071596,-0.00311358,0.00169185,-0.001907
 99,-0.00163805,0.01730998,0.00417323,-0.00062310,-0.00086775,0.0028816
 1,0.00779500,0.00074136,-0.00006358,-0.00021960,-0.00025315,0.00254301
 ,0.00062967,-0.00059975,-0.00028952,0.00051766,-0.00000953,-0.00010009
 ,0.00003461,0.00046808,0.00013732,-0.00041709,-0.00003928,0.00007816,0
 .00001259,0.00001468,0.00003494,0.00002944,0.00000524,0.00073953,0.000
 69846,-0.00004093,-0.00021758,-0.00023238,-0.00075635,-0.00315735,-0.0
 0097917,-0.00013224,0.00002528,0.00011566,0.00010562,0.00008753,-0.000
 10529,0.00384763,-0.00055091,0.00050784,-0.00008116,0.00008609,0.00025
 115,0.00003839,-0.00010012,-0.00044408,-0.00138891,-0.00334148,0.00093
 086,-0.01329907,0.55831110,0.00825255,0.00335826,-0.09079389,-0.000286
 69,-0.00142084,0.00013882,0.00141690,-0.00158533,-0.00668539,-0.000766
 56,0.00025229,-0.00000903,-0.02451966,-0.00475498,0.00557665,-0.002309
 62,0.00206693,-0.00270715,-0.00094581,0.00031135,0.00075985,0.00087900
 ,0.00085890,0.00129500,-0.00003519,-0.00004141,0.00011970,-0.00016900,
 -0.00009435,0.00014021,0.00027171,0.00001873,-0.00016620,0.00004938,0.
 00012306,0.00006436,0.00002275,0.00005169,0.00004178,0.00062616,-0.000
 01694,0.00054279,-0.00013608,0.00003991,-0.00022583,-0.00013775,-0.000
 28576,0.00077232,-0.00006473,-0.00024533,0.00002674,-0.00023670,-0.000
 24571,0.00001872,0.02718976,0.00383087,0.00569520,-0.00037825,-0.00016
 416,0.00068222,-0.00042188,0.00012212,0.00039391,-0.00087414,0.0010917
 9,-0.00003034,-0.00360481,-0.00739551,0.59218650,-0.01350267,0.0224516
 7,-0.02049477,-0.00087694,0.00209057,-0.00146808,0.00025115,-0.0006868
 6,0.00007325,-0.00056106,0.00016143,0.00033692,-0.00551907,-0.00044538
 ,0.00203798,-0.00027399,-0.00031944,-0.00173383,-0.00040129,0.00001559
 ,0.00019825,0.00004982,-0.00014172,-0.00001566,0.00000992,0.00001533,-
 0.00000216,-0.00003640,-0.00001072,0.00003545,-0.00001281,0.00000616,0
 .00007278,0.00002045,0.00001280,0.00000828,-0.00001846,-0.00003585,-0.
 00002271,-0.00001858,-0.00009259,0.00013319,0.00003505,-0.00003662,-0.
 00006468,0.00008535,0.00018680,0.00004618,-0.00006637,-0.00002928,0.00
 001731,-0.00001101,-0.00042986,0.00008680,0.00094706,0.00011367,-0.000
 37045,0.00016139,-0.00013668,-0.00010872,-0.00025553,-0.00004726,0.000
 59069,0.00112005,-0.00018780,0.00078517,-0.09201964,0.08209313,-0.0618
 0096,0.10308046,0.00060029,0.00366099,-0.00296643,0.00084603,-0.000667
 02,-0.00019959,0.00037123,-0.00100530,0.00041849,-0.00058851,0.0007803
 3,0.00076720,-0.00271455,-0.00045244,-0.00091449,0.00044892,0.00011049
 ,-0.00101267,-0.00007320,0.00020269,0.00002661,-0.00004315,-0.00001572
 ,0.00000638,0.00001544,0.00001184,-0.00000780,0.00001125,0.00001998,-0
 .00001075,0.00005857,0.00001782,0.00002866,0.00001732,-0.00001935,-0.0
 0001558,-0.00000165,0.00000758,-0.00000341,-0.00005706,-0.00020669,-0.
 00006305,0.00006299,0.00001998,-0.00001409,0.00005886,0.00006074,0.000
 07366,-0.00005355,0.00001913,-0.00001504,0.00015840,-0.00015845,0.0000
 1642,0.00013349,0.00042018,0.00025990,0.00007199,-0.00001632,0.0000866
 5,0.00019792,0.00016128,-0.00006664,-0.00242791,-0.00268210,-0.0004699
 5,0.08272395,-0.18677477,0.11375513,-0.08832750,0.20014226,-0.00240660
 ,-0.00273156,-0.00032076,-0.00156229,0.00084451,-0.00031098,0.00010502
 ,0.00100098,-0.00009615,0.00082185,-0.00069004,-0.00029720,0.00076980,
 0.00096451,0.00135340,-0.00049423,-0.00041373,0.00044315,-0.00003618,-
 0.00010960,0.00001534,-0.00001617,-0.00000462,0.00003175,0.00001563,-0
 .00001766,-0.00002273,0.,0.00000603,-0.00000159,0.00002317,-0.00001146
 ,-0.00002775,0.00000734,-0.00000849,-0.00000294,0.00001235,-0.00000402
 ,0.00000421,-0.00023665,0.00012974,-0.00016991,0.00006545,-0.00003561,
 0.00012223,0.00027977,0.00007270,0.00023806,0.00001379,0.00004068,0.00
 000541,-0.00012803,-0.00007403,-0.00001091,-0.00016025,-0.00100201,0.0
 0012634,0.00002038,-0.00000472,0.00000174,-0.00001041,0.00015142,0.000
 11975,0.00154366,0.00025642,0.00033268,-0.06131243,0.11217734,-0.13595
 229,0.06944166,-0.12154107,0.14031430,-0.01209530,-0.02715010,-0.01383
 275,-0.00161189,0.00111095,-0.00089213,-0.00156792,-0.00012067,-0.0012
 9904,-0.00017094,-0.00004633,-0.00021402,0.00117100,-0.00075194,0.0010
 8153,-0.00096061,0.00066096,0.00189227,-0.00005308,-0.00000446,0.00005
 489,-0.00009304,0.00069242,0.00019738,-0.00020694,-0.00008093,0.000193
 53,-0.00003388,-0.00004753,0.00004581,0.00011939,0.00005535,-0.0000207
 2,-0.00000340,0.00004365,0.00000792,-0.00001827,-0.00002447,-0.0000158
 4,0.00023379,0.00018427,0.00045238,-0.00006262,-0.00010211,-0.00023997
 ,-0.00005296,-0.00057276,-0.00021211,-0.00007601,-0.00002869,0.0000545
 0,-0.00010210,-0.00039236,0.00007964,0.00138069,0.00000277,0.00009339,
 -0.00034950,0.00018289,0.00039293,0.00011494,-0.00002074,-0.00004604,0
 .00099382,0.00033639,0.00025941,-0.06558257,-0.07124061,-0.02763026,0.
 00351313,0.01128233,0.00600328,0.07290714,-0.00020728,0.00088232,0.000
 37567,0.00062113,-0.00038010,0.00036837,0.00001929,0.00034768,-0.00021
 657,0.00000612,0.00001046,-0.00006068,0.00086289,-0.00019042,0.0005552
 3,-0.00054867,-0.00000703,0.00047632,-0.00001640,-0.00000911,0.0000205
 0,-0.00005174,0.00012052,0.00001908,-0.00003795,-0.00001369,0.00001834
 ,-0.00000546,-0.00002656,0.00001337,-0.00000211,0.00000823,-0.00000359
 ,-0.00000330,0.00001241,0.00000483,0.00000320,-0.00000500,0.00000328,0
 .00016796,0.00004483,0.00011915,-0.00005539,-0.00002279,-0.00004427,0.
 00001732,-0.00011407,0.00001683,-0.00002085,-0.00002344,-0.00000036,-0
 .00000601,0.00002236,0.00000497,-0.00018726,-0.00006305,-0.00026410,-0
 .00016404,0.00035334,0.00014247,-0.00002911,-0.00007743,-0.00003482,-0
 .00089279,0.00014843,-0.00029710,-0.06804941,-0.25778657,-0.08754274,-
 0.00692987,-0.01734007,-0.00948493,0.07558682,0.27481188,-0.00173164,0
 .00105820,-0.00101376,-0.00052181,0.00111247,-0.00005740,0.00046539,0.
 00056694,0.00046304,0.00039907,-0.00036090,-0.00009764,-0.00035299,0.0
 0004244,0.00056132,-0.00006710,0.00044078,0.00002830,-0.00002755,-0.00
 001700,-0.00001754,-0.00003372,-0.00011361,-0.00006714,0.00002026,-0.0
 0001261,-0.00001660,0.00001278,0.00000114,-0.00000459,-0.00000861,-0.0
 0000758,-0.00000813,-0.00000334,-0.00000624,-0.00000536,0.00000664,-0.
 00000470,-0.00000179,-0.00007327,0.00002699,-0.00007502,0.00000323,-0.
 00001004,0.00006364,-0.00005196,-0.00030175,-0.00009303,-0.00002860,0.
 00001870,0.00000579,0.00012985,0.00011476,-0.00002853,-0.00049819,-0.0
 0050163,-0.00022619,0.00021139,0.00013216,0.00002115,0.00001236,0.0001
 5414,0.00004264,0.00069195,-0.00010184,0.00028067,-0.02551712,-0.08712
 545,-0.07963238,0.00613366,0.01598087,0.00714576,0.03038145,0.09464795
 ,0.08088119,-0.01062316,0.00352658,0.03381568,0.00026758,0.00030781,-0
 .00019190,-0.00049737,0.00007263,0.00201832,-0.00014435,0.00025367,-0.
 00012310,0.00146287,0.00002678,0.00052441,0.00035795,-0.00033568,-0.00
 025195,0.00006451,-0.00001591,-0.00009471,-0.00028310,-0.00023857,-0.0
 0047851,-0.00003473,0.00001256,0.00001036,0.00005527,0.00002048,-0.000
 02692,-0.00010239,0.00000387,0.00011696,-0.00001376,-0.00002626,-0.000
 02177,-0.00003276,-0.00004083,-0.00002913,-0.00004265,0.00007670,0.000
 11791,0.00001258,-0.00006640,-0.00014749,-0.00027180,0.00027198,-0.000
 77533,0.00003035,0.00007355,-0.00001824,-0.00014927,-0.00029894,-0.000
 02269,-0.00513672,-0.00085772,-0.00223784,0.00019613,0.00011033,-0.000
 26467,0.00000594,-0.00007825,0.00001973,0.00010929,-0.00007715,0.00014
 569,-0.07803700,0.00867679,0.08560988,0.00429999,-0.00277186,-0.012759
 91,0.00260714,-0.00007709,-0.00955212,0.08589946,-0.00244378,-0.001593
 62,0.00318102,0.00015038,0.00033735,0.00022468,-0.00004098,0.00018533,
 -0.00001995,-0.00015136,0.00003192,-0.00002760,0.00035721,-0.00012177,
 -0.00036667,-0.00002110,-0.00024365,-0.00003945,-0.00001557,0.00000530
 ,-0.00000410,-0.00003875,0.00012054,0.00006054,-0.00001774,0.,-0.00000
 232,0.00000191,0.00000178,-0.00000593,0.00004136,0.00001162,-0.0000354
 7,0.00000402,-0.00000336,-0.00000144,0.00001212,0.00001010,0.00000921,
 0.00001112,-0.00003016,0.00003037,0.00001395,-0.00000450,-0.00003111,0
 .00012263,0.00013794,0.00012209,0.00003119,0.00000908,-0.00001177,-0.0
 0014211,-0.00006905,-0.00007454,-0.00002412,0.00084255,-0.00017522,-0.
 00036112,0.00023286,0.00037234,0.00021208,-0.00000127,-0.00025746,0.00
 011699,-0.00029567,-0.00023839,0.00957566,-0.04781053,-0.02208796,-0.0
 0928974,0.00370295,0.02048921,0.01044487,-0.00070310,-0.02573417,-0.00
 854909,0.04524737,-0.00104406,-0.00003771,0.00129920,0.00013123,-0.000
 08475,0.00003578,-0.00014411,-0.00010078,-0.00001354,0.00006706,0.0000
 1933,0.00010673,-0.00112470,0.00033764,0.00117728,0.00029207,0.0002934
 5,0.00007300,0.00003910,-0.00003871,-0.00000290,0.00000996,-0.00011418
 ,0.00006286,0.00003391,0.00000561,-0.00001667,-0.00000785,-0.00000208,
 0.00000468,-0.00000174,-0.00001041,-0.00001303,0.00000129,-0.00000079,
 0.00000647,0.00000515,0.00000832,-0.00000202,-0.00010607,-0.00006525,-
 0.00012886,0.00003626,0.00004702,0.00011892,0.00051926,-0.00026883,0.0
 0004194,-0.00002135,-0.00002368,0.00001100,0.00016406,0.00015576,-0.00
 003409,-0.00054063,0.00022065,0.00118391,-0.00009436,-0.00000904,0.000
 00996,-0.00013511,-0.00005536,0.00009985,-0.00004885,0.00039491,0.0000
 6096,0.08805516,-0.02233866,-0.29225227,0.00608445,-0.00411940,-0.0130
 4090,0.00321257,0.00116282,-0.00814840,-0.09538266,0.02462411,0.309360
 15\\-0.00000029,0.00000060,-0.00000061,-0.00000171,0.00000037,-0.00000
 305,0.00000061,0.00000042,0.00000159,0.00000011,-0.00000093,-0.0000025
 2,-0.00000034,0.00000184,0.00000146,-0.00000078,0.00000181,0.00000292,
 -0.00000107,0.00000328,0.00000377,0.00000110,-0.00000131,0.00000296,0.
 00000186,-0.00000108,0.00000484,0.00000220,-0.00000301,0.00000190,0.00
 000014,0.00000056,0.00000128,-0.00000039,0.00000214,0.00000299,0.00000
 047,-0.00000042,0.00000081,-0.00000095,0.00000141,-0.00000049,-0.00000
 251,0.00000364,-0.00000149,-0.00000184,0.00000371,0.00000135,0.0000006
 3,-0.00000197,-0.00000252,-0.00000221,0.00000245,-0.00000383,0.0000010
 4,-0.00000233,0.00000068,0.00000214,-0.00000263,0.00000241,0.00000191,
 -0.00000345,-0.00000063,-0.00000057,-0.00000167,-0.00000624,0.00000006
 ,-0.00000061,-0.00000162,0.00000054,-0.00000180,-0.00000336,0.00000092
 ,-0.00000181,-0.00000019,-0.00000109,0.00000079,-0.00000241\\\@
 The archive entry for this job was punched.


 GOORD'S AXIOM:  A MEETING IS AN EVENT AT WHICH
 THE MINUTES ARE KEPT AND THE HOURS ARE LOST.
 Job cpu time:       0 days  4 hours 20 minutes 34.8 seconds.
 Elapsed time:       0 days  0 hours 44 minutes 53.0 seconds.
 File lengths (MBytes):  RWF=      6 Int=      0 D2E=      0 Chk=      2 Scr=      1
 Normal termination of Gaussian 16 at Wed Jan 17 20:59:07 2024.
