Unloading slurm/anatra/current
  ERROR: No such file or directory on
    '/cm/local/modulefiles/slurm/anatra/current'
environment: line 0: unalias: gv: not found
environment: line 0: unalias: sl: not found
 Entering Gaussian System, Link 0=g16
 Initial command:
 /apps/gaussian/g16/C.01/g16/l1.exe "/local/jobs/1158122/Gau-1335310.inp" -scrdir="/local/jobs/1158122/"
 Entering Link 1 = /apps/gaussian/g16/C.01/g16/l1.exe PID=   1335313.
  
 Copyright (c) 1988-2019, Gaussian, Inc.  All Rights Reserved.
  
 This is part of the Gaussian(R) 16 program.  It is based on
 the Gaussian(R) 09 system (copyright 2009, Gaussian, Inc.),
 the Gaussian(R) 03 system (copyright 2003, Gaussian, Inc.),
 the Gaussian(R) 98 system (copyright 1998, Gaussian, Inc.),
 the Gaussian(R) 94 system (copyright 1995, Gaussian, Inc.),
 the Gaussian 92(TM) system (copyright 1992, Gaussian, Inc.),
 the Gaussian 90(TM) system (copyright 1990, Gaussian, Inc.),
 the Gaussian 88(TM) system (copyright 1988, Gaussian, Inc.),
 the Gaussian 86(TM) system (copyright 1986, Carnegie Mellon
 University), and the Gaussian 82(TM) system (copyright 1983,
 Carnegie Mellon University). Gaussian is a federally registered
 trademark of Gaussian, Inc.
  
 This software contains proprietary and confidential information,
 including trade secrets, belonging to Gaussian, Inc.
  
 This software is provided under written license and may be
 used, copied, transmitted, or stored only in accord with that
 written license.
  
 The following legend is applicable only to US Government
 contracts under FAR:
  
                    RESTRICTED RIGHTS LEGEND
  
 Use, reproduction and disclosure by the US Government is
 subject to restrictions as set forth in subparagraphs (a)
 and (c) of the Commercial Computer Software - Restricted
 Rights clause in FAR 52.227-19.
  
 Gaussian, Inc.
 340 Quinnipiac St., Bldg. 40, Wallingford CT 06492
  
  
 ---------------------------------------------------------------
 Warning -- This program may not be used in any manner that
 competes with the business of Gaussian, Inc. or will provide
 assistance to any competitor of Gaussian, Inc.  The licensee
 of this program is prohibited from giving any competitor of
 Gaussian, Inc. access to this program.  By using this program,
 the user acknowledges that Gaussian, Inc. is engaged in the
 business of creating and licensing software in the field of
 computational chemistry and represents and warrants to the
 licensee that it is not a competitor of Gaussian, Inc. and that
 it will not use this program in any manner prohibited above.
 ---------------------------------------------------------------
  

 Cite this work as:
 Gaussian 16, Revision C.01,
 M. J. Frisch, G. W. Trucks, H. B. Schlegel, G. E. Scuseria, 
 M. A. Robb, J. R. Cheeseman, G. Scalmani, V. Barone, 
 G. A. Petersson, H. Nakatsuji, X. Li, M. Caricato, A. V. Marenich, 
 J. Bloino, B. G. Janesko, R. Gomperts, B. Mennucci, H. P. Hratchian, 
 J. V. Ortiz, A. F. Izmaylov, J. L. Sonnenberg, D. Williams-Young, 
 F. Ding, F. Lipparini, F. Egidi, J. Goings, B. Peng, A. Petrone, 
 T. Henderson, D. Ranasinghe, V. G. Zakrzewski, J. Gao, N. Rega, 
 G. Zheng, W. Liang, M. Hada, M. Ehara, K. Toyota, R. Fukuda, 
 J. Hasegawa, M. Ishida, T. Nakajima, Y. Honda, O. Kitao, H. Nakai, 
 T. Vreven, K. Throssell, J. A. Montgomery, Jr., J. E. Peralta, 
 F. Ogliaro, M. J. Bearpark, J. J. Heyd, E. N. Brothers, K. N. Kudin, 
 V. N. Staroverov, T. A. Keith, R. Kobayashi, J. Normand, 
 K. Raghavachari, A. P. Rendell, J. C. Burant, S. S. Iyengar, 
 J. Tomasi, M. Cossi, J. M. Millam, M. Klene, C. Adamo, R. Cammi, 
 J. W. Ochterski, R. L. Martin, K. Morokuma, O. Farkas, 
 J. B. Foresman, and D. J. Fox, Gaussian, Inc., Wallingford CT, 2019.
 
 ******************************************
 Gaussian 16:  ES64L-G16RevC.01  3-Jul-2019
                17-Jan-2024 
 ******************************************
 %nprocshared=12
 Will use up to   12 processors via shared memory.
 %mem=48GB
 ----------------------------------------------------------------------
 # external="~/scripts/MiMe -H 'wb97xd def2svp' -EF 'wb97xd def2svp' -c
  12 -m 48GB" opt=(calcall,ts,noeigen,maxcycles=50,maxstep=10,nomicro)
 ----------------------------------------------------------------------
 1/5=1,6=50,8=10,10=4,11=1,18=20,26=1,38=1/1,3;
 2/9=110,12=2,17=6,18=5,40=1/2;
 3/11=9,25=1,30=1,41=9900000,43=2,71=2,140=1/1;
 4/20=17,22=2,24=3,113=1,114=1/2;
 6/7=2,8=2,9=2,10=2,18=1/1;
 7/25=1,44=-1/16;
 1/5=1,6=50,8=10,10=4,11=1,18=20,26=1/3(3);
 2/9=110/2;
 7/8=1,9=1,25=1,44=-1/16;
 99//99;
 2/9=110/2;
 3/11=9,25=1,30=1,41=9900000,43=2,71=2,140=1/1;
 4/16=2,20=17,22=2,24=3,113=1,114=1/2;
 7/25=1,44=-1/16;
 1/5=1,6=50,8=10,10=4,11=1,18=20,26=1/3(-4);
 2/9=110/2;
 6/7=2,8=2,9=2,10=2,18=1/1;
 7/8=1,9=1,25=1,44=-1/16;
 99//99;
 ----------
 TS-325.out
 ----------
 Symbolic Z-matrix:
 Charge =  0 Multiplicity = 1
 C                     0.06177   0.16222  -0.05987 
 C                    -0.40074   1.45584   0.53163 
 O                    -1.15429   1.50254   1.49781 
 C                    -0.85367  -0.80502  -0.34582 
 C                    -0.17766  -2.94069   1.77398 
 H                    -0.63118  -3.30064   2.7018 
 H                    -0.07938  -3.77989   1.08005 
 H                     0.82018  -2.55382   1.99723 
 N                    -1.00546  -1.89012   1.17544 
 H                    -1.95493  -2.2718    1.0865 
 H                    -1.12869  -1.1636    1.89783 
 H                    -0.54188  -1.70552  -0.88485 
 Br                   -2.6779   -0.38746  -0.7648 
 C                     1.50834  -0.10668  -0.22143 
 C                     2.39043   0.13335   0.84219 
 C                     3.76031  -0.0945    0.69505 
 C                     4.26366  -0.56034  -0.51778 
 C                     3.39924  -0.79839  -1.58439 
 C                     2.02876  -0.57131  -1.43866 
 H                     2.01427   0.49002   1.7996 
 H                     4.43291   0.08937   1.52903 
 H                     5.33005  -0.7391   -0.63114 
 H                     3.79175  -1.16099  -2.5311 
 H                     1.37285  -0.75516  -2.28698 
 N                     0.13935   2.56268  -0.08207 
 C                    -0.10745   3.88962   0.41632 
 H                     0.84287   2.43119  -0.79729 
 H                    -1.14152   3.98435   0.75836 
 H                     0.57131   4.07921   1.25198 
 H                     0.08687   4.60465  -0.38633 
 
 Add virtual bond connecting atoms N9         and C4         Dist= 3.54D+00.

 GradGradGradGradGradGradGradGradGradGradGradGradGradGradGradGradGradGrad
 Berny optimization.
 Initialization pass.
                           ----------------------------
                           !    Initial Parameters    !
                           ! (Angstroms and Degrees)  !
 --------------------------                            --------------------------
 ! Name  Definition              Value          Derivative Info.                !
 --------------------------------------------------------------------------------
 ! R1    R(1,2)                  1.4957         calculate D2E/DX2 analytically  !
 ! R2    R(1,4)                  1.3621         calculate D2E/DX2 analytically  !
 ! R3    R(1,14)                 1.4802         calculate D2E/DX2 analytically  !
 ! R4    R(2,3)                  1.2262         calculate D2E/DX2 analytically  !
 ! R5    R(2,25)                 1.376          calculate D2E/DX2 analytically  !
 ! R6    R(4,9)                  1.8748         calculate D2E/DX2 analytically  !
 ! R7    R(4,12)                 1.0948         calculate D2E/DX2 analytically  !
 ! R8    R(4,13)                 1.9177         calculate D2E/DX2 analytically  !
 ! R9    R(5,6)                  1.0937         calculate D2E/DX2 analytically  !
 ! R10   R(5,7)                  1.0934         calculate D2E/DX2 analytically  !
 ! R11   R(5,8)                  1.0932         calculate D2E/DX2 analytically  !
 ! R12   R(5,9)                  1.4653         calculate D2E/DX2 analytically  !
 ! R13   R(9,10)                 1.0272         calculate D2E/DX2 analytically  !
 ! R14   R(9,11)                 1.0319         calculate D2E/DX2 analytically  !
 ! R15   R(14,15)                1.4025         calculate D2E/DX2 analytically  !
 ! R16   R(14,19)                1.403          calculate D2E/DX2 analytically  !
 ! R17   R(15,16)                1.3965         calculate D2E/DX2 analytically  !
 ! R18   R(15,20)                1.0887         calculate D2E/DX2 analytically  !
 ! R19   R(16,17)                1.3933         calculate D2E/DX2 analytically  !
 ! R20   R(16,21)                1.0871         calculate D2E/DX2 analytically  !
 ! R21   R(17,18)                1.3934         calculate D2E/DX2 analytically  !
 ! R22   R(17,22)                1.0872         calculate D2E/DX2 analytically  !
 ! R23   R(18,19)                1.3968         calculate D2E/DX2 analytically  !
 ! R24   R(18,23)                1.0871         calculate D2E/DX2 analytically  !
 ! R25   R(19,24)                1.088          calculate D2E/DX2 analytically  !
 ! R26   R(25,26)                1.4388         calculate D2E/DX2 analytically  !
 ! R27   R(25,27)                1.0118         calculate D2E/DX2 analytically  !
 ! R28   R(26,28)                1.0933         calculate D2E/DX2 analytically  !
 ! R29   R(26,29)                1.0932         calculate D2E/DX2 analytically  !
 ! R30   R(26,30)                1.0924         calculate D2E/DX2 analytically  !
 ! A1    A(2,1,4)              119.2977         calculate D2E/DX2 analytically  !
 ! A2    A(2,1,14)             120.1638         calculate D2E/DX2 analytically  !
 ! A3    A(4,1,14)             120.3242         calculate D2E/DX2 analytically  !
 ! A4    A(1,2,3)              122.3149         calculate D2E/DX2 analytically  !
 ! A5    A(1,2,25)             113.4496         calculate D2E/DX2 analytically  !
 ! A6    A(3,2,25)             124.1945         calculate D2E/DX2 analytically  !
 ! A7    A(1,4,9)              107.1618         calculate D2E/DX2 analytically  !
 ! A8    A(1,4,12)             119.737          calculate D2E/DX2 analytically  !
 ! A9    A(1,4,13)             122.0429         calculate D2E/DX2 analytically  !
 ! A10   A(9,4,12)              86.9335         calculate D2E/DX2 analytically  !
 ! A11   A(9,4,13)             103.0786         calculate D2E/DX2 analytically  !
 ! A12   A(12,4,13)            110.0243         calculate D2E/DX2 analytically  !
 ! A13   A(6,5,7)              108.85           calculate D2E/DX2 analytically  !
 ! A14   A(6,5,8)              108.7668         calculate D2E/DX2 analytically  !
 ! A15   A(6,5,9)              110.3791         calculate D2E/DX2 analytically  !
 ! A16   A(7,5,8)              108.6128         calculate D2E/DX2 analytically  !
 ! A17   A(7,5,9)              109.9879         calculate D2E/DX2 analytically  !
 ! A18   A(8,5,9)              110.2017         calculate D2E/DX2 analytically  !
 ! A19   A(4,9,5)              134.4812         calculate D2E/DX2 analytically  !
 ! A20   A(4,9,10)             102.6885         calculate D2E/DX2 analytically  !
 ! A21   A(4,9,11)              99.8004         calculate D2E/DX2 analytically  !
 ! A22   A(5,9,10)             106.9268         calculate D2E/DX2 analytically  !
 ! A23   A(5,9,11)             106.6355         calculate D2E/DX2 analytically  !
 ! A24   A(10,9,11)            102.2303         calculate D2E/DX2 analytically  !
 ! A25   A(1,14,15)            120.0524         calculate D2E/DX2 analytically  !
 ! A26   A(1,14,19)            121.1561         calculate D2E/DX2 analytically  !
 ! A27   A(15,14,19)           118.7735         calculate D2E/DX2 analytically  !
 ! A28   A(14,15,16)           120.6063         calculate D2E/DX2 analytically  !
 ! A29   A(14,15,20)           120.3757         calculate D2E/DX2 analytically  !
 ! A30   A(16,15,20)           119.0145         calculate D2E/DX2 analytically  !
 ! A31   A(15,16,17)           120.043          calculate D2E/DX2 analytically  !
 ! A32   A(15,16,21)           119.9017         calculate D2E/DX2 analytically  !
 ! A33   A(17,16,21)           120.0551         calculate D2E/DX2 analytically  !
 ! A34   A(16,17,18)           119.9552         calculate D2E/DX2 analytically  !
 ! A35   A(16,17,22)           120.0055         calculate D2E/DX2 analytically  !
 ! A36   A(18,17,22)           120.0393         calculate D2E/DX2 analytically  !
 ! A37   A(17,18,19)           120.0693         calculate D2E/DX2 analytically  !
 ! A38   A(17,18,23)           119.9742         calculate D2E/DX2 analytically  !
 ! A39   A(19,18,23)           119.9565         calculate D2E/DX2 analytically  !
 ! A40   A(14,19,18)           120.5513         calculate D2E/DX2 analytically  !
 ! A41   A(14,19,24)           120.5858         calculate D2E/DX2 analytically  !
 ! A42   A(18,19,24)           118.8619         calculate D2E/DX2 analytically  !
 ! A43   A(2,25,26)            121.3346         calculate D2E/DX2 analytically  !
 ! A44   A(2,25,27)            118.9233         calculate D2E/DX2 analytically  !
 ! A45   A(26,25,27)           118.9457         calculate D2E/DX2 analytically  !
 ! A46   A(25,26,28)           110.5197         calculate D2E/DX2 analytically  !
 ! A47   A(25,26,29)           108.557          calculate D2E/DX2 analytically  !
 ! A48   A(25,26,30)           108.5812         calculate D2E/DX2 analytically  !
 ! A49   A(28,26,29)           109.457          calculate D2E/DX2 analytically  !
 ! A50   A(28,26,30)           109.9632         calculate D2E/DX2 analytically  !
 ! A51   A(29,26,30)           109.7381         calculate D2E/DX2 analytically  !
 ! D1    D(4,1,2,3)             49.1418         calculate D2E/DX2 analytically  !
 ! D2    D(4,1,2,25)          -133.0961         calculate D2E/DX2 analytically  !
 ! D3    D(14,1,2,3)          -125.5571         calculate D2E/DX2 analytically  !
 ! D4    D(14,1,2,25)           52.2051         calculate D2E/DX2 analytically  !
 ! D5    D(2,1,4,9)            -90.7057         calculate D2E/DX2 analytically  !
 ! D6    D(2,1,4,12)           172.8674         calculate D2E/DX2 analytically  !
 ! D7    D(2,1,4,13)            27.5036         calculate D2E/DX2 analytically  !
 ! D8    D(14,1,4,9)            83.9844         calculate D2E/DX2 analytically  !
 ! D9    D(14,1,4,12)          -12.4424         calculate D2E/DX2 analytically  !
 ! D10   D(14,1,4,13)         -157.8063         calculate D2E/DX2 analytically  !
 ! D11   D(2,1,14,15)           47.5529         calculate D2E/DX2 analytically  !
 ! D12   D(2,1,14,19)         -130.8817         calculate D2E/DX2 analytically  !
 ! D13   D(4,1,14,15)         -127.091          calculate D2E/DX2 analytically  !
 ! D14   D(4,1,14,19)           54.4743         calculate D2E/DX2 analytically  !
 ! D15   D(1,2,25,26)         -175.0909         calculate D2E/DX2 analytically  !
 ! D16   D(1,2,25,27)           -5.4202         calculate D2E/DX2 analytically  !
 ! D17   D(3,2,25,26)            2.6225         calculate D2E/DX2 analytically  !
 ! D18   D(3,2,25,27)          172.2932         calculate D2E/DX2 analytically  !
 ! D19   D(1,4,9,5)            -76.1611         calculate D2E/DX2 analytically  !
 ! D20   D(1,4,9,10)           154.0923         calculate D2E/DX2 analytically  !
 ! D21   D(1,4,9,11)            49.0666         calculate D2E/DX2 analytically  !
 ! D22   D(12,4,9,5)            44.0598         calculate D2E/DX2 analytically  !
 ! D23   D(12,4,9,10)          -85.6868         calculate D2E/DX2 analytically  !
 ! D24   D(12,4,9,11)          169.2875         calculate D2E/DX2 analytically  !
 ! D25   D(13,4,9,5)           153.9121         calculate D2E/DX2 analytically  !
 ! D26   D(13,4,9,10)           24.1655         calculate D2E/DX2 analytically  !
 ! D27   D(13,4,9,11)          -80.8602         calculate D2E/DX2 analytically  !
 ! D28   D(6,5,9,4)            178.1429         calculate D2E/DX2 analytically  !
 ! D29   D(6,5,9,10)           -53.4919         calculate D2E/DX2 analytically  !
 ! D30   D(6,5,9,11)            55.2944         calculate D2E/DX2 analytically  !
 ! D31   D(7,5,9,4)            -61.7329         calculate D2E/DX2 analytically  !
 ! D32   D(7,5,9,10)            66.6323         calculate D2E/DX2 analytically  !
 ! D33   D(7,5,9,11)           175.4186         calculate D2E/DX2 analytically  !
 ! D34   D(8,5,9,4)             57.985          calculate D2E/DX2 analytically  !
 ! D35   D(8,5,9,10)          -173.6498         calculate D2E/DX2 analytically  !
 ! D36   D(8,5,9,11)           -64.8635         calculate D2E/DX2 analytically  !
 ! D37   D(1,14,15,16)        -178.8957         calculate D2E/DX2 analytically  !
 ! D38   D(1,14,15,20)           1.7968         calculate D2E/DX2 analytically  !
 ! D39   D(19,14,15,16)         -0.424          calculate D2E/DX2 analytically  !
 ! D40   D(19,14,15,20)       -179.7315         calculate D2E/DX2 analytically  !
 ! D41   D(1,14,19,18)         178.8607         calculate D2E/DX2 analytically  !
 ! D42   D(1,14,19,24)          -0.7663         calculate D2E/DX2 analytically  !
 ! D43   D(15,14,19,18)          0.4065         calculate D2E/DX2 analytically  !
 ! D44   D(15,14,19,24)       -179.2205         calculate D2E/DX2 analytically  !
 ! D45   D(14,15,16,17)          0.2129         calculate D2E/DX2 analytically  !
 ! D46   D(14,15,16,21)       -179.6096         calculate D2E/DX2 analytically  !
 ! D47   D(20,15,16,17)        179.5297         calculate D2E/DX2 analytically  !
 ! D48   D(20,15,16,21)         -0.2928         calculate D2E/DX2 analytically  !
 ! D49   D(15,16,17,18)          0.0232         calculate D2E/DX2 analytically  !
 ! D50   D(15,16,17,22)       -179.898          calculate D2E/DX2 analytically  !
 ! D51   D(21,16,17,18)        179.8455         calculate D2E/DX2 analytically  !
 ! D52   D(21,16,17,22)         -0.0757         calculate D2E/DX2 analytically  !
 ! D53   D(16,17,18,19)         -0.0404         calculate D2E/DX2 analytically  !
 ! D54   D(16,17,18,23)        179.9442         calculate D2E/DX2 analytically  !
 ! D55   D(22,17,18,19)        179.8808         calculate D2E/DX2 analytically  !
 ! D56   D(22,17,18,23)         -0.1346         calculate D2E/DX2 analytically  !
 ! D57   D(17,18,19,14)         -0.1782         calculate D2E/DX2 analytically  !
 ! D58   D(17,18,19,24)        179.4552         calculate D2E/DX2 analytically  !
 ! D59   D(23,18,19,14)        179.8372         calculate D2E/DX2 analytically  !
 ! D60   D(23,18,19,24)         -0.5294         calculate D2E/DX2 analytically  !
 ! D61   D(2,25,26,28)         -38.8072         calculate D2E/DX2 analytically  !
 ! D62   D(2,25,26,29)          81.2469         calculate D2E/DX2 analytically  !
 ! D63   D(2,25,26,30)        -159.4988         calculate D2E/DX2 analytically  !
 ! D64   D(27,25,26,28)        151.5243         calculate D2E/DX2 analytically  !
 ! D65   D(27,25,26,29)        -88.4216         calculate D2E/DX2 analytically  !
 ! D66   D(27,25,26,30)         30.8328         calculate D2E/DX2 analytically  !
 --------------------------------------------------------------------------------
 Trust Radius=1.00D-01 FncErr=1.00D-07 GrdErr=1.00D-07 EigMax=2.50D+02 EigMin=1.00D-04
 Number of steps in this run=     50 maximum allowed number of steps=    180.
 Search for a saddle point of order  1.
 GradGradGradGradGradGradGradGradGradGradGradGradGradGradGradGradGradGrad

                          Input orientation:                          
 ---------------------------------------------------------------------
 Center     Atomic      Atomic             Coordinates (Angstroms)
 Number     Number       Type             X           Y           Z
 ---------------------------------------------------------------------
      1          6           0        0.061770    0.162220   -0.059870
      2          6           0       -0.400740    1.455840    0.531630
      3          8           0       -1.154290    1.502540    1.497810
      4          6           0       -0.853670   -0.805020   -0.345820
      5          6           0       -0.177660   -2.940690    1.773980
      6          1           0       -0.631180   -3.300640    2.701800
      7          1           0       -0.079380   -3.779890    1.080050
      8          1           0        0.820180   -2.553820    1.997230
      9          7           0       -1.005460   -1.890120    1.175440
     10          1           0       -1.954930   -2.271800    1.086500
     11          1           0       -1.128690   -1.163600    1.897830
     12          1           0       -0.541880   -1.705520   -0.884850
     13         35           0       -2.677900   -0.387460   -0.764800
     14          6           0        1.508340   -0.106680   -0.221430
     15          6           0        2.390430    0.133350    0.842190
     16          6           0        3.760310   -0.094500    0.695050
     17          6           0        4.263660   -0.560340   -0.517780
     18          6           0        3.399240   -0.798390   -1.584390
     19          6           0        2.028760   -0.571310   -1.438660
     20          1           0        2.014270    0.490020    1.799600
     21          1           0        4.432910    0.089370    1.529030
     22          1           0        5.330050   -0.739100   -0.631140
     23          1           0        3.791750   -1.160990   -2.531100
     24          1           0        1.372850   -0.755160   -2.286980
     25          7           0        0.139350    2.562680   -0.082070
     26          6           0       -0.107450    3.889620    0.416320
     27          1           0        0.842870    2.431190   -0.797290
     28          1           0       -1.141520    3.984350    0.758360
     29          1           0        0.571310    4.079210    1.251980
     30          1           0        0.086870    4.604650   -0.386330
 ---------------------------------------------------------------------
                    Distance matrix (angstroms):
                    1          2          3          4          5
     1  C    0.000000
     2  C    1.495741   0.000000
     3  O    2.387808   1.226182   0.000000
     4  C    1.362113   2.467094   2.968868   0.000000
     5  C    3.612255   4.574131   4.557671   3.084093   0.000000
     6  H    4.483124   5.233244   4.979335   3.945327   1.093661
     7  H    4.106041   5.274173   5.406850   3.388581   1.093368
     8  H    3.490519   4.440271   4.538944   3.368970   1.093249
     9  N    2.622417   3.460582   3.411190   1.874757   1.465333
    10  H    3.362394   4.076602   3.880186   2.327178   2.019587
    11  H    2.647184   3.042676   2.696103   2.288707   2.019368
    12  H    2.129187   3.467064   4.042742   1.094836   2.954264
    13  Br   2.881816   3.203739   3.318568   1.917737   4.383559
    14  C    1.480194   2.579371   3.554571   2.466220   3.854331
    15  C    2.497439   3.104200   3.856107   3.579957   4.112547
    16  C    3.783518   4.443489   5.229556   4.782997   4.977198
    17  C    4.288083   5.188725   6.137773   5.126061   5.535662
    18  C    3.792840   4.898871   5.960610   4.429599   5.353719
    19  C    2.511609   3.727446   4.801616   3.091492   4.561064
    20  H    2.716126   2.893584   3.340067   3.808548   4.071239
    21  H    4.651535   5.121154   5.763231   5.680046   5.522556
    22  H    5.375268   6.245939   7.183595   6.190650   6.400505
    23  H    4.665899   5.814214   6.913018   5.146075   6.120234
    24  H    2.742360   3.997337   5.080185   2.954315   4.865390
    25  N    2.401816   1.376016   2.300744   3.520945   5.816571
    26  C    3.761503   2.454099   2.821993   4.814286   6.964288
    27  H    2.510404   2.064922   3.180963   3.681729   6.042351
    28  H    4.089754   2.644527   2.589658   4.923427   7.065174
    29  H    4.162138   2.888919   3.110845   5.332845   7.079014
    30  H    4.454480   3.315934   3.835824   5.490973   7.852966
                    6          7          8          9         10
     6  H    0.000000
     7  H    1.778830   0.000000
     8  H    1.777809   1.775859   0.000000
     9  N    2.111736   2.106645   2.109217   0.000000
    10  H    2.328094   2.406671   2.934314   1.027172   0.000000
    11  H    2.336841   2.935096   2.395973   1.031923   1.602821
    12  H    3.926378   2.894434   3.298667   2.119853   2.490704
    13  Br   4.969205   4.654499   4.955652   2.969777   2.738747
    14  C    4.829513   4.207990   3.374094   3.383947   4.288667
    15  C    4.937668   4.633572   3.319742   3.967059   4.972584
    16  C    5.795823   5.336061   4.048246   5.115427   6.128445
    17  C    6.467952   5.637425   4.707100   5.692006   6.646328
    18  C    6.393510   5.299941   4.749851   5.311301   6.162120
    19  C    5.627427   4.591638   4.146848   4.216547   5.013770
    20  H    4.709721   4.809704   3.275648   3.895306   4.887812
    21  H    6.205849   5.961000   4.500831   5.798213   6.824621
    22  H    7.294261   6.437120   5.526343   6.687845   7.640052
    23  H    7.177998   5.906326   5.592493   6.106005   6.880789
    24  H    5.948406   4.753405   4.679218   4.351189   4.975408
    25  N    6.536220   6.451865   5.564673   4.766482   5.396644
    26  C    7.562906   7.698228   6.699081   5.898142   6.467258
    27  H    6.875342   6.553813   5.714909   5.097225   5.787440
    28  H    7.557016   7.843153   6.937632   5.890829   6.317335
    29  H    7.616439   7.887865   6.679403   6.174541   6.837002
    30  H    8.517379   8.513426   7.580422   6.768630   7.322823
                   11         12         13         14         15
    11  H    0.000000
    12  H    2.895053   0.000000
    13  Br   3.176798   2.512822   0.000000
    14  C    3.544329   2.683248   4.230685   0.000000
    15  C    3.896237   3.868146   5.342437   1.402492   0.000000
    16  C    5.147036   4.858015   6.608142   2.431348   1.396473
    17  C    5.939405   4.953725   6.948105   2.808099   2.416550
    18  C    5.723756   4.104226   6.145911   2.431383   2.788212
    19  C    4.631680   2.863796   4.758207   1.402985   2.414462
    20  H    3.552788   4.308198   5.418725   2.167159   1.088735
    21  H    5.712910   5.813517   7.486831   3.414038   2.155321
    22  H    6.949188   5.956333   8.016781   3.895290   3.401946
    23  H    6.620133   4.667655   6.750891   3.414690   3.875319
    24  H    4.892562   2.556432   4.342903   2.169189   3.408317
    25  N    4.406029   4.396142   4.135982   3.003171   3.438497
    26  C    5.364032   5.760848   5.127930   4.357513   4.531041
    27  H    4.906448   4.363206   4.510173   2.686122   3.219147
    28  H    5.272565   5.952674   4.877828   4.971747   5.226079
    29  H    5.549250   6.266445   5.880128   4.535486   4.364280
    30  H    6.322000   6.360982   5.719122   4.923860   5.177661
                   16         17         18         19         20
    16  C    0.000000
    17  C    1.393314   0.000000
    18  C    2.412816   1.393394   0.000000
    19  C    2.788966   2.417213   1.396788   0.000000
    20  H    2.147173   3.396066   3.876794   3.407779   0.000000
    21  H    1.087070   2.154112   3.398526   3.876031   2.466485
    22  H    2.153688   1.087195   2.154119   3.402757   4.291111
    23  H    3.398004   2.153355   1.087107   2.156219   4.963893
    24  H    3.876718   3.394820   2.145171   1.087964   4.319957
    25  N    4.558056   5.191631   4.917381   3.902832   3.369262
    26  C    5.559719   6.307241   6.186853   5.282446   4.239391
    27  H    4.137348   4.552931   4.193416   3.291306   3.447341
    28  H    6.377222   7.176260   6.998684   5.969222   4.822192
    29  H    5.282021   6.187966   6.311352   5.566960   3.906956
    30  H    6.061811   6.643792   6.449805   5.627513   5.042156
                   21         22         23         24         25
    21  H    0.000000
    22  H    2.481443   0.000000
    23  H    4.296410   2.480767   0.000000
    24  H    4.963782   4.289696   2.464827   0.000000
    25  N    5.210332   6.176293   5.762247   4.170277   0.000000
    26  C    6.024524   7.217245   7.028492   5.574325   1.438775
    27  H    4.876912   5.496647   4.960418   3.557089   1.011815
    28  H    6.843908   8.131599   7.850619   6.169206   2.089999
    29  H    5.559455   7.029072   7.220985   6.044654   2.065464
    30  H    6.553199   7.490429   7.181140   5.830418   2.065180
                   26         27         28         29         30
    26  C    0.000000
    27  H    2.122022   0.000000
    28  H    1.093282   2.961445   0.000000
    29  H    1.093155   2.643714   1.785062   0.000000
    30  H    1.092371   2.337595   1.789980   1.787408   0.000000
 Stoichiometry    C11H15BrN2O
 Framework group  C1[X(C11H15BrN2O)]
 Deg. of freedom    84
 Full point group                 C1      NOp   1
 Largest Abelian subgroup         C1      NOp   1
 Largest concise Abelian subgroup C1      NOp   1
                         Standard orientation:                         
 ---------------------------------------------------------------------
 Center     Atomic      Atomic             Coordinates (Angstroms)
 Number     Number       Type             X           Y           Z
 ---------------------------------------------------------------------
      1          6           0        0.061771    0.162220   -0.059871
      2          6           0       -0.400741    1.455839    0.531629
      3          8           0       -1.154291    1.502538    1.497809
      4          6           0       -0.853668   -0.805021   -0.345821
      5          6           0       -0.177655   -2.940690    1.773979
      6          1           0       -0.631175   -3.300641    2.701799
      7          1           0       -0.079374   -3.779890    1.080049
      8          1           0        0.820184   -2.553819    1.997229
      9          7           0       -1.005456   -1.890121    1.175439
     10          1           0       -1.954926   -2.271803    1.086499
     11          1           0       -1.128687   -1.163601    1.897829
     12          1           0       -0.541877   -1.705521   -0.884851
     13         35           0       -2.677898   -0.387463   -0.764801
     14          6           0        1.508341   -0.106678   -0.221431
     15          6           0        2.390431    0.133353    0.842189
     16          6           0        3.760311   -0.094495    0.695049
     17          6           0        4.263662   -0.560335   -0.517781
     18          6           0        3.399242   -0.798386   -1.584391
     19          6           0        2.028762   -0.571308   -1.438661
     20          1           0        2.014271    0.490022    1.799599
     21          1           0        4.432911    0.089375    1.529029
     22          1           0        5.330052   -0.739093   -0.631141
     23          1           0        3.791753   -1.160985   -2.531101
     24          1           0        1.372852   -0.755158   -2.286981
     25          7           0        0.139348    2.562680   -0.082071
     26          6           0       -0.107454    3.889620    0.416319
     27          1           0        0.842868    2.431191   -0.797291
     28          1           0       -1.141524    3.984349    0.758359
     29          1           0        0.571306    4.079211    1.251979
     30          1           0        0.086865    4.604650   -0.386331
 ---------------------------------------------------------------------
 Rotational constants (GHZ):           0.5707058           0.3130453           0.2543192
 Standard basis: STO-3G (5D, 7F)
 There are   104 symmetry adapted cartesian basis functions of A   symmetry.
 There are   103 symmetry adapted basis functions of A   symmetry.
   103 basis functions,   312 primitive gaussians,   104 cartesian basis functions
    69 alpha electrons       69 beta electrons
       nuclear repulsion energy      1347.9991246151 Hartrees.
 NAtoms=   30 NActive=   30 NUniq=   30 SFac= 1.00D+00 NAtFMM=   60 NAOKFM=F Big=F
 Integral buffers will be    131072 words long.
 Raffenetti 1 integral format.
 Two-electron integral symmetry is turned on.
 External calculation of energy, first and second derivatives.
 Running external command "~/scripts/MiMe -H 'wb97xd def2svp' -EF 'wb97xd def2svp' -c 12 -m 48GB R"
         input file       "/local/jobs/1158122/Gau-1335313.EIn"
         output file      "/local/jobs/1158122/Gau-1335313.EOu"
         message file     "/local/jobs/1158122/Gau-1335313.EMs"
         fchk file        "/local/jobs/1158122/Gau-1335313.EFC"
         mat. el file     "/local/jobs/1158122/Gau-1335313.EUF"
 Read checkpoint file Gau-1335313_H.chk type G16
 Write formatted file Gau-1335313_H.fchk

deriv: 2

spelevel: wb97xd def2svp
gradlevel: wb97xd def2svp
hesslevel: wb97xd def2svp

runspe: False
runforce: False
runfreq: True

Running Gaussian ...

Parsing files ...
SPE file: Gau-1335313_H.out
FORCE file: Gau-1335313_H.out
HESS file: Gau-1335313_H.out

 ExternalExternalExternalExternalExternalExternalExternalExternalExternalExternal
 Output from external command:
 "~/scripts/MiMe -H 'wb97xd def2svp' -EF 'wb97xd def2svp' -c 12 -m 48GB R /local/jobs/1158122/Gau-1335313.EIn /local/jobs/1158122/Gau-1335313.EOu /local/jobs/1158122/Gau-1335313.EMs /local/jobs/1158122/Gau-1335313.EFC /local/jobs/1158122/Gau-1335313.EUF"
  
 --------------------------------------------------
 Hessian calculation at wb97xd def2svp
 ExternalExternalExternalExternalExternalExternalExternalExternalExternalExternal

 Recovered energy= -3186.12941520     dipole=      1.200900000000     -3.104500000000      0.376200000000
 Energy=    -3186.12942     NIter=   0.
 Dipole moment=       1.200900      -3.104500       0.376200
 ***** Axes restored to original set *****
 -------------------------------------------------------------------
 Center     Atomic                   Forces (Hartrees/Bohr)
 Number     Number              X              Y              Z
 -------------------------------------------------------------------
      1        6          -0.001720372    0.021014517   -0.012066100
      2        6           0.018747369   -0.009361337   -0.001782190
      3        8          -0.002427398    0.008060121   -0.006357442
      4        6           0.022972178   -0.002259832   -0.024519171
      5        6           0.004553538    0.003164048   -0.009007489
      6        1           0.000023169   -0.003614399    0.004773783
      7        1           0.001140051   -0.002945186   -0.002416408
      8        1           0.003391391    0.002005216   -0.000592329
      9        7          -0.040868928   -0.021046559    0.053559972
     10        1           0.002033591    0.000183013   -0.000333819
     11        1           0.002047528    0.002885873   -0.009297876
     12        1           0.000818244    0.007896110   -0.009008446
     13       35           0.000196220   -0.003137862    0.004975389
     14        6          -0.011077958    0.004107305   -0.002121278
     15        6           0.010643485   -0.001658333   -0.001884103
     16        6          -0.006059152    0.000699692   -0.002989362
     17        6           0.000616557   -0.000349538   -0.000047287
     18        6          -0.005080430    0.000096115    0.004789660
     19        6           0.011465596   -0.003685447    0.001094326
     20        1          -0.003482082    0.001421633    0.001667977
     21        1           0.002391962    0.000713404    0.003013846
     22        1           0.003705661   -0.000411738   -0.000499207
     23        1           0.001292009   -0.000959245   -0.003576982
     24        1          -0.004188348    0.001177728   -0.001282472
     25        7          -0.013916840   -0.007728269    0.008792708
     26        6           0.007391777   -0.006510149   -0.002173872
     27        1          -0.002856317   -0.003042485    0.000239075
     28        1          -0.002366730   -0.000466849    0.001270424
     29        1           0.000934091    0.008793299    0.006859288
     30        1          -0.000319866    0.004959152   -0.001080613
 -------------------------------------------------------------------
 Cartesian Forces:  Max     0.053559972 RMS     0.009953923
 FormGI is forming the generalized inverse of G from B-inverse, IUseBI=4.

 GradGradGradGradGradGradGradGradGradGradGradGradGradGradGradGradGradGrad
 Berny optimization.
 Internal  Forces:  Max     0.043217533 RMS     0.006088063
 Search for a saddle point.
 Step number   1 out of a maximum of   50
 All quantities printed in internal units (Hartrees-Bohrs-Radians)
 Swapping is turned off.
 Second derivative matrix not updated -- analytic derivatives used.
 ITU=  0
     Eigenvalues ---   -0.04973  -0.00173  -0.00049   0.00089   0.00157
     Eigenvalues ---    0.00281   0.00319   0.00519   0.00728   0.01212
     Eigenvalues ---    0.01707   0.01830   0.01842   0.01914   0.02365
     Eigenvalues ---    0.02509   0.02605   0.02682   0.02944   0.02990
     Eigenvalues ---    0.03079   0.04551   0.04811   0.04869   0.05064
     Eigenvalues ---    0.05720   0.05985   0.06112   0.06157   0.09134
     Eigenvalues ---    0.09581   0.11000   0.11325   0.11408   0.11519
     Eigenvalues ---    0.11627   0.12255   0.12494   0.12572   0.13436
     Eigenvalues ---    0.13766   0.16701   0.16854   0.17205   0.17580
     Eigenvalues ---    0.18222   0.18354   0.18671   0.19183   0.19368
     Eigenvalues ---    0.19591   0.20118   0.21159   0.22471   0.24223
     Eigenvalues ---    0.25398   0.29839   0.34405   0.35099   0.35104
     Eigenvalues ---    0.35169   0.35659   0.35896   0.36000   0.36071
     Eigenvalues ---    0.36217   0.37051   0.37339   0.37414   0.37418
     Eigenvalues ---    0.37565   0.37598   0.41796   0.41972   0.42799
     Eigenvalues ---    0.43186   0.43898   0.44974   0.48178   0.48683
     Eigenvalues ---    0.49006   0.52503   0.57812   0.82988
 Eigenvectors required to have negative eigenvalues:
                          R6        A19       D5        A10       D8
   1                   -0.71400  -0.36963   0.20511   0.20049   0.19626
                          D7        A20       D10       A21       R2
   1                    0.19437   0.19400   0.18552   0.11687   0.09119
 RFO step:  Lambda0=7.847409694D-04 Lambda=-3.53631030D-02.
 Linear search not attempted -- option 19 set.
 Maximum step size (   0.100) exceeded in Quadratic search.
    -- Step size scaled by   0.207
 Iteration  1 RMS(Cart)=  0.06909970 RMS(Int)=  0.00158084
 Iteration  2 RMS(Cart)=  0.00259747 RMS(Int)=  0.00015286
 Iteration  3 RMS(Cart)=  0.00000362 RMS(Int)=  0.00015284
 Iteration  4 RMS(Cart)=  0.00000000 RMS(Int)=  0.00015284
 Variable       Old X    -DE/DX   Delta X   Delta X   Delta X     New X
                                 (Linear)    (Quad)   (Total)
    R1        2.82654  -0.00391   0.00000  -0.00088  -0.00088   2.82567
    R2        2.57402   0.01276   0.00000  -0.00210  -0.00210   2.57192
    R3        2.79716   0.00022   0.00000  -0.00246  -0.00246   2.79470
    R4        2.31715  -0.00321   0.00000   0.00252   0.00252   2.31967
    R5        2.60029  -0.01378   0.00000  -0.01041  -0.01041   2.58988
    R6        3.54278   0.04322   0.00000   0.05937   0.05937   3.60214
    R7        2.06894  -0.00183   0.00000  -0.00209  -0.00209   2.06685
    R8        3.62400  -0.00196   0.00000   0.00289   0.00289   3.62689
    R9        2.06672   0.00523   0.00000   0.00339   0.00339   2.07011
   R10        2.06617   0.00390   0.00000   0.00222   0.00222   2.06839
   R11        2.06594   0.00368   0.00000   0.00240   0.00240   2.06834
   R12        2.76908   0.00318   0.00000  -0.00590  -0.00590   2.76318
   R13        1.94107  -0.00192   0.00000  -0.00230  -0.00230   1.93877
   R14        1.95005  -0.00472   0.00000  -0.00113  -0.00113   1.94892
   R15        2.65033   0.00324   0.00000   0.00192   0.00192   2.65224
   R16        2.65126   0.00253   0.00000   0.00098   0.00098   2.65223
   R17        2.63895  -0.00157   0.00000  -0.00147  -0.00147   2.63748
   R18        2.05741   0.00314   0.00000   0.00182   0.00182   2.05923
   R19        2.63298   0.00130   0.00000   0.00071   0.00071   2.63369
   R20        2.05426   0.00391   0.00000   0.00199   0.00199   2.05625
   R21        2.63313   0.00118   0.00000   0.00049   0.00049   2.63363
   R22        2.05450   0.00375   0.00000   0.00174   0.00174   2.05624
   R23        2.63955  -0.00154   0.00000  -0.00139  -0.00139   2.63816
   R24        2.05434   0.00390   0.00000   0.00199   0.00199   2.05632
   R25        2.05595   0.00332   0.00000   0.00170   0.00170   2.05765
   R26        2.71889   0.00697   0.00000   0.00151   0.00151   2.72040
   R27        1.91205  -0.00176   0.00000  -0.00028  -0.00028   1.91177
   R28        2.06600   0.00260   0.00000   0.00114   0.00114   2.06715
   R29        2.06576   0.00735   0.00000   0.00365   0.00365   2.06942
   R30        2.06428   0.00398   0.00000   0.00216   0.00216   2.06644
    A1        2.08214   0.00373   0.00000  -0.01039  -0.01096   2.07118
    A2        2.09725  -0.00164   0.00000  -0.00377  -0.00435   2.09290
    A3        2.10005  -0.00232   0.00000   0.00903   0.00841   2.10846
    A4        2.13480   0.00464   0.00000  -0.00681  -0.00681   2.12799
    A5        1.98007   0.00951   0.00000   0.01093   0.01093   1.99100
    A6        2.16760  -0.01408   0.00000  -0.00417  -0.00417   2.16343
    A7        1.87033   0.01515   0.00000  -0.00214  -0.00225   1.86808
    A8        2.08981  -0.00434   0.00000   0.00077   0.00069   2.09049
    A9        2.13005   0.00137   0.00000   0.00078   0.00049   2.13054
   A10        1.51728   0.00946   0.00000   0.02558   0.02562   1.54290
   A11        1.79906  -0.01970   0.00000  -0.03064  -0.03072   1.76834
   A12        1.92029  -0.00030   0.00000   0.00454   0.00482   1.92511
   A13        1.89979  -0.00165   0.00000  -0.00173  -0.00174   1.89805
   A14        1.89834  -0.00066   0.00000  -0.00264  -0.00264   1.89570
   A15        1.92648   0.00484   0.00000   0.00839   0.00839   1.93487
   A16        1.89565  -0.00005   0.00000  -0.00128  -0.00128   1.89437
   A17        1.91965   0.00008   0.00000  -0.00002  -0.00003   1.91962
   A18        1.92338  -0.00265   0.00000  -0.00289  -0.00289   1.92049
   A19        2.34714  -0.02335   0.00000  -0.03795  -0.03800   2.30914
   A20        1.79225   0.00915   0.00000   0.02384   0.02418   1.81643
   A21        1.74185   0.00014   0.00000  -0.02035  -0.02054   1.72130
   A22        1.86622   0.00680   0.00000   0.01353   0.01368   1.87990
   A23        1.86114   0.01241   0.00000   0.02252   0.02167   1.88281
   A24        1.78426  -0.00155   0.00000   0.00636   0.00631   1.79056
   A25        2.09531   0.00107   0.00000   0.00153   0.00153   2.09683
   A26        2.11457   0.00353   0.00000   0.00153   0.00153   2.11611
   A27        2.07299  -0.00459   0.00000  -0.00299  -0.00299   2.07000
   A28        2.10498   0.00232   0.00000   0.00137   0.00137   2.10635
   A29        2.10095  -0.00386   0.00000  -0.00355  -0.00355   2.09741
   A30        2.07719   0.00155   0.00000   0.00216   0.00216   2.07936
   A31        2.09515   0.00102   0.00000   0.00112   0.00112   2.09627
   A32        2.09268  -0.00056   0.00000  -0.00095  -0.00095   2.09172
   A33        2.09536  -0.00046   0.00000  -0.00017  -0.00017   2.09519
   A34        2.09361  -0.00225   0.00000  -0.00222  -0.00222   2.09140
   A35        2.09449   0.00116   0.00000   0.00114   0.00114   2.09563
   A36        2.09508   0.00109   0.00000   0.00108   0.00108   2.09616
   A37        2.09560   0.00108   0.00000   0.00122   0.00122   2.09682
   A38        2.09394  -0.00036   0.00000  -0.00007  -0.00007   2.09387
   A39        2.09364  -0.00072   0.00000  -0.00115  -0.00115   2.09249
   A40        2.10402   0.00242   0.00000   0.00149   0.00149   2.10551
   A41        2.10462  -0.00422   0.00000  -0.00461  -0.00461   2.10001
   A42        2.07453   0.00180   0.00000   0.00311   0.00311   2.07765
   A43        2.11769   0.00270   0.00000   0.00622   0.00621   2.12390
   A44        2.07560  -0.00436   0.00000  -0.00754  -0.00755   2.06805
   A45        2.07599   0.00170   0.00000   0.00231   0.00230   2.07830
   A46        1.92893  -0.00412   0.00000  -0.00681  -0.00680   1.92214
   A47        1.89468   0.01255   0.00000   0.01072   0.01071   1.90539
   A48        1.89510   0.00317   0.00000   0.00452   0.00450   1.89960
   A49        1.91039  -0.00457   0.00000  -0.00323  -0.00321   1.90718
   A50        1.91922  -0.00157   0.00000  -0.00158  -0.00158   1.91765
   A51        1.91529  -0.00528   0.00000  -0.00345  -0.00349   1.91180
    D1        0.85769  -0.00473   0.00000   0.01135   0.01157   0.86926
    D2       -2.32296  -0.00315   0.00000   0.00982   0.01003  -2.31293
    D3       -2.19138  -0.00164   0.00000   0.07421   0.07399  -2.11739
    D4        0.91115  -0.00006   0.00000   0.07267   0.07245   0.98360
    D5       -1.58311   0.01435   0.00000   0.10678   0.10682  -1.47629
    D6        3.01711  -0.00472   0.00000   0.07681   0.07684   3.09394
    D7        0.48003   0.00168   0.00000   0.06363   0.06363   0.54365
    D8        1.46580   0.01130   0.00000   0.04313   0.04313   1.50893
    D9       -0.21716  -0.00777   0.00000   0.01316   0.01314  -0.20402
   D10       -2.75424  -0.00137   0.00000  -0.00002  -0.00007  -2.75431
   D11        0.82996  -0.00330   0.00000  -0.07052  -0.07066   0.75930
   D12       -2.28432  -0.00397   0.00000  -0.07353  -0.07368  -2.35799
   D13       -2.21816  -0.00050   0.00000  -0.00597  -0.00583  -2.22399
   D14        0.95076  -0.00117   0.00000  -0.00899  -0.00885   0.94191
   D15       -3.05591   0.00039   0.00000   0.00481   0.00482  -3.05109
   D16       -0.09460   0.00081   0.00000   0.01135   0.01134  -0.08326
   D17        0.04577   0.00250   0.00000   0.00318   0.00319   0.04897
   D18        3.00708   0.00293   0.00000   0.00972   0.00971   3.01679
   D19       -1.32926  -0.00069   0.00000  -0.00492  -0.00513  -1.33440
   D20        2.68942  -0.00034   0.00000  -0.02192  -0.02191   2.66751
   D21        0.85637  -0.00094   0.00000  -0.02863  -0.02821   0.82816
   D22        0.76899  -0.00038   0.00000   0.00399   0.00382   0.77281
   D23       -1.49552  -0.00003   0.00000  -0.01302  -0.01296  -1.50847
   D24        2.95462  -0.00063   0.00000  -0.01973  -0.01926   2.93536
   D25        2.68627   0.00094   0.00000   0.01365   0.01318   2.69945
   D26        0.42177   0.00129   0.00000  -0.00335  -0.00360   0.41817
   D27       -1.41128   0.00069   0.00000  -0.01006  -0.00990  -1.42118
   D28        3.10918  -0.00212   0.00000  -0.02866  -0.02877   3.08041
   D29       -0.93361  -0.00249   0.00000  -0.00922  -0.00935  -0.94296
   D30        0.96507   0.00386   0.00000   0.01314   0.01336   0.97843
   D31       -1.07744  -0.00102   0.00000  -0.02548  -0.02558  -1.10302
   D32        1.16295  -0.00140   0.00000  -0.00604  -0.00617   1.15679
   D33        3.06163   0.00495   0.00000   0.01632   0.01655   3.07818
   D34        1.01203  -0.00270   0.00000  -0.02889  -0.02900   0.98303
   D35       -3.03076  -0.00308   0.00000  -0.00946  -0.00958  -3.04034
   D36       -1.13208   0.00328   0.00000   0.01290   0.01314  -1.11895
   D37       -3.12232  -0.00049   0.00000  -0.00198  -0.00198  -3.12430
   D38        0.03136  -0.00085   0.00000  -0.00129  -0.00129   0.03007
   D39       -0.00740   0.00029   0.00000   0.00103   0.00103  -0.00637
   D40       -3.13691  -0.00007   0.00000   0.00172   0.00172  -3.13519
   D41        3.12171   0.00098   0.00000   0.00437   0.00436   3.12607
   D42       -0.01337   0.00098   0.00000   0.00498   0.00498  -0.00839
   D43        0.00710   0.00024   0.00000   0.00132   0.00132   0.00842
   D44       -3.12799   0.00024   0.00000   0.00194   0.00194  -3.12605
   D45        0.00372  -0.00052   0.00000  -0.00213  -0.00213   0.00159
   D46       -3.13478  -0.00028   0.00000  -0.00073  -0.00073  -3.13551
   D47        3.13339  -0.00021   0.00000  -0.00285  -0.00285   3.13054
   D48       -0.00511   0.00004   0.00000  -0.00145  -0.00145  -0.00656
   D49        0.00041   0.00026   0.00000   0.00088   0.00088   0.00129
   D50       -3.13981   0.00007   0.00000   0.00029   0.00028  -3.13953
   D51        3.13890   0.00001   0.00000  -0.00052  -0.00052   3.13838
   D52       -0.00132  -0.00018   0.00000  -0.00111  -0.00112  -0.00244
   D53       -0.00071   0.00026   0.00000   0.00146   0.00146   0.00075
   D54        3.14062  -0.00035   0.00000  -0.00101  -0.00102   3.13960
   D55        3.13951   0.00045   0.00000   0.00205   0.00205   3.14156
   D56       -0.00235  -0.00016   0.00000  -0.00042  -0.00042  -0.00277
   D57       -0.00311  -0.00053   0.00000  -0.00258  -0.00258  -0.00569
   D58        3.13208  -0.00055   0.00000  -0.00322  -0.00322   3.12886
   D59        3.13875   0.00008   0.00000  -0.00011  -0.00011   3.13864
   D60       -0.00924   0.00006   0.00000  -0.00075  -0.00075  -0.00999
   D61       -0.67731  -0.00070   0.00000   0.03927   0.03928  -0.63803
   D62        1.41803  -0.00093   0.00000   0.03792   0.03790   1.45593
   D63       -2.78378   0.00175   0.00000   0.04252   0.04255  -2.74123
   D64        2.64460  -0.00051   0.00000   0.03372   0.03372   2.67832
   D65       -1.54325  -0.00074   0.00000   0.03237   0.03234  -1.51091
   D66        0.53813   0.00193   0.00000   0.03697   0.03698   0.57512
         Item               Value     Threshold  Converged?
 Maximum Force            0.043218     0.000450     NO 
 RMS     Force            0.006088     0.000300     NO 
 Maximum Displacement     0.299688     0.001800     NO 
 RMS     Displacement     0.070076     0.001200     NO 
 Predicted change in Energy=-7.656781D-03
 GradGradGradGradGradGradGradGradGradGradGradGradGradGradGradGradGradGrad

                          Input orientation:                          
 ---------------------------------------------------------------------
 Center     Atomic      Atomic             Coordinates (Angstroms)
 Number     Number       Type             X           Y           Z
 ---------------------------------------------------------------------
      1          6           0        0.091628    0.149395   -0.122802
      2          6           0       -0.373051    1.414175    0.525473
      3          8           0       -1.084886    1.407489    1.525494
      4          6           0       -0.825904   -0.815898   -0.403283
      5          6           0       -0.226565   -2.881029    1.810207
      6          1           0       -0.664362   -3.205552    2.760494
      7          1           0       -0.142594   -3.747911    1.147268
      8          1           0        0.778073   -2.491878    2.003172
      9          7           0       -1.051239   -1.849681    1.182281
     10          1           0       -2.006380   -2.216630    1.107223
     11          1           0       -1.159612   -1.076924    1.856616
     12          1           0       -0.513533   -1.729175   -0.917668
     13         35           0       -2.646697   -0.394981   -0.840462
     14          6           0        1.539201   -0.116770   -0.267064
     15          6           0        2.413476    0.144480    0.799342
     16          6           0        3.784277   -0.083092    0.668663
     17          6           0        4.300523   -0.572905   -0.529643
     18          6           0        3.444525   -0.833584   -1.598096
     19          6           0        2.073423   -0.604218   -1.469902
     20          1           0        2.025539    0.517815    1.746742
     21          1           0        4.449012    0.118828    1.506139
     22          1           0        5.369086   -0.751930   -0.630235
     23          1           0        3.845352   -1.214300   -2.535370
     24          1           0        1.422558   -0.802721   -2.319958
     25          7           0        0.106725    2.554089   -0.065029
     26          6           0       -0.146657    3.857753    0.490514
     27          1           0        0.774579    2.462431   -0.819375
     28          1           0       -1.153271    3.896102    0.916948
     29          1           0        0.587192    4.062250    1.277193
     30          1           0       -0.050246    4.604383   -0.302592
 ---------------------------------------------------------------------
                    Distance matrix (angstroms):
                    1          2          3          4          5
     1  C    0.000000
     2  C    1.495278   0.000000
     3  O    2.384086   1.227516   0.000000
     4  C    1.361002   2.457822   2.954777   0.000000
     5  C    3.608496   4.485619   4.382826   3.086019   0.000000
     6  H    4.487827   5.140239   4.793977   3.968126   1.095457
     7  H    4.105720   5.204505   5.254439   3.386418   1.094543
     8  H    3.459378   4.331966   4.347856   3.342555   1.094518
     9  N    2.646826   3.397659   3.275376   1.906173   1.462210
    10  H    3.393033   4.023548   3.762757   2.374279   2.025674
    11  H    2.643398   2.931926   2.507495   2.299269   2.031631
    12  H    2.127688   3.461652   4.016733   1.093728   2.974966
    13  Br   2.882674   3.210653   3.359450   1.919267   4.366179
    14  C    1.478892   2.574610   3.524552   2.470031   3.882539
    15  C    2.498270   3.074388   3.789594   3.586393   4.140696
    16  C    3.783665   4.421050   5.163791   4.789555   5.021795
    17  C    4.289759   5.186912   6.094931   5.133738   5.594360
    18  C    3.792711   4.912826   5.940942   4.434462   5.411605
    19  C    2.511995   3.747087   4.795235   3.096543   4.607920
    20  H    2.714948   2.836934   3.242717   3.812103   4.077762
    21  H    4.652007   5.088410   5.681993   5.687208   5.563507
    22  H    5.377865   6.244983   7.138908   6.199475   6.465302
    23  H    4.665896   5.837171   6.904465   5.150257   6.184055
    24  H    2.739597   4.029307   5.095077   2.954555   4.908894
    25  N    2.405435   1.370505   2.294427   3.512980   5.759176
    26  C    3.766279   2.454293   2.820506   4.806586   6.867253
    27  H    2.510333   2.055362   3.173157   3.671801   6.039003
    28  H    4.082728   2.630961   2.562849   4.904398   6.898275
    29  H    4.185212   2.915382   3.147261   5.349502   7.011093
    30  H    4.460871   3.311695   3.825247   5.476425   7.779872
                    6          7          8          9         10
     6  H    0.000000
     7  H    1.780139   0.000000
     8  H    1.778619   1.777025   0.000000
     9  N    2.116322   2.104790   2.105388   0.000000
    10  H    2.347826   2.412494   2.937969   1.025953   0.000000
    11  H    2.365022   2.944771   2.403788   1.031323   1.605470
    12  H    3.966272   2.911504   3.283484   2.171044   2.562497
    13  Br   4.979543   4.632899   4.920597   2.958569   2.742606
    14  C    4.854109   4.244285   3.372599   3.437143   4.343871
    15  C    4.953980   4.669609   3.327782   4.015914   5.020434
    16  C    5.823736   5.392613   4.076815   5.173668   6.186762
    17  C    6.511983   5.712616   4.743971   5.762134   6.719984
    18  C    6.442553   5.375663   4.777974   5.382828   6.240508
    19  C    5.670860   4.652216   4.159739   4.283545   5.087852
    20  H    4.703905   4.822509   3.268055   3.923037   4.913507
    21  H    6.226676   6.013593   4.531955   5.850869   6.876451
    22  H    7.343010   6.520279   5.571324   6.760979   7.717616
    23  H    7.235246   5.990386   5.624835   6.180715   6.965337
    24  H    5.994983   4.810978   4.685943   4.413782   5.049982
    25  N    6.461550   6.422386   5.494538   4.721213   5.347818
    26  C    7.437144   7.633969   6.592501   5.819932   6.382557
    27  H    6.856533   6.578544   5.701926   5.092597   5.774004
    28  H    7.353311   7.713978   6.761379   5.752810   6.174908
    29  H    7.522468   7.845259   6.596975   6.135503   6.795575
    30  H    8.411583   8.477703   7.507302   6.697893   7.234657
                   11         12         13         14         15
    11  H    0.000000
    12  H    2.922242   0.000000
    13  Br   3.154472   2.517225   0.000000
    14  C    3.565880   2.690139   4.234139   0.000000
    15  C    3.921303   3.876349   5.346525   1.403507   0.000000
    16  C    5.180827   4.867977   6.613030   2.432506   1.395694
    17  C    5.980079   4.966151   6.956446   2.811033   2.416980
    18  C    5.761279   4.114765   6.153810   2.432227   2.787002
    19  C    4.662798   2.874513   4.766498   1.403501   2.413639
    20  H    3.563770   4.312184   5.418175   2.166712   1.089698
    21  H    5.745374   5.823813   7.491303   3.415663   2.154907
    22  H    6.993851   5.970161   8.026481   3.899146   3.403362
    23  H    6.660186   4.677813   6.759489   3.415862   3.875159
    24  H    4.917983   2.563821   4.349022   2.167604   3.407219
    25  N    4.298905   4.411129   4.108485   3.037482   3.445933
    26  C    5.219516   5.773330   5.109545   4.383250   4.520847
    27  H    4.840357   4.386166   4.457621   2.746265   3.267893
    28  H    5.061027   5.951371   4.871571   4.975383   5.177855
    29  H    5.458770   6.290438   5.899951   4.555794   4.348859
    30  H    6.178197   6.380196   5.659020   4.981656   5.212957
                   16         17         18         19         20
    16  C    0.000000
    17  C    1.393688   0.000000
    18  C    2.411818   1.393656   0.000000
    19  C    2.787840   2.417652   1.396054   0.000000
    20  H    2.148605   3.398110   3.876563   3.407059   0.000000
    21  H    1.088122   2.155215   3.398875   3.875956   2.467853
    22  H    2.155481   1.088115   2.155773   3.404153   4.294366
    23  H    3.398410   2.154416   1.088159   2.155726   4.964718
    24  H    3.876524   3.397165   2.147182   1.088864   4.318038
    25  N    4.584475   5.251847   4.996752   3.976992   3.333283
    26  C    5.569043   6.359942   6.266381   5.355480   4.177527
    27  H    4.213339   4.661490   4.312625   3.393304   3.454184
    28  H    6.346260   7.197814   7.059399   6.030048   4.712347
    29  H    5.270249   6.207910   6.356165   5.615276   3.853873
    30  H    6.133460   6.766466   6.592666   5.744746   5.020826
                   21         22         23         24         25
    21  H    0.000000
    22  H    2.483717   0.000000
    23  H    4.298305   2.482960   0.000000
    24  H    4.964644   4.293347   2.466927   0.000000
    25  N    5.220586   6.240326   5.854969   4.252563   0.000000
    26  C    6.010925   7.275210   7.128662   5.664027   1.439573
    27  H    4.939832   5.610471   5.088480   3.651417   1.011665
    28  H    6.782368   8.157151   7.938573   6.260303   2.086353
    29  H    5.524187   7.048484   7.279644   6.107804   2.075321
    30  H    6.605682   7.626703   7.349697   5.956147   2.069971
                   26         27         28         29         30
    26  C    0.000000
    27  H    2.124007   0.000000
    28  H    1.093888   2.964260   0.000000
    29  H    1.095087   2.643885   1.785104   0.000000
    30  H    1.093512   2.352734   1.790421   1.787724   0.000000
 Stoichiometry    C11H15BrN2O
 Framework group  C1[X(C11H15BrN2O)]
 Deg. of freedom    84
 Full point group                 C1      NOp   1
 Largest Abelian subgroup         C1      NOp   1
 Largest concise Abelian subgroup C1      NOp   1
                         Standard orientation:                         
 ---------------------------------------------------------------------
 Center     Atomic      Atomic             Coordinates (Angstroms)
 Number     Number       Type             X           Y           Z
 ---------------------------------------------------------------------
      1          6           0        0.076031    0.155990   -0.104062
      2          6           0       -0.388151    1.436470    0.512997
      3          8           0       -1.096957    1.454653    1.515025
      4          6           0       -0.841228   -0.817164   -0.356915
      5          6           0       -0.232828   -2.824231    1.906941
      6          1           0       -0.667381   -3.124760    2.866562
      7          1           0       -0.149856   -3.707731    1.266185
      8          1           0        0.771937   -2.429179    2.086807
      9          7           0       -1.060583   -1.810206    1.255302
     10          1           0       -2.015522   -2.179988    1.192584
     11          1           0       -1.167814   -1.020535    1.909938
     12          1           0       -0.529355   -1.742988   -0.848673
     13         35           0       -2.663817   -0.409553   -0.799190
     14          6           0        1.523468   -0.112226   -0.245863
     15          6           0        2.400655    0.177215    0.810830
     16          6           0        3.771317   -0.052155    0.681851
     17          6           0        4.284510   -0.571966   -0.505075
     18          6           0        3.425595   -0.860869   -1.563883
     19          6           0        2.054621   -0.629770   -1.437434
     20          1           0        2.015147    0.574294    1.749527
     21          1           0        4.438342    0.171882    1.511848
     22          1           0        5.352971   -0.752360   -0.604299
     23          1           0        3.824031   -1.265052   -2.492309
     24          1           0        1.401424   -0.850698   -2.280137
     25          7           0        0.088524    2.561390   -0.107985
     26          6           0       -0.164686    3.878592    0.414733
     27          1           0        0.754205    2.451145   -0.861764
     28          1           0       -1.170053    3.926774    0.843108
     29          1           0        0.571297    4.103977    1.193673
     30          1           0       -0.071531    4.604750   -0.397539
 ---------------------------------------------------------------------
 Rotational constants (GHZ):           0.5716539           0.3100296           0.2559240
 Standard basis: STO-3G (5D, 7F)
 There are   104 symmetry adapted cartesian basis functions of A   symmetry.
 There are   103 symmetry adapted basis functions of A   symmetry.
   103 basis functions,   312 primitive gaussians,   104 cartesian basis functions
    69 alpha electrons       69 beta electrons
       nuclear repulsion energy      1347.9026533548 Hartrees.
 NAtoms=   30 NActive=   30 NUniq=   30 SFac= 1.00D+00 NAtFMM=   60 NAOKFM=F Big=F
 Integral buffers will be    131072 words long.
 Raffenetti 1 integral format.
 Two-electron integral symmetry is turned on.
 External calculation of energy, first and second derivatives.
 Running external command "~/scripts/MiMe -H 'wb97xd def2svp' -EF 'wb97xd def2svp' -c 12 -m 48GB R"
         input file       "/local/jobs/1158122/Gau-1335313.EIn"
         output file      "/local/jobs/1158122/Gau-1335313.EOu"
         message file     "/local/jobs/1158122/Gau-1335313.EMs"
         fchk file        "/local/jobs/1158122/Gau-1335313.EFC"
         mat. el file     "/local/jobs/1158122/Gau-1335313.EUF"
 Read checkpoint file Gau-1335313_H.chk type G16
 Write formatted file Gau-1335313_H.fchk

deriv: 2

spelevel: wb97xd def2svp
gradlevel: wb97xd def2svp
hesslevel: wb97xd def2svp

runspe: False
runforce: False
runfreq: True

Running Gaussian ...

Parsing files ...
SPE file: Gau-1335313_H.out
FORCE file: Gau-1335313_H.out
HESS file: Gau-1335313_H.out

 ExternalExternalExternalExternalExternalExternalExternalExternalExternalExternal
 Output from external command:
 "~/scripts/MiMe -H 'wb97xd def2svp' -EF 'wb97xd def2svp' -c 12 -m 48GB R /local/jobs/1158122/Gau-1335313.EIn /local/jobs/1158122/Gau-1335313.EOu /local/jobs/1158122/Gau-1335313.EMs /local/jobs/1158122/Gau-1335313.EFC /local/jobs/1158122/Gau-1335313.EUF"
  
 --------------------------------------------------
 Hessian calculation at wb97xd def2svp
 ExternalExternalExternalExternalExternalExternalExternalExternalExternalExternal

 Recovered energy= -3186.13703759     dipole=      1.057000000000     -2.530800000000      0.422400000000
 Energy=    -3186.13704     NIter=   0.
 Dipole moment=       1.057000      -2.530800       0.422400
 ***** Axes restored to original set *****
 -------------------------------------------------------------------
 Center     Atomic                   Forces (Hartrees/Bohr)
 Number     Number              X              Y              Z
 -------------------------------------------------------------------
      1        6          -0.001964360    0.017690140   -0.010716025
      2        6           0.015594138   -0.007773638   -0.001161216
      3        8          -0.002795202    0.006844844   -0.004980336
      4        6           0.020944436   -0.002740604   -0.021449822
      5        6           0.004111299    0.003034855   -0.007568144
      6        1           0.000212785   -0.002833405    0.004060784
      7        1           0.000952058   -0.002494125   -0.001885223
      8        1           0.002809352    0.001550631   -0.000728012
      9        7          -0.037301077   -0.016542545    0.046096451
     10        1           0.001867035   -0.000242868   -0.000670551
     11        1           0.002628588    0.002479819   -0.008055018
     12        1           0.000891089    0.006071855   -0.007201052
     13       35           0.000080146   -0.002306282    0.004164272
     14        6          -0.008917112    0.003473668   -0.002020457
     15        6           0.008799715   -0.001124316   -0.001517657
     16        6          -0.004920639    0.000556717   -0.002522926
     17        6           0.000520246   -0.000318811   -0.000033213
     18        6          -0.004161465    0.000000688    0.003955627
     19        6           0.009310659   -0.003318895    0.001120809
     20        1          -0.002887996    0.001176864    0.001278838
     21        1           0.001909727    0.000633905    0.002457550
     22        1           0.003006948   -0.000316157   -0.000379199
     23        1           0.001063767   -0.000813536   -0.002891058
     24        1          -0.003431031    0.001081339   -0.001090481
     25        7          -0.010775708   -0.006680749    0.007843790
     26        6           0.006450159   -0.005199130   -0.002424903
     27        1          -0.002363438   -0.002578004    0.000099404
     28        1          -0.001815805   -0.000515654    0.001237853
     29        1           0.000799590    0.007129286    0.005682253
     30        1          -0.000617902    0.004074108   -0.000702339
 -------------------------------------------------------------------
 Cartesian Forces:  Max     0.046096451 RMS     0.008593308
 FormGI is forming the generalized inverse of G from B-inverse, IUseBI=4.

 GradGradGradGradGradGradGradGradGradGradGradGradGradGradGradGradGradGrad
 Berny optimization.
 Internal  Forces:  Max     0.037074576 RMS     0.005142459
 Search for a saddle point.
 Step number   2 out of a maximum of   50
 All quantities printed in internal units (Hartrees-Bohrs-Radians)
 Swapping is turned off.
 Second derivative matrix not updated -- analytic derivatives used.
 ITU=  0  0
     Eigenvalues ---   -0.04578  -0.00043  -0.00010   0.00131   0.00159
     Eigenvalues ---    0.00327   0.00475   0.00652   0.00865   0.01248
     Eigenvalues ---    0.01709   0.01843   0.01862   0.01913   0.02365
     Eigenvalues ---    0.02505   0.02602   0.02677   0.02845   0.02959
     Eigenvalues ---    0.03077   0.04411   0.04795   0.04860   0.04989
     Eigenvalues ---    0.05711   0.05994   0.06109   0.06273   0.08901
     Eigenvalues ---    0.09403   0.10546   0.11003   0.11422   0.11508
     Eigenvalues ---    0.11674   0.12238   0.12521   0.12788   0.13330
     Eigenvalues ---    0.13620   0.16504   0.16624   0.17083   0.17526
     Eigenvalues ---    0.18139   0.18248   0.18647   0.19157   0.19346
     Eigenvalues ---    0.19599   0.19999   0.20773   0.22415   0.24360
     Eigenvalues ---    0.24643   0.29860   0.34509   0.34793   0.34837
     Eigenvalues ---    0.35403   0.35551   0.35771   0.35784   0.35991
     Eigenvalues ---    0.36113   0.36855   0.37143   0.37207   0.37225
     Eigenvalues ---    0.37391   0.37704   0.41538   0.42108   0.42790
     Eigenvalues ---    0.43556   0.43867   0.46068   0.48207   0.48731
     Eigenvalues ---    0.48904   0.52486   0.57855   0.82594
 Eigenvectors required to have negative eigenvalues:
                          R6        A19       D7        D5        A10
   1                    0.73286   0.35000  -0.20713  -0.19577  -0.19210
                          D10       A20       D8        A21       D1
   1                   -0.18954  -0.18307  -0.17818  -0.10842   0.08991
 RFO step:  Lambda0=1.125223140D-03 Lambda=-2.92759682D-02.
 Linear search not attempted -- option 19 set.
 Maximum step size (   0.100) exceeded in Quadratic search.
    -- Step size scaled by   0.231
 Iteration  1 RMS(Cart)=  0.03062333 RMS(Int)=  0.00048756
 Iteration  2 RMS(Cart)=  0.00089882 RMS(Int)=  0.00011359
 Iteration  3 RMS(Cart)=  0.00000045 RMS(Int)=  0.00011359
 Variable       Old X    -DE/DX   Delta X   Delta X   Delta X     New X
                                 (Linear)    (Quad)   (Total)
    R1        2.82567  -0.00294   0.00000  -0.00348  -0.00348   2.82218
    R2        2.57192   0.01045   0.00000   0.00169   0.00169   2.57361
    R3        2.79470   0.00026   0.00000   0.00068   0.00068   2.79539
    R4        2.31967  -0.00247   0.00000   0.00065   0.00065   2.32032
    R5        2.58988  -0.01111   0.00000  -0.00499  -0.00499   2.58489
    R6        3.60214   0.03707   0.00000   0.04745   0.04745   3.64960
    R7        2.06685  -0.00143   0.00000  -0.00081  -0.00081   2.06603
    R8        3.62689  -0.00153   0.00000   0.00118   0.00118   3.62807
    R9        2.07011   0.00428   0.00000   0.00290   0.00290   2.07301
   R10        2.06839   0.00319   0.00000   0.00215   0.00215   2.07053
   R11        2.06834   0.00300   0.00000   0.00218   0.00218   2.07052
   R12        2.76318   0.00245   0.00000  -0.00613  -0.00613   2.75704
   R13        1.93877  -0.00160   0.00000  -0.00200  -0.00200   1.93678
   R14        1.94892  -0.00369   0.00000  -0.00224  -0.00224   1.94668
   R15        2.65224   0.00262   0.00000   0.00158   0.00158   2.65382
   R16        2.65223   0.00202   0.00000   0.00077   0.00077   2.65300
   R17        2.63748  -0.00130   0.00000  -0.00136  -0.00136   2.63612
   R18        2.05923   0.00254   0.00000   0.00161   0.00161   2.06084
   R19        2.63369   0.00106   0.00000   0.00075   0.00075   2.63444
   R20        2.05625   0.00318   0.00000   0.00183   0.00183   2.05809
   R21        2.63363   0.00094   0.00000   0.00022   0.00022   2.63385
   R22        2.05624   0.00304   0.00000   0.00161   0.00161   2.05785
   R23        2.63816  -0.00125   0.00000  -0.00093  -0.00093   2.63723
   R24        2.05632   0.00317   0.00000   0.00182   0.00182   2.05814
   R25        2.05765   0.00270   0.00000   0.00167   0.00167   2.05932
   R26        2.72040   0.00559   0.00000   0.00079   0.00079   2.72119
   R27        1.91177  -0.00140   0.00000  -0.00027  -0.00027   1.91151
   R28        2.06715   0.00214   0.00000   0.00129   0.00129   2.06844
   R29        2.06942   0.00595   0.00000   0.00361   0.00361   2.07302
   R30        2.06644   0.00324   0.00000   0.00210   0.00210   2.06854
    A1        2.07118   0.00326   0.00000  -0.00039  -0.00041   2.07077
    A2        2.09290  -0.00156   0.00000  -0.00098  -0.00100   2.09190
    A3        2.10846  -0.00208   0.00000  -0.00027  -0.00030   2.10816
    A4        2.12799   0.00394   0.00000   0.00001   0.00001   2.12800
    A5        1.99100   0.00781   0.00000   0.00717   0.00716   1.99816
    A6        2.16343  -0.01168   0.00000  -0.00703  -0.00703   2.15640
    A7        1.86808   0.01205   0.00000   0.00387   0.00386   1.87194
    A8        2.09049  -0.00370   0.00000  -0.00390  -0.00401   2.08648
    A9        2.13054   0.00119   0.00000   0.00346   0.00340   2.13394
   A10        1.54290   0.00797   0.00000   0.01992   0.01995   1.56285
   A11        1.76834  -0.01620   0.00000  -0.02338  -0.02337   1.74498
   A12        1.92511   0.00003   0.00000   0.00075   0.00091   1.92602
   A13        1.89805  -0.00141   0.00000  -0.00139  -0.00139   1.89666
   A14        1.89570  -0.00057   0.00000  -0.00113  -0.00112   1.89458
   A15        1.93487   0.00416   0.00000   0.00834   0.00834   1.94320
   A16        1.89437  -0.00011   0.00000  -0.00138  -0.00139   1.89298
   A17        1.91962   0.00008   0.00000  -0.00098  -0.00099   1.91864
   A18        1.92049  -0.00223   0.00000  -0.00363  -0.00363   1.91686
   A19        2.30914  -0.02021   0.00000  -0.06430  -0.06435   2.24479
   A20        1.81643   0.00821   0.00000   0.03118   0.03144   1.84788
   A21        1.72130  -0.00005   0.00000  -0.00221  -0.00253   1.71877
   A22        1.87990   0.00601   0.00000   0.01719   0.01738   1.89728
   A23        1.88281   0.01006   0.00000   0.02148   0.02058   1.90339
   A24        1.79056  -0.00109   0.00000   0.01043   0.01010   1.80066
   A25        2.09683   0.00094   0.00000   0.00171   0.00171   2.09855
   A26        2.11611   0.00281   0.00000   0.00174   0.00174   2.11784
   A27        2.07000  -0.00374   0.00000  -0.00341  -0.00341   2.06659
   A28        2.10635   0.00189   0.00000   0.00179   0.00179   2.10815
   A29        2.09741  -0.00319   0.00000  -0.00370  -0.00370   2.09371
   A30        2.07936   0.00130   0.00000   0.00191   0.00191   2.08127
   A31        2.09627   0.00083   0.00000   0.00084   0.00084   2.09710
   A32        2.09172  -0.00046   0.00000  -0.00067  -0.00067   2.09106
   A33        2.09519  -0.00037   0.00000  -0.00017  -0.00017   2.09501
   A34        2.09140  -0.00185   0.00000  -0.00197  -0.00197   2.08943
   A35        2.09563   0.00096   0.00000   0.00100   0.00100   2.09663
   A36        2.09616   0.00089   0.00000   0.00097   0.00097   2.09713
   A37        2.09682   0.00088   0.00000   0.00081   0.00081   2.09763
   A38        2.09387  -0.00028   0.00000   0.00008   0.00008   2.09395
   A39        2.09249  -0.00060   0.00000  -0.00089  -0.00089   2.09159
   A40        2.10551   0.00198   0.00000   0.00192   0.00192   2.10743
   A41        2.10001  -0.00351   0.00000  -0.00454  -0.00454   2.09547
   A42        2.07765   0.00153   0.00000   0.00262   0.00262   2.08026
   A43        2.12390   0.00216   0.00000   0.00295   0.00295   2.12685
   A44        2.06805  -0.00356   0.00000  -0.00376  -0.00376   2.06429
   A45        2.07830   0.00145   0.00000   0.00111   0.00111   2.07941
   A46        1.92214  -0.00342   0.00000  -0.00567  -0.00566   1.91647
   A47        1.90539   0.01032   0.00000   0.01120   0.01119   1.91658
   A48        1.89960   0.00262   0.00000   0.00409   0.00408   1.90367
   A49        1.90718  -0.00377   0.00000  -0.00412  -0.00410   1.90307
   A50        1.91765  -0.00130   0.00000  -0.00179  -0.00179   1.91586
   A51        1.91180  -0.00437   0.00000  -0.00361  -0.00365   1.90816
    D1        0.86926  -0.00431   0.00000  -0.02748  -0.02748   0.84178
    D2       -2.31293  -0.00295   0.00000  -0.02355  -0.02355  -2.33648
    D3       -2.11739  -0.00137   0.00000  -0.01557  -0.01558  -2.13297
    D4        0.98360  -0.00001   0.00000  -0.01165  -0.01164   0.97196
    D5       -1.47629   0.01253   0.00000   0.04450   0.04451  -1.43178
    D6        3.09394  -0.00321   0.00000   0.01938   0.01940   3.11334
    D7        0.54365   0.00169   0.00000   0.01859   0.01857   0.56223
    D8        1.50893   0.00962   0.00000   0.03242   0.03242   1.54135
    D9       -0.20402  -0.00612   0.00000   0.00730   0.00731  -0.19671
   D10       -2.75431  -0.00122   0.00000   0.00651   0.00649  -2.74782
   D11        0.75930  -0.00311   0.00000  -0.01789  -0.01788   0.74142
   D12       -2.35799  -0.00371   0.00000  -0.01999  -0.01999  -2.37798
   D13       -2.22399  -0.00059   0.00000  -0.00571  -0.00571  -2.22970
   D14        0.94191  -0.00119   0.00000  -0.00781  -0.00781   0.93409
   D15       -3.05109   0.00039   0.00000   0.00356   0.00357  -3.04752
   D16       -0.08326   0.00077   0.00000   0.00567   0.00567  -0.07759
   D17        0.04897   0.00221   0.00000   0.00777   0.00777   0.05674
   D18        3.01679   0.00260   0.00000   0.00988   0.00987   3.02666
   D19       -1.33440  -0.00067   0.00000   0.00913   0.00880  -1.32560
   D20        2.66751  -0.00032   0.00000   0.00648   0.00653   2.67404
   D21        0.82816  -0.00101   0.00000  -0.01091  -0.01068   0.81748
   D22        0.77281  -0.00007   0.00000   0.01236   0.01213   0.78494
   D23       -1.50847   0.00029   0.00000   0.00971   0.00987  -1.49861
   D24        2.93536  -0.00041   0.00000  -0.00769  -0.00735   2.92802
   D25        2.69945   0.00086   0.00000   0.01613   0.01574   2.71519
   D26        0.41817   0.00122   0.00000   0.01348   0.01347   0.43164
   D27       -1.42118   0.00052   0.00000  -0.00392  -0.00374  -1.42492
   D28        3.08041  -0.00217   0.00000  -0.01574  -0.01584   3.06457
   D29       -0.94296  -0.00237   0.00000  -0.01014  -0.01024  -0.95320
   D30        0.97843   0.00376   0.00000   0.01956   0.01975   0.99818
   D31       -1.10302  -0.00119   0.00000  -0.01274  -0.01285  -1.11587
   D32        1.15679  -0.00139   0.00000  -0.00715  -0.00724   1.14955
   D33        3.07818   0.00473   0.00000   0.02255   0.02274   3.10093
   D34        0.98303  -0.00268   0.00000  -0.01733  -0.01742   0.96561
   D35       -3.04034  -0.00288   0.00000  -0.01173  -0.01182  -3.05216
   D36       -1.11895   0.00325   0.00000   0.01797   0.01817  -1.10078
   D37       -3.12430  -0.00045   0.00000  -0.00212  -0.00212  -3.12642
   D38        0.03007  -0.00074   0.00000  -0.00264  -0.00264   0.02743
   D39       -0.00637   0.00023   0.00000  -0.00000  -0.00000  -0.00638
   D40       -3.13519  -0.00007   0.00000  -0.00052  -0.00052  -3.13572
   D41        3.12607   0.00089   0.00000   0.00410   0.00410   3.13018
   D42       -0.00839   0.00090   0.00000   0.00439   0.00439  -0.00400
   D43        0.00842   0.00024   0.00000   0.00197   0.00197   0.01038
   D44       -3.12605   0.00025   0.00000   0.00226   0.00226  -3.12379
   D45        0.00159  -0.00046   0.00000  -0.00159  -0.00159  -0.00000
   D46       -3.13551  -0.00023   0.00000  -0.00058  -0.00058  -3.13609
   D47        3.13054  -0.00020   0.00000  -0.00112  -0.00111   3.12942
   D48       -0.00656   0.00002   0.00000  -0.00010  -0.00010  -0.00666
   D49        0.00129   0.00024   0.00000   0.00125   0.00125   0.00253
   D50       -3.13953   0.00006   0.00000   0.00034   0.00034  -3.13919
   D51        3.13838   0.00001   0.00000   0.00023   0.00023   3.13861
   D52       -0.00244  -0.00016   0.00000  -0.00068  -0.00068  -0.00312
   D53        0.00075   0.00023   0.00000   0.00071   0.00071   0.00146
   D54        3.13960  -0.00032   0.00000  -0.00152  -0.00152   3.13808
   D55        3.14156   0.00040   0.00000   0.00161   0.00161  -3.14001
   D56       -0.00277  -0.00014   0.00000  -0.00061  -0.00061  -0.00338
   D57       -0.00569  -0.00048   0.00000  -0.00235  -0.00235  -0.00804
   D58        3.12886  -0.00051   0.00000  -0.00266  -0.00267   3.12620
   D59        3.13864   0.00006   0.00000  -0.00013  -0.00013   3.13851
   D60       -0.00999   0.00004   0.00000  -0.00044  -0.00044  -0.01043
   D61       -0.63803  -0.00048   0.00000   0.02541   0.02541  -0.61262
   D62        1.45593  -0.00076   0.00000   0.02386   0.02384   1.47977
   D63       -2.74123   0.00157   0.00000   0.02852   0.02854  -2.71270
   D64        2.67832  -0.00039   0.00000   0.02376   0.02377   2.70209
   D65       -1.51091  -0.00067   0.00000   0.02221   0.02219  -1.48871
   D66        0.57512   0.00166   0.00000   0.02687   0.02689   0.60200
         Item               Value     Threshold  Converged?
 Maximum Force            0.037075     0.000450     NO 
 RMS     Force            0.005142     0.000300     NO 
[...]
 631,-0.00095374,-0.00012412,0.00179535,0.00620839,-0.00203555,0.003244
 24,0.00499012,0.00357073,-0.04500471,-0.06338085,-0.06476156,-0.000546
 09,-0.00020643,-0.00051451,-0.00012157,-0.00075436,0.00040033,0.000207
 44,0.00032182,0.00007328,-0.00060197,-0.00333246,0.00209526,0.05048025
 ,0.05542238,-0.00010661,0.00247033,0.00056479,0.00008833,-0.00085085,0
 .00005878,-0.00017309,0.00021250,0.00007563,0.00023895,-0.00124083,-0.
 00044298,0.00000194,-0.00005875,0.00001195,-0.00001985,0.00000268,0.00
 000541,0.00000617,0.00002737,-0.00001580,-0.00003512,-0.00002593,-0.00
 000577,0.00027468,0.00050373,-0.00029928,0.00004267,0.00000779,-0.0000
 9938,-0.00003223,-0.00001080,0.00007159,0.00064519,0.00072726,-0.00048
 477,0.00001570,0.00012883,0.00001237,-0.01812736,-0.00579004,-0.011938
 50,0.00297691,-0.00429324,-0.00171891,0.00078090,0.00034720,-0.0000747
 3,0.00092528,-0.00237733,0.00237365,0.00530493,0.00039369,0.00603103,-
 0.13122795,-0.06563698,-0.20680593,-0.00091745,-0.00040700,-0.00074932
 ,-0.00003153,0.00039355,-0.00020964,0.00021991,0.00001221,0.00013943,0
 .00002850,0.00192313,-0.00029782,0.13901992,0.07312596,0.21380164,0.01
 740830,0.00120272,-0.00220299,-0.15244867,-0.09413336,0.04146233,-0.05
 277756,-0.05967122,0.03352192,-0.00192970,0.00382841,0.00224250,-0.000
 76687,-0.00001280,-0.00075842,0.00003406,0.00009362,0.00003973,0.00018
 515,-0.00021895,0.00013673,-0.00014115,0.00013602,0.00002946,0.0007743
 6,-0.00264908,-0.00102789,0.00026128,-0.00043084,-0.00007316,0.0006286
 3,0.00636544,-0.00007781,0.00067145,0.00073171,0.00015985,-0.00001895,
 -0.00022111,-0.00023535,-0.00448648,0.00031272,0.00155231,-0.00170768,
 0.00368346,-0.00272586,0.00175910,0.00053257,-0.00020132,0.00045705,0.
 00042581,0.00151540,-0.00180863,0.00007644,-0.00011546,0.00190866,-0.0
 0098912,-0.00132599,-0.00113175,0.00042097,0.00216559,0.00012960,0.000
 04812,-0.00007844,-0.00007966,-0.00000798,0.00017799,0.00000837,0.0000
 0534,0.00001345,-0.00000763,0.00013781,0.00022124,0.58758123,-0.014736
 16,-0.04956526,-0.01073010,-0.09578181,-0.30473206,-0.01532280,-0.0411
 7790,-0.00456591,0.02462162,0.01371254,0.00360894,-0.00390245,-0.00170
 552,0.00046496,-0.00101899,0.00027884,-0.00011744,0.00038376,0.0001957
 7,-0.00026561,0.00005579,0.00003418,0.00020841,-0.00040077,-0.00244098
 ,-0.00312310,0.00315916,0.00023133,-0.00020252,0.00069854,0.00088196,0
 .00301814,-0.00070059,-0.00130669,-0.00086396,-0.00054645,-0.00260130,
 0.00000789,-0.00035890,-0.00639280,-0.00224488,0.00203457,0.00327619,0
 .00001811,-0.00046960,-0.00085264,0.00006727,0.00055286,0.00091787,-0.
 00032518,-0.00058360,0.00004552,0.00006288,0.00046228,0.00091958,-0.00
 016586,-0.00063966,0.00112661,-0.00116784,0.00040758,0.00025022,-0.000
 13210,0.00017753,0.00009855,0.00007181,-0.00003367,0.00010630,-0.00008
 352,-0.00007167,-0.00017294,0.00009580,0.00030581,0.11393613,0.6980024
 0,-0.00566866,-0.02224850,0.00885098,0.04559901,-0.00390080,-0.0859070
 3,0.03598280,0.03167395,0.00385524,0.00595258,-0.00138030,-0.00120862,
 -0.00037620,0.00010341,0.00023443,0.00007481,-0.00013004,0.00010048,-0
 .00005457,0.00005978,-0.00005214,0.00005035,0.00001722,-0.00025938,-0.
 00125702,0.00019486,0.00145591,-0.00009744,-0.00004169,0.00021916,0.00
 029006,-0.00273049,0.00017813,-0.00059348,-0.00050765,-0.00106044,-0.0
 0123498,0.00022032,0.00026330,-0.00344968,-0.00060893,-0.00007623,-0.0
 0003430,0.00038327,-0.00154890,0.00005140,0.00067248,0.00041381,0.0002
 7246,-0.00018398,0.00001056,-0.00023212,0.00015508,0.00025274,0.000384
 10,-0.00046976,-0.00012725,-0.00011602,-0.00002936,0.00135579,0.000108
 25,0.00000818,-0.00000746,-0.00002912,0.00000757,0.00009314,0.00003051
 ,0.00002889,-0.00001708,0.00001985,0.00019179,0.00011172,-0.35845938,0
 .10344679,0.37775853,0.00025893,-0.00600594,0.00171977,0.01467285,-0.0
 0326328,-0.01444056,-0.00368604,-0.00152687,0.00071127,0.00264302,0.00
 070768,-0.00015007,-0.00024209,0.00009545,-0.00015694,0.00004945,-0.00
 003368,0.00007660,0.00002766,-0.00003294,0.00001081,0.00001691,0.00002
 973,-0.00007346,-0.00059724,-0.00060014,0.00075670,0.00002297,-0.00001
 581,0.00012922,0.00013365,0.00023959,-0.00018026,-0.00009014,-0.000012
 17,-0.00045437,-0.00073729,-0.00000220,-0.00004891,-0.00108296,-0.0000
 1171,0.00009300,0.00015505,0.00029102,0.00022445,0.00007923,-0.0000411
 6,-0.00015618,0.00017868,0.00002075,0.00011272,-0.00021455,-0.00000176
 ,-0.00002496,0.00040302,-0.00019846,-0.00039836,-0.00011918,0.00019289
 ,-0.00006451,-0.00000330,0.00000184,0.00001887,0.00002301,0.00000044,-
 0.00000979,0.00001435,-0.00001827,-0.00002092,-0.00001441,0.00000576,0
 .00002466,-0.11118787,0.02892127,0.04682884,0.59574314,-0.00268056,0.0
 0392384,0.00090345,0.00201360,-0.04064309,-0.01198880,0.00672538,0.001
 83649,-0.00464356,-0.00232546,-0.00270832,0.00041151,0.00037161,-0.000
 14979,0.00026059,-0.00006685,0.00003694,-0.00012176,-0.00004724,0.0000
 6652,-0.00000996,-0.00001429,-0.00008899,0.00010335,0.00088139,0.00114
 299,-0.00104950,-0.00004000,0.00003439,-0.00021438,-0.00019112,-0.0007
 1516,0.00009711,-0.00008669,-0.00014246,0.00008475,0.00070479,0.000139
 20,0.00008425,0.00015483,0.00052949,-0.00012933,-0.00052037,0.00051532
 ,-0.00041182,0.00065686,0.00006535,-0.00001271,-0.00015709,0.00016215,
 0.00039962,-0.00036331,-0.00004770,-0.00012196,0.00020962,-0.00005912,
 -0.00037639,0.00018310,-0.00026931,0.00066278,-0.00008025,0.00002890,-
 0.00006824,-0.00006837,0.00000960,0.00004832,-0.00003798,0.00002332,0.
 00004227,0.00004153,-0.00002072,-0.00000686,0.03308910,-0.21906834,-0.
 07099201,0.03499053,0.56036472,0.00337084,0.00140035,0.00432070,-0.015
 77390,-0.01082520,0.00495532,0.00510770,0.00081824,-0.00630224,-0.0014
 3215,-0.00033040,0.00166708,0.00026153,-0.00008620,0.00018069,-0.00003
 874,0.00003676,-0.00008226,-0.00003220,0.00004867,-0.00001114,0.000000
 75,-0.00006096,0.00005570,0.00023667,0.00041122,-0.00048853,-0.0000611
 7,0.00003035,-0.00003386,-0.00016179,-0.00065337,0.00009078,0.00031614
 ,0.00040053,-0.00034407,-0.00007434,0.00004060,-0.00005169,0.00057362,
 0.00008259,-0.00033760,-0.00061457,0.00013069,-0.00021447,0.00034179,-
 0.00005064,-0.00007006,-0.00015833,0.00010578,0.00027813,-0.00022412,-
 0.00002886,-0.00009509,-0.00000330,0.00002822,-0.00014908,0.00002362,0
 .00014450,0.00027536,-0.00008225,0.00005736,-0.00006001,-0.00003160,0.
 00000173,0.00001862,-0.00002857,0.00000734,0.00001818,0.00003593,-0.00
 002142,-0.00004716,0.04819725,-0.06417964,-0.11484313,-0.00362506,-0.0
 2997464,0.56799524,-0.00076285,0.00389426,-0.00052497,-0.01432640,-0.0
 0029128,0.00677203,0.00262197,-0.00347260,0.00241169,-0.00168160,-0.00
 110484,0.00067865,0.00030610,-0.00007542,0.00007816,-0.00006945,0.0000
 1524,-0.00004503,-0.00000243,0.00004207,0.00000544,-0.00001191,-0.0000
 4066,0.00005383,0.00039236,0.00031112,-0.00079498,0.00000451,-0.000039
 19,-0.00009297,0.00004706,0.00025898,0.00009214,0.00005114,0.00000235,
 0.00013507,0.00025082,0.00007566,-0.00010040,0.00243568,0.00061415,-0.
 00005248,-0.00061185,-0.00018015,-0.00021290,-0.00068649,-0.00002739,0
 .00023711,-0.00031342,-0.00013755,-0.00033542,0.00047905,-0.00000607,0
 .00000846,-0.00054995,0.00023702,0.00050761,-0.00020063,0.00047425,-0.
 00039990,-0.00003805,0.00004396,-0.00002665,0.00001781,-0.00001829,-0.
 00002765,-0.00000439,-0.00001099,-0.00000870,0.00000763,-0.00005133,-0
 .00013414,-0.28908391,-0.02023801,0.21979863,-0.00145917,-0.00117219,-
 0.00021428,0.30240287,0.00032169,-0.00186705,-0.00062390,-0.02081659,0
 .01052496,0.02279270,-0.00577989,-0.00684742,-0.00006300,-0.00046773,0
 .00003588,0.00006235,-0.00005131,-0.00001112,-0.00013493,0.00000376,0.
 00002738,-0.00001050,0.00002383,-0.00003919,0.00002673,-0.00004035,0.0
 0001845,0.00004031,0.00043078,-0.00016537,-0.00029292,0.00005043,-0.00
 000292,-0.00009795,-0.00005260,0.00102554,-0.00007568,0.00004087,0.000
 02222,0.00003152,0.00024859,-0.00003249,0.00004214,-0.00045582,-0.0012
 3155,0.00041525,0.00059870,-0.00009803,0.00040184,0.00057207,-0.000000
 88,-0.00024985,-0.00001370,0.00017368,0.00053044,-0.00056720,-0.000054
 79,-0.00008829,0.00065033,-0.00020381,-0.00079680,0.00027255,-0.000237
 18,0.00035270,-0.00007663,0.00000327,-0.00004734,-0.00004758,0.0000416
 7,0.00001807,-0.00004139,0.00002637,0.00003189,0.00000512,0.00003277,0
 .00008608,-0.01950485,-0.06807557,-0.00436434,0.02300898,0.00514687,-0
 .01675853,0.02070588,0.06648082,-0.00100354,0.00020320,-0.00119694,-0.
 00391479,0.00092165,-0.00345541,0.00114385,-0.00220475,0.00566500,0.00
 010157,-0.00035727,-0.00012350,0.00008641,0.00000318,-0.00000523,-0.00
 001189,0.00001194,-0.00001162,-0.00000868,-0.00000848,-0.00000527,-0.0
 0001799,0.00001638,0.00002571,-0.00001701,-0.00005692,-0.00025414,0.00
 000566,-0.00004830,0.00001013,0.00016685,0.00031213,0.00018569,-0.0001
 1401,-0.00010503,0.00012137,-0.00008926,0.00007977,-0.00009763,0.00053
 653,-0.00034702,0.00023333,0.00071013,-0.00016480,0.00111737,-0.000825
 99,-0.00011435,0.00020038,-0.00008800,-0.00022770,-0.00063620,0.000761
 43,-0.00005920,-0.00008370,-0.00040067,0.00035732,0.00008117,-0.000100
 85,0.00037735,-0.00111325,-0.00004015,-0.00000734,0.00002415,0.0000414
 3,-0.00001684,-0.00006845,0.00001369,-0.00003601,-0.00001268,-0.000040
 14,-0.00011782,-0.00009227,0.22393803,-0.00131952,-0.18720455,0.006460
 58,0.00357994,-0.00668443,-0.22720873,0.00086522,0.19360558,-0.0002049
 7,0.00034110,0.00040311,-0.00061657,-0.00226249,0.00083993,-0.00054809
 ,-0.00200550,-0.00169062,-0.00023621,-0.00018372,0.00011922,0.00007959
 ,-0.00002478,0.00004503,-0.00000187,0.00001404,-0.00002194,-0.00001532
 ,0.00000406,-0.00000762,-0.00001764,0.00000079,0.00002577,0.00005425,0
 .00011081,-0.00014982,-0.00000940,-0.00001048,-0.00000688,0.00001526,-
 0.00009858,0.00001955,0.00000765,0.00000917,-0.00001027,0.00001097,0.0
 0000994,-0.00001142,0.00011719,0.00010156,-0.00000708,-0.00005586,0.00
 006746,0.00004328,0.00004445,-0.00000896,-0.00003443,-0.00001460,0.000
 01189,0.00002448,-0.00001732,-0.00001492,-0.00000789,-0.00002221,0.000
 02259,-0.00003165,-0.00002044,-0.00001146,0.00003868,-0.00001077,-0.00
 000153,-0.00000049,-0.00000367,-0.00000108,-0.00000059,-0.00000536,0.0
 0000014,0.00000400,0.00000535,-0.00000356,-0.00000946,-0.00939525,0.00
 178891,0.00781033,-0.20620167,-0.04854496,0.13175767,0.00070703,0.0011
 2921,0.00033214,0.21909299,-0.00059822,0.00026622,0.00065574,0.0041794
 9,0.00136767,-0.00351319,-0.00227079,-0.00141354,0.00222154,-0.0001946
 5,-0.00005061,-0.00005092,0.00005525,-0.00001368,0.00009087,-0.0000029
 0,-0.00001269,-0.00001350,-0.00001712,0.00002684,-0.00000677,0.0000174
 9,-0.00000834,-0.00000790,-0.00005807,0.00024527,-0.00000155,-0.000041
 52,0.00001255,0.00002221,-0.00008285,-0.00054658,0.00010547,0.00003389
 ,0.00003737,-0.00000188,0.00003637,0.00002330,0.00004364,0.00029825,0.
 00017041,0.00002424,-0.00003497,-0.00013029,-0.00002732,-0.00007270,-0
 .00001712,0.00005927,-0.00005333,-0.00001841,-0.00006665,0.00008922,-0
 .00000557,0.00002728,-0.00019790,0.00007559,0.00011758,0.00002539,0.00
 003416,-0.00004156,-0.00000696,0.00000272,-0.00000410,-0.00000320,0.00
 000248,-0.00000332,-0.00000758,0.00000287,0.00000515,0.00000802,0.0000
 0409,-0.00001774,0.02705171,0.00550733,-0.02282886,-0.05773978,-0.0665
 1632,0.04960943,0.00028927,-0.00513419,-0.00202923,0.05060989,0.072086
 43,-0.00011662,-0.00009531,0.00015592,0.00405212,0.00203693,-0.0005066
 4,-0.00203393,0.00217797,0.00066876,0.00014812,0.00008197,0.00002280,0
 .00002826,-0.00000740,0.00003960,0.00000245,0.00001052,-0.00001357,-0.
 00001014,0.00000289,-0.00001257,-0.00000325,0.00000132,0.00000422,-0.0
 0006168,0.00009078,0.00001385,-0.00001756,0.00000794,0.00002714,-0.000
 05199,-0.00021161,0.00008392,-0.00000728,0.00000942,-0.00000400,-0.000
 07201,0.00001969,-0.00002186,0.00007851,-0.00005725,0.00001921,-0.0000
 2238,-0.00003986,-0.00000647,-0.00004156,0.00000009,0.00000303,-0.0000
 0848,-0.00001208,-0.00003100,0.00003742,0.00000853,0.00000785,-0.00006
 732,0.00002675,0.00006389,-0.00001952,0.00000532,-0.00001396,0.0000025
 9,-0.00000228,0.00000380,0.00000212,-0.00000241,-0.00000192,0.00000019
 ,0.00000083,-0.00000099,0.00000103,-0.00000211,-0.00000566,0.01355612,
 -0.00017765,-0.01272453,0.12888655,0.04076671,-0.15704644,-0.00052795,
 -0.00229073,-0.00064980,-0.14501129,-0.04194606,0.16756101,-0.00031196
 ,0.00025482,-0.00065837,-0.00224647,0.00055691,0.00194023,0.00127751,-
 0.00152759,-0.00068564,-0.00000079,0.00008452,-0.00011962,-0.00004853,
 0.00002022,-0.00004248,0.00000252,-0.00000828,0.00001937,0.00001133,-0
 .00000680,0.00000593,0.00000547,0.00000586,-0.00001058,-0.00001023,-0.
 00009343,0.00009862,0.00001628,0.00001593,-0.00000669,-0.00000488,0.00
 012031,-0.00005358,-0.00000211,-0.00001637,0.00005127,0.00008350,-0.00
 002985,0.00002680,0.00012981,0.00003258,-0.00002833,0.00007454,-0.0002
 1188,0.00006248,-0.00010394,-0.00001175,0.00002969,-0.00000098,-0.0000
 1902,-0.00006930,0.00007276,-0.00000429,0.00001942,-0.00004246,0.00003
 240,0.00007103,0.00003856,0.00002136,-0.00014612,0.00000991,-0.0000042
 6,0.00000778,0.00000712,0.00000215,-0.00000690,0.00000308,-0.00000262,
 -0.00000236,-0.00000695,0.00000251,0.00000524,0.01542289,0.00832886,0.
 00900106,-0.21092195,-0.07855798,-0.10774049,0.00027643,-0.00067458,0.
 00010723,-0.01335917,-0.00559705,-0.01440135,0.21646936,0.00005472,-0.
 00230310,0.00024619,0.00259008,0.00327912,-0.00518599,-0.00098793,-0.0
 0042970,0.00082822,0.00133709,0.00052762,-0.00026515,-0.00019013,0.000
 05493,-0.00009739,0.00002637,-0.00002467,0.00005001,0.00002178,-0.0000
 1895,0.00000938,0.00001272,0.00002070,-0.00005976,-0.00029599,-0.00035
 301,0.00043342,0.00001677,-0.00001205,0.00007075,0.00006891,0.00019254
 ,-0.00007479,-0.00005485,-0.00002576,-0.00013904,-0.00030066,-0.000020
 69,-0.00000181,-0.00073423,-0.00003904,0.00010386,0.00029152,0.0000343
 5,-0.00010639,-0.00008861,0.00004314,0.00004691,0.00011235,-0.00003356
 ,-0.00004184,-0.00002222,0.00001813,0.00005335,0.00015051,-0.00007477,
 -0.00004186,-0.00005649,-0.00007551,-0.00001199,0.00004768,-0.00001723
 ,0.00001433,0.00000771,0.00000683,0.00000169,0.00001358,-0.00000371,-0
 .00000644,-0.00001027,0.00002947,0.00003360,-0.02184335,-0.02394958,-0
 .01672264,-0.07401161,-0.08328998,-0.04841969,0.00020841,0.00039053,0.
 00051480,-0.00397117,-0.00238069,-0.00402325,0.08142623,0.09929897,0.0
 0015010,-0.00139604,0.00014039,0.00345714,0.00387927,-0.00329131,-0.00
 164448,0.00105481,0.00099154,0.00077084,0.00040653,-0.00019262,-0.0000
 9544,0.00002993,-0.00003714,0.00002158,-0.00000775,0.00002256,0.000005
 35,-0.00001412,-0.00000132,0.00000078,0.00002033,-0.00002296,-0.000201
 38,-0.00020312,0.00024292,-0.00000084,-0.00001215,0.00005563,0.0000488
 4,0.00005214,0.00000123,-0.00002446,-0.00000654,-0.00005536,-0.0001886
 6,-0.00001217,0.00000390,-0.00038883,-0.00004638,0.00007777,0.00018128
 ,0.00004687,0.00004812,-0.00006679,0.00001006,-0.00001484,0.00008993,-
 0.00002013,-0.00004840,0.00000295,0.00001174,0.00002515,0.00007010,-0.
 00002973,-0.00003480,-0.00005056,-0.00001488,-0.00006478,0.00002673,-0
 .00002267,0.00002768,0.00001096,-0.00000057,-0.00000565,0.00000836,-0.
 00000576,-0.00000527,-0.00001220,0.00000711,0.00001938,-0.00824508,-0.
 01598121,-0.00675945,-0.10642247,-0.04896724,-0.11988064,-0.00026213,-
 0.00027931,-0.00005207,0.01451401,0.00708969,0.01351732,0.11548138,0.0
 6245750,0.12507277,0.00022363,0.00054035,0.00055334,-0.00274659,-0.002
 68764,0.00071707,0.00069385,0.00021123,-0.00170104,-0.00036653,-0.0002
 0965,0.00025096,0.00006254,-0.00002535,0.00004072,-0.00001199,0.000006
 65,-0.00001782,-0.00000688,0.00001122,-0.00000156,-0.00000228,-0.00001
 000,0.00001263,0.00008476,0.00007744,-0.00016929,-0.00000968,-0.000008
 71,-0.00001308,-0.00000891,-0.00008621,0.00002003,0.00002622,0.0000225
 0,-0.00002224,0.00002480,0.00000988,-0.00001272,0.00023381,0.00000803,
 -0.00007892,-0.00008161,-0.00007108,-0.00004486,0.00004166,-0.00000878
 ,-0.00001180,-0.00003651,0.00001336,0.00004215,-0.00002269,0.00000089,
 -0.00001249,-0.00002007,0.00001278,0.00003071,0.00000151,-0.00000561,0
 .00000414,-0.00000138,0.00000381,-0.00001121,-0.00000805,0.00000419,0.
 00000247,-0.00000471,0.00000729,0.00000519,0.00000598,-0.00000188,-0.0
 0000633,-0.00025834,0.01235613,-0.00065206,-0.07786405,0.05493237,-0.0
 5992663,-0.00019796,0.00052744,-0.00052383,0.01062163,-0.01571464,0.01
 567880,-0.00684065,0.01618109,-0.01723699,0.07646847,-0.00108627,-0.00
 140241,-0.00113503,0.00754256,0.00341263,-0.00039204,-0.00198533,-0.00
 018403,0.00146697,0.00135353,0.00052988,-0.00053632,-0.00014248,0.0000
 5434,-0.00009852,0.00002587,-0.00001155,0.00003923,0.00001500,-0.00002
 706,0.00000091,-0.00000015,0.00003398,-0.00003596,-0.00030875,-0.00032
 534,0.00033520,0.00002424,-0.00002439,0.00007977,0.00010922,0.00026879
 ,-0.00004031,-0.00014097,-0.00011992,0.00004336,-0.00024580,0.00001683
 ,-0.00003919,-0.00042409,-0.00003934,0.00017830,0.00023207,0.00002162,
 0.00009585,-0.00014972,0.00000331,0.00001397,0.00007964,-0.00004280,-0
 .00010305,0.00006967,0.00000857,0.00002717,0.00004825,-0.00000707,0.00
 002317,-0.00005421,-0.00000567,-0.00014005,0.00002802,-0.00001461,0.00
 002253,0.00001922,-0.00000291,-0.00001003,0.00001702,-0.00001134,-0.00
 001301,-0.00001998,0.00000198,0.00001464,0.00760460,-0.03248520,0.0099
 7576,0.05500989,-0.16030678,0.11803518,-0.00030668,0.00005117,-0.00002
 231,0.00292164,-0.00361726,0.00362035,-0.00413891,0.00915567,-0.008046
 21,-0.06609710,0.18506892,-0.00080762,-0.00010830,-0.00088436,0.003267
 94,-0.00006501,-0.00097020,-0.00074390,0.00059307,0.00148917,0.0002005
 3,-0.00004917,-0.00032876,-0.00004433,0.00001391,-0.00002080,0.0000032
 3,-0.00001496,0.00001395,0.00000573,0.00000017,0.00000485,0.00001174,-
 0.00000136,-0.00001599,-0.00003016,0.00002145,0.00012067,0.00000415,0.
 00001117,-0.00000066,-0.00002463,-0.00002560,-0.00002259,-0.00005558,-
 0.00007240,0.00006739,0.00006244,0.00000924,0.00002833,-0.00011084,0.0
 0006129,0.00006768,0.00011351,-0.00004479,-0.00001616,-0.00002762,0.00
 001036,0.00003161,0.00001711,-0.00000963,-0.00003081,0.00002242,0.0000
 0217,0.00001646,0.00000345,0.00000085,0.00001149,0.00000671,-0.0000439
 1,-0.00002533,0.00001548,-0.00001014,0.00000300,-0.00000162,0.00000346
 ,0.00000041,0.00000172,0.00000051,0.00000245,-0.00000359,0.00000315,0.
 00001054,0.00659724,-0.01986902,0.01664226,-0.05982721,0.12164451,-0.1
 7311391,0.00019049,0.00047685,0.00047725,-0.00897574,0.01048845,-0.011
 15295,-0.00295572,0.01033402,-0.00977976,0.06308466,-0.12336034,0.1773
 7476\\-0.00000028,-0.00000016,0.00000034,-0.00000045,-0.00000046,-0.00
 000012,-0.00000067,-0.00000203,-0.00000023,0.00000078,0.00000024,0.000
 00026,0.00000063,-0.00000052,-0.00000035,0.00000060,-0.00000084,-0.000
 00033,0.00000084,-0.00000042,-0.00000051,0.00000032,-0.00000040,-0.000
 00020,0.00000048,-0.00000100,-0.00000028,0.00000055,-0.00000081,-0.000
 00042,0.00000004,0.00000002,0.00000016,0.00000048,-0.00000003,-0.00000
 026,0.00000017,-0.00000065,-0.00000002,0.00000025,0.00000042,-0.000000
 02,0.00000032,-0.00000015,-0.00000005,0.00000005,0.00000079,0.00000017
 ,0.00000003,0.00000096,-0.00000039,0.00000024,0.00000116,0.00000005,0.
 00000014,0.00000059,-0.00000024,-0.00000079,0.00000066,-0.00000005,-0.
 00000011,0.00000081,-0.00000005,0.00000018,0.00000136,-0.00000022,0.00
 000033,0.00000122,-0.00000029,0.00000011,0.00000052,-0.00000020,-0.000
 00034,-0.00000043,0.00000172,0.00000065,0.00000016,0.00000050,-0.00000
 098,0.00000073,0.00000012,-0.00000130,-0.00000191,-0.00000017,-0.00000
 098,-0.00000013,0.00000102,-0.00000129,0.00000030,0.00000008\\\@
 The archive entry for this job was punched.


 THE MORE POWERFUL THE METHOD, THE MORE CATASTROPHIC THE ERRORS.
     -- M.D. KAMEN
 Job cpu time:       0 days  8 hours 51 minutes  5.1 seconds.
 Elapsed time:       0 days  1 hours 30 minutes 34.2 seconds.
 File lengths (MBytes):  RWF=      6 Int=      0 D2E=      0 Chk=      2 Scr=      1
 Normal termination of Gaussian 16 at Wed Jan 17 21:51:59 2024.
