Unloading slurm/anatra/current
  ERROR: No such file or directory on
    '/cm/local/modulefiles/slurm/anatra/current'
environment: line 0: unalias: gv: not found
environment: line 0: unalias: sl: not found
 Entering Gaussian System, Link 0=g16
 Initial command:
 /apps/gaussian/g16/C.01/g16/l1.exe "/local/jobs/1158124/Gau-2591046.inp" -scrdir="/local/jobs/1158124/"
 Entering Link 1 = /apps/gaussian/g16/C.01/g16/l1.exe PID=   2591047.
  
 Copyright (c) 1988-2019, Gaussian, Inc.  All Rights Reserved.
  
 This is part of the Gaussian(R) 16 program.  It is based on
 the Gaussian(R) 09 system (copyright 2009, Gaussian, Inc.),
 the Gaussian(R) 03 system (copyright 2003, Gaussian, Inc.),
 the Gaussian(R) 98 system (copyright 1998, Gaussian, Inc.),
 the Gaussian(R) 94 system (copyright 1995, Gaussian, Inc.),
 the Gaussian 92(TM) system (copyright 1992, Gaussian, Inc.),
 the Gaussian 90(TM) system (copyright 1990, Gaussian, Inc.),
 the Gaussian 88(TM) system (copyright 1988, Gaussian, Inc.),
 the Gaussian 86(TM) system (copyright 1986, Carnegie Mellon
 University), and the Gaussian 82(TM) system (copyright 1983,
 Carnegie Mellon University). Gaussian is a federally registered
 trademark of Gaussian, Inc.
  
 This software contains proprietary and confidential information,
 including trade secrets, belonging to Gaussian, Inc.
  
 This software is provided under written license and may be
 used, copied, transmitted, or stored only in accord with that
 written license.
  
 The following legend is applicable only to US Government
 contracts under FAR:
  
                    RESTRICTED RIGHTS LEGEND
  
 Use, reproduction and disclosure by the US Government is
 subject to restrictions as set forth in subparagraphs (a)
 and (c) of the Commercial Computer Software - Restricted
 Rights clause in FAR 52.227-19.
  
 Gaussian, Inc.
 340 Quinnipiac St., Bldg. 40, Wallingford CT 06492
  
  
 ---------------------------------------------------------------
 Warning -- This program may not be used in any manner that
 competes with the business of Gaussian, Inc. or will provide
 assistance to any competitor of Gaussian, Inc.  The licensee
 of this program is prohibited from giving any competitor of
 Gaussian, Inc. access to this program.  By using this program,
 the user acknowledges that Gaussian, Inc. is engaged in the
 business of creating and licensing software in the field of
 computational chemistry and represents and warrants to the
 licensee that it is not a competitor of Gaussian, Inc. and that
 it will not use this program in any manner prohibited above.
 ---------------------------------------------------------------
  

 Cite this work as:
 Gaussian 16, Revision C.01,
 M. J. Frisch, G. W. Trucks, H. B. Schlegel, G. E. Scuseria, 
 M. A. Robb, J. R. Cheeseman, G. Scalmani, V. Barone, 
 G. A. Petersson, H. Nakatsuji, X. Li, M. Caricato, A. V. Marenich, 
 J. Bloino, B. G. Janesko, R. Gomperts, B. Mennucci, H. P. Hratchian, 
 J. V. Ortiz, A. F. Izmaylov, J. L. Sonnenberg, D. Williams-Young, 
 F. Ding, F. Lipparini, F. Egidi, J. Goings, B. Peng, A. Petrone, 
 T. Henderson, D. Ranasinghe, V. G. Zakrzewski, J. Gao, N. Rega, 
 G. Zheng, W. Liang, M. Hada, M. Ehara, K. Toyota, R. Fukuda, 
 J. Hasegawa, M. Ishida, T. Nakajima, Y. Honda, O. Kitao, H. Nakai, 
 T. Vreven, K. Throssell, J. A. Montgomery, Jr., J. E. Peralta, 
 F. Ogliaro, M. J. Bearpark, J. J. Heyd, E. N. Brothers, K. N. Kudin, 
 V. N. Staroverov, T. A. Keith, R. Kobayashi, J. Normand, 
 K. Raghavachari, A. P. Rendell, J. C. Burant, S. S. Iyengar, 
 J. Tomasi, M. Cossi, J. M. Millam, M. Klene, C. Adamo, R. Cammi, 
 J. W. Ochterski, R. L. Martin, K. Morokuma, O. Farkas, 
 J. B. Foresman, and D. J. Fox, Gaussian, Inc., Wallingford CT, 2019.
 
 ******************************************
 Gaussian 16:  ES64L-G16RevC.01  3-Jul-2019
                17-Jan-2024 
 ******************************************
 %nprocshared=12
 Will use up to   12 processors via shared memory.
 %mem=48GB
 ----------------------------------------------------------------------
 # external="~/scripts/MiMe -H 'wb97xd def2svp' -EF 'wb97xd def2svp' -c
  12 -m 48GB" opt=(calcall,ts,noeigen,maxcycles=50,maxstep=10,nomicro)
 ----------------------------------------------------------------------
 1/5=1,6=50,8=10,10=4,11=1,18=20,26=1,38=1/1,3;
 2/9=110,12=2,17=6,18=5,40=1/2;
 3/11=9,25=1,30=1,41=9900000,43=2,71=2,140=1/1;
 4/20=17,22=2,24=3,113=1,114=1/2;
 6/7=2,8=2,9=2,10=2,18=1/1;
 7/25=1,44=-1/16;
 1/5=1,6=50,8=10,10=4,11=1,18=20,26=1/3(3);
 2/9=110/2;
 7/8=1,9=1,25=1,44=-1/16;
 99//99;
 2/9=110/2;
 3/11=9,25=1,30=1,41=9900000,43=2,71=2,140=1/1;
 4/16=2,20=17,22=2,24=3,113=1,114=1/2;
 7/25=1,44=-1/16;
 1/5=1,6=50,8=10,10=4,11=1,18=20,26=1/3(-4);
 2/9=110/2;
 6/7=2,8=2,9=2,10=2,18=1/1;
 7/8=1,9=1,25=1,44=-1/16;
 99//99;
 ----------
 TS-898.out
 ----------
 Symbolic Z-matrix:
 Charge =  0 Multiplicity = 1
 C                    -0.46944  -0.70158  -0.3157 
 C                    -1.80325  -0.37883   0.26459 
 O                    -2.1666   -0.88981   1.32245 
 C                     0.64063  -0.22369   0.32388 
 C                     0.48216   2.80238  -0.36191 
 H                     1.0592    3.479    -0.99873 
 H                    -0.56866   2.85168  -0.65767 
 H                     0.56954   3.13654   0.67555 
 N                     0.98232   1.42813  -0.49487 
 H                     0.9747    1.21586  -1.4994 
 H                     1.99051   1.47348  -0.28996 
 Cl                    2.20424  -1.06498  -0.03906 
 C                     0.5992    0.23794   1.78923 
 H                    -0.22197   0.93682   1.97915 
 H                     0.48467  -0.62723   2.45151 
 H                     1.52984   0.74582   2.06821 
 C                    -0.50617  -1.49801  -1.58355 
 H                     0.43652  -1.45603  -2.13643 
 H                    -0.72787  -2.54679  -1.36119 
 H                    -1.27943  -1.12504  -2.26314 
 C                    -2.69529   0.55705  -0.50643 
 H                    -3.55857   0.003    -0.88378 
 H                    -3.02491   1.36267   0.15514 
 H                    -2.16599   1.00486  -1.35156 
 
 Add virtual bond connecting atoms N9         and C4         Dist= 3.54D+00.

 GradGradGradGradGradGradGradGradGradGradGradGradGradGradGradGradGradGrad
 Berny optimization.
 Initialization pass.
                           ----------------------------
                           !    Initial Parameters    !
                           ! (Angstroms and Degrees)  !
 --------------------------                            --------------------------
 ! Name  Definition              Value          Derivative Info.                !
 --------------------------------------------------------------------------------
 ! R1    R(1,2)                  1.49           calculate D2E/DX2 analytically  !
 ! R2    R(1,4)                  1.3674         calculate D2E/DX2 analytically  !
 ! R3    R(1,17)                 1.4977         calculate D2E/DX2 analytically  !
 ! R4    R(2,3)                  1.2297         calculate D2E/DX2 analytically  !
 ! R5    R(2,21)                 1.5053         calculate D2E/DX2 analytically  !
 ! R6    R(4,9)                  1.875          calculate D2E/DX2 analytically  !
 ! R7    R(4,12)                 1.8123         calculate D2E/DX2 analytically  !
 ! R8    R(4,13)                 1.5369         calculate D2E/DX2 analytically  !
 ! R9    R(5,6)                  1.0938         calculate D2E/DX2 analytically  !
 ! R10   R(5,7)                  1.0928         calculate D2E/DX2 analytically  !
 ! R11   R(5,8)                  1.0934         calculate D2E/DX2 analytically  !
 ! R12   R(5,9)                  1.4685         calculate D2E/DX2 analytically  !
 ! R13   R(9,10)                 1.0267         calculate D2E/DX2 analytically  !
 ! R14   R(9,11)                 1.0298         calculate D2E/DX2 analytically  !
 ! R15   R(13,14)                1.0949         calculate D2E/DX2 analytically  !
 ! R16   R(13,15)                1.0956         calculate D2E/DX2 analytically  !
 ! R17   R(13,16)                1.0963         calculate D2E/DX2 analytically  !
 ! R18   R(17,18)                1.0937         calculate D2E/DX2 analytically  !
 ! R19   R(17,19)                1.0948         calculate D2E/DX2 analytically  !
 ! R20   R(17,20)                1.0949         calculate D2E/DX2 analytically  !
 ! R21   R(21,22)                1.093          calculate D2E/DX2 analytically  !
 ! R22   R(21,23)                1.0933         calculate D2E/DX2 analytically  !
 ! R23   R(21,24)                1.0931         calculate D2E/DX2 analytically  !
 ! A1    A(2,1,4)              117.9612         calculate D2E/DX2 analytically  !
 ! A2    A(2,1,17)             115.0201         calculate D2E/DX2 analytically  !
 ! A3    A(4,1,17)             126.9934         calculate D2E/DX2 analytically  !
 ! A4    A(1,2,3)              120.6333         calculate D2E/DX2 analytically  !
 ! A5    A(1,2,21)             117.7536         calculate D2E/DX2 analytically  !
 ! A6    A(3,2,21)             121.5909         calculate D2E/DX2 analytically  !
 ! A7    A(1,4,9)              104.5717         calculate D2E/DX2 analytically  !
 ! A8    A(1,4,12)             116.3925         calculate D2E/DX2 analytically  !
 ! A9    A(1,4,13)             121.942          calculate D2E/DX2 analytically  !
 ! A10   A(9,4,12)              99.4555         calculate D2E/DX2 analytically  !
 ! A11   A(9,4,13)              99.0118         calculate D2E/DX2 analytically  !
 ! A12   A(12,4,13)            110.7098         calculate D2E/DX2 analytically  !
 ! A13   A(6,5,7)              108.7737         calculate D2E/DX2 analytically  !
 ! A14   A(6,5,8)              108.7359         calculate D2E/DX2 analytically  !
 ! A15   A(6,5,9)              110.2743         calculate D2E/DX2 analytically  !
 ! A16   A(7,5,8)              108.6541         calculate D2E/DX2 analytically  !
 ! A17   A(7,5,9)              110.1965         calculate D2E/DX2 analytically  !
 ! A18   A(8,5,9)              110.1625         calculate D2E/DX2 analytically  !
 ! A19   A(4,9,5)              136.2896         calculate D2E/DX2 analytically  !
 ! A20   A(4,9,10)             104.1071         calculate D2E/DX2 analytically  !
 ! A21   A(4,9,11)              97.488          calculate D2E/DX2 analytically  !
 ! A22   A(5,9,10)             106.2324         calculate D2E/DX2 analytically  !
 ! A23   A(5,9,11)             105.9157         calculate D2E/DX2 analytically  !
 ! A24   A(10,9,11)            102.1836         calculate D2E/DX2 analytically  !
 ! A25   A(4,13,14)            112.1679         calculate D2E/DX2 analytically  !
 ! A26   A(4,13,15)            109.998          calculate D2E/DX2 analytically  !
 ! A27   A(4,13,16)            111.0323         calculate D2E/DX2 analytically  !
 ! A28   A(14,13,15)           108.7118         calculate D2E/DX2 analytically  !
 ! A29   A(14,13,16)           107.2666         calculate D2E/DX2 analytically  !
 ! A30   A(15,13,16)           107.5031         calculate D2E/DX2 analytically  !
 ! A31   A(1,17,18)            112.7305         calculate D2E/DX2 analytically  !
 ! A32   A(1,17,19)            110.0265         calculate D2E/DX2 analytically  !
 ! A33   A(1,17,20)            111.1983         calculate D2E/DX2 analytically  !
 ! A34   A(18,17,19)           108.3006         calculate D2E/DX2 analytically  !
 ! A35   A(18,17,20)           106.3728         calculate D2E/DX2 analytically  !
 ! A36   A(19,17,20)           108.0213         calculate D2E/DX2 analytically  !
 ! A37   A(2,21,22)            109.2519         calculate D2E/DX2 analytically  !
 ! A38   A(2,21,23)            109.0768         calculate D2E/DX2 analytically  !
 ! A39   A(2,21,24)            111.3301         calculate D2E/DX2 analytically  !
 ! A40   A(22,21,23)           110.1396         calculate D2E/DX2 analytically  !
 ! A41   A(22,21,24)           108.8556         calculate D2E/DX2 analytically  !
 ! A42   A(23,21,24)           108.1763         calculate D2E/DX2 analytically  !
 ! D1    D(4,1,2,3)            -70.3005         calculate D2E/DX2 analytically  !
 ! D2    D(4,1,2,21)           111.3855         calculate D2E/DX2 analytically  !
 ! D3    D(17,1,2,3)           111.4016         calculate D2E/DX2 analytically  !
 ! D4    D(17,1,2,21)          -66.9123         calculate D2E/DX2 analytically  !
 ! D5    D(2,1,4,9)            -91.6361         calculate D2E/DX2 analytically  !
 ! D6    D(2,1,4,12)           159.7922         calculate D2E/DX2 analytically  !
 ! D7    D(2,1,4,13)            19.0221         calculate D2E/DX2 analytically  !
 ! D8    D(17,1,4,9)            86.4327         calculate D2E/DX2 analytically  !
 ! D9    D(17,1,4,12)          -22.1391         calculate D2E/DX2 analytically  !
 ! D10   D(17,1,4,13)         -162.9091         calculate D2E/DX2 analytically  !
 ! D11   D(2,1,17,18)          162.4272         calculate D2E/DX2 analytically  !
 ! D12   D(2,1,17,19)          -76.5718         calculate D2E/DX2 analytically  !
 ! D13   D(2,1,17,20)           43.0679         calculate D2E/DX2 analytically  !
 ! D14   D(4,1,17,18)          -15.6904         calculate D2E/DX2 analytically  !
 ! D15   D(4,1,17,19)          105.3106         calculate D2E/DX2 analytically  !
 ! D16   D(4,1,17,20)         -135.0496         calculate D2E/DX2 analytically  !
 ! D17   D(1,2,21,22)          111.7252         calculate D2E/DX2 analytically  !
 ! D18   D(1,2,21,23)         -127.832          calculate D2E/DX2 analytically  !
 ! D19   D(1,2,21,24)           -8.532          calculate D2E/DX2 analytically  !
 ! D20   D(3,2,21,22)          -66.5717         calculate D2E/DX2 analytically  !
 ! D21   D(3,2,21,23)           53.8711         calculate D2E/DX2 analytically  !
 ! D22   D(3,2,21,24)          173.1712         calculate D2E/DX2 analytically  !
 ! D23   D(1,4,9,5)             82.3572         calculate D2E/DX2 analytically  !
 ! D24   D(1,4,9,10)           -50.486          calculate D2E/DX2 analytically  !
 ! D25   D(1,4,9,11)          -155.1123         calculate D2E/DX2 analytically  !
 ! D26   D(12,4,9,5)          -157.0514         calculate D2E/DX2 analytically  !
 ! D27   D(12,4,9,10)           70.1054         calculate D2E/DX2 analytically  !
 ! D28   D(12,4,9,11)          -34.5209         calculate D2E/DX2 analytically  !
 ! D29   D(13,4,9,5)           -44.1342         calculate D2E/DX2 analytically  !
 ! D30   D(13,4,9,10)         -176.9775         calculate D2E/DX2 analytically  !
 ! D31   D(13,4,9,11)           78.3962         calculate D2E/DX2 analytically  !
 ! D32   D(1,4,13,14)          -50.0825         calculate D2E/DX2 analytically  !
 ! D33   D(1,4,13,15)           71.0434         calculate D2E/DX2 analytically  !
 ! D34   D(1,4,13,16)         -170.0859         calculate D2E/DX2 analytically  !
 ! D35   D(9,4,13,14)           63.4373         calculate D2E/DX2 analytically  !
 ! D36   D(9,4,13,15)         -175.4367         calculate D2E/DX2 analytically  !
 ! D37   D(9,4,13,16)          -56.566          calculate D2E/DX2 analytically  !
 ! D38   D(12,4,13,14)         167.1932         calculate D2E/DX2 analytically  !
 ! D39   D(12,4,13,15)         -71.6809         calculate D2E/DX2 analytically  !
 ! D40   D(12,4,13,16)          47.1898         calculate D2E/DX2 analytically  !
 ! D41   D(6,5,9,4)            174.2025         calculate D2E/DX2 analytically  !
 ! D42   D(6,5,9,10)           -53.5824         calculate D2E/DX2 analytically  !
 ! D43   D(6,5,9,11)            54.5726         calculate D2E/DX2 analytically  !
 ! D44   D(7,5,9,4)            -65.7013         calculate D2E/DX2 analytically  !
 ! D45   D(7,5,9,10)            66.5137         calculate D2E/DX2 analytically  !
 ! D46   D(7,5,9,11)           174.6688         calculate D2E/DX2 analytically  !
 ! D47   D(8,5,9,4)             54.1752         calculate D2E/DX2 analytically  !
 ! D48   D(8,5,9,10)          -173.6098         calculate D2E/DX2 analytically  !
 ! D49   D(8,5,9,11)           -65.4548         calculate D2E/DX2 analytically  !
 --------------------------------------------------------------------------------
 Trust Radius=1.00D-01 FncErr=1.00D-07 GrdErr=1.00D-07 EigMax=2.50D+02 EigMin=1.00D-04
 Number of steps in this run=     50 maximum allowed number of steps=    144.
 Search for a saddle point of order  1.
 GradGradGradGradGradGradGradGradGradGradGradGradGradGradGradGradGradGrad

                          Input orientation:                          
 ---------------------------------------------------------------------
 Center     Atomic      Atomic             Coordinates (Angstroms)
 Number     Number       Type             X           Y           Z
 ---------------------------------------------------------------------
      1          6           0       -0.469440   -0.701580   -0.315700
      2          6           0       -1.803250   -0.378830    0.264590
      3          8           0       -2.166600   -0.889810    1.322450
      4          6           0        0.640630   -0.223690    0.323880
      5          6           0        0.482160    2.802380   -0.361910
      6          1           0        1.059200    3.479000   -0.998730
      7          1           0       -0.568660    2.851680   -0.657670
      8          1           0        0.569540    3.136540    0.675550
      9          7           0        0.982320    1.428130   -0.494870
     10          1           0        0.974700    1.215860   -1.499400
     11          1           0        1.990510    1.473480   -0.289960
     12         17           0        2.204240   -1.064980   -0.039060
     13          6           0        0.599200    0.237940    1.789230
     14          1           0       -0.221970    0.936820    1.979150
     15          1           0        0.484670   -0.627230    2.451510
     16          1           0        1.529840    0.745820    2.068210
     17          6           0       -0.506170   -1.498010   -1.583550
     18          1           0        0.436520   -1.456030   -2.136430
     19          1           0       -0.727870   -2.546790   -1.361190
     20          1           0       -1.279430   -1.125040   -2.263140
     21          6           0       -2.695290    0.557050   -0.506430
     22          1           0       -3.558570    0.003000   -0.883780
     23          1           0       -3.024910    1.362670    0.155140
     24          1           0       -2.165990    1.004860   -1.351560
 ---------------------------------------------------------------------
                    Distance matrix (angstroms):
                    1          2          3          4          5
     1  C    0.000000
     2  C    1.489951   0.000000
     3  O    2.366288   1.229712   0.000000
     4  C    1.367369   2.449517   3.053096   0.000000
     5  C    3.631172   3.966825   4.846160   3.106851   0.000000
     6  H    4.503390   4.967137   5.905943   3.954037   1.093768
     7  H    3.571057   3.579242   4.524714   3.447278   1.092761
     8  H    4.097953   4.261085   4.910849   3.379330   1.093445
     9  N    2.583674   3.406066   4.311751   1.874997   1.468469
    10  H    2.676427   3.656734   4.718522   2.346968   2.013337
    11  H    3.283733   4.258074   5.046441   2.253744   2.011535
    12  Cl   2.712407   4.077129   4.581336   1.812283   4.245735
    13  C    2.540752   2.911477   3.023136   1.536903   3.349247
    14  H    2.830536   2.677890   2.747620   2.197904   3.075171
    15  H    2.928021   3.174728   2.893606   2.171170   4.435940
    16  H    3.431489   3.953147   4.110366   2.184795   3.351501
    17  C    1.497696   2.520040   3.401731   2.564631   4.578488
    18  H    2.169105   3.455695   4.365855   2.759248   4.613573
    19  H    2.136501   2.915416   3.466619   3.179473   5.574617
    20  H    2.151261   2.687124   3.701197   3.345405   4.705582
    21  C    2.564164   1.505350   2.391175   3.525242   3.893402
    22  H    3.218986   2.132064   2.757198   4.375284   4.943316
    23  H    3.318621   2.130083   2.678241   3.997649   3.826179
    24  H    2.619776   2.158268   3.277210   3.491926   3.350102
                    6          7          8          9         10
     6  H    0.000000
     7  H    1.777577   0.000000
     8  H    1.777712   1.775984   0.000000
     9  N    2.113257   2.111525   2.111619   0.000000
    10  H    2.319399   2.401328   2.929774   1.026741   0.000000
    11  H    2.322026   2.929846   2.391053   1.029802   1.600307
    12  Cl   4.783287   4.838582   4.564612   2.813618   2.974322
    13  C    4.299859   3.766013   3.105325   2.603929   3.451437
    14  H    4.119690   3.277149   2.676682   2.795080   3.689199
    15  H    5.394012   4.783233   4.162596   3.626750   4.387118
    16  H    4.134960   4.033456   2.928689   2.708266   3.641011
    17  C    5.250050   4.447579   5.266853   3.458775   3.092757
    18  H    5.102608   4.664063   5.386708   3.363182   2.799007
    19  H    6.295645   5.446445   6.175097   4.413077   4.132237
    20  H    5.316494   4.347071   5.496877   3.842001   3.338295
    21  C    4.782922   3.132213   4.325501   3.779382   3.858607
    22  H    5.780968   4.135900   5.412197   4.775136   4.732922
    23  H    4.742386   2.985126   4.041969   4.060134   4.330812
    24  H    4.080160   2.538443   4.017009   3.290126   3.151240
                   11         12         13         14         15
    11  H    0.000000
    12  Cl   2.559768   0.000000
    13  C    2.790221   2.759782   0.000000
    14  H    3.214332   3.737228   1.094908   0.000000
    15  H    3.767784   3.058020   1.095560   1.780089   0.000000
    16  H    2.510512   2.859091   1.096295   1.764441   1.767644
    17  C    4.091032   3.149490   3.951077   4.324581   4.245201
    18  H    3.795572   2.770689   4.278645   4.805969   4.662448
    19  H    4.969879   3.541336   4.409193   4.852767   4.437527
    20  H    4.619335   4.133533   4.669975   4.833892   5.058437
    21  C    4.779480   5.182163   4.028095   3.526988   4.501563
    22  H    5.771241   5.921496   4.948457   4.494584   5.279123
    23  H    5.036351   5.768467   4.131518   3.371177   4.642216
    24  H    4.315448   5.010569   4.254292   3.857133   4.914576
                   16         17         18         19         20
    16  H    0.000000
    17  C    4.745046   0.000000
    18  H    4.870574   1.093665   0.000000
    19  H    5.263014   1.094776   1.773854   0.000000
    20  H    5.491148   1.094934   1.752168   1.771752   0.000000
    21  C    4.951376   3.189938   4.064188   3.772954   2.814270
    22  H    5.929413   3.472730   4.433807   3.839559   2.893024
    23  H    4.978563   4.189342   5.017755   4.781164   3.883746
    24  H    5.041933   3.012172   3.666750   3.831775   2.480613
                   21         22         23         24
    21  C    0.000000
    22  H    1.092985   0.000000
    23  H    1.093320   1.792443   0.000000
    24  H    1.093132   1.778151   1.770852   0.000000
 Stoichiometry    C7H14ClNO
 Framework group  C1[X(C7H14ClNO)]
 Deg. of freedom    66
 Full point group                 C1      NOp   1
 Largest Abelian subgroup         C1      NOp   1
 Largest concise Abelian subgroup C1      NOp   1
                         Standard orientation:                         
 ---------------------------------------------------------------------
 Center     Atomic      Atomic             Coordinates (Angstroms)
 Number     Number       Type             X           Y           Z
 ---------------------------------------------------------------------
      1          6           0       -0.469441   -0.701580   -0.315698
      2          6           0       -1.803251   -0.378831    0.264592
      3          8           0       -2.166601   -0.889811    1.322452
      4          6           0        0.640629   -0.223689    0.323882
      5          6           0        0.482157    2.802381   -0.361908
      6          1           0        1.059196    3.479001   -0.998728
      7          1           0       -0.568663    2.851680   -0.657668
      8          1           0        0.569536    3.136541    0.675552
      9          7           0        0.982317    1.428131   -0.494868
     10          1           0        0.974698    1.215861   -1.499398
     11          1           0        1.990507    1.473482   -0.289958
     12         17           0        2.204239   -1.064978   -0.039058
     13          6           0        0.599198    0.237941    1.789232
     14          1           0       -0.221972    0.936820    1.979152
     15          1           0        0.484669   -0.627229    2.451512
     16          1           0        1.529838    0.745821    2.068212
     17          6           0       -0.506171   -1.498010   -1.583548
     18          1           0        0.436519   -1.456029   -2.136428
     19          1           0       -0.727870   -2.546790   -1.361188
     20          1           0       -1.279431   -1.125041   -2.263138
     21          6           0       -2.695292    0.557049   -0.506428
     22          1           0       -3.558572    0.002998   -0.883778
     23          1           0       -3.024912    1.362668    0.155142
     24          1           0       -2.165992    1.004859   -1.351558
 ---------------------------------------------------------------------
 Rotational constants (GHZ):           1.2552322           0.8692634           0.7181864
 Standard basis: STO-3G (5D, 7F)
 There are    68 symmetry adapted cartesian basis functions of A   symmetry.
 There are    68 symmetry adapted basis functions of A   symmetry.
    68 basis functions,   204 primitive gaussians,    68 cartesian basis functions
    44 alpha electrons       44 beta electrons
       nuclear repulsion energy       665.0561892251 Hartrees.
 NAtoms=   24 NActive=   24 NUniq=   24 SFac= 1.00D+00 NAtFMM=   60 NAOKFM=F Big=F
 Integral buffers will be    131072 words long.
 Raffenetti 1 integral format.
 Two-electron integral symmetry is turned on.
 External calculation of energy, first and second derivatives.
 Running external command "~/scripts/MiMe -H 'wb97xd def2svp' -EF 'wb97xd def2svp' -c 12 -m 48GB R"
         input file       "/local/jobs/1158124/Gau-2591047.EIn"
         output file      "/local/jobs/1158124/Gau-2591047.EOu"
         message file     "/local/jobs/1158124/Gau-2591047.EMs"
         fchk file        "/local/jobs/1158124/Gau-2591047.EFC"
         mat. el file     "/local/jobs/1158124/Gau-2591047.EUF"
 Read checkpoint file Gau-2591047_H.chk type G16
 Write formatted file Gau-2591047_H.fchk

deriv: 2

spelevel: wb97xd def2svp
gradlevel: wb97xd def2svp
hesslevel: wb97xd def2svp

runspe: False
runforce: False
runfreq: True

Running Gaussian ...

Parsing files ...
SPE file: Gau-2591047_H.out
FORCE file: Gau-2591047_H.out
HESS file: Gau-2591047_H.out

 ExternalExternalExternalExternalExternalExternalExternalExternalExternalExternal
 Output from external command:
 "~/scripts/MiMe -H 'wb97xd def2svp' -EF 'wb97xd def2svp' -c 12 -m 48GB R /local/jobs/1158124/Gau-2591047.EIn /local/jobs/1158124/Gau-2591047.EOu /local/jobs/1158124/Gau-2591047.EMs /local/jobs/1158124/Gau-2591047.EFC /local/jobs/1158124/Gau-2591047.EUF"
  
 --------------------------------------------------
 Hessian calculation at wb97xd def2svp
 ExternalExternalExternalExternalExternalExternalExternalExternalExternalExternal

 Recovered energy= -864.686600681     dipole=      2.062100000000      5.416600000000     -2.646100000000
 Energy=    -864.686601     NIter=   0.
 Dipole moment=       2.062100       5.416600      -2.646100
 ***** Axes restored to original set *****
 -------------------------------------------------------------------
 Center     Atomic                   Forces (Hartrees/Bohr)
 Number     Number              X              Y              Z
 -------------------------------------------------------------------
      1        6          -0.002524357   -0.008794464    0.010740800
      2        6           0.008218536   -0.025620249    0.024492253
      3        8          -0.000696935    0.019945956   -0.016037902
      4        6          -0.037976309   -0.044906467    0.030617841
      5        6          -0.003202489   -0.006205890    0.004308950
      6        1           0.000214442    0.006613082   -0.002225141
      7        1          -0.004395629   -0.000448568   -0.000196767
      8        1          -0.000083615    0.000438273    0.003424103
      9        7           0.053935154    0.054643268   -0.026235811
     10        1          -0.004099176   -0.007659621    0.005286562
     11        1          -0.003564365    0.000726759   -0.002516217
     12       17          -0.001495736    0.011088421   -0.003041206
     13        6           0.007278419   -0.001336171   -0.011632435
     14        1          -0.004047133   -0.000770268   -0.001645569
     15        1          -0.002224811   -0.001599464   -0.001076458
     16        1           0.003509354    0.001445782   -0.000850574
     17        6           0.004103954    0.007620992   -0.000196375
     18        1           0.004833492   -0.001574944   -0.001419966
     19        1          -0.001216929   -0.006416838   -0.002455783
     20        1          -0.005912335    0.000026960   -0.004381063
     21        6           0.000586805    0.000100163   -0.003652801
     22        1          -0.006912666    0.000851659   -0.000298748
     23        1          -0.005032257    0.000946033    0.003406422
     24        1           0.000704584    0.000885596   -0.004414113
 -------------------------------------------------------------------
 Cartesian Forces:  Max     0.054643268 RMS     0.014005430
 FormGI is forming the generalized inverse of G from B-inverse, IUseBI=4.

 GradGradGradGradGradGradGradGradGradGradGradGradGradGradGradGradGradGrad
 Berny optimization.
 Internal  Forces:  Max     0.057379704 RMS     0.008148635
 Search for a saddle point.
 Step number   1 out of a maximum of   50
 All quantities printed in internal units (Hartrees-Bohrs-Radians)
 Swapping is turned off.
 Second derivative matrix not updated -- analytic derivatives used.
 ITU=  0
     Eigenvalues ---   -0.05185  -0.00302  -0.00074   0.00055   0.00063
     Eigenvalues ---    0.00174   0.00241   0.00653   0.01037   0.01191
     Eigenvalues ---    0.03258   0.03666   0.04279   0.04429   0.04779
     Eigenvalues ---    0.04816   0.04861   0.05403   0.05426   0.05761
     Eigenvalues ---    0.05900   0.06132   0.07722   0.08939   0.09350
     Eigenvalues ---    0.10108   0.11829   0.11993   0.12129   0.12679
     Eigenvalues ---    0.12832   0.13305   0.13614   0.14315   0.14796
     Eigenvalues ---    0.14931   0.15453   0.17433   0.17675   0.18059
     Eigenvalues ---    0.19147   0.20683   0.21567   0.22735   0.25134
     Eigenvalues ---    0.28640   0.33012   0.34030   0.34360   0.34879
     Eigenvalues ---    0.35013   0.35204   0.35589   0.35782   0.35812
     Eigenvalues ---    0.35997   0.36038   0.36102   0.36135   0.36247
     Eigenvalues ---    0.36755   0.37272   0.42388   0.43496   0.57006
     Eigenvalues ---    0.80091
 Eigenvectors required to have negative eigenvalues:
                          R6        A19       A21       D1        D2
   1                   -0.67146  -0.38498   0.21182   0.20395   0.18414
                          D3        D4        D5        D6        A20
   1                    0.16432   0.14451  -0.14137  -0.13863   0.13564
 RFO step:  Lambda0=6.279686204D-03 Lambda=-4.57703201D-02.
 Linear search not attempted -- option 19 set.
 Maximum step size (   0.100) exceeded in Quadratic search.
    -- Step size scaled by   0.203
 Iteration  1 RMS(Cart)=  0.06708292 RMS(Int)=  0.00235571
 Iteration  2 RMS(Cart)=  0.00332388 RMS(Int)=  0.00006541
 Iteration  3 RMS(Cart)=  0.00000719 RMS(Int)=  0.00006527
 Iteration  4 RMS(Cart)=  0.00000000 RMS(Int)=  0.00006527
 Variable       Old X    -DE/DX   Delta X   Delta X   Delta X     New X
                                 (Linear)    (Quad)   (Total)
    R1        2.81560   0.00354   0.00000  -0.00834  -0.00834   2.80726
    R2        2.58395   0.00462   0.00000   0.00313   0.00313   2.58708
    R3        2.83024   0.00730   0.00000   0.00468   0.00468   2.83492
    R4        2.32382  -0.02188   0.00000  -0.00265  -0.00265   2.32117
    R5        2.84470   0.01058   0.00000   0.00762   0.00762   2.85231
    R6        3.54323   0.05738   0.00000   0.05844   0.05844   3.60167
    R7        3.42472  -0.00583   0.00000  -0.00773  -0.00773   3.41699
    R8        2.90432  -0.01530   0.00000  -0.01128  -0.01128   2.89305
    R9        2.06692   0.00550   0.00000   0.00291   0.00291   2.06984
   R10        2.06502   0.00426   0.00000   0.00289   0.00289   2.06791
   R11        2.06631   0.00338   0.00000   0.00169   0.00169   2.06800
   R12        2.77500   0.00340   0.00000  -0.00659  -0.00659   2.76841
   R13        1.94026  -0.00356   0.00000  -0.00181  -0.00181   1.93845
   R14        1.94604  -0.00396   0.00000  -0.00276  -0.00276   1.94328
   R15        2.06908   0.00226   0.00000   0.00001   0.00001   2.06909
   R16        2.07031   0.00085   0.00000   0.00033   0.00033   2.07064
   R17        2.07170   0.00343   0.00000   0.00143   0.00143   2.07313
   R18        2.06673   0.00482   0.00000   0.00215   0.00215   2.06887
   R19        2.06883   0.00589   0.00000   0.00254   0.00254   2.07136
   R20        2.06913   0.00691   0.00000   0.00198   0.00198   2.07111
   R21        2.06544   0.00513   0.00000   0.00272   0.00272   2.06817
   R22        2.06607   0.00428   0.00000   0.00205   0.00205   2.06812
   R23        2.06572   0.00412   0.00000   0.00238   0.00238   2.06810
    A1        2.05881   0.00338   0.00000   0.00089   0.00087   2.05968
    A2        2.00748   0.00286   0.00000   0.01312   0.01309   2.02057
    A3        2.21645  -0.00626   0.00000  -0.01440  -0.01443   2.20203
    A4        2.10545   0.01312   0.00000   0.01284   0.01280   2.11825
    A5        2.05519   0.00032   0.00000  -0.00152  -0.00157   2.05362
    A6        2.12216  -0.01342   0.00000  -0.01087  -0.01091   2.11125
    A7        1.82512   0.02299   0.00000   0.00465   0.00467   1.82979
    A8        2.03143  -0.00150   0.00000   0.00089   0.00086   2.03230
    A9        2.12829  -0.00276   0.00000   0.00992   0.00990   2.13819
   A10        1.73583  -0.01285   0.00000  -0.01449  -0.01450   1.72132
   A11        1.72808  -0.01212   0.00000  -0.00740  -0.00743   1.72065
   A12        1.93225   0.00418   0.00000  -0.00089  -0.00101   1.93124
   A13        1.89846  -0.00187   0.00000  -0.00148  -0.00148   1.89698
   A14        1.89780  -0.00175   0.00000  -0.00083  -0.00083   1.89697
   A15        1.92465   0.00697   0.00000   0.00868   0.00868   1.93333
   A16        1.89637   0.00011   0.00000  -0.00081  -0.00082   1.89555
   A17        1.92329  -0.00181   0.00000  -0.00298  -0.00299   1.92031
   A18        1.92270  -0.00176   0.00000  -0.00266  -0.00267   1.92003
   A19        2.37870  -0.01980   0.00000  -0.05404  -0.05406   2.32464
   A20        1.81701  -0.00103   0.00000   0.01004   0.00986   1.82687
   A21        1.70149   0.00842   0.00000   0.01884   0.01902   1.72051
   A22        1.85410   0.01330   0.00000   0.01969   0.01936   1.87347
   A23        1.84858   0.00376   0.00000   0.01432   0.01446   1.86304
   A24        1.78344  -0.00159   0.00000   0.00373   0.00343   1.78687
   A25        1.95770  -0.00345   0.00000  -0.00118  -0.00119   1.95651
   A26        1.91983  -0.00194   0.00000  -0.00288  -0.00288   1.91695
   A27        1.93788  -0.00088   0.00000  -0.00232  -0.00232   1.93555
   A28        1.89738   0.00114   0.00000  -0.00366  -0.00367   1.89371
   A29        1.87215   0.00307   0.00000   0.00723   0.00723   1.87939
   A30        1.87628   0.00245   0.00000   0.00317   0.00316   1.87945
   A31        1.96752  -0.00096   0.00000   0.00228   0.00228   1.96980
   A32        1.92033   0.00447   0.00000   0.00245   0.00245   1.92278
   A33        1.94078   0.00157   0.00000   0.00104   0.00104   1.94181
   A34        1.89020  -0.00266   0.00000  -0.00427  -0.00427   1.88593
   A35        1.85656   0.00060   0.00000   0.00192   0.00192   1.85847
   A36        1.88533  -0.00339   0.00000  -0.00387  -0.00387   1.88146
   A37        1.90681   0.00361   0.00000   0.00671   0.00669   1.91349
   A38        1.90375  -0.00070   0.00000  -0.00843  -0.00842   1.89533
   A39        1.94308   0.00185   0.00000   0.00774   0.00772   1.95079
   A40        1.92230  -0.00465   0.00000  -0.00741  -0.00741   1.91489
   A41        1.89989  -0.00157   0.00000  -0.00048  -0.00054   1.89935
   A42        1.88803   0.00132   0.00000   0.00166   0.00167   1.88970
    D1       -1.22698   0.00588   0.00000   0.11364   0.11364  -1.11333
    D2        1.94404   0.00491   0.00000   0.09665   0.09651   2.04055
    D3        1.94433   0.00648   0.00000   0.12693   0.12708   2.07141
    D4       -1.16784   0.00551   0.00000   0.10994   0.10994  -1.05790
    D5       -1.59935  -0.00043   0.00000   0.01614   0.01608  -1.58327
    D6        2.78890   0.00161   0.00000   0.03030   0.03026   2.81916
    D7        0.33200   0.00015   0.00000   0.01527   0.01524   0.34723
    D8        1.50853  -0.00091   0.00000   0.00163   0.00166   1.51019
    D9       -0.38640   0.00113   0.00000   0.01579   0.01584  -0.37056
   D10       -2.84330  -0.00033   0.00000   0.00076   0.00081  -2.84249
   D11        2.83489   0.00054   0.00000  -0.03822  -0.03822   2.79667
   D12       -1.33643  -0.00035   0.00000  -0.04040  -0.04040  -1.37683
   D13        0.75168  -0.00066   0.00000  -0.04296  -0.04296   0.70871
   D14       -0.27385   0.00099   0.00000  -0.02389  -0.02389  -0.29774
   D15        1.83802   0.00011   0.00000  -0.02607  -0.02607   1.81195
   D16       -2.35706  -0.00021   0.00000  -0.02863  -0.02863  -2.38569
   D17        1.94997   0.00278   0.00000   0.01201   0.01198   1.96195
   D18       -2.23109  -0.00113   0.00000   0.00191   0.00186  -2.22923
   D19       -0.14891   0.00120   0.00000   0.00331   0.00324  -0.14567
   D20       -1.16190   0.00132   0.00000  -0.00558  -0.00551  -1.16740
   D21        0.94023  -0.00259   0.00000  -0.01568  -0.01563   0.92460
   D22        3.02241  -0.00026   0.00000  -0.01427  -0.01425   3.00816
   D23        1.43741  -0.00069   0.00000  -0.00355  -0.00345   1.43395
   D24       -0.88115   0.00103   0.00000   0.01226   0.01221  -0.86893
   D25       -2.70722   0.00044   0.00000   0.00078   0.00071  -2.70651
   D26       -2.74106   0.00052   0.00000  -0.00677  -0.00670  -2.74776
   D27        1.22357   0.00224   0.00000   0.00904   0.00896   1.23253
   D28       -0.60250   0.00164   0.00000  -0.00245  -0.00254  -0.60504
   D29       -0.77029  -0.00125   0.00000  -0.01305  -0.01292  -0.78320
   D30       -3.08884   0.00047   0.00000   0.00276   0.00275  -3.08609
   D31        1.36827  -0.00013   0.00000  -0.00872  -0.00875   1.35952
   D32       -0.87411  -0.00516   0.00000   0.01222   0.01223  -0.86187
   D33        1.23994  -0.00737   0.00000   0.00477   0.00479   1.24473
   D34       -2.96856  -0.00612   0.00000   0.00541   0.00542  -2.96314
   D35        1.10719   0.01349   0.00000   0.01694   0.01693   1.12412
   D36       -3.06195   0.01128   0.00000   0.00949   0.00948  -3.05246
   D37       -0.98726   0.01253   0.00000   0.01013   0.01012  -0.97715
   D38        2.91807  -0.00476   0.00000  -0.00238  -0.00239   2.91568
   D39       -1.25107  -0.00697   0.00000  -0.00983  -0.00983  -1.26090
   D40        0.82362  -0.00572   0.00000  -0.00920  -0.00920   0.81442
   D41        3.04041   0.00282   0.00000   0.00635   0.00636   3.04676
   D42       -0.93519  -0.00349   0.00000  -0.01336  -0.01345  -0.94864
   D43        0.95247   0.00150   0.00000   0.00432   0.00440   0.95687
   D44       -1.14670   0.00379   0.00000   0.00814   0.00815  -1.13856
   D45        1.16088  -0.00252   0.00000  -0.01156  -0.01166   1.14923
   D46        3.04855   0.00247   0.00000   0.00611   0.00619   3.05474
   D47        0.94553   0.00167   0.00000   0.00355   0.00356   0.94910
   D48       -3.03006  -0.00464   0.00000  -0.01615  -0.01624  -3.04630
   D49       -1.14240   0.00035   0.00000   0.00152   0.00161  -1.14080
         Item               Value     Threshold  Converged?
 Maximum Force            0.057380     0.000450     NO 
 RMS     Force            0.008149     0.000300     NO 
 Maximum Displacement     0.327609     0.001800     NO 
 RMS     Displacement     0.067049     0.001200     NO 
 Predicted change in Energy=-9.471970D-03
 GradGradGradGradGradGradGradGradGradGradGradGradGradGradGradGradGradGrad

                          Input orientation:                          
 ---------------------------------------------------------------------
 Center     Atomic      Atomic             Coordinates (Angstroms)
 Number     Number       Type             X           Y           Z
 ---------------------------------------------------------------------
      1          6           0       -0.484122   -0.691837   -0.304550
      2          6           0       -1.805738   -0.331350    0.270081
      3          8           0       -2.144099   -0.716447    1.386304
      4          6           0        0.639241   -0.231421    0.328139
      5          6           0        0.492735    2.797410   -0.308708
      6          1           0        1.040650    3.516890   -0.926643
      7          1           0       -0.565790    2.833412   -0.583846
      8          1           0        0.590812    3.090529    0.741074
      9          7           0        1.015460    1.442554   -0.501806
     10          1           0        0.989397    1.245311   -1.508112
     11          1           0        2.025156    1.484635   -0.311466
     12         17           0        2.187495   -1.080790   -0.060497
     13          6           0        0.629877    0.233596    1.786711
     14          1           0       -0.182236    0.939626    1.988771
     15          1           0        0.513516   -0.629703    2.451401
     16          1           0        1.573972    0.728715    2.045678
     17          6           0       -0.520779   -1.490403   -1.573987
     18          1           0        0.417717   -1.439930   -2.135474
     19          1           0       -0.727644   -2.543686   -1.352007
     20          1           0       -1.306131   -1.129533   -2.247911
     21          6           0       -2.729474    0.513764   -0.572963
     22          1           0       -3.602073   -0.077335   -0.867824
     23          1           0       -3.050779    1.376352    0.019005
     24          1           0       -2.231783    0.882881   -1.475042
 ---------------------------------------------------------------------
                    Distance matrix (angstroms):
                    1          2          3          4          5
     1  C    0.000000
     2  C    1.485537   0.000000
     3  O    2.369624   1.228308   0.000000
     4  C    1.369022   2.447708   3.016942   0.000000
     5  C    3.623412   3.925190   4.708837   3.098525   0.000000
     6  H    4.519437   4.933865   5.780440   3.973090   1.095311
     7  H    3.537238   3.504623   4.355920   3.417165   1.094290
     8  H    4.068797   4.204111   4.731715   3.347867   1.094340
     9  N    2.615967   3.420776   4.267207   1.905923   1.464979
    10  H    2.715209   3.668870   4.695203   2.382260   2.023426
    11  H    3.321679   4.279223   5.010975   2.296672   2.017846
    12  Cl   2.710790   4.076377   4.581341   1.808192   4.239606
    13  C    2.543776   2.924304   2.959367   1.530935   3.314021
    14  H    2.830570   2.684220   2.637129   2.191774   3.030736
    15  H    2.931623   3.197829   2.864415   2.163950   4.400425
    16  H    3.431806   3.962187   4.043182   2.178423   3.315375
    17  C    1.500173   2.528855   3.463740   2.559055   4.584046
    18  H    2.173761   3.458235   4.414663   2.752990   4.614948
    19  H    2.141451   2.947522   3.583782   3.168254   5.577195
    20  H    2.154977   2.688305   3.752379   3.350688   4.734692
    21  C    2.562640   1.509380   2.386379   3.565883   3.958219
    22  H    3.227462   2.141535   2.759574   4.409401   5.034305
    23  H    3.312072   2.128242   2.659207   4.036922   3.831878
    24  H    2.627566   2.168254   3.279152   3.568740   3.528279
                    6          7          8          9         10
     6  H    0.000000
     7  H    1.779129   0.000000
     8  H    1.779162   1.777428   0.000000
     9  N    2.117544   2.107502   2.107344   0.000000
    10  H    2.345379   2.407267   2.936416   1.025785   0.000000
    11  H    2.340461   2.933665   2.396682   1.028341   1.600636
    12  Cl   4.817066   4.814088   4.537821   2.817035   2.990280
    13  C    4.279140   3.715939   3.042524   2.616785   3.465354
    14  H    4.078895   3.217436   2.603985   2.808983   3.700589
    15  H    5.374318   4.729777   4.095281   3.642476   4.406800
    16  H    4.110115   3.990329   2.871718   2.703919   3.638410
    17  C    5.284893   4.435964   5.251674   3.480207   3.125556
    18  H    5.139979   4.651481   5.369315   3.366731   2.816189
    19  H    6.327589   5.434101   6.153349   4.432986   4.162824
    20  H    5.370510   4.361439   5.508298   3.879987   3.384765
    21  C    4.832980   3.172131   4.403489   3.859048   3.903801
    22  H    5.871694   4.215698   5.495835   4.875003   4.820888
    23  H    4.713379   2.943064   4.089129   4.099991   4.321143
    24  H    4.236456   2.715572   4.213303   3.435842   3.241673
                   11         12         13         14         15
    11  H    0.000000
    12  Cl   2.582778   0.000000
    13  C    2.813227   2.750629   0.000000
    14  H    3.234302   3.727895   1.094913   0.000000
    15  H    3.793273   3.052100   1.095737   1.777889   0.000000
    16  H    2.516170   2.843711   1.097051   1.769743   1.770446
    17  C    4.114194   3.129406   3.948477   4.325840   4.244328
    18  H    3.803149   2.750750   4.269571   4.799127   4.658870
    19  H    4.988788   3.508005   4.405419   4.857132   4.435056
    20  H    4.656304   4.122205   4.678079   4.847064   5.064038
    21  C    4.859782   5.194402   4.114826   3.637617   4.579441
    22  H    5.866430   5.931088   5.005262   4.570518   5.316055
    23  H    5.087834   5.786483   4.240036   3.507028   4.758677
    24  H    4.453936   5.038547   4.387448   4.025154   5.024095
                   16         17         18         19         20
    16  H    0.000000
    17  C    4.734389   0.000000
    18  H    4.849946   1.094801   0.000000
    19  H    5.248839   1.096118   1.773119   0.000000
    20  H    5.493905   1.095983   1.755175   1.771192   0.000000
    21  C    5.042136   3.145960   4.020344   3.736607   2.744409
    22  H    5.994136   3.462630   4.429708   3.818333   2.878040
    23  H    5.090694   4.142077   4.960210   4.758501   3.802915
    24  H    5.186811   2.927422   3.584894   3.744187   2.346054
                   21         22         23         24
    21  C    0.000000
    22  H    1.094427   0.000000
    23  H    1.094404   1.789859   0.000000
    24  H    1.094391   1.780007   1.773822   0.000000
 Stoichiometry    C7H14ClNO
 Framework group  C1[X(C7H14ClNO)]
 Deg. of freedom    66
 Full point group                 C1      NOp   1
 Largest Abelian subgroup         C1      NOp   1
 Largest concise Abelian subgroup C1      NOp   1
                         Standard orientation:                         
 ---------------------------------------------------------------------
 Center     Atomic      Atomic             Coordinates (Angstroms)
 Number     Number       Type             X           Y           Z
 ---------------------------------------------------------------------
      1          6           0       -0.469584   -0.726744   -0.273022
      2          6           0       -1.795512   -0.371714    0.295033
      3          8           0       -2.118580   -0.716946    1.428692
      4          6           0        0.646921   -0.215445    0.332133
      5          6           0        0.428972    2.779974   -0.429983
      6          1           0        0.957004    3.484781   -1.081239
      7          1           0       -0.631699    2.780989   -0.699141
      8          1           0        0.526669    3.119042    0.605907
      9          7           0        0.980710    1.430079   -0.569742
     10          1           0        0.953120    1.190197   -1.566702
     11          1           0        1.990320    1.502416   -0.388241
     12         17           0        2.211457   -1.045984   -0.031170
     13          6           0        0.635777    0.310132    1.769981
     14          1           0       -0.190711    1.005915    1.947845
     15          1           0        0.542675   -0.526834    2.471023
     16          1           0        1.570079    0.836430    2.001524
     17          6           0       -0.495873   -1.578562   -1.507621
     18          1           0        0.437927   -1.531007   -2.077134
     19          1           0       -0.677822   -2.625900   -1.240316
     20          1           0       -1.293064   -1.263767   -2.190680
     21          6           0       -2.742876    0.416616   -0.576326
     22          1           0       -3.603767   -0.205483   -0.840200
     23          1           0       -3.079885    1.296008   -0.018819
     24          1           0       -2.258898    0.758405   -1.496455
 ---------------------------------------------------------------------
 Rotational constants (GHZ):           1.2611238           0.8623138           0.7216893
 Standard basis: STO-3G (5D, 7F)
 There are    68 symmetry adapted cartesian basis functions of A   symmetry.
 There are    68 symmetry adapted basis functions of A   symmetry.
    68 basis functions,   204 primitive gaussians,    68 cartesian basis functions
    44 alpha electrons       44 beta electrons
       nuclear repulsion energy       664.9535709502 Hartrees.
 NAtoms=   24 NActive=   24 NUniq=   24 SFac= 1.00D+00 NAtFMM=   60 NAOKFM=F Big=F
 Integral buffers will be    131072 words long.
 Raffenetti 1 integral format.
 Two-electron integral symmetry is turned on.
 External calculation of energy, first and second derivatives.
 Running external command "~/scripts/MiMe -H 'wb97xd def2svp' -EF 'wb97xd def2svp' -c 12 -m 48GB R"
         input file       "/local/jobs/1158124/Gau-2591047.EIn"
         output file      "/local/jobs/1158124/Gau-2591047.EOu"
         message file     "/local/jobs/1158124/Gau-2591047.EMs"
         fchk file        "/local/jobs/1158124/Gau-2591047.EFC"
         mat. el file     "/local/jobs/1158124/Gau-2591047.EUF"
 Read checkpoint file Gau-2591047_H.chk type G16
 Write formatted file Gau-2591047_H.fchk

deriv: 2

spelevel: wb97xd def2svp
gradlevel: wb97xd def2svp
hesslevel: wb97xd def2svp

runspe: False
runforce: False
runfreq: True

Running Gaussian ...

Parsing files ...
SPE file: Gau-2591047_H.out
FORCE file: Gau-2591047_H.out
HESS file: Gau-2591047_H.out

 ExternalExternalExternalExternalExternalExternalExternalExternalExternalExternal
 Output from external command:
 "~/scripts/MiMe -H 'wb97xd def2svp' -EF 'wb97xd def2svp' -c 12 -m 48GB R /local/jobs/1158124/Gau-2591047.EIn /local/jobs/1158124/Gau-2591047.EOu /local/jobs/1158124/Gau-2591047.EMs /local/jobs/1158124/Gau-2591047.EFC /local/jobs/1158124/Gau-2591047.EUF"
  
 --------------------------------------------------
 Hessian calculation at wb97xd def2svp
 ExternalExternalExternalExternalExternalExternalExternalExternalExternalExternal

 Recovered energy= -864.696013773     dipole=      2.008000000000      4.996600000000     -2.983900000000
 Energy=    -864.696014     NIter=   0.
 Dipole moment=       2.008000       4.996600      -2.983900
 ***** Axes restored to original set *****
 -------------------------------------------------------------------
 Center     Atomic                   Forces (Hartrees/Bohr)
 Number     Number              X              Y              Z
 -------------------------------------------------------------------
      1        6          -0.002373201   -0.007155305    0.008376243
      2        6           0.007123499   -0.019010038    0.021612052
      3        8          -0.000529687    0.015860577   -0.014136290
      4        6          -0.033885884   -0.041187908    0.027953947
      5        6          -0.003183197   -0.005918111    0.002853497
      6        1          -0.000196346    0.005676411   -0.001636708
      7        1          -0.003670946   -0.000521899    0.000107333
      8        1          -0.000069681    0.000260455    0.002827833
      9        7           0.048841976    0.047921761   -0.023250921
     10        1          -0.004374558   -0.006668368    0.004413970
     11        1          -0.003076902    0.000655869   -0.001576373
     12       17          -0.001133178    0.009765657   -0.002864936
     13        6           0.006625083   -0.000452101   -0.009984568
     14        1          -0.003572034   -0.000916692   -0.001216206
     15        1          -0.001984419   -0.001306075   -0.000829544
     16        1           0.002878157    0.001132492   -0.000813206
     17        6           0.003460684    0.007413440   -0.000925813
     18        1           0.004006370   -0.001240025   -0.001059530
     19        1          -0.000825569   -0.005304351   -0.002054001
     20        1          -0.004895156   -0.000340751   -0.003471662
     21        6           0.000525212   -0.000737252   -0.003701826
     22        1          -0.005732874    0.000747380   -0.000016677
     23        1          -0.004323437    0.000820815    0.002955564
     24        1           0.000366089    0.000504021   -0.003562178
 -------------------------------------------------------------------
 Cartesian Forces:  Max     0.048841976 RMS     0.012381242
 FormGI is forming the generalized inverse of G from B-inverse, IUseBI=4.

 GradGradGradGradGradGradGradGradGradGradGradGradGradGradGradGradGradGrad
 Berny optimization.
 Internal  Forces:  Max     0.050213021 RMS     0.006995372
 Search for a saddle point.
 Step number   2 out of a maximum of   50
 All quantities printed in internal units (Hartrees-Bohrs-Radians)
 Swapping is turned off.
 Second derivative matrix not updated -- analytic derivatives used.
 ITU=  0  0
     Eigenvalues ---   -0.04394  -0.00140  -0.00042   0.00064   0.00118
     Eigenvalues ---    0.00177   0.00453   0.00741   0.00965   0.01231
     Eigenvalues ---    0.03236   0.03729   0.04086   0.04393   0.04753
     Eigenvalues ---    0.04829   0.04852   0.05414   0.05468   0.05749
     Eigenvalues ---    0.05893   0.06194   0.07213   0.08795   0.09417
     Eigenvalues ---    0.09961   0.11862   0.11946   0.12099   0.12779
     Eigenvalues ---    0.12885   0.13294   0.13671   0.14174   0.14803
     Eigenvalues ---    0.15058   0.15487   0.17428   0.17790   0.18076
     Eigenvalues ---    0.19585   0.20883   0.22215   0.22661   0.25276
     Eigenvalues ---    0.29191   0.32943   0.34290   0.34495   0.34725
     Eigenvalues ---    0.35071   0.35135   0.35397   0.35671   0.35748
     Eigenvalues ---    0.35772   0.35830   0.35856   0.35870   0.36144
     Eigenvalues ---    0.36695   0.37415   0.42842   0.43788   0.56716
     Eigenvalues ---    0.80758
 Eigenvectors required to have negative eigenvalues:
                          R6        A19       D1        A21       D2
   1                   -0.69582  -0.33916   0.20401   0.19907   0.18141
                          D3        D4        D6        D5        A11
   1                    0.16847   0.14587  -0.14142  -0.13563   0.11540
 RFO step:  Lambda0=7.187023504D-03 Lambda=-3.91517117D-02.
 Linear search not attempted -- option 19 set.
 Maximum step size (   0.100) exceeded in Quadratic search.
    -- Step size scaled by   0.220
 Iteration  1 RMS(Cart)=  0.04633668 RMS(Int)=  0.00098000
 Iteration  2 RMS(Cart)=  0.00165525 RMS(Int)=  0.00014441
 Iteration  3 RMS(Cart)=  0.00000132 RMS(Int)=  0.00014441
 Iteration  4 RMS(Cart)=  0.00000000 RMS(Int)=  0.00014441
 Variable       Old X    -DE/DX   Delta X   Delta X   Delta X     New X
                                 (Linear)    (Quad)   (Total)
    R1        2.80726   0.00307   0.00000  -0.00505  -0.00505   2.80221
    R2        2.58708   0.00361   0.00000   0.00418   0.00418   2.59126
    R3        2.83492   0.00603   0.00000   0.00427   0.00427   2.83919
    R4        2.32117  -0.01767   0.00000  -0.00264  -0.00264   2.31853
    R5        2.85231   0.00877   0.00000   0.00734   0.00734   2.85965
    R6        3.60167   0.05021   0.00000   0.03252   0.03252   3.63419
    R7        3.41699  -0.00494   0.00000  -0.00116  -0.00116   3.41583
    R8        2.89305  -0.01273   0.00000  -0.00936  -0.00936   2.88369
    R9        2.06984   0.00455   0.00000   0.00228   0.00228   2.07212
   R10        2.06791   0.00351   0.00000   0.00245   0.00245   2.07036
   R11        2.06800   0.00278   0.00000   0.00127   0.00127   2.06927
   R12        2.76841   0.00262   0.00000  -0.00641  -0.00641   2.76200
   R13        1.93845  -0.00294   0.00000  -0.00189  -0.00189   1.93656
   R14        1.94328  -0.00329   0.00000  -0.00234  -0.00234   1.94094
   R15        2.06909   0.00183   0.00000   0.00050   0.00050   2.06959
   R16        2.07064   0.00074   0.00000   0.00033   0.00033   2.07097
   R17        2.07313   0.00280   0.00000   0.00125   0.00125   2.07438
   R18        2.06887   0.00392   0.00000   0.00207   0.00207   2.07095
   R19        2.07136   0.00484   0.00000   0.00263   0.00263   2.07400
   R20        2.07111   0.00553   0.00000   0.00198   0.00198   2.07309
   R21        2.06817   0.00417   0.00000   0.00258   0.00258   2.07075
   R22        2.06812   0.00351   0.00000   0.00170   0.00170   2.06982
   R23        2.06810   0.00327   0.00000   0.00175   0.00175   2.06985
    A1        2.05968   0.00275   0.00000   0.00224   0.00224   2.06192
    A2        2.02057   0.00281   0.00000   0.01028   0.01028   2.03084
    A3        2.20203  -0.00558   0.00000  -0.01257  -0.01257   2.18945
    A4        2.11825   0.01061   0.00000   0.01026   0.01025   2.12850
    A5        2.05362   0.00064   0.00000   0.00138   0.00137   2.05499
    A6        2.11125  -0.01125   0.00000  -0.01155  -0.01156   2.09969
    A7        1.82979   0.01884   0.00000   0.01197   0.01196   1.84175
    A8        2.03230  -0.00103   0.00000   0.00142   0.00148   2.03378
    A9        2.13819  -0.00188   0.00000   0.00211   0.00207   2.14026
   A10        1.72132  -0.01109   0.00000  -0.01920  -0.01919   1.70213
   A11        1.72065  -0.01015   0.00000   0.00083   0.00078   1.72143
   A12        1.93124   0.00324   0.00000  -0.00106  -0.00110   1.93014
   A13        1.89698  -0.00161   0.00000  -0.00057  -0.00056   1.89641
   A14        1.89697  -0.00153   0.00000  -0.00034  -0.00035   1.89662
   A15        1.93333   0.00611   0.00000   0.00647   0.00647   1.93980
   A16        1.89555   0.00002   0.00000  -0.00026  -0.00026   1.89528
   A17        1.92031  -0.00162   0.00000  -0.00359  -0.00360   1.91671
   A18        1.92003  -0.00147   0.00000  -0.00177  -0.00178   1.91825
   A19        2.32464  -0.01750   0.00000  -0.07036  -0.07048   2.25417
   A20        1.82687  -0.00079   0.00000   0.01082   0.01016   1.83703
   A21        1.72051   0.00755   0.00000   0.03380   0.03422   1.75473
   A22        1.87347   0.01102   0.00000   0.01972   0.01890   1.89237
   A23        1.86304   0.00360   0.00000   0.01633   0.01693   1.87997
   A24        1.78687  -0.00120   0.00000   0.00692   0.00643   1.79330
   A25        1.95651  -0.00287   0.00000  -0.00230  -0.00231   1.95420
   A26        1.91695  -0.00164   0.00000  -0.00358  -0.00359   1.91336
   A27        1.93555  -0.00072   0.00000  -0.00022  -0.00022   1.93533
   A28        1.89371   0.00080   0.00000  -0.00453  -0.00456   1.88915
   A29        1.87939   0.00266   0.00000   0.00771   0.00771   1.88710
   A30        1.87945   0.00207   0.00000   0.00323   0.00323   1.88268
   A31        1.96980  -0.00101   0.00000   0.00046   0.00046   1.97025
   A32        1.92278   0.00368   0.00000   0.00289   0.00289   1.92567
   A33        1.94181   0.00156   0.00000   0.00280   0.00280   1.94461
   A34        1.88593  -0.00221   0.00000  -0.00415  -0.00415   1.88178
   A35        1.85847   0.00057   0.00000   0.00132   0.00131   1.85979
   A36        1.88146  -0.00292   0.00000  -0.00378  -0.00379   1.87767
   A37        1.91349   0.00293   0.00000   0.00301   0.00299   1.91649
   A38        1.89533  -0.00067   0.00000  -0.00436  -0.00436   1.89097
   A39        1.95079   0.00175   0.00000   0.00687   0.00686   1.95765
   A40        1.91489  -0.00400   0.00000  -0.00725  -0.00726   1.90763
   A41        1.89935  -0.00128   0.00000  -0.00196  -0.00198   1.89738
   A42        1.88970   0.00112   0.00000   0.00344   0.00344   1.89314
    D1       -1.11333   0.00593   0.00000   0.07448   0.07451  -1.03882
    D2        2.04055   0.00481   0.00000   0.06636   0.06632   2.10687
    D3        2.07141   0.00656   0.00000   0.07609   0.07613   2.14753
    D4       -1.05790   0.00544   0.00000   0.06797   0.06794  -0.98996
    D5       -1.58327  -0.00062   0.00000  -0.01093  -0.01094  -1.59421
    D6        2.81916   0.00169   0.00000   0.00421   0.00420   2.82336
    D7        0.34723  -0.00005   0.00000   0.00059   0.00060   0.34783
    D8        1.51019  -0.00106   0.00000  -0.01205  -0.01205   1.49814
    D9       -0.37056   0.00125   0.00000   0.00309   0.00309  -0.36747
   D10       -2.84249  -0.00049   0.00000  -0.00053  -0.00051  -2.84300
   D11        2.79667   0.00044   0.00000  -0.01996  -0.01996   2.77671
   D12       -1.37683  -0.00047   0.00000  -0.02291  -0.02291  -1.39974
   D13        0.70871  -0.00070   0.00000  -0.02395  -0.02395   0.68476
   D14       -0.29774   0.00086   0.00000  -0.01869  -0.01869  -0.31643
   D15        1.81195  -0.00004   0.00000  -0.02164  -0.02164   1.79031
   D16       -2.38569  -0.00028   0.00000  -0.02268  -0.02268  -2.40837
   D17        1.96195   0.00239   0.00000  -0.01934  -0.01936   1.94260
   D18       -2.22923  -0.00114   0.00000  -0.02902  -0.02904  -2.25827
   D19       -0.14567   0.00088   0.00000  -0.02339  -0.02342  -0.16910
   D20       -1.16740   0.00111   0.00000  -0.02759  -0.02756  -1.19496
   D21        0.92460  -0.00242   0.00000  -0.03727  -0.03724   0.88736
   D22        3.00816  -0.00040   0.00000  -0.03164  -0.03163   2.97653
   D23        1.43395  -0.00082   0.00000  -0.01356  -0.01324   1.42072
   D24       -0.86893   0.00123   0.00000   0.01848   0.01846  -0.85047
   D25       -2.70651   0.00032   0.00000  -0.00188  -0.00209  -2.70860
   D26       -2.74776  -0.00009   0.00000  -0.01566  -0.01540  -2.76316
   D27        1.23253   0.00196   0.00000   0.01638   0.01630   1.24884
   D28       -0.60504   0.00105   0.00000  -0.00398  -0.00425  -0.60929
   D29       -0.78320  -0.00154   0.00000  -0.02092  -0.02063  -0.80383
   D30       -3.08609   0.00050   0.00000   0.01112   0.01107  -3.07502
   D31        1.35952  -0.00041   0.00000  -0.00924  -0.00948   1.35004
   D32       -0.86187  -0.00383   0.00000   0.00871   0.00870  -0.85317
   D33        1.24473  -0.00584   0.00000  -0.00101  -0.00100   1.24373
   D34       -2.96314  -0.00476   0.00000   0.00059   0.00059  -2.96255
   D35        1.12412   0.01146   0.00000   0.02544   0.02544   1.14955
   D36       -3.05246   0.00944   0.00000   0.01573   0.01574  -3.03673
   D37       -0.97715   0.01052   0.00000   0.01732   0.01732  -0.95982
   D38        2.91568  -0.00418   0.00000   0.00451   0.00450   2.92019
   D39       -1.26090  -0.00619   0.00000  -0.00520  -0.00520  -1.26609
   D40        0.81442  -0.00511   0.00000  -0.00361  -0.00361   0.81081
   D41        3.04676   0.00287   0.00000   0.01846   0.01845   3.06522
   D42       -0.94864  -0.00342   0.00000  -0.01838  -0.01843  -0.96707
   D43        0.95687   0.00150   0.00000   0.00498   0.00505   0.96192
   D44       -1.13856   0.00373   0.00000   0.01957   0.01955  -1.11901
   D45        1.14923  -0.00256   0.00000  -0.01727  -0.01733   1.13190
   D46        3.05474   0.00236   0.00000   0.00609   0.00615   3.06089
   D47        0.94910   0.00182   0.00000   0.01589   0.01588   0.96498
   D48       -3.04630  -0.00448   0.00000  -0.02095  -0.02100  -3.06730
   D49       -1.14080   0.00044   0.00000   0.00241   0.00248  -1.13832
         Item               Value     Threshold  Converged?
 Maximum Force            0.050213     0.000450     NO 
 RMS     Force            0.006995     0.000300     NO 
 Maximum Displacement     0.218718     0.001800     NO 
 RMS     Displacement     0.046282     0.001200     NO 
 Predicted change in Energy=-7.117483D-03
 GradGradGradGradGradGradGradGradGradGradGradGradGradGradGradGradGradGrad

                          Input orientation:                          
 ---------------------------------------------------------------------
 Center     Atomic      Atomic             Coordinates (Angstroms)
 Number     Number       Type             X           Y           Z
 ---------------------------------------------------------------------
      1          6           0       -0.496000   -0.674267   -0.300012
      2          6           0       -1.809815   -0.295914    0.274118
      3          8           0       -2.130366   -0.600706    1.418524
      4          6           0        0.637484   -0.225718    0.327926
      5          6           0        0.507244    2.775167   -0.273706
      6          1           0        1.022090    3.537211   -0.870846
      7          1           0       -0.556463    2.784051   -0.535918
      8          1           0        0.607815    3.033062    0.785740
      9          7           0        1.066774    1.447196   -0.517949
     10          1           0        1.026083    1.258685   -1.524423
     11          1           0        2.076664    1.495472   -0.337044
     12         17           0        2.174724   -1.091334   -0.065700
     13          6           0        0.642671    0.243840    1.779860
     14          1           0       -0.164783    0.955224    1.983258
     15          1           0        0.516857   -0.617436    2.445737
     16          1           0        1.595389    0.727662    2.031298
     17          6           0       -0.529076   -1.477303   -1.569400
     18          1           0        0.407891   -1.419480   -2.134857
     19          1           0       -0.722368   -2.534505   -1.346926
     20          1           0       -1.322491   -1.129888   -2.242655
     21          6           0       -2.763840    0.484402   -0.603896
     22          1           0       -3.626020   -0.140551   -0.862436
     23          1           0       -3.107207    1.361721   -0.045238
     24          1           0       -2.287879    0.826649   -1.529124
 ---------------------------------------------------------------------
                    Distance matrix (angstroms):
                    1          2          3          4          5
     1  C    0.000000
     2  C    1.482864   0.000000
     3  O    2.372747   1.226913   0.000000
     4  C    1.371236   2.448896   2.998502   0.000000
     5  C    3.592463   3.885925   4.606208   3.063370   0.000000
     6  H    4.512980   4.901375   5.683445   3.967948   1.096518
     7  H    3.466882   3.422460   4.213501   3.351185   1.095585
     8  H    4.017655   4.145935   4.593726   3.290915   1.095011
     9  N    2.643930   3.455513   4.262105   1.923132   1.461586
    10  H    2.748130   3.700519   4.699089   2.405339   2.033028
    11  H    3.365671   4.322881   5.017478   2.340068   2.026008
    12  Cl   2.713230   4.077342   4.580113   1.807579   4.215874
    13  C    2.542708   2.928016   2.921225   1.525983   3.262375
    14  H    2.824583   2.681909   2.569700   2.185951   2.976189
    15  H    2.927157   3.198860   2.839583   2.157108   4.348013
    16  H    3.431373   3.966207   4.002662   2.174394   3.269462
    17  C    1.502433   2.536637   3.501462   2.554833   4.564678
    18  H    2.176928   3.461759   4.442933   2.746467   4.590078
    19  H    2.146569   2.970120   3.656467   3.159877   5.554851
    20  H    2.159754   2.695763   3.786413   3.356622   4.740690
    21  C    2.564753   1.513264   2.380952   3.597439   4.007072
    22  H    3.224623   2.148137   2.766135   4.427378   5.092336
    23  H    3.320927   2.129077   2.635894   4.084351   3.887709
    24  H    2.640889   2.177240   3.278838   3.621307   3.631186
                    6          7          8          9         10
     6  H    0.000000
     7  H    1.780803   0.000000
     8  H    1.780468   1.778856   0.000000
     9  N    2.120069   2.102951   2.103620   0.000000
    10  H    2.370413   2.410049   2.942824   1.024783   0.000000
    11  H    2.359188   2.938256   2.404651   1.027101   1.603016
    12  Cl   4.837381   4.764357   4.493418   2.806461   2.994969
    13  C    4.244584   3.640525   2.961292   2.628281   3.477815
    14  H    4.027559   3.137558   2.519597   2.831044   3.716729
    15  H    5.340044   4.648913   4.011234   3.653567   4.420555
    16  H    4.079789   3.930623   2.800284   2.701079   3.639951
    17  C    5.295228   4.384971   5.213693   3.493563   3.147407
    18  H    5.152062   4.599593   5.328695   3.356539   2.815556
    19  H    6.335260   5.382592   6.108638   4.443217   4.180535
    20  H    5.400068   4.338049   5.497946   3.914660   3.425921
    21  C    4.870747   3.188341   4.449136   3.950692   3.976229
    22  H    5.927135   4.252304   5.541991   4.966078   4.902871
    23  H    4.739776   2.961432   4.157558   4.201533   4.391205
    24  H    4.328553   2.795654   4.314151   3.558265   3.342009
                   11         12         13         14         15
    11  H    0.000000
    12  Cl   2.602847   0.000000
    13  C    2.846788   2.745172   0.000000
    14  H    3.271048   3.722892   1.095180   0.000000
    15  H    3.826388   3.046378   1.095909   1.775325   0.000000
    16  H    2.535784   2.835803   1.097714   1.775471   1.773212
    17  C    4.140770   3.117791   3.943712   4.321027   4.237295
    18  H    3.809709   2.740582   4.259902   4.788115   4.651557
    19  H    5.009507   3.481009   4.399924   4.855846   4.426638
    20  H    4.698737   4.119603   4.682907   4.852455   5.062294
    21  C    4.952167   5.211720   4.164671   3.697315   4.612730
    22  H    5.955939   5.931897   5.034998   4.612902   5.323049
    23  H    5.193800   5.823804   4.317664   3.596929   4.822433
    24  H    4.573579   5.072978   4.458382   4.106202   5.074588
                   16         17         18         19         20
    16  H    0.000000
    17  C    4.726547   0.000000
    18  H    4.834999   1.095898   0.000000
    19  H    5.236996   1.097512   1.772456   0.000000
    20  H    5.498289   1.097031   1.757756   1.770713   0.000000
    21  C    5.099637   3.126445   4.003560   3.719342   2.714582
    22  H    6.032462   3.446413   4.418953   3.794330   2.861824
    23  H    5.179618   4.126728   4.945452   4.749992   3.771202
    24  H    5.269362   2.898829   3.560785   3.712328   2.295461
                   21         22         23         24
    21  C    0.000000
    22  H    1.095794   0.000000
    23  H    1.095302   1.787121   0.000000
    24  H    1.095317   1.780609   1.777503   0.000000
 Stoichiometry    C7H14ClNO
 Framework group  C1[X(C7H14ClNO)]
 Deg. of freedom    66
 Full point group                 C1      NOp   1
 Largest Abelian subgroup         C1      NOp   1
 Largest concise Abelian subgroup C1      NOp   1
                         Standard orientation:                         
 ---------------------------------------------------------------------
 Center     Atomic      Atomic             Coordinates (Angstroms)
 Number     Number       Type             X           Y           Z
 ---------------------------------------------------------------------
      1          6           0       -0.477045   -0.731203   -0.243664
      2          6           0       -1.797055   -0.349094    0.313517
      3          8           0       -2.099035   -0.574897    1.481052
      4          6           0        0.647351   -0.202674    0.336577
      5          6           0        0.421528    2.738304   -0.490398
      6          1           0        0.908265    3.467380   -1.149100
      7          1           0       -0.644032    2.695677   -0.741538
      8          1           0        0.522752    3.079254    0.545245
      9          7           0        1.019011    1.412676   -0.638589
     10          1           0        0.975962    1.146693   -1.627316
     11          1           0        2.028398    1.504467   -0.472311
     12         17           0        2.206873   -1.050012   -0.005841
     13          6           0        0.649984    0.376397    1.748418
     14          1           0       -0.176969    1.077060    1.905384
     15          1           0        0.555644   -0.434826    2.479195
     16          1           0        1.589612    0.905968    1.952450
     17          6           0       -0.495995   -1.629508   -1.447821
     18          1           0        0.434222   -1.587385   -2.025675
     19          1           0       -0.655412   -2.671872   -1.143524
     20          1           0       -1.304942   -1.358157   -2.137352
     21          6           0       -2.781279    0.333310   -0.611468
     22          1           0       -3.626198   -0.334786   -0.812771
     23          1           0       -3.146541    1.240214   -0.117712
     24          1           0       -2.323338    0.617782   -1.564927
 ---------------------------------------------------------------------
 Rotational constants (GHZ):           1.2725923           0.8560600           0.7235939
 Standard basis: STO-3G (5D, 7F)
 There are    68 symmetry adapted cartesian basis functions of A   symmetry.
 There are    68 symmetry adapted basis functions of A   symmetry.
    68 basis functions,   204 primitive gaussians,    68 cartesian basis functions
    44 alpha electrons       44 beta electrons
       nuclear repulsion energy       665.0641737026 Hartrees.
 NAtoms=   24 NActive=   24 NUniq=   24 SFac= 1.00D+00 NAtFMM=   60 NAOKFM=F Big=F
 Integral buffers will be    131072 words long.
 Raffenetti 1 integral format.
 Two-electron integral symmetry is turned on.
 External calculation of energy, first and second derivatives.
 Running external command "~/scripts/MiMe -H 'wb97xd def2svp' -EF 'wb97xd def2svp' -c 12 -m 48GB R"
         input file       "/local/jobs/1158124/Gau-2591047.EIn"
         output file      "/local/jobs/1158124/Gau-2591047.EOu"
         message file     "/local/jobs/1158124/Gau-2591047.EMs"
         fchk file        "/local/jobs/1158124/Gau-2591047.EFC"
         mat. el file     "/local/jobs/1158124/Gau-2591047.EUF"
 Read checkpoint file Gau-2591047_H.chk type G16
 Write formatted file Gau-2591047_H.fchk

deriv: 2

spelevel: wb97xd def2svp
gradlevel: wb97xd def2svp
hesslevel: wb97xd def2svp

runspe: False
runforce: False
runfreq: True

Running Gaussian ...

Parsing files ...
SPE file: Gau-2591047_H.out
FORCE file: Gau-2591047_H.out
HESS file: Gau-2591047_H.out

 ExternalExternalExternalExternalExternalExternalExternalExternalExternalExternal
 Output from external command:
 "~/scripts/MiMe -H 'wb97xd def2svp' -EF 'wb97xd def2svp' -c 12 -m 48GB R /local/jobs/1158124/Gau-2591047.EIn /local/jobs/1158124/Gau-2591047.EOu /local/jobs/1158124/Gau-2591047.EMs /local/jobs/1158124/Gau-2591047.EFC /local/jobs/1158124/Gau-2591047.EUF"
  
 --------------------------------------------------
 Hessian calculation at wb97xd def2svp
 ExternalExternalExternalExternalExternalExternalExternalExternalExternalExternal

 Recovered energy= -864.703115171     dipole=      2.053800000000      4.724300000000     -3.209600000000
 Energy=    -864.703115     NIter=   0.
 Dipole moment=       2.053800       4.724300      -3.209600
 ***** Axes restored to original set *****
 -------------------------------------------------------------------
 Center     Atomic                   Forces (Hartrees/Bohr)
 Number     Number              X              Y              Z
 -------------------------------------------------------------------
      1        6          -0.001847028   -0.005187290    0.006483445
      2        6           0.005672830   -0.014513843    0.018019410
      3        8          -0.000148826    0.013028088   -0.011642061
      4        6          -0.030753493   -0.037320471    0.024853880
      5        6          -0.003018942   -0.005371446    0.001483319
      6        1          -0.000584536    0.004761862   -0.001226930
      7        1          -0.002996253   -0.000592484    0.000377555
      8        1          -0.000018010    0.000180361    0.002259809
      9        7           0.044092945    0.041247684   -0.020024129
     10        1          -0.004497574   -0.005757320    0.003684644
     11        1          -0.002644769    0.000619870   -0.000713616
     12       17          -0.000848959    0.008308131   -0.002649900
     13        6           0.006127494    0.000265175   -0.008414396
     14        1          -0.002972497   -0.000965944   -0.000807386
     15        1          -0.001686729   -0.001050824   -0.000635898
     16        1           0.002280480    0.000910931   -0.000730524
     17        6           0.002764620    0.007060742   -0.001444644
     18        1           0.003254314   -0.000960659   -0.000733942
     19        1          -0.000505700   -0.004283093   -0.001673400
     20        1          -0.004035075   -0.000456076   -0.002668974
     21        6           0.000517584   -0.001280138   -0.003527193
     22        1          -0.004685680    0.000546143    0.000103977
     23        1          -0.003690383    0.000472941    0.002497492
     24        1           0.000224190    0.000337658   -0.002870536
 -------------------------------------------------------------------
 Cartesian Forces:  Max     0.044092945 RMS     0.010859215
 FormGI is forming the generalized inverse of G from B-inverse, IUseBI=4.

 GradGradGradGradGradGradGradGradGradGradGradGradGradGradGradGradGradGrad
 Berny optimization.
 Internal  Forces:  Max     0.043522987 RMS     0.005928494
 Search for a saddle point.
 Step number   3 out of a maximum of   50
 All quantities printed in internal units (Hartrees-Bohrs-Radians)
 Swapping is turned off.
 Second derivative matrix not updated -- analytic derivatives used.
 ITU=  0  0  0
     Eigenvalues ---   -0.03666  -0.00089  -0.00049   0.00044   0.00138
     Eigenvalues ---    0.00385   0.00537   0.00776   0.00953   0.01268
     Eigenvalues ---    0.03249   0.03748   0.04258   0.04512   0.04779
     Eigenvalues ---    0.04803   0.04938   0.05331   0.05485   0.05745
     Eigenvalues ---    0.05891   0.06322   0.07053   0.08688   0.09284
     Eigenvalues ---    0.10131   0.11888   0.12029   0.12155   0.12810
     Eigenvalues ---    0.13062   0.13314   0.13495   0.14496   0.14999
     Eigenvalues ---    0.15116   0.15289   0.17400   0.17705   0.17903
     Eigenvalues ---    0.19738   0.21171   0.22437   0.22669   0.28500
     Eigenvalues ---    0.30404   0.32713   0.34226   0.34561   0.34796
     Eigenvalues ---    0.34966   0.35146   0.35215   0.35501   0.35583
     Eigenvalues ---    0.35647   0.35673   0.35704   0.35750   0.36241
     Eigenvalues ---    0.37617   0.41148   0.43234   0.44123   0.58054
     Eigenvalues ---    0.81613
 Eigenvectors required to have negative eigenvalues:
                          R6        A19       D1        D2        A21
   1                   -0.71986  -0.27803   0.20728   0.18654   0.17602
                          D3        D6        D4        D5        A11
   1                    0.17127  -0.15483   0.15053  -0.13746   0.12563
[...]
 3,0.00370867,-0.00001906,0.00018815,-0.00021699,0.00002253,0.00004911,
 0.00001328,0.00001429,-0.00004078,0.00017688,-0.00021626,0.00013878,-0
 .00015337,0.00147330,0.00083480,0.00078473,0.00020197,-0.00010941,0.00
 021498,0.00034365,0.00012447,-0.00087803,0.00198334,0.00034935,0.00134
 464,-0.29212760,-0.04014878,-0.07542291,-0.01022584,-0.00596227,-0.004
 31325,-0.00902052,0.00070741,-0.00448075,0.31220571,-0.00003671,0.0008
 7220,-0.00181366,0.00100454,-0.00129091,-0.00112482,0.00163172,0.00211
 616,0.00085694,-0.00832989,-0.00360097,-0.00114737,-0.00002691,0.00018
 098,0.00013787,-0.00000767,-0.00009352,-0.00005790,0.00000758,0.000017
 49,-0.00007965,0.00003958,-0.00010161,-0.00005496,0.00034057,-0.000638
 21,0.00087651,0.00000785,0.00002647,-0.00002759,-0.00013456,0.00038015
 ,0.00023717,-0.00005078,-0.00071342,-0.00033571,-0.03660414,-0.0551511
 8,-0.01136057,0.02002549,0.00782178,0.00892558,-0.02015911,-0.00200100
 ,-0.00889306,0.04270769,0.05162911,0.00253299,-0.00158705,-0.00476928,
 0.00133516,-0.00066811,-0.00147949,0.00106075,0.00016425,0.00207464,-0
 .03250542,-0.00522638,-0.01128062,-0.00002947,0.00030335,-0.00006902,0
 .00002889,-0.00002376,0.00001745,0.00002975,-0.00018091,0.00007803,-0.
 00004909,0.00003293,-0.00003476,-0.00090526,-0.00041814,0.00130929,-0.
 00011140,-0.00033899,0.00025269,0.00073072,0.00069592,-0.00141469,-0.0
 0040391,0.00088654,0.00075443,-0.07029801,-0.01121716,-0.06889718,0.00
 489479,0.00250135,0.00054915,0.01615138,0.00077536,0.00603318,0.079047
 60,0.01421871,0.07758178,-0.08553790,0.00098706,0.00180681,0.00416447,
 0.01002831,0.02819429,-0.00574085,0.00083360,0.00151305,0.00231889,-0.
 01059337,-0.02753191,0.00026149,0.00029170,0.00012407,0.00000693,0.000
 08336,0.00005518,-0.00012739,-0.00002554,0.00001476,-0.00004625,0.0001
 0338,-0.00002999,0.00024338,0.00080671,0.00000506,-0.00021854,-0.00159
 547,-0.00016666,0.00052485,0.00027522,-0.00019285,-0.00148115,0.000635
 07,-0.00219408,-0.00442891,0.00015485,-0.00043887,-0.00025100,-0.00011
 423,0.00017048,-0.00004243,0.00007567,-0.00002812,-0.00010379,-0.00033
 526,-0.00140835,0.58405611,0.00128642,-0.07614774,-0.04735635,0.003093
 54,-0.00434204,-0.00640723,0.00050880,0.00509711,-0.00095127,-0.004071
 97,-0.01356930,-0.00298569,0.00072790,-0.00039439,-0.00015129,-0.00026
 653,0.00012942,-0.00000543,-0.00044022,-0.00077619,-0.00043282,0.00027
 104,-0.00002273,0.00007735,0.00519436,0.00490920,-0.00370056,0.0004195
 4,0.00180296,0.00089350,0.00047509,0.00078520,-0.00061377,-0.00398613,
 0.00383897,0.00146831,0.00020135,0.00404154,-0.00065288,0.00013478,0.0
 0012476,0.00047546,-0.00018573,-0.00004636,-0.00063301,0.00018097,0.00
 080339,-0.00004279,-0.00070589,0.53467404,0.00093577,-0.04228101,-0.20
 082514,0.00770044,-0.00381613,-0.01568167,-0.00027314,-0.00161009,0.00
 265690,-0.01160539,-0.00314233,-0.01964078,0.00092007,0.00055833,0.000
 05710,0.00013458,0.00014616,0.00012423,-0.00008982,-0.00070005,0.00002
 696,0.00013706,0.00005542,0.00000591,0.00049556,0.00018252,0.00044246,
 0.00021468,0.00009177,0.00093613,0.00054678,0.00052378,-0.00009832,0.0
 0310855,-0.00280763,-0.00348697,-0.00107325,-0.00132206,0.00140076,-0.
 00007305,-0.00009029,-0.00020492,0.00006611,0.00012164,0.00022467,0.00
 038699,-0.00032423,-0.00024884,0.00666072,-0.00788492,0.48776388,0.001
 15192,-0.00069573,0.00082117,0.00058391,0.00069359,-0.00096996,0.00002
 224,0.00004352,0.00050651,-0.00188297,-0.00152413,-0.00010208,0.000014
 44,-0.00000419,-0.00009984,-0.00000599,0.00004297,0.00000579,-0.000058
 55,-0.00008864,0.00003748,0.00002966,-0.00004750,-0.00000039,0.0004135
 2,0.00036698,-0.00088413,0.00051891,0.00032196,0.00055986,0.00001143,0
 .00000220,-0.00018240,-0.00189196,0.00006268,-0.00367656,0.00005560,0.
 00018826,-0.00003030,-0.00005994,-0.00000607,0.00002603,-0.00000696,0.
 00004354,-0.00002836,0.00016378,-0.00000332,0.00002721,-0.27025408,0.0
 8708486,0.05590130,0.29164569,0.00701291,-0.00431611,-0.00268017,-0.00
 127123,-0.00104799,-0.00092595,0.00063446,0.00021348,-0.00054668,0.002
 74066,0.00144621,-0.00078009,0.00012582,-0.00019961,0.00013110,-0.0000
 1105,-0.00003428,-0.00003123,0.00007316,0.00008747,-0.00002781,-0.0000
 4421,0.00007644,0.00000461,-0.00062028,-0.00089267,0.00020513,-0.00101
 755,-0.00155962,-0.00077306,-0.00013867,0.00006637,0.00014800,0.000206
 05,0.00007703,0.00178110,0.00021006,-0.00020917,0.00020736,0.00002856,
 -0.00001177,-0.00007255,0.00000527,0.00000668,0.00003421,-0.00006676,0
 .00002126,0.00004663,0.08925592,-0.08033195,-0.02195089,-0.09544473,0.
 08377712,0.02603028,-0.00853447,-0.00607893,-0.00272954,-0.00235269,-0
 .00524094,0.00204382,-0.00019149,-0.00106550,0.00600163,-0.00203182,0.
 00003030,0.00005761,0.00005112,0.00002414,-0.00003623,0.00004647,0.000
 00330,0.00001220,0.00008124,-0.00007997,0.00000049,0.00004123,-0.00000
 128,-0.00118503,-0.00022635,0.00033025,-0.00020773,-0.00072586,0.00025
 784,-0.00011547,-0.00020415,0.00014172,-0.00294766,0.00188549,0.000043
 88,0.00014847,0.00044843,0.00017580,0.00009258,0.00004621,0.00012618,0
 .00002363,-0.00002279,-0.00004369,-0.00005810,-0.00004376,0.00001765,0
 .05362165,-0.02095795,-0.05839031,-0.05759390,0.02547977,0.06489892,0.
 00305678,0.00307355,-0.00160697,-0.00102874,0.00082018,0.00014673,0.00
 032639,-0.00024597,-0.00012671,-0.00022183,-0.00024361,0.00031993,-0.0
 0019202,0.00014431,-0.00007727,0.00001521,-0.00002803,0.00002019,0.000
 03525,0.00003953,-0.00001376,0.00002059,-0.00006210,0.00000131,-0.0002
 0573,-0.00014590,0.00009252,0.00038656,0.00058911,0.00010698,0.0001216
 6,-0.00002706,0.00000121,0.00012191,-0.00009965,-0.00073356,-0.0000824
 1,-0.00002915,-0.00004558,0.00003539,0.00002428,0.00004225,-0.00000003
 ,-0.00004515,-0.00000525,0.00002015,-0.00003148,-0.00003645,-0.1575576
 2,-0.13292549,-0.02633530,-0.01642890,-0.02220538,-0.00392029,0.169119
 18,-0.00314104,-0.00283855,-0.00476462,-0.00324134,0.00104422,-0.00015
 979,0.00091115,-0.00022023,-0.00033937,0.00268088,-0.00153472,-0.00049
 140,0.00015889,0.00015962,0.00007975,0.00000063,0.00001367,0.00002172,
 -0.00003777,0.00004608,-0.00000791,-0.00000825,0.00003248,-0.00001622,
 -0.00027448,0.00001105,0.00045785,0.00003112,-0.00040010,-0.00004674,0
 .00005272,0.00005259,0.00005882,-0.00060295,0.00025562,0.00045684,-0.0
 0013791,0.00021271,0.00004935,-0.00001070,-0.00003556,0.00002506,-0.00
 003856,-0.00000289,-0.00006021,-0.00000980,0.00001603,-0.00007788,-0.1
 3243501,-0.19715202,-0.03086554,0.00859482,0.00993992,0.00180058,0.142
 80741,0.20839450,-0.02067219,-0.02227767,-0.00873464,-0.00265348,0.000
 50047,0.00134924,0.00050895,0.00016560,-0.00098102,0.00459594,-0.00445
 174,-0.00333691,-0.00011370,-0.00006253,0.00011241,-0.00006528,-0.0000
 6394,-0.00002824,0.00006104,0.00008378,-0.00017328,0.00003846,0.000032
 31,0.00001579,0.00021101,0.00034554,0.00007479,-0.00044389,-0.00014978
 ,-0.00034726,-0.00006472,0.00006055,0.00007342,-0.00146564,0.00109248,
 0.00053546,-0.00104118,0.00061269,-0.00023955,0.00002358,-0.00000437,0
 .00012049,-0.00004017,-0.00001356,-0.00013809,-0.00006770,0.00004816,-
 0.00038711,-0.02774368,-0.03175193,-0.04877855,0.00438958,0.00550317,0
 .00007734,0.02906997,0.03554906,0.05855314,0.00056764,-0.00165991,0.00
 107105,-0.00012388,-0.00075940,0.00051453,-0.00003361,0.00048036,0.000
 20571,-0.00052455,0.00113854,-0.00054307,-0.00011999,-0.00014382,0.000
 12536,-0.00005682,-0.00007519,-0.00002236,0.00017561,0.00004831,-0.000
 08046,0.00004227,0.00002275,0.00003286,0.00040650,-0.00015371,0.000009
 69,-0.00071002,0.00002627,-0.00052291,-0.00000592,0.00018936,0.0000405
 0,-0.00007541,-0.00055849,-0.00077532,-0.00019201,-0.00031634,0.000024
 28,0.00000815,0.00001662,-0.00004306,-0.00000187,0.00004150,0.00008971
 ,0.00000938,-0.00000631,-0.00004940,-0.05946961,0.04176518,-0.03542722
 ,-0.00365461,0.02105105,-0.01910898,0.00496062,-0.01596903,0.01355868,
 0.05816875,-0.00366429,0.01405977,-0.00821797,0.00070600,0.00085296,0.
 00021358,-0.00033530,-0.00068119,0.00014241,0.00024203,0.00067991,-0.0
 0126989,0.00031877,0.00050552,0.00020176,-0.00000011,0.00001432,0.0000
 7453,0.00003212,-0.00021933,-0.00025612,0.00014038,0.00001373,0.000015
 24,-0.00074096,-0.00043579,0.00063384,-0.00001970,-0.00027068,0.000167
 39,0.00019350,0.00005113,0.00008583,0.00060662,-0.00019079,0.00019601,
 -0.00022912,-0.00038636,0.00011311,0.00000896,-0.00001158,-0.00002245,
 0.00001176,-0.00000734,0.00005727,-0.00005104,-0.00010217,-0.00004749,
 0.04087711,-0.18106782,0.11508977,0.00022888,-0.00748271,0.00544160,0.
 00702663,-0.01803652,0.01484731,-0.04531785,0.19262512,-0.00674816,0.0
 1329261,-0.02413839,-0.00488374,0.00121895,0.00072080,0.00130662,-0.00
 149370,-0.00162611,0.00797120,0.00434886,-0.00351817,-0.00096528,0.000
 22441,0.00021423,0.00003328,-0.00019750,-0.00003321,0.00029580,0.00012
 780,-0.00045746,0.00013790,0.00000444,0.00003052,-0.00260680,-0.002538
 66,0.00181240,-0.00072188,-0.00011317,-0.00044315,-0.00010200,-0.00017
 999,0.00020702,0.00003172,-0.00010263,0.00045979,-0.00080720,-0.000927
 62,0.00017404,0.00000151,-0.00005582,-0.00011950,0.00005138,-0.0000049
 7,0.00013680,-0.00009943,-0.00028579,-0.00028400,-0.03639544,0.1222630
 6,-0.14550583,0.00091405,-0.00610257,0.00453789,0.00082053,-0.00250411
 ,0.00211963,0.04081718,-0.12715250,0.16505899,-0.02645602,-0.00453354,
 -0.01313760,-0.17151152,-0.01110579,-0.03536415,0.01041621,-0.00516673
 ,-0.01551704,-0.00166091,0.00110604,0.00237654,-0.00012837,0.00014452,
 0.00002795,-0.00000433,-0.00008223,0.00000021,-0.00007928,0.00006696,-
 0.00000872,0.00003948,-0.00000167,-0.00000589,-0.00062310,-0.00033541,
 -0.00014561,0.00011166,0.00011069,-0.00013735,-0.00005788,-0.00016187,
 0.00008918,-0.00107993,0.00039818,-0.00021131,0.00004760,-0.00003545,0
 .00014860,0.00004855,0.00005112,-0.00003448,0.00004616,-0.00006105,0.0
 0000058,-0.00011384,-0.00000546,-0.00002851,-0.00439934,0.00116391,-0.
 00075164,-0.00056380,-0.00045601,-0.00025493,-0.00123155,-0.00013929,0
 .00060181,0.00061890,0.00009388,0.00008232,0.51744275,0.00222883,0.011
 90235,-0.00026452,-0.00932940,-0.08849416,-0.00209988,-0.01253424,0.01
 443537,-0.02625528,0.00230552,0.00154674,-0.00124515,0.00028143,-0.000
 20731,-0.00003788,-0.00008363,0.00003436,-0.00000771,-0.00007411,0.000
 00498,0.00003670,0.00001041,0.00002384,0.00001138,0.00214825,0.0014758
 1,0.00009023,-0.00008143,0.00000182,0.00007878,0.00014711,0.00042704,-
 0.00024675,-0.00250729,0.00105627,0.00034683,0.00015340,0.00118156,-0.
 00001298,0.00056212,-0.00005759,-0.00006277,-0.00012246,-0.00051123,0.
 00001186,-0.00021572,-0.00022163,0.00018748,0.00053526,-0.00240661,-0.
 00013976,-0.00002432,-0.00020572,0.00017642,0.00180607,0.00013684,-0.0
 0102274,-0.00020785,-0.00001618,0.00051953,-0.02852627,0.54591428,0.00
 251216,-0.00075995,0.01019741,-0.03095455,-0.00231573,-0.09770517,-0.0
 3537290,-0.02609441,-0.04349628,0.00542063,-0.00015665,-0.00007155,-0.
 00011311,0.00022266,-0.00006196,0.00004527,-0.00000756,0.00003743,0.00
 004109,0.00001181,-0.00003272,0.00003717,0.00005756,-0.00002026,-0.001
 54770,-0.00089293,0.00045569,-0.00002113,-0.00012722,-0.00006818,-0.00
 005882,-0.00017236,0.00009289,0.00097866,-0.00047464,0.00045205,-0.000
 28207,-0.00085670,-0.00030652,0.00032933,0.00065679,0.00004720,0.00017
 823,-0.00013379,0.00002303,-0.00034357,0.00023385,0.00016685,0.0016101
 9,-0.00029614,-0.00122750,0.00024058,0.00038295,-0.00012381,0.00136743
 ,0.00077896,0.00019031,0.00065664,-0.00046292,0.00017674,-0.06619442,0
 .01034080,0.56495435,-0.00224160,0.00201598,-0.00078826,0.00376458,-0.
 02721956,-0.00083647,-0.00217328,0.00188748,-0.00355792,0.00123593,0.0
 0042007,0.00023259,0.00001989,-0.00001535,0.00001083,-0.00002119,-0.00
 000535,-0.00000059,0.00000155,0.00004443,-0.00002920,0.00000380,0.0000
 0870,0.00000128,0.00020443,0.00014918,-0.00001951,-0.00004030,-0.00002
 255,-0.00002797,0.00000952,0.00003597,-0.00001045,-0.00080811,0.000389
 37,0.00015717,0.00003842,0.00018763,-0.00002340,0.00012830,0.00002780,
 0.00000825,-0.00004330,-0.00010235,0.00000681,-0.00004666,-0.00003160,
 0.00003821,-0.00118235,-0.00108653,-0.00009657,0.00003401,0.00007878,-
 0.00000768,-0.00091075,0.00036264,0.00108664,0.00030935,0.00027793,0.0
 0007667,-0.04804692,-0.02271924,-0.00307477,0.04694981,-0.00087520,0.0
 0032006,-0.00121960,0.00235232,-0.00285857,-0.00070930,-0.00179408,0.0
 0037963,-0.00001708,0.00053213,0.00003199,0.00018504,0.00005682,0.0000
 0992,0.00001422,-0.00000814,-0.00000619,0.00000171,0.00004280,0.000010
 61,-0.00002285,0.00000336,0.00001013,0.00000068,-0.00015291,-0.0000680
 0,0.00006040,-0.00005260,-0.00006271,-0.00004582,-0.00000525,-0.000001
 33,0.00002845,-0.00028401,0.00014912,0.00008234,0.00001216,0.00001905,
 0.00000489,0.00007420,0.00004178,0.00002092,0.00000370,-0.00004417,0.0
 0001148,-0.00004499,0.00000132,0.00002544,0.00126645,-0.00008660,-0.00
 019267,0.00035998,0.00039236,0.00001899,-0.00023810,0.00056936,0.00034
 745,-0.00002898,-0.00019082,-0.00004245,-0.01923234,-0.30789300,-0.053
 09468,0.02095801,0.32819584,-0.00006228,0.00072297,-0.00071543,0.00181
 621,-0.01768647,-0.00365945,-0.00339707,0.00205179,-0.00353290,0.00063
 492,-0.00000665,-0.00008186,-0.00004591,0.00001520,0.00001088,-0.00000
 844,-0.00000641,0.00000518,-0.00001895,0.00003195,-0.00004090,0.000010
 06,0.00000133,-0.00000019,0.00009601,0.00002045,0.00006915,0.00000899,
 0.00001765,0.00001019,0.00002832,0.00003060,-0.00000589,-0.00041943,0.
 00022254,0.00002282,-0.00001921,0.00015329,0.00001370,0.00013754,0.000
 02394,0.00001027,-0.00002802,-0.00010053,-0.00000375,-0.00005821,-0.00
 002033,0.00001800,0.00061959,0.00066500,0.00049083,-0.00014013,-0.0000
 0683,-0.00003486,0.00049163,-0.00042781,-0.00002422,-0.00016569,0.0001
 0625,0.00007957,-0.00262499,-0.05707410,-0.05103260,0.00417796,0.05893
 208,0.05434277,-0.00299702,-0.00145874,-0.00391560,-0.02379200,0.00958
 524,0.01825332,0.00592332,-0.00028472,0.00069904,-0.00020970,0.0003204
 7,0.00073088,-0.00010749,0.00004642,0.00003620,0.00000397,-0.00003050,
 -0.00000376,0.00001108,0.00007840,0.00000407,-0.00001424,-0.00001262,-
 0.00000666,-0.00032400,-0.00027697,-0.00003605,0.00003570,0.00002815,-
 0.00005194,-0.00001336,-0.00006055,0.00005439,-0.00043123,0.00016302,-
 0.00009541,0.00001251,0.00003752,0.00004668,-0.00007418,-0.00007926,-0
 .00000511,-0.00004179,0.00004287,0.00000132,0.00005261,-0.00003892,-0.
 00006544,0.00026449,-0.00030133,-0.00076628,0.00010888,0.00001291,0.00
 004274,0.00014527,0.00007281,-0.00008378,0.00002683,-0.00006668,0.0000
 2150,-0.22496201,0.06652275,0.12000732,0.00366617,-0.00201526,-0.00365
 992,0.24136973,-0.00040614,0.00043085,-0.00105423,-0.00664824,0.000753
 89,0.00293353,0.00002497,-0.00062709,0.00092517,-0.00045008,0.00024952
 ,-0.00012902,0.00003212,-0.00004921,0.00000201,-0.00000801,0.00000587,
 -0.00000231,-0.00000996,0.00001641,0.00001670,-0.00001016,0.00000367,-
 0.00000126,0.00032222,0.00018002,-0.00001785,-0.00002983,-0.00001924,0
 .00000901,0.00002049,0.00005006,-0.00002455,-0.00024825,0.00009640,-0.
 00001961,-0.00002407,-0.00000105,-0.00000966,-0.00002193,0.00000011,0.
 00000267,0.00001135,0.00000977,0.00000407,0.00001105,0.00000181,0.0000
 0354,0.00003504,-0.00046626,-0.00000711,0.00011415,0.00027278,-0.00005
 502,-0.00004563,0.00031169,0.00035710,0.00011712,0.00009826,-0.0001952
 8,0.06823041,-0.07230257,-0.04357367,0.02445202,-0.00575198,-0.0153294
 1,-0.07129746,0.07162862,-0.00156135,-0.00099847,-0.00187789,-0.016858
 59,0.00572396,0.00895727,0.00070547,0.00056314,0.00075602,-0.00073165,
 -0.00014312,0.00033353,-0.00001094,-0.00000144,0.00001685,-0.00000007,
 -0.00000928,-0.00000836,-0.00000380,-0.00002750,-0.00001752,0.00000654
 ,-0.00000508,0.00000582,-0.00017697,-0.00006700,-0.00008172,-0.0000349
 7,-0.00002463,-0.00003845,-0.00002765,-0.00004860,0.00003786,0.0000600
 8,0.00000004,0.00001215,-0.00003601,0.00002350,-0.00001140,-0.00004455
 ,-0.00002671,0.00001165,-0.00001532,0.00001956,0.00001443,0.00003265,-
 0.00001219,-0.00000416,0.00041809,-0.00038164,-0.00055049,0.00014848,0
 .00006142,0.00020385,0.00021594,0.00041793,-0.00006297,-0.00018834,-0.
 00019032,0.00024420,0.12445032,-0.04408696,-0.12786422,0.00262691,0.00
 042513,-0.00233255,-0.12872573,0.04819554,0.13292130,-0.00235816,-0.00
 144979,0.00063193,0.00784045,0.01665225,-0.02009495,-0.00307256,-0.003
 95478,-0.00210597,0.00150357,0.00027796,0.00048101,-0.00020546,0.00013
 074,0.00003876,0.00002903,-0.00003320,0.00000586,-0.00001409,0.0000080
 1,-0.00010671,0.00004045,0.00000346,0.00000249,-0.00085635,-0.00065305
 ,0.00014899,-0.00004782,-0.00003622,-0.00008085,-0.00005276,-0.0001371
 8,0.00008651,0.00023612,-0.00012638,0.00010344,-0.00003435,-0.00024779
 ,-0.00005121,0.00000752,0.00011328,0.00002744,0.00002194,0.00001791,0.
 00002514,-0.00003298,0.00003708,0.00001326,-0.00099940,0.00146205,-0.0
 0071696,0.00005377,-0.00015974,0.00009047,-0.00050538,0.00037306,0.000
 30976,-0.00032573,-0.00033953,0.00076827,-0.04785250,-0.00027519,0.004
 53832,-0.00085130,-0.00093007,0.00262704,0.00134647,-0.01417119,0.0197
 5147,0.04612952,0.00097152,0.00035618,0.00055451,0.00019337,0.00340955
 ,-0.00776005,-0.00153728,-0.00193666,-0.00121364,-0.00023999,-0.000083
 54,-0.00019080,-0.00002835,0.00003866,-0.00000937,0.00001443,-0.000002
 18,0.00000447,-0.00003632,0.00000165,0.00000353,0.00001370,-0.00000364
 ,-0.00000350,0.00003367,-0.00000240,0.00000174,0.00004841,0.00005224,0
 .00004550,0.00000647,-0.00001052,-0.00000378,0.00019442,-0.00011847,-0
 .00009893,-0.00006843,-0.00010001,-0.00000758,-0.00000076,0.00003421,-
 0.00000003,0.00000753,0.00001549,-0.00000663,0.00000118,0.00002646,-0.
 00001284,-0.00043994,0.00060340,0.00036533,-0.00030976,-0.00008553,-0.
 00017118,0.00004162,-0.00097577,0.00025259,0.00029982,0.00019858,-0.00
 010293,-0.00152260,-0.10582526,0.11673395,-0.00009347,-0.01316777,0.02
 766351,-0.00098756,0.00510766,-0.00940730,0.00343831,0.11246768,-0.000
 97227,-0.00117641,-0.00014243,0.00619951,0.00712865,-0.01257479,-0.004
 62378,-0.00265015,-0.00142055,0.00097358,0.00024578,0.00008177,-0.0002
 4175,0.00007220,0.00003232,0.00001150,-0.00002987,0.00000928,-0.000053
 58,0.00007107,-0.00010805,0.00002406,0.00000684,-0.00000312,-0.0004323
 8,-0.00045698,0.00015704,-0.00001395,-0.00000538,-0.00004724,-0.000011
 63,-0.00007489,0.00001839,0.00000561,0.00001768,0.00015132,-0.00006776
 ,-0.00017862,0.00000444,0.00007039,0.00013949,0.00002240,0.00006609,-0
 .00000576,0.00002872,-0.00007813,0.00004682,0.00001603,0.00131600,-0.0
 0063702,0.00050947,0.00013002,-0.00008760,0.00019021,0.00020453,0.0000
 6566,0.00000981,-0.00021936,0.00023376,0.00015323,0.00663914,0.1207564
 7,-0.25478317,0.00004945,-0.00481480,0.00639125,-0.00248178,0.00796964
 ,-0.01066518,-0.00649353,-0.12663657,0.27196886\\-0.00000016,-0.000000
 01,0.00000065,-0.00000009,0.00000087,0.00000046,0.00000002,0.00000181,
 0.00000010,-0.00000013,0.00000013,0.00000027,0.00000063,-0.00000054,-0
 .00000169,0.00000077,-0.00000127,-0.00000222,0.00000057,-0.00000035,-0
 .00000144,0.00000084,0.00000009,-0.00000203,0.00000026,-0.00000078,-0.
 00000079,0.00000003,-0.00000155,-0.00000051,0.00000029,-0.00000076,-0.
 00000088,-0.00000047,-0.00000054,0.00000120,0.00000022,0.00000123,-0.0
 0000004,0.00000047,0.00000163,-0.00000070,-0.00000002,0.00000182,0.000
 00063,0.00000024,0.00000115,-0.00000026,-0.00000055,-0.00000108,0.0000
 0093,-0.00000076,-0.00000164,0.00000110,-0.00000074,-0.00000103,0.0000
 0152,-0.00000034,-0.00000163,0.00000032,-0.00000027,0.00000066,0.00000
 081,-0.00000057,0.00000051,0.00000159,-0.00000010,0.00000137,0.0000006
 2,-0.00000014,-0.00000010,0.00000036\\\@
 The archive entry for this job was punched.


 THE FIRST AND LAST THING REQUIRED OF GENIUS IS THE LOVE OF TRUTH.

                          -- GOETHE
 Job cpu time:       0 days  5 hours 50 minutes 10.3 seconds.
 Elapsed time:       0 days  0 hours 59 minutes 30.0 seconds.
 File lengths (MBytes):  RWF=      6 Int=      0 D2E=      0 Chk=      2 Scr=      1
 Normal termination of Gaussian 16 at Wed Jan 17 21:42:08 2024.
