Unloading slurm/anatra/current
  ERROR: No such file or directory on
    '/cm/local/modulefiles/slurm/anatra/current'
environment: line 0: unalias: gv: not found
environment: line 0: unalias: sl: not found
 Entering Gaussian System, Link 0=g16
 Initial command:
 /apps/gaussian/g16/C.01/g16/l1.exe "/local/jobs/1153072/Gau-1094363.inp" -scrdir="/local/jobs/1153072/"
 Entering Link 1 = /apps/gaussian/g16/C.01/g16/l1.exe PID=   1094364.
  
 Copyright (c) 1988-2019, Gaussian, Inc.  All Rights Reserved.
  
 This is part of the Gaussian(R) 16 program.  It is based on
 the Gaussian(R) 09 system (copyright 2009, Gaussian, Inc.),
 the Gaussian(R) 03 system (copyright 2003, Gaussian, Inc.),
 the Gaussian(R) 98 system (copyright 1998, Gaussian, Inc.),
 the Gaussian(R) 94 system (copyright 1995, Gaussian, Inc.),
 the Gaussian 92(TM) system (copyright 1992, Gaussian, Inc.),
 the Gaussian 90(TM) system (copyright 1990, Gaussian, Inc.),
 the Gaussian 88(TM) system (copyright 1988, Gaussian, Inc.),
 the Gaussian 86(TM) system (copyright 1986, Carnegie Mellon
 University), and the Gaussian 82(TM) system (copyright 1983,
 Carnegie Mellon University). Gaussian is a federally registered
 trademark of Gaussian, Inc.
  
 This software contains proprietary and confidential information,
 including trade secrets, belonging to Gaussian, Inc.
  
 This software is provided under written license and may be
 used, copied, transmitted, or stored only in accord with that
 written license.
  
 The following legend is applicable only to US Government
 contracts under FAR:
  
                    RESTRICTED RIGHTS LEGEND
  
 Use, reproduction and disclosure by the US Government is
 subject to restrictions as set forth in subparagraphs (a)
 and (c) of the Commercial Computer Software - Restricted
 Rights clause in FAR 52.227-19.
  
 Gaussian, Inc.
 340 Quinnipiac St., Bldg. 40, Wallingford CT 06492
  
  
 ---------------------------------------------------------------
 Warning -- This program may not be used in any manner that
 competes with the business of Gaussian, Inc. or will provide
 assistance to any competitor of Gaussian, Inc.  The licensee
 of this program is prohibited from giving any competitor of
 Gaussian, Inc. access to this program.  By using this program,
 the user acknowledges that Gaussian, Inc. is engaged in the
 business of creating and licensing software in the field of
 computational chemistry and represents and warrants to the
 licensee that it is not a competitor of Gaussian, Inc. and that
 it will not use this program in any manner prohibited above.
 ---------------------------------------------------------------
  

 Cite this work as:
 Gaussian 16, Revision C.01,
 M. J. Frisch, G. W. Trucks, H. B. Schlegel, G. E. Scuseria, 
 M. A. Robb, J. R. Cheeseman, G. Scalmani, V. Barone, 
 G. A. Petersson, H. Nakatsuji, X. Li, M. Caricato, A. V. Marenich, 
 J. Bloino, B. G. Janesko, R. Gomperts, B. Mennucci, H. P. Hratchian, 
 J. V. Ortiz, A. F. Izmaylov, J. L. Sonnenberg, D. Williams-Young, 
 F. Ding, F. Lipparini, F. Egidi, J. Goings, B. Peng, A. Petrone, 
 T. Henderson, D. Ranasinghe, V. G. Zakrzewski, J. Gao, N. Rega, 
 G. Zheng, W. Liang, M. Hada, M. Ehara, K. Toyota, R. Fukuda, 
 J. Hasegawa, M. Ishida, T. Nakajima, Y. Honda, O. Kitao, H. Nakai, 
 T. Vreven, K. Throssell, J. A. Montgomery, Jr., J. E. Peralta, 
 F. Ogliaro, M. J. Bearpark, J. J. Heyd, E. N. Brothers, K. N. Kudin, 
 V. N. Staroverov, T. A. Keith, R. Kobayashi, J. Normand, 
 K. Raghavachari, A. P. Rendell, J. C. Burant, S. S. Iyengar, 
 J. Tomasi, M. Cossi, J. M. Millam, M. Klene, C. Adamo, R. Cammi, 
 J. W. Ochterski, R. L. Martin, K. Morokuma, O. Farkas, 
 J. B. Foresman, and D. J. Fox, Gaussian, Inc., Wallingford CT, 2019.
 
 ******************************************
 Gaussian 16:  ES64L-G16RevC.01  3-Jul-2019
                26-Dec-2023 
 ******************************************
 %chk=cyclic-1_1_opt_hf_re.chk
 %nprocshared=12
 Will use up to   12 processors via shared memory.
 %mem=48GB
 ----------------------------------------------------------------------
 # wb97xd def2svp geom=allchk scrf=(iefpcm,solvent=toluene) opt=(readfc
 ,ts,noeigen,maxcycles=50,maxstep=10)
 ----------------------------------------------------------------------
 1/5=1,6=50,8=10,10=3,11=1,18=20,26=3,29=7,38=1/1,3;
 2/9=110,12=2,40=1/2;
 3/5=43,7=101,11=2,14=-4,25=1,30=1,70=2201,71=1,72=13,74=-58/1,2,3;
 4//1;
 5/5=2,38=5,53=13/2;
 6/7=2,8=2,9=2,10=2,28=1/1;
 7//1,2,3,16;
 1/5=1,6=50,8=10,11=1,18=20,26=3/3(2);
 2/9=110/2;
 99//99;
 2/9=110/2;
 3/5=43,7=101,11=2,14=-2,25=1,30=1,70=2205,71=1,72=13,74=-58/1,2,3;
 4/5=5,16=3,69=1/1;
 5/5=2,38=5,53=13/2;
 7//1,2,3,16;
 1/5=1,6=50,8=10,11=1,18=20,26=3/3(-5);
 2/9=110/2;
 6/7=2,8=2,9=2,10=2,19=2,28=1/1;
 99/9=1/99;
 Structure from the checkpoint file:  "cyclic-1_1_opt_hf_re.chk"
 -------------------------
 cyclic-1_1_opt_hf_re4.out
 -------------------------
 Charge =  0 Multiplicity = 1
 Redundant internal coordinates found in file.  (old form).
 C,0,1.70443,0.16024,0.14628
 C,0,-0.28068,-2.97217,-0.31207
 C,0,0.47504,1.74665,1.04668
 C,0,-1.05352,-2.01124,-0.81958
 N,0,1.07933,0.54922,1.24541
 H,0,0.16757,-3.74033,-0.94485
 H,0,-0.07486,-3.00817,0.76132
 H,0,-0.10974,2.24293,1.81113
 H,0,-1.28374,-1.94893,-1.8853
 O,0,1.54789,1.06406,-0.8011
 C,0,0.7309,2.14642,-0.28987
 O,0,0.43831,3.07236,-0.99467
 C,0,-1.64507,-0.96691,0.05619
 O,0,-1.43925,-0.85406,1.24431
 O,0,-2.43156,-0.14797,-0.63635
 C,0,-3.04138,0.92521,0.06801
 H,0,-3.76203,1.37414,-0.62323
 H,0,-2.28543,1.67113,0.35194
 H,0,-3.55012,0.56174,0.97122
 C,0,2.4492,-1.02824,-0.02165
 N,0,3.05654,-2.00817,-0.14109
 H,0,0.99061,-0.01475,2.08611
 Recover connectivity data from disk.

 GradGradGradGradGradGradGradGradGradGradGradGradGradGradGradGradGradGrad
 Berny optimization.
 Initialization pass.
 Force constant matrix read from checkpoint file:
 "cyclic-1_1_opt_hf_re.chk"
                           ----------------------------
                           !    Initial Parameters    !
                           ! (Angstroms and Degrees)  !
 --------------------------                            --------------------------
 ! Name  Definition              Value          Derivative Info.                !
 --------------------------------------------------------------------------------
 ! R1    R(1,5)                  1.3229         D2E/DX2 =    0.4798             !
 ! R2    R(1,10)                 1.3187         D2E/DX2 =    0.4116             !
 ! R3    R(1,20)                 1.4126         D2E/DX2 =    0.4627             !
 ! R4    R(2,4)                  1.3335         D2E/DX2 =    0.6768             !
 ! R5    R(2,6)                  1.0915         D2E/DX2 =    0.3702             !
 ! R6    R(2,7)                  1.0935         D2E/DX2 =    0.367              !
 ! R7    R(3,5)                  1.3559         D2E/DX2 =    0.3715             !
 ! R8    R(3,8)                  1.0829         D2E/DX2 =    0.379              !
 ! R9    R(3,11)                 1.4183         D2E/DX2 =    0.3434             !
 ! R10   R(4,9)                  1.0921         D2E/DX2 =    0.3672             !
 ! R11   R(4,13)                 1.4858         D2E/DX2 =    0.356              !
 ! R12   R(5,22)                 1.0162         D2E/DX2 =    0.4562             !
 ! R13   R(8,18)                 2.6814         D2E/DX2 =    0.0078             !
 ! R14   R(10,11)                1.4493         D2E/DX2 =    0.1568             !
 ! R15   R(11,12)                1.1999         D2E/DX2 =    0.8834             !
 ! R16   R(13,14)                1.2111         D2E/DX2 =    0.8195             !
 ! R17   R(13,15)                1.33           D2E/DX2 =    0.4396             !
 ! R18   R(14,22)                2.705          D2E/DX2 =    0.0151             !
 ! R19   R(15,16)                1.4212         D2E/DX2 =    0.356              !
 ! R20   R(16,17)                1.0948         D2E/DX2 =    0.3578             !
 ! R21   R(16,18)                1.0993         D2E/DX2 =    0.3258             !
 ! R22   R(16,19)                1.0985         D2E/DX2 =    0.349              !
 ! R23   R(20,21)                1.159          D2E/DX2 =    1.3215             !
 ! A1    A(5,1,10)             109.8327         D2E/DX2 =    0.1217             !
 ! A2    A(5,1,20)             126.5328         D2E/DX2 =    0.1154             !
 ! A3    A(10,1,20)            123.6311         D2E/DX2 =    0.1153             !
 ! A4    A(4,2,6)              121.6346         D2E/DX2 =    0.0905             !
 ! A5    A(4,2,7)              120.4227         D2E/DX2 =    0.0908             !
 ! A6    A(6,2,7)              117.9423         D2E/DX2 =    0.081              !
 ! A7    A(5,3,8)              122.8152         D2E/DX2 =    0.0808             !
 ! A8    A(5,3,11)             107.8565         D2E/DX2 =    0.1043             !
 ! A9    A(8,3,11)             129.3072         D2E/DX2 =    0.0791             !
 ! A10   A(2,4,9)              122.3227         D2E/DX2 =    0.1031             !
 ! A11   A(2,4,13)             120.8584         D2E/DX2 =    0.1393             !
 ! A12   A(9,4,13)             116.8189         D2E/DX2 =    0.1047             !
 ! A13   A(1,5,3)              110.3941         D2E/DX2 =    0.1039             !
 ! A14   A(1,5,22)             124.4303         D2E/DX2 =    0.09               !
 ! A15   A(3,5,22)             124.9207         D2E/DX2 =    0.0773             !
 ! A16   A(3,8,18)              87.4942         D2E/DX2 =    0.031              !
 ! A17   A(1,10,11)            108.9882         D2E/DX2 =    0.1441             !
 ! A18   A(3,11,10)            102.9209         D2E/DX2 =    0.1168             !
 ! A19   A(3,11,12)            136.6392         D2E/DX2 =    0.1299             !
 ! A20   A(10,11,12)           120.4371         D2E/DX2 =    0.1602             !
 ! A21   A(4,13,14)            125.1761         D2E/DX2 =    0.1689             !
 ! A22   A(4,13,15)            111.1813         D2E/DX2 =    0.1804             !
 ! A23   A(14,13,15)           123.6394         D2E/DX2 =    0.1456             !
 ! A24   A(13,14,22)           119.1347         D2E/DX2 =    0.0404             !
 ! A25   A(13,15,16)           117.4292         D2E/DX2 =    0.1576             !
 ! A26   A(15,16,17)           106.2103         D2E/DX2 =    0.0904             !
 ! A27   A(15,16,18)           110.2017         D2E/DX2 =    0.0875             !
 ! A28   A(15,16,19)           110.8776         D2E/DX2 =    0.0928             !
 ! A29   A(17,16,18)           109.723          D2E/DX2 =    0.0646             !
 ! A30   A(17,16,19)           110.4843         D2E/DX2 =    0.0447             !
 ! A31   A(18,16,19)           109.3063         D2E/DX2 =    0.0673             !
 ! A32   A(8,18,16)            147.4821         D2E/DX2 =    0.0228             !
 ! A33   A(5,22,14)             89.6086         D2E/DX2 =    0.0245             !
 ! A34   L(1,20,21,2,-1)       179.7911         D2E/DX2 =    0.1074             !
 ! A35   L(1,20,21,2,-2)       180.9346         D2E/DX2 =    0.0852             !
 ! D1    D(10,1,5,3)             0.2204         D2E/DX2 =    0.0152             !
 ! D2    D(10,1,5,22)          174.6578         D2E/DX2 =    0.0102             !
 ! D3    D(20,1,5,3)           179.5634         D2E/DX2 =    0.0163             !
 ! D4    D(20,1,5,22)           -5.9992         D2E/DX2 =    0.0101             !
 ! D5    D(5,1,10,11)           -0.7074         D2E/DX2 =    0.0151             !
 ! D6    D(20,1,10,11)         179.9266         D2E/DX2 =    0.0112             !
 ! D7    D(6,2,4,9)              0.5739         D2E/DX2 =    0.0242             !
 ! D8    D(6,2,4,13)          -179.4456         D2E/DX2 =    0.0286             !
 ! D9    D(7,2,4,9)           -179.657          D2E/DX2 =    0.0295             !
 ! D10   D(7,2,4,13)             0.3235         D2E/DX2 =    0.0264             !
 ! D11   D(8,3,5,1)            178.8368         D2E/DX2 =    0.0099             !
 ! D12   D(8,3,5,22)             4.4325         D2E/DX2 =    0.0048             !
 ! D13   D(11,3,5,1)             0.3673         D2E/DX2 =    0.0136             !
 ! D14   D(11,3,5,22)         -174.037          D2E/DX2 =    0.0066             !
 ! D15   D(5,3,8,18)          -109.2453         D2E/DX2 =    0.0143             !
 ! D16   D(11,3,8,18)           68.8718         D2E/DX2 =    0.0125             !
 ! D17   D(5,3,11,10)           -0.7374         D2E/DX2 =    0.0117             !
 ! D18   D(5,3,11,12)          178.6211         D2E/DX2 =    0.0174             !
 ! D19   D(8,3,11,10)         -179.075          D2E/DX2 =    0.0108             !
 ! D20   D(8,3,11,12)            0.2835         D2E/DX2 =    0.0143             !
 ! D21   D(2,4,13,14)            3.7117         D2E/DX2 =    0.0126             !
 ! D22   D(2,4,13,15)         -176.921          D2E/DX2 =    0.015              !
 ! D23   D(9,4,13,14)         -176.3067         D2E/DX2 =    0.0117             !
 ! D24   D(9,4,13,15)            3.0606         D2E/DX2 =    0.0139             !
 ! D25   D(1,5,22,14)          -95.4631         D2E/DX2 =    0.0333             !
 ! D26   D(3,5,22,14)           78.175          D2E/DX2 =    0.0244             !
 ! D27   D(3,8,18,16)           80.8845         D2E/DX2 =    0.026              !
 ! D28   D(1,10,11,3)            0.8824         D2E/DX2 =    0.0131             !
 ! D29   D(1,10,11,12)        -178.6068         D2E/DX2 =    0.0106             !
 ! D30   D(4,13,14,22)          70.6471         D2E/DX2 =    0.0344             !
 ! D31   D(15,13,14,22)       -108.6443         D2E/DX2 =    0.033              !
 ! D32   D(4,13,15,16)        -178.4437         D2E/DX2 =    0.0294             !
 ! D33   D(14,13,15,16)          0.9351         D2E/DX2 =    0.0194             !
 ! D34   D(13,14,22,5)          31.8781         D2E/DX2 =    0.0308             !
 ! D35   D(13,15,16,17)       -171.0372         D2E/DX2 =    0.0281             !
 ! D36   D(13,15,16,18)         70.1821         D2E/DX2 =    0.0188             !
 ! D37   D(13,15,16,19)        -50.9754         D2E/DX2 =    0.0278             !
 ! D38   D(15,16,18,8)         -65.5743         D2E/DX2 =    0.0275             !
 ! D39   D(17,16,18,8)         177.8155         D2E/DX2 =    0.0315             !
 ! D40   D(19,16,18,8)          56.5166         D2E/DX2 =    0.0303             !
 --------------------------------------------------------------------------------
 Trust Radius=1.00D-01 FncErr=1.00D-07 GrdErr=1.00D-06 EigMax=2.50D+02 EigMin=1.00D-04
 Number of steps in this run=     50 maximum allowed number of steps=    132.
 Search for a saddle point of order  1.
 GradGradGradGradGradGradGradGradGradGradGradGradGradGradGradGradGradGrad

                          Input orientation:                          
 ---------------------------------------------------------------------
 Center     Atomic      Atomic             Coordinates (Angstroms)
 Number     Number       Type             X           Y           Z
 ---------------------------------------------------------------------
      1          6           0        1.704430    0.160240    0.146280
      2          6           0       -0.280680   -2.972170   -0.312070
      3          6           0        0.475040    1.746650    1.046680
      4          6           0       -1.053520   -2.011240   -0.819580
      5          7           0        1.079330    0.549220    1.245410
      6          1           0        0.167570   -3.740330   -0.944850
      7          1           0       -0.074860   -3.008170    0.761320
      8          1           0       -0.109740    2.242930    1.811130
      9          1           0       -1.283740   -1.948930   -1.885300
     10          8           0        1.547890    1.064060   -0.801100
     11          6           0        0.730900    2.146420   -0.289870
     12          8           0        0.438310    3.072360   -0.994670
     13          6           0       -1.645070   -0.966910    0.056190
     14          8           0       -1.439250   -0.854060    1.244310
     15          8           0       -2.431560   -0.147970   -0.636350
     16          6           0       -3.041380    0.925210    0.068010
     17          1           0       -3.762030    1.374140   -0.623230
     18          1           0       -2.285430    1.671130    0.351940
     19          1           0       -3.550120    0.561740    0.971220
     20          6           0        2.449200   -1.028240   -0.021650
     21          7           0        3.056540   -2.008170   -0.141090
     22          1           0        0.990610   -0.014750    2.086110
 ---------------------------------------------------------------------
                    Distance matrix (angstroms):
                    1          2          3          4          5
     1  C    0.000000
     2  C    3.736675   0.000000
     3  C    2.199731   4.968358   0.000000
     4  C    3.640673   1.333505   4.465553   0.000000
     5  N    1.322929   4.083572   1.355912   3.920356   0.000000
     6  H    4.332084   1.091517   5.845313   2.120497   4.901916
     7  H    3.685508   1.093537   4.795011   2.109713   3.771143
     8  H    3.224986   5.633335   1.082887   5.090120   2.145362
     9  H    4.183907   2.127957   5.034593   1.092082   4.650398
    10  O    1.318683   4.458023   2.243040   4.028045   2.161669
    11  C    2.254528   5.217638   1.418325   4.555314   2.242663
    12  O    3.374207   6.125294   2.434331   5.300868   3.434400
    13  C    3.535213   2.453211   3.583203   1.485776   3.336952
    14  O    3.480977   2.872454   3.235314   2.397393   2.883130
    15  O    4.220654   3.564765   3.856229   2.324724   4.043939
    16  C    4.807704   4.791189   3.741359   3.655426   4.302080
    17  H    5.652246   5.577368   4.569478   4.339974   5.254624
    18  H    4.271307   5.100997   2.847554   4.055849   3.657674
    19  H    5.334044   4.982428   4.196620   4.007518   4.637580
    20  C    1.412575   3.363845   3.569125   3.724517   2.443433
    21  N    2.571534   3.477868   4.708887   4.165687   3.517383
    22  H    2.074392   4.014197   2.109208   4.075227   1.016223
                    6          7          8          9         10
     6  H    0.000000
     7  H    1.872391   0.000000
     8  H    6.593309   5.355125   0.000000
     9  H    2.489952   3.096446   5.710828   0.000000
    10  O    5.000811   4.653765   3.310773   4.274544   0.000000
    11  C    5.949804   5.322034   2.264992   4.834880   1.449252
    12  O    6.818250   6.349779   2.976714   5.382567   2.302587
    13  C    3.461156   2.670114   3.967383   2.205517   3.880049
    14  O    3.962934   2.595194   3.417635   3.319244   4.097059
    15  O    4.444738   3.960841   4.134901   2.474030   4.163194
    16  C    5.752435   4.975178   3.656414   3.894278   4.672904
    17  H    6.457786   5.892100   4.474386   4.333305   5.321939
    18  H    6.081346   5.191345   2.681384   4.371894   4.048750
    19  H    6.000029   4.986557   3.920212   4.427149   5.420623
    20  C    3.662454   3.302127   4.539583   4.272669   2.407825
    21  N    3.463027   3.408814   5.648747   4.678013   3.485719
    22  H    4.872788   3.442508   2.526560   4.968482   3.132152
                   11         12         13         14         15
    11  C    0.000000
    12  O    1.199882   0.000000
    13  C    3.931643   4.664813   0.000000
    14  O    4.008259   4.894388   1.211085   0.000000
    15  O    3.922426   4.328403   1.329978   2.240563   0.000000
    16  C    3.981147   4.224664   2.351582   2.667640   1.421168
    17  H    4.570992   4.545853   3.228567   3.721275   2.021668
    18  H    3.120267   3.345977   2.730711   2.808724   2.075378
    19  H    4.735894   5.106419   2.608307   2.556333   2.083062
    20  C    3.619802   4.669622   4.095469   4.093047   4.997454
    21  N    4.763544   5.778885   4.819572   4.843907   5.815915
    22  H    3.222326   4.396190   3.460346   2.705049   4.375018
                   16         17         18         19         20
    16  C    0.000000
    17  H    1.094846   0.000000
    18  H    1.099306   1.794299   0.000000
    19  H    1.098506   1.801991   1.792678   0.000000
    20  C    5.828420   6.686756   5.462865   6.285353   0.000000
    21  N    6.770013   7.626623   6.505150   7.175627   1.159047
    22  H    4.605779   5.644212   4.072097   4.711003   2.756320
                   21         22
    21  N    0.000000
    22  H    3.633485   0.000000
 Stoichiometry    C8H8N2O4
 Framework group  C1[X(C8H8N2O4)]
 Deg. of freedom    60
 Full point group                 C1      NOp   1
 Largest Abelian subgroup         C1      NOp   1
 Largest concise Abelian subgroup C1      NOp   1
                         Standard orientation:                         
 ---------------------------------------------------------------------
 Center     Atomic      Atomic             Coordinates (Angstroms)
 Number     Number       Type             X           Y           Z
 ---------------------------------------------------------------------
      1          6           0       -1.704430   -0.160237    0.146280
      2          6           0        0.280686    2.972169   -0.312070
      3          6           0       -0.475044   -1.746649    1.046680
      4          6           0        1.053524    2.011238   -0.819580
      5          7           0       -1.079331   -0.549218    1.245410
      6          1           0       -0.167563    3.740330   -0.944850
      7          1           0        0.074866    3.008170    0.761320
      8          1           0        0.109735   -2.242930    1.811130
      9          1           0        1.283744    1.948927   -1.885300
     10          8           0       -1.547892   -1.064057   -0.801100
     11          6           0       -0.730904   -2.146419   -0.289870
     12          8           0       -0.438316   -3.072359   -0.994670
     13          6           0        1.645072    0.966907    0.056190
     14          8           0        1.439252    0.854057    1.244310
     15          8           0        2.431560    0.147965   -0.636350
     16          6           0        3.041378   -0.925216    0.068010
     17          1           0        3.762027   -1.374148   -0.623230
     18          1           0        2.285427   -1.671135    0.351940
     19          1           0        3.550119   -0.561747    0.971220
     20          6           0       -2.449198    1.028245   -0.021650
     21          7           0       -3.056536    2.008176   -0.141090
     22          1           0       -0.990610    0.014752    2.086110
 ---------------------------------------------------------------------
 Rotational constants (GHZ):           0.7477295           0.6805000           0.4266946
 Standard basis: def2SVP (5D, 7F)
 There are   250 symmetry adapted cartesian basis functions of A   symmetry.
 There are   236 symmetry adapted basis functions of A   symmetry.
   236 basis functions,   406 primitive gaussians,   250 cartesian basis functions
    51 alpha electrons       51 beta electrons
       nuclear repulsion energy       878.9569257448 Hartrees.
 NAtoms=   22 NActive=   22 NUniq=   22 SFac= 1.00D+00 NAtFMM=   60 NAOKFM=F Big=F
 Integral buffers will be    131072 words long.
 Raffenetti 2 integral format.
 Two-electron integral symmetry is turned on.
 Nuclear repulsion after empirical dispersion term =      878.9432907300 Hartrees.
 ------------------------------------------------------------------------------
 Polarizable Continuum Model (PCM)
 =================================
 Model                : PCM.
 Atomic radii         : UFF (Universal Force Field).
 Polarization charges : Total charges.
 Charge compensation  : None.
 Solution method      : On-the-fly selection.
 Cavity type          : Scaled VdW (van der Waals Surface) (Alpha=1.100).
 Cavity algorithm     : GePol (No added spheres)
                        Default sphere list used, NSphG=   22.
                        Lebedev-Laikov grids with approx.  5.0 points / Ang**2.
                        Smoothing algorithm: York/Karplus (Gamma=1.0000).
                        Polarization charges: spherical gaussians, with
                                              point-specific exponents (IZeta= 3).
                        Self-potential: point-specific (ISelfS= 7).
                        Self-field    : sphere-specific E.n sum rule (ISelfD= 2).
 1st derivatives      : Analytical E(r).r(x)/FMM algorithm (CHGder, D1EAlg=3).
                        Cavity 1st derivative terms included.
 Solvent              : Toluene, Eps=   2.374100 Eps(inf)=   2.238315
 ------------------------------------------------------------------------------
 One-electron integrals computed using PRISM.
   1 Symmetry operations used in ECPInt.
 ECPInt:  NShTT=    5886 NPrTT=   21942 LenC2=    5688 LenP2D=   15486.
 LDataN:  DoStor=T MaxTD1= 4 Len=   56
 NBasis=   236 RedAO= T EigKep=  3.26D-04  NBF=   236
 NBsUse=   236 1.00D-06 EigRej= -1.00D+00 NBFU=   236
 ExpMin= 1.22D-01 ExpMax= 2.27D+03 ExpMxC= 3.41D+02 IAcc=3 IRadAn=         5 AccDes= 0.00D+00
 Harris functional with IExCor= 4639 and IRadAn=       5 diagonalized for initial guess.
 HarFok:  IExCor= 4639 AccDes= 0.00D+00 IRadAn=         5 IDoV= 1 UseB2=F ITyADJ=14
 ICtDFT=  3500011 ScaDFX=  1.000000  1.000000  1.000000  1.000000
 FoFCou: FMM=F IPFlag=           0 FMFlag=      100000 FMFlg1=           0
         NFxFlg=           0 DoJE=T BraDBF=F KetDBF=T FulRan=T
         wScrn=  0.000000 ICntrl=       500 IOpCl=  0 I1Cent=   200000004 NGrid=           0
         NMat0=    1 NMatS0=      1 NMatT0=    0 NMatD0=    1 NMtDS0=    0 NMtDT0=    0
 Petite list used in FoFCou.
 Requested convergence on RMS density matrix=1.00D-08 within 128 cycles.
 Requested convergence on MAX density matrix=1.00D-06.
 Requested convergence on             energy=1.00D-06.
 No special actions if energy rises.
 Inv3:  Mode=1 IEnd=    11832588.
 Iteration    1 A*A^-1 deviation from unit magnitude is 3.11D-15 for   1280.
 Iteration    1 A*A^-1 deviation from orthogonality  is 1.96D-15 for   1444    321.
 Iteration    1 A^-1*A deviation from unit magnitude is 2.55D-15 for   1865.
 Iteration    1 A^-1*A deviation from orthogonality  is 2.00D-15 for    637    467.
 Error on total polarization charges =  0.00669
 SCF Done:  E(RwB97XD) =  -719.231874849     A.U. after   15 cycles
            NFock= 15  Conv=0.49D-08     -V/T= 2.0089

 **********************************************************************

            Population analysis using the SCF Density.

 **********************************************************************

 Orbital symmetries:
       Occupied  (A) (A) (A) (A) (A) (A) (A) (A) (A) (A) (A) (A)
                 (A) (A) (A) (A) (A) (A) (A) (A) (A) (A) (A) (A)
                 (A) (A) (A) (A) (A) (A) (A) (A) (A) (A) (A) (A)
                 (A) (A) (A) (A) (A) (A) (A) (A) (A) (A) (A) (A)
                 (A) (A) (A)
       Virtual   (A) (A) (A) (A) (A) (A) (A) (A) (A) (A) (A) (A)
                 (A) (A) (A) (A) (A) (A) (A) (A) (A) (A) (A) (A)
                 (A) (A) (A) (A) (A) (A) (A) (A) (A) (A) (A) (A)
                 (A) (A) (A) (A) (A) (A) (A) (A) (A) (A) (A) (A)
                 (A) (A) (A) (A) (A) (A) (A) (A) (A) (A) (A) (A)
                 (A) (A) (A) (A) (A) (A) (A) (A) (A) (A) (A) (A)
                 (A) (A) (A) (A) (A) (A) (A) (A) (A) (A) (A) (A)
                 (A) (A) (A) (A) (A) (A) (A) (A) (A) (A) (A) (A)
                 (A) (A) (A) (A) (A) (A) (A) (A) (A) (A) (A) (A)
                 (A) (A) (A) (A) (A) (A) (A) (A) (A) (A) (A) (A)
                 (A) (A) (A) (A) (A) (A) (A) (A) (A) (A) (A) (A)
                 (A) (A) (A) (A) (A) (A) (A) (A) (A) (A) (A) (A)
                 (A) (A) (A) (A) (A) (A) (A) (A) (A) (A) (A) (A)
                 (A) (A) (A) (A) (A) (A) (A) (A) (A) (A) (A) (A)
                 (A) (A) (A) (A) (A) (A) (A) (A) (A) (A) (A) (A)
                 (A) (A) (A) (A) (A)
 The electronic state is 1-A.
 Alpha  occ. eigenvalues --  -19.35282 -19.31464 -19.25653 -19.23519 -14.57724
 Alpha  occ. eigenvalues --  -14.48508 -10.45393 -10.44044 -10.43280 -10.38068
 Alpha  occ. eigenvalues --  -10.35801 -10.35383 -10.32912 -10.32324  -1.26532
 Alpha  occ. eigenvalues --   -1.21605  -1.13451  -1.12026  -1.10133  -1.03297
 Alpha  occ. eigenvalues --   -0.90572  -0.89960  -0.83387  -0.79917  -0.76017
 Alpha  occ. eigenvalues --   -0.73101  -0.71940  -0.65256  -0.63859  -0.62487
 Alpha  occ. eigenvalues --   -0.61525  -0.58678  -0.58130  -0.57958  -0.54424
 Alpha  occ. eigenvalues --   -0.53051  -0.51355  -0.51280  -0.50777  -0.49336
 Alpha  occ. eigenvalues --   -0.48644  -0.47902  -0.47427  -0.46657  -0.44949
 Alpha  occ. eigenvalues --   -0.44761  -0.39938  -0.38008  -0.37651  -0.37542
 Alpha  occ. eigenvalues --   -0.29169
 Alpha virt. eigenvalues --   -0.02091   0.01247   0.05250   0.11609   0.13036
 Alpha virt. eigenvalues --    0.14744   0.15685   0.16558   0.17542   0.17788
 Alpha virt. eigenvalues --    0.18979   0.19799   0.21088   0.21196   0.22333
 Alpha virt. eigenvalues --    0.22787   0.24188   0.26827   0.30455   0.33128
 Alpha virt. eigenvalues --    0.34220   0.36596   0.37229   0.38494   0.40003
 Alpha virt. eigenvalues --    0.41215   0.45361   0.47004   0.48887   0.50717
 Alpha virt. eigenvalues --    0.51561   0.52096   0.52578   0.54262   0.55351
 Alpha virt. eigenvalues --    0.56182   0.57111   0.59832   0.61150   0.62731
 Alpha virt. eigenvalues --    0.64561   0.65354   0.67414   0.68861   0.69850
 Alpha virt. eigenvalues --    0.70409   0.71058   0.72426   0.72895   0.73308
 Alpha virt. eigenvalues --    0.73721   0.74702   0.74899   0.75910   0.77606
 Alpha virt. eigenvalues --    0.78081   0.79394   0.80714   0.82835   0.83450
 Alpha virt. eigenvalues --    0.84533   0.85963   0.88607   0.90025   0.91756
 Alpha virt. eigenvalues --    0.94110   0.95463   0.96970   1.01475   1.05030
 Alpha virt. eigenvalues --    1.05892   1.08032   1.10091   1.11238   1.12070
 Alpha virt. eigenvalues --    1.14155   1.15413   1.16576   1.18301   1.23319
 Alpha virt. eigenvalues --    1.23753   1.26850   1.27435   1.28880   1.30140
 Alpha virt. eigenvalues --    1.31571   1.33970   1.34660   1.35908   1.37084
 Alpha virt. eigenvalues --    1.42131   1.43133   1.50018   1.51595   1.52774
 Alpha virt. eigenvalues --    1.56861   1.60573   1.61744   1.65173   1.65512
 Alpha virt. eigenvalues --    1.66141   1.66950   1.69178   1.70960   1.72128
 Alpha virt. eigenvalues --    1.72863   1.74505   1.76570   1.78727   1.80202
 Alpha virt. eigenvalues --    1.80826   1.83241   1.83804   1.86369   1.87275
 Alpha virt. eigenvalues --    1.88439   1.89816   1.91946   1.94934   1.96908
 Alpha virt. eigenvalues --    1.97914   2.00282   2.02027   2.03283   2.04352
 Alpha virt. eigenvalues --    2.06859   2.08594   2.10202   2.13731   2.13909
 Alpha virt. eigenvalues --    2.14437   2.22214   2.25044   2.26726   2.28576
 Alpha virt. eigenvalues --    2.31316   2.31590   2.32101   2.33221   2.39213
 Alpha virt. eigenvalues --    2.40357   2.42542   2.45116   2.46255   2.52268
 Alpha virt. eigenvalues --    2.53044   2.56795   2.62030   2.64100   2.69693
 Alpha virt. eigenvalues --    2.71698   2.72946   2.75014   2.76911   2.78880
 Alpha virt. eigenvalues --    2.79321   2.83902   2.85633   2.86479   2.89510
 Alpha virt. eigenvalues --    2.93508   2.95877   2.97522   2.98667   3.01108
 Alpha virt. eigenvalues --    3.03053   3.04694   3.06003   3.11374   3.14228
 Alpha virt. eigenvalues --    3.14469   3.19908   3.27348   3.29581   3.30599
 Alpha virt. eigenvalues --    3.37271   3.37869   3.44825   3.48436   3.52504
 Alpha virt. eigenvalues --    3.71572   3.74738   3.74894   3.76625   3.82006
          Condensed to atoms (all electrons):
               1          2          3          4          5          6
     1  C    5.226851   0.001155  -0.103636   0.002146   0.546267   0.000260
     2  C    0.001155   4.676123  -0.000336   0.597916   0.000011   0.390322
     3  C   -0.103636  -0.000336   5.363843   0.000115   0.343204   0.000003
     4  C    0.002146   0.597916   0.000115   5.100065  -0.001120  -0.014949
     5  N    0.546267   0.000011   0.343204  -0.001120   5.990383  -0.000001
     6  H    0.000260   0.390322   0.000003  -0.014949  -0.000001   0.577799
     7  H    0.000252   0.394389  -0.000094  -0.025880   0.000174  -0.034853
     8  H    0.005154  -0.000001   0.417954   0.000014  -0.026407   0.000000
     9  H    0.000094  -0.029257  -0.000014   0.392143   0.000014  -0.010188
    10  O    0.452254  -0.000218  -0.131713   0.000014  -0.078832   0.000002
    11  C   -0.084409   0.000116   0.321967  -0.000167  -0.020079  -0.000001
    12  O    0.002430   0.000000  -0.081575   0.000007   0.001644  -0.000000
    13  C    0.000176  -0.034658   0.002438   0.282196  -0.000730   0.008148
    14  O    0.002918   0.010585   0.006907  -0.109070  -0.005793   0.000252
    15  O   -0.000270   0.006031  -0.001793  -0.106008   0.000095  -0.000079
    16  C   -0.000052  -0.000422   0.002879   0.010142  -0.000255   0.000004
    17  H   -0.000005  -0.000005   0.000130   0.000024  -0.000002  -0.000000
    18  H    0.000479   0.000044  -0.003866  -0.000121  -0.000039  -0.000000
    19  H   -0.000023   0.000048  -0.000255   0.000897   0.000031  -0.000000
    20  C    0.019470   0.002401   0.011664   0.000416  -0.123018   0.000049
    21  N   -0.103161  -0.002171   0.000152  -0.000582  -0.004132   0.000542
    22  H   -0.001443   0.000134  -0.016619  -0.000448   0.370492  -0.000000
               7          8          9         10         11         12
     1  C    0.000252   0.005154   0.000094   0.452254  -0.084409   0.002430
     2  C    0.394389  -0.000001  -0.029257  -0.000218   0.000116   0.000000
     3  C   -0.000094   0.417954  -0.000014  -0.131713   0.321967  -0.081575
     4  C   -0.025880   0.000014   0.392143   0.000014  -0.000167   0.000007
     5  N    0.000174  -0.026407   0.000014  -0.078832  -0.020079   0.001644
     6  H   -0.034853   0.000000  -0.010188   0.000002  -0.000001  -0.000000
     7  H    0.592179  -0.000003   0.006605  -0.000002   0.000019   0.000000
     8  H   -0.000003   0.549085  -0.000001   0.003335  -0.027199   0.000745
     9  H    0.006605  -0.000001   0.594908   0.000035   0.000030  -0.000001
    10  O   -0.000002   0.003335   0.000035   7.896035   0.264097  -0.062831
    11  C    0.000019  -0.027199   0.000030   0.264097   4.521077   0.765974
    12  O    0.000000   0.000745  -0.000001  -0.062831   0.765974   7.624555
    13  C   -0.016422  -0.000098  -0.029642   0.000515  -0.000655  -0.000070
    14  O    0.012754   0.000634   0.003007   0.000028  -0.002272   0.000000
    15  O    0.000600  -0.000093   0.007174  -0.000058   0.002185  -0.000010
    16  C   -0.000040  -0.000322  -0.000297  -0.000019  -0.002139  -0.000454
    17  H   -0.000001   0.000002  -0.000138   0.000001   0.000015  -0.000014
    18  H    0.000001   0.001788   0.000056   0.000069  -0.000886   0.002779
    19  H   -0.000014  -0.000005   0.000018  -0.000001   0.000212   0.000003
    20  C    0.000973  -0.000427  -0.000070  -0.089353  -0.003451  -0.000284
    21  N   -0.000062  -0.000001  -0.000010  -0.002568  -0.000095  -0.000000
    22  H    0.000409  -0.004429  -0.000004   0.002345   0.007312  -0.000042
              13         14         15         16         17         18
     1  C    0.000176   0.002918  -0.000270  -0.000052  -0.000005   0.000479
     2  C   -0.034658   0.010585   0.006031  -0.000422  -0.000005   0.000044
     3  C    0.002438   0.006907  -0.001793   0.002879   0.000130  -0.003866
     4  C    0.282196  -0.109070  -0.106008   0.010142   0.000024  -0.000121
     5  N   -0.000730  -0.005793   0.000095  -0.000255  -0.000002  -0.000039
     6  H    0.008148   0.000252  -0.000079   0.000004  -0.000000  -0.000000
     7  H   -0.016422   0.012754   0.000600  -0.000040  -0.000001   0.000001
     8  H   -0.000098   0.000634  -0.000093  -0.000322   0.000002   0.001788
     9  H   -0.029642   0.003007   0.007174  -0.000297  -0.000138   0.000056
    10  O    0.000515   0.000028  -0.000058  -0.000019   0.000001   0.000069
    11  C   -0.000655  -0.002272   0.002185  -0.002139   0.000015  -0.000886
    12  O   -0.000070   0.000000  -0.000010  -0.000454  -0.000014   0.002779
    13  C    4.519185   0.678484   0.379162  -0.030326   0.004583  -0.006264
    14  O    0.678484   7.760359  -0.084274   0.004920   0.000664   0.000877
    15  O    0.379162  -0.084274   7.933940   0.256089  -0.021425  -0.024853
    16  C   -0.030326   0.004920   0.256089   4.427685   0.402139   0.406636
    17  H    0.004583   0.000664  -0.021425   0.402139   0.590133  -0.021875
    18  H   -0.006264   0.000877  -0.024853   0.406636  -0.021875   0.611484
    19  H   -0.005001   0.009720  -0.025899   0.400948  -0.021438  -0.027514
    20  C   -0.001629  -0.001221   0.000034  -0.000004   0.000000  -0.000011
    21  N   -0.000016  -0.000003   0.000000  -0.000000   0.000000  -0.000000
    22  H    0.000358   0.006521   0.000053  -0.000002  -0.000000  -0.000007
              19         20         21         22
     1  C   -0.000023   0.019470  -0.103161  -0.001443
     2  C    0.000048   0.002401  -0.002171   0.000134
     3  C   -0.000255   0.011664   0.000152  -0.016619
     4  C    0.000897   0.000416  -0.000582  -0.000448
     5  N    0.000031  -0.123018  -0.004132   0.370492
     6  H   -0.000000   0.000049   0.000542  -0.000000
     7  H   -0.000014   0.000973  -0.000062   0.000409
     8  H   -0.000005  -0.000427  -0.000001  -0.004429
     9  H    0.000018  -0.000070  -0.000010  -0.000004
    10  O   -0.000001  -0.089353  -0.002568   0.002345
    11  C    0.000212  -0.003451  -0.000095   0.007312
    12  O    0.000003  -0.000284  -0.000000  -0.000042
    13  C   -0.005001  -0.001629  -0.000016   0.000358
    14  O    0.009720  -0.001221  -0.000003   0.006521
    15  O   -0.025899   0.000034   0.000000   0.000053
    16  C    0.400948  -0.000004  -0.000000  -0.000002
    17  H   -0.021438   0.000000   0.000000  -0.000000
    18  H   -0.027514  -0.000011  -0.000000  -0.000007
    19  H    0.611650   0.000002   0.000000  -0.000018
    20  C    0.000002   5.405991   0.859818  -0.025587
    21  N    0.000000   0.859818   6.158551  -0.000413
    22  H   -0.000018  -0.025587  -0.000413   0.461145
 Mulliken charges:
               1
     1  C    0.033093
     2  C   -0.012208
     3  C   -0.131357
     4  C   -0.127750
     5  N    0.008093
     6  H    0.082691
     7  H    0.069014
     8  H    0.080274
     9  H    0.065537
    10  O   -0.253138
    11  C    0.258347
    12  O   -0.252857
    13  C    0.250266
    14  O   -0.295999
    15  O   -0.320601
    16  C    0.122887
    17  H    0.067212
    18  H    0.061224
    19  H    0.056639
    20  C   -0.055763
    21  N    0.094152
    22  H    0.200244
 Sum of Mulliken charges =  -0.00000
 Mulliken charges with hydrogens summed into heavy atoms:
               1
     1  C    0.033093
     2  C    0.139498
     3  C   -0.051083
     4  C   -0.062213
     5  N    0.208337
    10  O   -0.253138
    11  C    0.258347
    12  O   -0.252857
    13  C    0.250266
    14  O   -0.295999
    15  O   -0.320601
    16  C    0.307961
    20  C   -0.055763
    21  N    0.094152
 Electronic spatial extent (au):  <R**2>=           2661.7104
 Charge=             -0.0000 electrons
 Dipole moment (field-independent basis, Debye):
    X=              2.1207    Y=              1.7802    Z=              4.0319  Tot=              4.8911
 Quadrupole moment (field-independent basis, Debye-Ang):
   XX=            -81.4764   YY=            -91.0641   ZZ=            -76.3270
   XY=              0.3436   XZ=             -6.0490   YZ=            -10.1656
 Traceless Quadrupole moment (field-independent basis, Debye-Ang):
   XX=              1.4794   YY=             -8.1082   ZZ=              6.6288
   XY=              0.3436   XZ=             -6.0490   YZ=            -10.1656
 Octapole moment (field-independent basis, Debye-Ang**2):
  XXX=             63.7952  YYY=             40.2354  ZZZ=             13.4693  XYY=             30.4792
  XXY=            -42.3200  XXZ=              6.5670  XZZ=             -4.0092  YZZ=              2.7342
  YYZ=             18.2833  XYZ=             -2.5898
 Hexadecapole moment (field-independent basis, Debye-Ang**3):
 XXXX=          -1615.4673 YYYY=          -1591.8343 ZZZZ=           -312.7680 XXXY=             55.7793
 XXXZ=              1.3052 YYYX=             13.5727 YYYZ=            -68.5950 ZZZX=            -20.2978
 ZZZY=             -9.2576 XXYY=           -572.9775 XXZZ=           -327.7508 YYZZ=           -306.4675
 XXYZ=             10.2575 YYXZ=             -8.9908 ZZXY=             -9.8985
 N-N= 8.789432907300D+02 E-N=-3.436837000163D+03  KE= 7.128901077139D+02
   1 Symmetry operations used in ECPInt.
 ECPInt:  NShTT=    5886 NPrTT=   21942 LenC2=    5688 LenP2D=   15486.
 LDataN:  DoStor=T MaxTD1= 5 Len=  102
 D1PCM: PCM CHGder 1st derivatives, ID1Alg=3 FixD1E=F DoIter=F DoCFld=F I1PDM=0.
 Calling FoFJK, ICntrl=      2127 FMM=F ISym2X=0 I1Cent= 0 IOpClX= 0 NMat=1 NMatS=1 NMatT=0.
 ***** Axes restored to original set *****
 -------------------------------------------------------------------
 Center     Atomic                   Forces (Hartrees/Bohr)
 Number     Number              X              Y              Z
 -------------------------------------------------------------------
      1        6           0.000006943   -0.000001192    0.000000651
      2        6           0.000002282   -0.000011226    0.000011485
      3        6          -0.000000941    0.000003576   -0.000002816
      4        6          -0.000006986    0.000002327   -0.000007404
      5        7           0.000001398   -0.000004961    0.000009424
      6        1          -0.000005357    0.000000115    0.000005555
      7        1          -0.000003062    0.000005035   -0.000000917
      8        1          -0.000001668    0.000002428   -0.000003876
      9        1           0.000002255   -0.000000217    0.000001737
     10        8           0.000003440   -0.000003055    0.000003936
     11        6           0.000008352   -0.000005443    0.000001917
     12        8           0.000004021    0.000000249   -0.000005249
     13        6          -0.000004947    0.000001040    0.000002040
     14        8          -0.000003633    0.000006455   -0.000001120
     15        8           0.000001391    0.000011894   -0.000005069
     16        6           0.000007624    0.000000204   -0.000000556
     17        1           0.000002903    0.000002890   -0.000009824
     18        1           0.000002678   -0.000006622   -0.000009438
     19        1          -0.000002830    0.000009835   -0.000007142
     20        6          -0.000016145    0.000012342    0.000007987
     21        7           0.000007654   -0.000019691    0.000007362
     22        1          -0.000005371   -0.000005983    0.000001318
 -------------------------------------------------------------------
 Cartesian Forces:  Max     0.000019691 RMS     0.000006320

 GradGradGradGradGradGradGradGradGradGradGradGradGradGradGradGradGradGrad
 Berny optimization.
 FormGI is forming the generalized inverse of G from B-inverse, IUseBI=4.
 Internal  Forces:  Max     0.000017402 RMS     0.000003183
 Search for a saddle point.
 Step number   1 out of a maximum of   50
 All quantities printed in internal units (Hartrees-Bohrs-Radians)
 Swapping is turned off.
 Second derivative matrix not updated -- first step.
 ITU=  0
     Eigenvalues ---   -0.00078  -0.00050   0.00171   0.00367   0.00487
     Eigenvalues ---    0.00578   0.00767   0.01035   0.01848   0.02088
     Eigenvalues ---    0.02533   0.02559   0.02631   0.03612   0.03850
     Eigenvalues ---    0.04937   0.05731   0.05807   0.05983   0.06188
     Eigenvalues ---    0.07969   0.08043   0.08463   0.09854   0.10894
     Eigenvalues ---    0.11786   0.12046   0.12199   0.12926   0.14717
     Eigenvalues ---    0.15803   0.16449   0.17747   0.20292   0.21145
     Eigenvalues ---    0.24231   0.25320   0.27346   0.27889   0.28729
     Eigenvalues ---    0.33556   0.34723   0.35567   0.36500   0.36902
     Eigenvalues ---    0.37144   0.37714   0.37911   0.38327   0.40085
     Eigenvalues ---    0.42813   0.46294   0.47292   0.48931   0.53976
     Eigenvalues ---    0.58696   0.68287   0.87372   0.91389   1.32416
 Eigenvectors required to have negative eigenvalues:
                          R18       A33       D16       D15       D27
   1                   -0.83739   0.30174   0.27189   0.25312   0.12520
                          A16       R13       D39       D38       D34
   1                    0.10663  -0.08702  -0.07262  -0.07151   0.07121
 RFO step:  Lambda0=2.932776030D-08 Lambda=-4.96761044D-04.
 Linear search not attempted -- option 19 set.
 Maximum step size (   0.100) exceeded in Quadratic search.
    -- Step size scaled by   0.999
 Iteration  1 RMS(Cart)=  0.02686278 RMS(Int)=  0.00254826
 Iteration  2 RMS(Cart)=  0.00287733 RMS(Int)=  0.00044262
 Iteration  3 RMS(Cart)=  0.00001401 RMS(Int)=  0.00044256
 Iteration  4 RMS(Cart)=  0.00000001 RMS(Int)=  0.00044256
 Variable       Old X    -DE/DX   Delta X   Delta X   Delta X     New X
                                 (Linear)    (Quad)   (Total)
    R1        2.49997   0.00000   0.00000   0.00027   0.00025   2.50022
    R2        2.49195  -0.00000   0.00000   0.00058   0.00059   2.49254
    R3        2.66938  -0.00000   0.00000  -0.00039  -0.00039   2.66899
    R4        2.51996   0.00001   0.00000  -0.00003  -0.00003   2.51993
    R5        2.06267  -0.00000   0.00000  -0.00001  -0.00001   2.06266
    R6        2.06649  -0.00000   0.00000  -0.00008  -0.00008   2.06640
    R7        2.56230   0.00001   0.00000  -0.00088  -0.00088   2.56142
    R8        2.04636  -0.00000   0.00000  -0.00006   0.00009   2.04645
    R9        2.68025   0.00000   0.00000   0.00013   0.00014   2.68039
   R10        2.06374  -0.00000   0.00000  -0.00001  -0.00001   2.06372
   R11        2.80771   0.00000   0.00000   0.00018   0.00018   2.80789
   R12        1.92038   0.00000   0.00000  -0.00011  -0.00022   1.92017
   R13        5.06708  -0.00000   0.00000   0.05537   0.05511   5.12219
   R14        2.73869  -0.00000   0.00000  -0.00172  -0.00169   2.73700
   R15        2.26745   0.00000   0.00000   0.00039   0.00039   2.26784
   R16        2.28862  -0.00000   0.00000  -0.00016   0.00010   2.28872
   R17        2.51329  -0.00000   0.00000   0.00018   0.00030   2.51359
   R18        5.11180  -0.00000   0.00000   0.01192   0.01214   5.12394
   R19        2.68562  -0.00001   0.00000   0.00036   0.00021   2.68583
   R20        2.06896   0.00000   0.00000   0.00019   0.00019   2.06915
   R21        2.07739  -0.00001   0.00000   0.00072   0.00050   2.07789
   R22        2.07588  -0.00000   0.00000  -0.00056  -0.00056   2.07531
   R23        2.19028   0.00002   0.00000   0.00010   0.00010   2.19038
    A1        1.91694   0.00000   0.00000  -0.00047  -0.00051   1.91643
    A2        2.20841  -0.00000   0.00000   0.00012   0.00014   2.20855
    A3        2.15777  -0.00000   0.00000   0.00037   0.00039   2.15816
    A4        2.12292  -0.00000   0.00000  -0.00005  -0.00005   2.12287
    A5        2.10177  -0.00000   0.00000   0.00013   0.00013   2.10190
    A6        2.05848   0.00000   0.00000  -0.00008  -0.00008   2.05840
    A7        2.14353   0.00000   0.00000  -0.00035  -0.00034   2.14319
    A8        1.88245   0.00000   0.00000  -0.00031  -0.00036   1.88210
    A9        2.25684  -0.00000   0.00000   0.00047   0.00047   2.25730
   A10        2.13493   0.00000   0.00000  -0.00020  -0.00020   2.13474
   A11        2.10938  -0.00000   0.00000   0.00034   0.00034   2.10972
   A12        2.03887   0.00000   0.00000  -0.00015  -0.00015   2.03873
   A13        1.92674  -0.00000   0.00000   0.00024   0.00031   1.92705
   A14        2.17172   0.00000   0.00000  -0.00075  -0.00054   2.17118
   A15        2.18028   0.00000   0.00000   0.00047   0.00018   2.18046
   A16        1.52706   0.00000   0.00000  -0.02182  -0.02350   1.50356
   A17        1.90220   0.00000   0.00000   0.00002   0.00002   1.90222
   A18        1.79631   0.00000   0.00000   0.00051   0.00052   1.79683
   A19        2.38480  -0.00000   0.00000  -0.00110  -0.00111   2.38369
   A20        2.10202   0.00000   0.00000   0.00059   0.00058   2.10260
   A21        2.18474  -0.00000   0.00000  -0.00025  -0.00008   2.18465
   A22        1.94048  -0.00000   0.00000  -0.00043  -0.00027   1.94021
   A23        2.15791   0.00000   0.00000   0.00068   0.00035   2.15827
   A24        2.07929   0.00000   0.00000   0.00707   0.00863   2.08792
   A25        2.04953  -0.00000   0.00000   0.00250   0.00142   2.05094
   A26        1.85372  -0.00000   0.00000  -0.00047   0.00022   1.85394
   A27        1.92338  -0.00000   0.00000  -0.00018  -0.00215   1.92123
   A28        1.93518   0.00001   0.00000   0.00123   0.00155   1.93673
   A29        1.91503   0.00000   0.00000  -0.00215  -0.00168   1.91335
   A30        1.92831  -0.00000   0.00000  -0.00001  -0.00003   1.92828
   A31        1.90776  -0.00000   0.00000   0.00146   0.00197   1.90973
   A32        2.57405   0.00000   0.00000  -0.07439  -0.07566   2.49839
   A33        1.56397   0.00000   0.00000  -0.01336  -0.01322   1.55074
   A34        3.13795   0.00000   0.00000  -0.00050  -0.00050   3.13745
   A35        3.15790   0.00000   0.00000   0.00026   0.00026   3.15816
    D1        0.00385  -0.00000   0.00000   0.00008   0.00011   0.00396
    D2        3.04835  -0.00000   0.00000  -0.00030  -0.00040   3.04796
    D3        3.13397   0.00000   0.00000   0.00156   0.00159   3.13557
    D4       -0.10471   0.00000   0.00000   0.00117   0.00109  -0.10362
    D5       -0.01235  -0.00000   0.00000  -0.00067  -0.00072  -0.01307
    D6        3.14031  -0.00000   0.00000  -0.00209  -0.00215   3.13816
    D7        0.01002  -0.00000   0.00000  -0.00073  -0.00073   0.00928
    D8       -3.13192   0.00000   0.00000   0.00124   0.00124  -3.13068
    D9       -3.13561  -0.00001   0.00000  -0.00096  -0.00096  -3.13657
   D10        0.00565  -0.00000   0.00000   0.00101   0.00101   0.00666
   D11        3.12129  -0.00000   0.00000  -0.00630  -0.00657   3.11472
   D12        0.07736   0.00000   0.00000  -0.00583  -0.00601   0.07135
   D13        0.00641   0.00000   0.00000   0.00054   0.00055   0.00696
   D14       -3.03752   0.00000   0.00000   0.00101   0.00111  -3.03641
   D15       -1.90669   0.00000   0.00000  -0.03682  -0.03610  -1.94279
   D16        1.20204   0.00000   0.00000  -0.04526  -0.04488   1.15716
   D17       -0.01287  -0.00000   0.00000  -0.00089  -0.00092  -0.01379
   D18        3.11753  -0.00000   0.00000  -0.00206  -0.00216   3.11536
   D19       -3.12545   0.00000   0.00000   0.00657   0.00683  -3.11862
   D20        0.00495  -0.00000   0.00000   0.00540   0.00559   0.01054
   D21        0.06478  -0.00000   0.00000  -0.00747  -0.00749   0.05729
   D22       -3.08785  -0.00000   0.00000  -0.00759  -0.00756  -3.09542
   D23       -3.07713  -0.00000   0.00000  -0.00560  -0.00563  -3.08276
   D24        0.05342  -0.00000   0.00000  -0.00572  -0.00570   0.04772
   D25       -1.66614  -0.00000   0.00000  -0.00439  -0.00487  -1.67102
   D26        1.36441  -0.00001   0.00000  -0.00486  -0.00546   1.35895
   D27        1.41170   0.00000   0.00000   0.10778   0.10722   1.51892
   D28        0.01540   0.00000   0.00000   0.00095   0.00101   0.01641
   D29       -3.11728   0.00000   0.00000   0.00190   0.00201  -3.11527
   D30        1.23302  -0.00000   0.00000  -0.00732  -0.00661   1.22642
   D31       -1.89620  -0.00000   0.00000  -0.00718  -0.00652  -1.90272
   D32       -3.11443  -0.00000   0.00000   0.00619   0.00705  -3.10738
   D33        0.01632  -0.00000   0.00000   0.00607   0.00698   0.02330
   D34        0.55638   0.00000   0.00000   0.02144   0.02219   0.57857
   D35       -2.98516  -0.00000   0.00000   0.04202   0.04185  -2.94331
   D36        1.22491  -0.00000   0.00000   0.04494   0.04487   1.26978
   D37       -0.88969  -0.00000   0.00000   0.04241   0.04281  -0.84688
   D38       -1.14449  -0.00000   0.00000  -0.10351  -0.10304  -1.24752
   D39        3.10347  -0.00000   0.00000  -0.10157  -0.10106   3.00240
   D40        0.98640   0.00000   0.00000  -0.10114  -0.10121   0.88519
         Item               Value     Threshold  Converged?
 Maximum Force            0.000017     0.000450     YES
 RMS     Force            0.000003     0.000300     YES
 Maximum Displacement     0.146098     0.001800     NO 
 RMS     Displacement     0.028043     0.001200     NO 
 Predicted change in Energy=-1.553192D-05
 GradGradGradGradGradGradGradGradGradGradGradGradGradGradGradGradGradGrad

                          Input orientation:                          
 ---------------------------------------------------------------------
 Center     Atomic      Atomic             Coordinates (Angstroms)
 Number     Number       Type             X           Y           Z
 ---------------------------------------------------------------------
      1          6           0        1.702212    0.164669    0.146265
      2          6           0       -0.284898   -2.979423   -0.304025
      3          6           0        0.470917    1.737762    1.067091
      4          6           0       -1.061237   -2.023677   -0.815920
      5          7           0        1.084062    0.543316    1.253065
      6          1           0        0.158143   -3.754562   -0.931940
      7          1           0       -0.070593   -3.003917    0.767982
      8          1           0       -0.115143    2.222577    1.837957
      9          1           0       -1.298965   -1.972561   -1.880580
     10          8           0        1.531850    1.073778   -0.794078
     11          6           0        0.712414    2.146640   -0.269457
     12          8           0        0.405790    3.074579   -0.965965
     13          6           0       -1.644611   -0.968490    0.052447
     14          8           0       -1.434431   -0.846314    1.238933
     15          8           0       -2.428911   -0.151606   -0.645291
     16          6           0       -3.024980    0.936854    0.047523
     17          1           0       -3.777097    1.355252   -0.629361
     18          1           0       -2.266963    1.700328    0.274628
     19          1           0       -3.493924    0.598822    0.981272
     20          6           0        2.451166   -1.018852   -0.035773
     21          7           0        3.061800   -1.995343   -0.166537
     22          1           0        1.005840   -0.026673    2.090605
 ---------------------------------------------------------------------
                    Distance matrix (angstroms):
                    1          2          3          4          5
     1  C    0.000000
     2  C    3.746557   0.000000
     3  C    2.199689   4.970217   0.000000
     4  C    3.653945   1.333487   4.476791   0.000000
     5  N    1.323061   4.087575   1.355446   3.933505   0.000000
     6  H    4.348224   1.091514   5.853168   2.120450   4.909514
     7  H    3.683655   1.093493   4.781864   2.109738   3.761834
     8  H    3.224839   5.628296   1.082935   5.095963   2.144787
     9  H    4.205106   2.127822   5.058433   1.092074   4.672064
    10  O    1.318994   4.468687   2.242856   4.039654   2.161643
    11  C    2.254048   5.222293   1.418400   4.564647   2.242062
    12  O    3.374217   6.129124   2.434058   5.307250   3.433867
    13  C    3.534697   2.453517   3.581727   1.485869   3.342559
    14  O    3.471965   2.872682   3.215172   2.397474   2.876469
    15  O    4.218148   3.565081   3.861472   2.324714   4.053103
    16  C    4.790863   4.792584   3.728575   3.656031   4.300282
    17  H    5.660558   5.575903   4.590195   4.339108   5.275759
    18  H    4.257825   5.115026   2.850506   4.063408   3.677687
    19  H    5.280678   4.975307   4.126078   4.003170   4.586383
    20  C    1.412371   3.376662   3.568839   3.735677   2.443449
    21  N    2.571376   3.491090   4.708565   4.173959   3.517315
    22  H    2.074127   4.014847   2.108780   4.087631   1.016109
                    6          7          8          9         10
     6  H    0.000000
     7  H    1.872304   0.000000
     8  H    6.593422   5.335080   0.000000
     9  H    2.489700   3.096364   5.729585   0.000000
    10  O    5.021847   4.651393   3.310580   4.298160   0.000000
    11  C    5.964083   5.312026   2.265350   4.858927   1.448356
    12  O    6.833715   6.338898   2.976451   5.405214   2.302338
    13  C    3.461378   2.670672   3.963614   2.205498   3.870061
    14  O    3.963191   2.595593   3.393736   3.319359   4.076605
    15  O    4.444806   3.961652   4.142076   2.473579   4.148654
    16  C    5.753347   4.977664   3.650465   3.893765   4.635918
    17  H    6.456614   5.890084   4.499980   4.333708   5.318955
    18  H    6.090383   5.215109   2.710548   4.367157   3.995708
    19  H    5.995826   4.974377   3.845342   4.429453   5.351248
    20  C    3.680378   3.308440   4.539126   4.286765   2.408166
    21  N    3.480218   3.420882   5.648169   4.685587   3.486266
    22  H    4.873554   3.431038   2.525779   4.986874   3.131944
                   11         12         13         14         15
    11  C    0.000000
    12  O    1.200089   0.000000
    13  C    3.919594   4.646258   0.000000
    14  O    3.980195   4.860184   1.211137   0.000000
    15  O    3.910384   4.306580   1.330136   2.240962   0.000000
    16  C    3.941087   4.167399   2.352823   2.670017   1.421279
    17  H    4.572913   4.534968   3.226783   3.718265   2.021999
    18  H    3.061357   3.251346   2.749413   2.847521   2.074160
    19  H    4.653315   5.012872   2.595986   2.529095   2.084011
    20  C    3.619144   4.669582   4.097037   4.092982   4.993874
    21  N    4.763006   5.779064   4.822104   4.848887   5.811753
    22  H    3.221688   4.395502   3.473615   2.711472   4.392977
                   16         17         18         19         20
    16  C    0.000000
    17  H    1.094946   0.000000
    18  H    1.099572   1.793538   0.000000
    19  H    1.098209   1.801808   1.793905   0.000000
    20  C    5.815487   6.691784   5.454450   6.244625   0.000000
    21  N    6.759622   7.629626   6.499871   7.143156   1.159098
    22  H    4.620615   5.673131   4.122080   4.676510   2.755879
                   21         22
    21  N    0.000000
    22  H    3.632812   0.000000
 Stoichiometry    C8H8N2O4
 Framework group  C1[X(C8H8N2O4)]
 Deg. of freedom    60
 Full point group                 C1      NOp   1
 Largest Abelian subgroup         C1      NOp   1
 Largest concise Abelian subgroup C1      NOp   1
                         Standard orientation:                         
 ---------------------------------------------------------------------
 Center     Atomic      Atomic             Coordinates (Angstroms)
 Number     Number       Type             X           Y           Z
 ---------------------------------------------------------------------
      1          6           0       -1.701561   -0.204108    0.137549
      2          6           0        0.213021    2.988250   -0.286608
      3          6           0       -0.437217   -1.753391    1.053948
      4          6           0        1.013455    2.053993   -0.801057
      5          7           0       -1.078870   -0.574747    1.244515
      6          1           0       -0.245697    3.756521   -0.911700
      7          1           0       -0.005824    3.001357    0.784681
      8          1           0        0.157142   -2.228924    1.824242
      9          1           0        1.256312    2.014776   -1.865063
     10          8           0       -1.506417   -1.103382   -0.807423
     11          6           0       -0.664046   -2.159866   -0.285898
     12          8           0       -0.333154   -3.076223   -0.986621
     13          6           0        1.618125    1.007611    0.063390
     14          8           0        1.406410    0.873508    1.248314
     15          8           0        2.423962    0.213465   -0.636053
     16          6           0        3.042762   -0.864839    0.052699
     17          1           0        3.807011   -1.261492   -0.623686
     18          1           0        2.301992   -1.647181    0.272384
     19          1           0        3.500148   -0.521474    0.990228
     20          6           0       -2.477348    0.962618   -0.040480
     21          7           0       -3.110196    1.925309   -0.167909
     22          1           0       -1.017170   -0.008067    2.085671
 ---------------------------------------------------------------------
 Rotational constants (GHZ):           0.7472494           0.6835116           0.4274794
 Standard basis: def2SVP (5D, 7F)
 There are   250 symmetry adapted cartesian basis functions of A   symmetry.
 There are   236 symmetry adapted basis functions of A   symmetry.
   236 basis functions,   406 primitive gaussians,   250 cartesian basis functions
    51 alpha electrons       51 beta electrons
       nuclear repulsion energy       879.3888967767 Hartrees.
 NAtoms=   22 NActive=   22 NUniq=   22 SFac= 1.00D+00 NAtFMM=   60 NAOKFM=F Big=F
 Integral buffers will be    131072 words long.
 Raffenetti 2 integral format.
 Two-electron integral symmetry is turned on.
 Nuclear repulsion after empirical dispersion term =      879.3752379711 Hartrees.
 ------------------------------------------------------------------------------
 Polarizable Continuum Model (PCM)
 =================================
 Model                : PCM.
 Atomic radii         : UFF (Universal Force Field).
 Polarization charges : Total charges.
 Charge compensation  : None.
 Solution method      : On-the-fly selection.
 Cavity type          : Scaled VdW (van der Waals Surface) (Alpha=1.100).
 Cavity algorithm     : GePol (No added spheres)
                        Default sphere list used, NSphG=   22.
                        Lebedev-Laikov grids with approx.  5.0 points / Ang**2.
                        Smoothing algorithm: York/Karplus (Gamma=1.0000).
                        Polarization charges: spherical gaussians, with
                                              point-specific exponents (IZeta= 3).
                        Self-potential: point-specific (ISelfS= 7).
                        Self-field    : sphere-specific E.n sum rule (ISelfD= 2).
 1st derivatives      : Analytical E(r).r(x)/FMM algorithm (CHGder, D1EAlg=3).
                        Cavity 1st derivative terms included.
 Solvent              : Toluene, Eps=   2.374100 Eps(inf)=   2.238315
 ------------------------------------------------------------------------------
 One-electron integrals computed using PRISM.
   1 Symmetry operations used in ECPInt.
 ECPInt:  NShTT=    5886 NPrTT=   21942 LenC2=    5690 LenP2D=   15484.
 LDataN:  DoStor=T MaxTD1= 4 Len=   56
 NBasis=   236 RedAO= T EigKep=  3.25D-04  NBF=   236
 NBsUse=   236 1.00D-06 EigRej= -1.00D+00 NBFU=   236
 Initial guess from the checkpoint file:  "cyclic-1_1_opt_hf_re.chk"
 B after Tr=    -0.000000   -0.000000    0.000000
         Rot=    0.999916   -0.001160    0.002203   -0.012718 Ang=  -1.49 deg.
 ExpMin= 1.22D-01 ExpMax= 2.27D+03 ExpMxC= 3.41D+02 IAcc=3 IRadAn=         5 AccDes= 0.00D+00
 Harris functional with IExCor= 4639 and IRadAn=       5 diagonalized for initial guess.
 HarFok:  IExCor= 4639 AccDes= 0.00D+00 IRadAn=         5 IDoV= 1 UseB2=F ITyADJ=14
 ICtDFT=  3500011 ScaDFX=  1.000000  1.000000  1.000000  1.000000
 FoFCou: FMM=F IPFlag=           0 FMFlag=      100000 FMFlg1=           0
         NFxFlg=           0 DoJE=T BraDBF=F KetDBF=T FulRan=T
         wScrn=  0.000000 ICntrl=       500 IOpCl=  0 I1Cent=   200000004 NGrid=           0
         NMat0=    1 NMatS0=      1 NMatT0=    0 NMatD0=    1 NMtDS0=    0 NMtDT0=    0
 Petite list used in FoFCou.
 Requested convergence on RMS density matrix=1.00D-08 within 128 cycles.
 Requested convergence on MAX density matrix=1.00D-06.
 Requested convergence on             energy=1.00D-06.
 No special actions if energy rises.
 Inv3:  Mode=1 IEnd=    11642700.
 Iteration    1 A*A^-1 deviation from unit magnitude is 4.00D-15 for   1267.
 Iteration    1 A*A^-1 deviation from orthogonality  is 2.22D-15 for   1628    199.
 Iteration    1 A^-1*A deviation from unit magnitude is 4.00D-15 for   1267.
 Iteration    1 A^-1*A deviation from orthogonality  is 1.66D-15 for   1584   1236.
 Error on total polarization charges =  0.00668
 SCF Done:  E(RwB97XD) =  -719.231864295     A.U. after   12 cycles
            NFock= 12  Conv=0.53D-08     -V/T= 2.0089
   1 Symmetry operations used in ECPInt.
 ECPInt:  NShTT=    5886 NPrTT=   21942 LenC2=    5690 LenP2D=   15484.
 LDataN:  DoStor=T MaxTD1= 5 Len=  102
 D1PCM: PCM CHGder 1st derivatives, ID1Alg=3 FixD1E=F DoIter=F DoCFld=F I1PDM=0.
 Calling FoFJK, ICntrl=      2127 FMM=F ISym2X=0 I1Cent= 0 IOpClX= 0 NMat=1 NMatS=1 NMatT=0.
 ***** Axes restored to original set *****
 -------------------------------------------------------------------
 Center     Atomic                   Forces (Hartrees/Bohr)
 Number     Number              X              Y              Z
 -------------------------------------------------------------------
      1        6          -0.000058847    0.000119331   -0.000028088
      2        6           0.000028640    0.000016070    0.000007874
      3        6          -0.000086798    0.000092328    0.000014359
      4        6          -0.000029507    0.000011641    0.000007292
      5        7           0.000120485   -0.000106965   -0.000060091
      6        1          -0.000008348   -0.000002952    0.000001904
      7        1          -0.000003194   -0.000022086    0.000024426
      8        1           0.000058359    0.000029756   -0.000052024
      9        1          -0.000007152    0.000006516    0.000000025
     10        8           0.000019048   -0.000112124    0.000032688
     11        6           0.000034436    0.000042272    0.000126320
     12        8          -0.000069412    0.000002918   -0.000042263
     13        6          -0.000115375    0.000077297    0.000047558
     14        8           0.000039052   -0.000166920   -0.000118986
     15        8           0.000096369   -0.000128777    0.000101323
     16        6           0.000007237    0.000302467   -0.000251505
     17        1           0.000019112    0.000016906   -0.000019911
     18        1          -0.000138985   -0.000087442    0.000068045
     19        1           0.000048770   -0.000089639    0.000055622
     20        6           0.000051777   -0.000098622    0.000003493
     21        7          -0.000040221    0.000030399    0.000014367
     22        1           0.000034555    0.000067624    0.000067573
 -------------------------------------------------------------------
 Cartesian Forces:  Max     0.000302467 RMS     0.000081836

 GradGradGradGradGradGradGradGradGradGradGradGradGradGradGradGradGradGrad
 Berny optimization.
 FormGI is forming the generalized inverse of G from B-inverse, IUseBI=4.
 Internal  Forces:  Max     0.000133557 RMS     0.000047889
 Search for a saddle point.
 Step number   2 out of a maximum of   50
 All quantities printed in internal units (Hartrees-Bohrs-Radians)
 Swapping is turned off.
 Update second derivatives using D2CorX and points    1    2
 ITU=  0  0
     Eigenvalues ---   -0.00104   0.00036   0.00171   0.00368   0.00488
     Eigenvalues ---    0.00580   0.00769   0.01037   0.01850   0.02088
     Eigenvalues ---    0.02533   0.02559   0.02631   0.03612   0.03849
     Eigenvalues ---    0.04936   0.05731   0.05808   0.05985   0.06188
     Eigenvalues ---    0.07968   0.08043   0.08465   0.09855   0.10897
     Eigenvalues ---    0.11786   0.12047   0.12199   0.12929   0.14718
     Eigenvalues ---    0.15802   0.16453   0.17747   0.20292   0.21141
     Eigenvalues ---    0.24234   0.25320   0.27347   0.27889   0.28729
     Eigenvalues ---    0.33558   0.34723   0.35567   0.36499   0.36902
     Eigenvalues ---    0.37144   0.37714   0.37911   0.38326   0.40085
     Eigenvalues ---    0.42817   0.46294   0.47292   0.48930   0.53976
     Eigenvalues ---    0.58696   0.68287   0.87372   0.91389   1.32417
 Eigenvectors required to have negative eigenvalues:
                          R18       D16       A33       D15       R13
   1                   -0.75739   0.31675   0.28928   0.28733  -0.18541
                          A16       D38       D40       D39       A32
   1                    0.14618   0.12592   0.12527   0.12204   0.11916
 RFO step:  Lambda0=1.335116938D-05 Lambda=-1.98255399D-05.
 Linear search not attempted -- option 19 set.
 Iteration  1 RMS(Cart)=  0.02519835 RMS(Int)=  0.00145128
 Iteration  2 RMS(Cart)=  0.00225422 RMS(Int)=  0.00038987
 Iteration  3 RMS(Cart)=  0.00000900 RMS(Int)=  0.00038982
 Iteration  4 RMS(Cart)=  0.00000001 RMS(Int)=  0.00038982
 Variable       Old X    -DE/DX   Delta X   Delta X   Delta X     New X
                                 (Linear)    (Quad)   (Total)
    R1        2.50022  -0.00005   0.00000  -0.00021  -0.00023   2.50000
    R2        2.49254  -0.00007   0.00000  -0.00057  -0.00056   2.49197
    R3        2.66899   0.00006   0.00000   0.00036   0.00036   2.66936
    R4        2.51993   0.00002   0.00000   0.00004   0.00004   2.51997
    R5        2.06266  -0.00000   0.00000  -0.00000  -0.00000   2.06266
    R6        2.06640   0.00002   0.00000   0.00006   0.00006   2.06647
    R7        2.56142   0.00013   0.00000   0.00085   0.00085   2.56227
    R8        2.04645  -0.00004   0.00000  -0.00023  -0.00010   2.04635
    R9        2.68039  -0.00007   0.00000  -0.00016  -0.00015   2.68024
   R10        2.06372   0.00000   0.00000   0.00001   0.00001   2.06373
   R11        2.80789  -0.00003   0.00000  -0.00017  -0.00017   2.80771
   R12        1.92017   0.00003   0.00000   0.00032   0.00023   1.92040
   R13        5.12219   0.00004   0.00000  -0.05030  -0.05051   5.07169
   R14        2.73700   0.00007   0.00000   0.00156   0.00158   2.73858
   R15        2.26784   0.00004   0.00000  -0.00035  -0.00035   2.26749
   R16        2.28872  -0.00007   0.00000  -0.00032  -0.00010   2.28862
   R17        2.51359  -0.00004   0.00000  -0.00040  -0.00031   2.51329
   R18        5.12394   0.00006   0.00000  -0.01421  -0.01403   5.10991
   R19        2.68583   0.00006   0.00000  -0.00005  -0.00018   2.68564
   R20        2.06915   0.00000   0.00000  -0.00018  -0.00018   2.06897
   R21        2.07789  -0.00012   0.00000  -0.00031  -0.00050   2.07739
   R22        2.07531   0.00006   0.00000   0.00055   0.00055   2.07586
   R23        2.19038  -0.00005   0.00000  -0.00008  -0.00008   2.19030
    A1        1.91643   0.00001   0.00000   0.00053   0.00050   1.91693
    A2        2.20855  -0.00004   0.00000  -0.00015  -0.00013   2.20842
    A3        2.15816   0.00003   0.00000  -0.00040  -0.00038   2.15778
    A4        2.12287  -0.00002   0.00000   0.00003   0.00003   2.12291
    A5        2.10190   0.00003   0.00000  -0.00011  -0.00011   2.10179
    A6        2.05840  -0.00001   0.00000   0.00008   0.00008   2.05848
    A7        2.14319   0.00008   0.00000   0.00037   0.00038   2.14358
    A8        1.88210  -0.00003   0.00000   0.00039   0.00035   1.88244
    A9        2.25730  -0.00005   0.00000  -0.00052  -0.00052   2.25679
   A10        2.13474   0.00000   0.00000   0.00018   0.00018   2.13492
   A11        2.10972   0.00002   0.00000  -0.00031  -0.00031   2.10941
   A12        2.03873  -0.00002   0.00000   0.00013   0.00013   2.03885
   A13        1.92705   0.00000   0.00000  -0.00038  -0.00032   1.92673
   A14        2.17118  -0.00002   0.00000   0.00035   0.00053   2.17171
   A15        2.18046   0.00002   0.00000   0.00007  -0.00019   2.18027
   A16        1.50356  -0.00007   0.00000   0.02313   0.02167   1.52523
   A17        1.90222   0.00002   0.00000  -0.00003  -0.00003   1.90220
   A18        1.79683   0.00000   0.00000  -0.00050  -0.00049   1.79634
   A19        2.38369  -0.00001   0.00000   0.00104   0.00104   2.38473
   A20        2.10260   0.00001   0.00000  -0.00053  -0.00054   2.10206
   A21        2.18465  -0.00002   0.00000  -0.00009   0.00006   2.18472
   A22        1.94021  -0.00006   0.00000   0.00010   0.00024   1.94045
   A23        2.15827   0.00008   0.00000  -0.00000  -0.00031   2.15796
   A24        2.08792   0.00003   0.00000  -0.00895  -0.00762   2.08030
   A25        2.05094   0.00011   0.00000  -0.00028  -0.00124   2.04971
   A26        1.85394   0.00005   0.00000  -0.00082  -0.00025   1.85369
   A27        1.92123   0.00002   0.00000   0.00391   0.00216   1.92340
   A28        1.93673  -0.00012   0.00000  -0.00182  -0.00151   1.93522
   A29        1.91335   0.00001   0.00000   0.00117   0.00158   1.91493
   A30        1.92828   0.00006   0.00000   0.00008   0.00005   1.92833
   A31        1.90973  -0.00002   0.00000  -0.00237  -0.00192   1.90781
   A32        2.49839   0.00004   0.00000   0.07230   0.07103   2.56941
   A33        1.55074  -0.00006   0.00000   0.01311   0.01321   1.56395
   A34        3.13745  -0.00004   0.00000   0.00047   0.00047   3.13792
   A35        3.15816   0.00000   0.00000  -0.00023  -0.00023   3.15793
    D1        0.00396  -0.00000   0.00000  -0.00010  -0.00007   0.00389
    D2        3.04796  -0.00002   0.00000   0.00027   0.00019   3.04814
    D3        3.13557   0.00004   0.00000  -0.00140  -0.00137   3.13419
    D4       -0.10362   0.00001   0.00000  -0.00103  -0.00111  -0.10473
    D5       -0.01307   0.00001   0.00000   0.00068   0.00063  -0.01244
    D6        3.13816  -0.00002   0.00000   0.00193   0.00188   3.14005
    D7        0.00928  -0.00001   0.00000   0.00062   0.00062   0.00990
    D8       -3.13068  -0.00001   0.00000  -0.00109  -0.00109  -3.13177
    D9       -3.13657   0.00002   0.00000   0.00079   0.00079  -3.13578
   D10        0.00666   0.00002   0.00000  -0.00092  -0.00092   0.00574
   D11        3.11472  -0.00002   0.00000   0.00644   0.00621   3.12093
   D12        0.07135   0.00000   0.00000   0.00605   0.00590   0.07725
   D13        0.00696  -0.00001   0.00000  -0.00052  -0.00052   0.00644
   D14       -3.03641   0.00002   0.00000  -0.00091  -0.00083  -3.03724
   D15       -1.94279  -0.00005   0.00000   0.03379   0.03442  -1.90837
   D16        1.15716  -0.00007   0.00000   0.04239   0.04272   1.19988
   D17       -0.01379   0.00001   0.00000   0.00087   0.00084  -0.01295
   D18        3.11536  -0.00005   0.00000   0.00200   0.00191   3.11727
   D19       -3.11862   0.00003   0.00000  -0.00672  -0.00649  -3.12511
   D20        0.01054  -0.00003   0.00000  -0.00559  -0.00543   0.00511
   D21        0.05729   0.00002   0.00000   0.00636   0.00635   0.06364
   D22       -3.09542  -0.00002   0.00000   0.00633   0.00635  -3.08907
   D23       -3.08276   0.00002   0.00000   0.00475   0.00473  -3.07803
   D24        0.04772  -0.00002   0.00000   0.00471   0.00473   0.05245
   D25       -1.67102   0.00007   0.00000   0.00520   0.00478  -1.66624
   D26        1.35895   0.00005   0.00000   0.00560   0.00507   1.36403
   D27        1.51892  -0.00003   0.00000  -0.09827  -0.09868   1.42023
   D28        0.01641  -0.00002   0.00000  -0.00095  -0.00091   0.01550
   D29       -3.11527   0.00003   0.00000  -0.00186  -0.00177  -3.11703
   D30        1.22642   0.00008   0.00000   0.00545   0.00609   1.23251
   D31       -1.90272   0.00012   0.00000   0.00549   0.00609  -1.89663
   D32       -3.10738   0.00004   0.00000  -0.00747  -0.00671  -3.11409
   D33        0.02330  -0.00000   0.00000  -0.00750  -0.00671   0.01659
   D34        0.57857  -0.00004   0.00000  -0.02059  -0.01996   0.55861
   D35       -2.94331  -0.00001   0.00000  -0.03937  -0.03954  -2.98285
   D36        1.26978  -0.00006   0.00000  -0.04236  -0.04243   1.22735
   D37       -0.84688   0.00003   0.00000  -0.04080  -0.04047  -0.88735
   D38       -1.24752   0.00010   0.00000   0.09497   0.09533  -1.15220
   D39        3.00240   0.00002   0.00000   0.09302   0.09344   3.09584
   D40        0.88519  -0.00005   0.00000   0.09369   0.09359   0.97878
         Item               Value     Threshold  Converged?
 Maximum Force            0.000134     0.000450     YES
 RMS     Force            0.000048     0.000300     YES
 Maximum Displacement     0.135777     0.001800     NO 
 RMS     Displacement     0.025981     0.001200     NO 
 Predicted change in Energy=-3.558773D-06
 GradGradGradGradGradGradGradGradGradGradGradGradGradGradGradGradGradGrad

                          Input orientation:                          
 ---------------------------------------------------------------------
 Center     Atomic      Atomic             Coordinates (Angstroms)
 Number     Number       Type             X           Y           Z
 ---------------------------------------------------------------------
      1          6           0        1.704244    0.161037    0.146044
      2          6           0       -0.280872   -2.973031   -0.311106
      3          6           0        0.475050    1.746452    1.048434
      4          6           0       -1.054583   -2.012993   -0.818990
      5          7           0        1.079410    0.548842    1.245754
      6          1           0        0.166759   -3.741957   -0.943386
      7          1           0       -0.073647   -3.007466    0.762054
      8          1           0       -0.109822    2.241799    1.813406
      9          1           0       -1.286061   -1.952180   -1.884521
     10          8           0        1.547469    1.065895   -0.800325
     11          6           0        0.730542    2.147599   -0.287771
     12          8           0        0.437523    3.074208   -0.991546
     13          6           0       -1.645159   -0.967451    0.055995
     14          8           0       -1.438634   -0.853463    1.243884
     15          8           0       -2.431542   -0.148829   -0.637034
     16          6           0       -3.040254    0.925745    0.066185
     17          1           0       -3.762721    1.372658   -0.624474
     18          1           0       -2.284043    1.672774    0.346479
     19          1           0       -3.546709    0.564228    0.971451
     20          6           0        2.448789   -1.027352   -0.023418
     21          7           0        3.055955   -2.007249   -0.144087
     22          1           0        0.990744   -0.016109    2.085811
 ---------------------------------------------------------------------
                    Distance matrix (angstroms):
                    1          2          3          4          5
     1  C    0.000000
     2  C    3.737921   0.000000
     3  C    2.199719   4.969234   0.000000
     4  C    3.642640   1.333509   4.467715   0.000000
     5  N    1.322941   4.083842   1.355896   3.921747   0.000000
     6  H    4.334061   1.091512   5.846796   2.120487   4.902675
     7  H    3.685075   1.093527   4.794039   2.109719   3.769725
     8  H    3.224981   5.633583   1.082879   5.091694   2.145368
     9  H    4.186980   2.127951   5.038215   1.092079   4.652868
    10  O    1.318696   4.460391   2.243022   4.031200   2.161680
    11  C    2.254489   5.219612   1.418322   4.558442   2.242639
    12  O    3.374205   6.127658   2.434310   5.304317   3.434385
    13  C    3.535547   2.453241   3.584061   1.485779   3.337356
    14  O    3.480251   2.872450   3.234184   2.397385   2.882188
    15  O    4.220658   3.564789   3.857612   2.324700   4.044554
    16  C    4.806393   4.791345   3.741088   3.655490   4.301751
    17  H    5.652383   5.577319   4.571329   4.339872   5.255726
    18  H    4.269889   5.101824   2.847940   4.056448   3.658515
    19  H    5.330700   4.982252   4.192627   4.007299   4.634269
    20  C    1.412563   3.364444   3.569103   3.725325   2.443437
[...]
    22  H    4.875076   3.441078   2.526677   4.974354   3.132126
                   11         12         13         14         15
    11  C    0.000000
    12  O    1.199905   0.000000
    13  C    3.932118   4.664375   0.000000
    14  O    4.005077   4.890564   1.211085   0.000000
    15  O    3.924035   4.328891   1.329982   2.240552   0.000000
    16  C    3.978675   4.220587   2.351575   2.667602   1.421169
    17  H    4.570716   4.544094   3.228529   3.721147   2.021672
    18  H    3.115304   3.338633   2.730919   2.809395   2.075302
    19  H    4.730654   5.099842   2.608107   2.555673   2.083107
    20  C    3.619731   4.669604   4.095526   4.091147   4.997783
    21  N    4.763493   5.778895   4.819187   4.842277   5.815624
    22  H    3.222304   4.396171   3.463737   2.706084   4.379021
                   16         17         18         19         20
    16  C    0.000000
    17  H    1.094849   0.000000
    18  H    1.099298   1.794285   0.000000
    19  H    1.098504   1.801987   1.792702   0.000000
    20  C    5.826790   6.686118   5.460083   6.282578   0.000000
    21  N    6.768271   7.625621   6.502381   7.173200   1.159059
    22  H    4.608178   5.647322   4.075264   4.710617   2.756180
                   21         22
    21  N    0.000000
    22  H    3.633308   0.000000
 Stoichiometry    C8H8N2O4
 Framework group  C1[X(C8H8N2O4)]
 Deg. of freedom    60
 Full point group                 C1      NOp   1
 Largest Abelian subgroup         C1      NOp   1
 Largest concise Abelian subgroup C1      NOp   1
                         Standard orientation:                         
 ---------------------------------------------------------------------
 Center     Atomic      Atomic             Coordinates (Angstroms)
 Number     Number       Type             X           Y           Z
 ---------------------------------------------------------------------
      1          6           0       -1.705124   -0.157038    0.145168
      2          6           0        0.287762    2.972657   -0.309235
      3          6           0       -0.480992   -1.746610    1.047101
      4          6           0        1.060846    2.012121   -0.817129
      5          7           0       -1.083059   -0.548005    1.245322
      6          1           0       -0.157011    3.743587   -0.941092
      7          1           0        0.078126    3.005444    0.763505
      8          1           0        0.101567   -2.244443    1.812235
      9          1           0        1.294591    1.952785   -1.882247
     10          8           0       -1.548680   -1.060685   -0.802414
     11          6           0       -0.734993   -2.144984   -0.290217
     12          8           0       -0.442699   -3.071044   -0.995021
     13          6           0        1.647418    0.963858    0.057296
     14          8           0        1.438492    0.848484    1.244631
     15          8           0        2.433175    0.144452   -0.635533
     16          6           0        3.037611   -0.932762    0.067311
     17          1           0        3.759205   -1.381539   -0.623049
     18          1           0        2.278536   -1.677374    0.346260
     19          1           0        3.544458   -0.573762    0.973365
     20          6           0       -2.446720    1.033281   -0.023620
     21          7           0       -3.051500    2.014727   -0.143711
     22          1           0       -0.994693    0.015456    2.086398
 ---------------------------------------------------------------------
 Rotational constants (GHZ):           0.7474915           0.6806221           0.4266503

 **********************************************************************

            Population analysis using the SCF Density.

 **********************************************************************

 Orbital symmetries:
       Occupied  (A) (A) (A) (A) (A) (A) (A) (A) (A) (A) (A) (A)
                 (A) (A) (A) (A) (A) (A) (A) (A) (A) (A) (A) (A)
                 (A) (A) (A) (A) (A) (A) (A) (A) (A) (A) (A) (A)
                 (A) (A) (A) (A) (A) (A) (A) (A) (A) (A) (A) (A)
                 (A) (A) (A)
       Virtual   (A) (A) (A) (A) (A) (A) (A) (A) (A) (A) (A) (A)
                 (A) (A) (A) (A) (A) (A) (A) (A) (A) (A) (A) (A)
                 (A) (A) (A) (A) (A) (A) (A) (A) (A) (A) (A) (A)
                 (A) (A) (A) (A) (A) (A) (A) (A) (A) (A) (A) (A)
                 (A) (A) (A) (A) (A) (A) (A) (A) (A) (A) (A) (A)
                 (A) (A) (A) (A) (A) (A) (A) (A) (A) (A) (A) (A)
                 (A) (A) (A) (A) (A) (A) (A) (A) (A) (A) (A) (A)
                 (A) (A) (A) (A) (A) (A) (A) (A) (A) (A) (A) (A)
                 (A) (A) (A) (A) (A) (A) (A) (A) (A) (A) (A) (A)
                 (A) (A) (A) (A) (A) (A) (A) (A) (A) (A) (A) (A)
                 (A) (A) (A) (A) (A) (A) (A) (A) (A) (A) (A) (A)
                 (A) (A) (A) (A) (A) (A) (A) (A) (A) (A) (A) (A)
                 (A) (A) (A) (A) (A) (A) (A) (A) (A) (A) (A) (A)
                 (A) (A) (A) (A) (A) (A) (A) (A) (A) (A) (A) (A)
                 (A) (A) (A) (A) (A) (A) (A) (A) (A) (A) (A) (A)
                 (A) (A) (A) (A) (A)
 The electronic state is 1-A.
 Alpha  occ. eigenvalues --  -19.35281 -19.31461 -19.25651 -19.23518 -14.57722
 Alpha  occ. eigenvalues --  -14.48507 -10.45390 -10.44041 -10.43279 -10.38067
 Alpha  occ. eigenvalues --  -10.35797 -10.35381 -10.32909 -10.32321  -1.26532
 Alpha  occ. eigenvalues --   -1.21603  -1.13450  -1.12024  -1.10132  -1.03295
 Alpha  occ. eigenvalues --   -0.90570  -0.89958  -0.83384  -0.79917  -0.76015
 Alpha  occ. eigenvalues --   -0.73100  -0.71938  -0.65253  -0.63859  -0.62485
 Alpha  occ. eigenvalues --   -0.61523  -0.58675  -0.58127  -0.57957  -0.54423
 Alpha  occ. eigenvalues --   -0.53051  -0.51354  -0.51277  -0.50777  -0.49333
 Alpha  occ. eigenvalues --   -0.48642  -0.47901  -0.47425  -0.46655  -0.44948
 Alpha  occ. eigenvalues --   -0.44758  -0.39935  -0.38004  -0.37651  -0.37541
 Alpha  occ. eigenvalues --   -0.29167
 Alpha virt. eigenvalues --   -0.02089   0.01249   0.05251   0.11607   0.13039
 Alpha virt. eigenvalues --    0.14746   0.15685   0.16561   0.17543   0.17788
 Alpha virt. eigenvalues --    0.18983   0.19802   0.21092   0.21199   0.22329
 Alpha virt. eigenvalues --    0.22781   0.24190   0.26825   0.30464   0.33126
 Alpha virt. eigenvalues --    0.34231   0.36599   0.37229   0.38499   0.40006
 Alpha virt. eigenvalues --    0.41221   0.45371   0.46999   0.48888   0.50709
 Alpha virt. eigenvalues --    0.51560   0.52111   0.52578   0.54263   0.55361
 Alpha virt. eigenvalues --    0.56181   0.57115   0.59833   0.61146   0.62733
 Alpha virt. eigenvalues --    0.64570   0.65354   0.67407   0.68867   0.69841
 Alpha virt. eigenvalues --    0.70408   0.71045   0.72416   0.72894   0.73307
 Alpha virt. eigenvalues --    0.73720   0.74704   0.74908   0.75913   0.77610
 Alpha virt. eigenvalues --    0.78087   0.79385   0.80698   0.82865   0.83450
 Alpha virt. eigenvalues --    0.84523   0.85957   0.88595   0.89986   0.91753
 Alpha virt. eigenvalues --    0.94104   0.95465   0.96971   1.01476   1.05011
 Alpha virt. eigenvalues --    1.05905   1.08036   1.10102   1.11237   1.12064
 Alpha virt. eigenvalues --    1.14146   1.15404   1.16576   1.18316   1.23308
 Alpha virt. eigenvalues --    1.23758   1.26849   1.27465   1.28887   1.30134
 Alpha virt. eigenvalues --    1.31594   1.33937   1.34668   1.35910   1.37070
 Alpha virt. eigenvalues --    1.42137   1.43149   1.50027   1.51592   1.52760
 Alpha virt. eigenvalues --    1.56864   1.60585   1.61731   1.65186   1.65508
 Alpha virt. eigenvalues --    1.66136   1.66957   1.69183   1.70960   1.72154
 Alpha virt. eigenvalues --    1.72867   1.74506   1.76592   1.78726   1.80203
 Alpha virt. eigenvalues --    1.80825   1.83207   1.83805   1.86371   1.87277
 Alpha virt. eigenvalues --    1.88420   1.89823   1.91942   1.94931   1.96910
 Alpha virt. eigenvalues --    1.97910   2.00291   2.02019   2.03284   2.04351
 Alpha virt. eigenvalues --    2.06864   2.08601   2.10204   2.13723   2.13896
 Alpha virt. eigenvalues --    2.14428   2.22216   2.25043   2.26721   2.28570
 Alpha virt. eigenvalues --    2.31309   2.31589   2.32101   2.33220   2.39220
 Alpha virt. eigenvalues --    2.40349   2.42543   2.45118   2.46254   2.52281
 Alpha virt. eigenvalues --    2.53035   2.56795   2.62028   2.64098   2.69697
 Alpha virt. eigenvalues --    2.71700   2.72946   2.75019   2.76915   2.78883
 Alpha virt. eigenvalues --    2.79323   2.83903   2.85636   2.86480   2.89520
 Alpha virt. eigenvalues --    2.93508   2.95880   2.97518   2.98670   3.01107
 Alpha virt. eigenvalues --    3.03057   3.04696   3.06006   3.11378   3.14229
 Alpha virt. eigenvalues --    3.14473   3.19907   3.27348   3.29579   3.30598
 Alpha virt. eigenvalues --    3.37272   3.37867   3.44827   3.48435   3.52504
 Alpha virt. eigenvalues --    3.71574   3.74741   3.74897   3.76626   3.82006
          Condensed to atoms (all electrons):
               1          2          3          4          5          6
     1  C    5.226929   0.001140  -0.103555   0.002159   0.546190   0.000258
     2  C    0.001140   4.676074  -0.000333   0.597963   0.000012   0.390328
     3  C   -0.103555  -0.000333   5.363806   0.000114   0.343094   0.000003
     4  C    0.002159   0.597963   0.000114   5.099813  -0.001102  -0.014944
     5  N    0.546190   0.000012   0.343094  -0.001102   5.990327  -0.000001
     6  H    0.000258   0.390328   0.000003  -0.014944  -0.000001   0.577823
     7  H    0.000265   0.394367  -0.000095  -0.025891   0.000176  -0.034860
     8  H    0.005154  -0.000001   0.417972   0.000014  -0.026406   0.000000
     9  H    0.000093  -0.029261  -0.000014   0.392141   0.000013  -0.010189
    10  O    0.452251  -0.000217  -0.131697   0.000014  -0.078828   0.000001
    11  C   -0.084504   0.000115   0.321889  -0.000169  -0.019982  -0.000001
    12  O    0.002432   0.000000  -0.081616   0.000007   0.001644  -0.000000
    13  C    0.000162  -0.034653   0.002422   0.282297  -0.000737   0.008146
    14  O    0.002965   0.010582   0.006996  -0.109048  -0.005843   0.000252
    15  O   -0.000274   0.006030  -0.001800  -0.105998   0.000098  -0.000079
    16  C   -0.000054  -0.000422   0.002964   0.010135  -0.000256   0.000004
    17  H   -0.000005  -0.000005   0.000130   0.000023  -0.000002  -0.000000
    18  H    0.000489   0.000045  -0.004006  -0.000124  -0.000040  -0.000000
    19  H   -0.000023   0.000047  -0.000258   0.000903   0.000031  -0.000000
    20  C    0.019499   0.002399   0.011639   0.000418  -0.122989   0.000046
    21  N   -0.103151  -0.002168   0.000152  -0.000580  -0.004132   0.000539
    22  H   -0.001448   0.000132  -0.016618  -0.000444   0.370508  -0.000000
               7          8          9         10         11         12
     1  C    0.000265   0.005154   0.000093   0.452251  -0.084504   0.002432
     2  C    0.394367  -0.000001  -0.029261  -0.000217   0.000115   0.000000
     3  C   -0.000095   0.417972  -0.000014  -0.131697   0.321889  -0.081616
     4  C   -0.025891   0.000014   0.392141   0.000014  -0.000169   0.000007
     5  N    0.000176  -0.026406   0.000013  -0.078828  -0.019982   0.001644
     6  H   -0.034860   0.000000  -0.010189   0.000001  -0.000001  -0.000000
     7  H    0.592266  -0.000003   0.006607  -0.000002   0.000020   0.000000
     8  H   -0.000003   0.549158  -0.000000   0.003336  -0.027211   0.000746
     9  H    0.006607  -0.000000   0.594961   0.000034   0.000030  -0.000001
    10  O   -0.000002   0.003336   0.000034   7.895932   0.264129  -0.062821
    11  C    0.000020  -0.027211   0.000030   0.264129   4.521346   0.765843
    12  O    0.000000   0.000746  -0.000001  -0.062821   0.765843   7.624757
    13  C   -0.016423  -0.000098  -0.029648   0.000518  -0.000646  -0.000070
    14  O    0.012759   0.000636   0.003007   0.000028  -0.002301   0.000000
    15  O    0.000601  -0.000092   0.007178  -0.000057   0.002182  -0.000010
    16  C   -0.000040  -0.000314  -0.000296  -0.000018  -0.002160  -0.000469
    17  H   -0.000001   0.000002  -0.000138   0.000001   0.000015  -0.000014
    18  H    0.000001   0.001763   0.000057   0.000068  -0.000874   0.002855
    19  H   -0.000014  -0.000004   0.000018  -0.000001   0.000213   0.000003
    20  C    0.000981  -0.000428  -0.000069  -0.089354  -0.003435  -0.000284
    21  N   -0.000066  -0.000001  -0.000010  -0.002567  -0.000094  -0.000000
    22  H    0.000411  -0.004430  -0.000004   0.002345   0.007315  -0.000042
              13         14         15         16         17         18
     1  C    0.000162   0.002965  -0.000274  -0.000054  -0.000005   0.000489
     2  C   -0.034653   0.010582   0.006030  -0.000422  -0.000005   0.000045
     3  C    0.002422   0.006996  -0.001800   0.002964   0.000130  -0.004006
     4  C    0.282297  -0.109048  -0.105998   0.010135   0.000023  -0.000124
     5  N   -0.000737  -0.005843   0.000098  -0.000256  -0.000002  -0.000040
     6  H    0.008146   0.000252  -0.000079   0.000004  -0.000000  -0.000000
     7  H   -0.016423   0.012759   0.000601  -0.000040  -0.000001   0.000001
     8  H   -0.000098   0.000636  -0.000092  -0.000314   0.000002   0.001763
     9  H   -0.029648   0.003007   0.007178  -0.000296  -0.000138   0.000057
    10  O    0.000518   0.000028  -0.000057  -0.000018   0.000001   0.000068
    11  C   -0.000646  -0.002301   0.002182  -0.002160   0.000015  -0.000874
    12  O   -0.000070   0.000000  -0.000010  -0.000469  -0.000014   0.002855
    13  C    4.519115   0.678409   0.379176  -0.030320   0.004581  -0.006258
    14  O    0.678409   7.760377  -0.084285   0.004913   0.000664   0.000858
    15  O    0.379176  -0.084285   7.933959   0.256055  -0.021427  -0.024837
    16  C   -0.030320   0.004913   0.256055   4.427871   0.402139   0.406582
    17  H    0.004581   0.000664  -0.021427   0.402139   0.590160  -0.021872
    18  H   -0.006258   0.000858  -0.024837   0.406582  -0.021872   0.611422
    19  H   -0.005020   0.009751  -0.025897   0.400916  -0.021441  -0.027500
    20  C   -0.001615  -0.001227   0.000034  -0.000004   0.000000  -0.000011
    21  N   -0.000015  -0.000003   0.000000  -0.000000   0.000000  -0.000000
    22  H    0.000353   0.006487   0.000053  -0.000002  -0.000000  -0.000008
              19         20         21         22
     1  C   -0.000023   0.019499  -0.103151  -0.001448
     2  C    0.000047   0.002399  -0.002168   0.000132
     3  C   -0.000258   0.011639   0.000152  -0.016618
     4  C    0.000903   0.000418  -0.000580  -0.000444
     5  N    0.000031  -0.122989  -0.004132   0.370508
     6  H   -0.000000   0.000046   0.000539  -0.000000
     7  H   -0.000014   0.000981  -0.000066   0.000411
     8  H   -0.000004  -0.000428  -0.000001  -0.004430
     9  H    0.000018  -0.000069  -0.000010  -0.000004
    10  O   -0.000001  -0.089354  -0.002567   0.002345
    11  C    0.000213  -0.003435  -0.000094   0.007315
    12  O    0.000003  -0.000284  -0.000000  -0.000042
    13  C   -0.005020  -0.001615  -0.000015   0.000353
    14  O    0.009751  -0.001227  -0.000003   0.006487
    15  O   -0.025897   0.000034   0.000000   0.000053
    16  C    0.400916  -0.000004  -0.000000  -0.000002
    17  H   -0.021441   0.000000   0.000000  -0.000000
    18  H   -0.027500  -0.000011  -0.000000  -0.000008
    19  H    0.611671   0.000002   0.000000  -0.000018
    20  C    0.000002   5.406009   0.859752  -0.025588
    21  N    0.000000   0.859752   6.158660  -0.000413
    22  H   -0.000018  -0.025588  -0.000413   0.461172
 Mulliken charges:
               1
     1  C    0.033029
     2  C   -0.012176
     3  C   -0.131189
     4  C   -0.127702
     5  N    0.008224
     6  H    0.082673
     7  H    0.068943
     8  H    0.080209
     9  H    0.065491
    10  O   -0.253095
    11  C    0.258283
    12  O   -0.252961
    13  C    0.250321
    14  O   -0.295978
    15  O   -0.320611
    16  C    0.122777
    17  H    0.067189
    18  H    0.061391
    19  H    0.056619
    20  C   -0.055775
    21  N    0.094099
    22  H    0.200239
 Sum of Mulliken charges =  -0.00000
 Mulliken charges with hydrogens summed into heavy atoms:
               1
     1  C    0.033029
     2  C    0.139441
     3  C   -0.050980
     4  C   -0.062212
     5  N    0.208463
    10  O   -0.253095
    11  C    0.258283
    12  O   -0.252961
    13  C    0.250321
    14  O   -0.295978
    15  O   -0.320611
    16  C    0.307976
    20  C   -0.055775
    21  N    0.094099
 Electronic spatial extent (au):  <R**2>=           2661.8939
 Charge=             -0.0000 electrons
 Dipole moment (field-independent basis, Debye):
    X=              2.1152    Y=              1.7745    Z=              4.0374  Tot=              4.8912
 Quadrupole moment (field-independent basis, Debye-Ang):
   XX=            -81.4602   YY=            -91.0476   ZZ=            -76.3306
   XY=              0.3486   XZ=             -6.0902   YZ=            -10.1451
 Traceless Quadrupole moment (field-independent basis, Debye-Ang):
   XX=              1.4859   YY=             -8.1015   ZZ=              6.6155
   XY=              0.3486   XZ=             -6.0902   YZ=            -10.1451
 Octapole moment (field-independent basis, Debye-Ang**2):
  XXX=             63.4114  YYY=             40.0347  ZZZ=             13.5170  XYY=             30.7217
  XXY=            -42.3137  XXZ=              6.5964  XZZ=             -4.0142  YZZ=              2.7327
  YYZ=             18.3068  XYZ=             -2.6093
 Hexadecapole moment (field-independent basis, Debye-Ang**3):
 XXXX=          -1614.8264 YYYY=          -1592.5665 ZZZZ=           -312.6790 XXXY=             55.3012
 XXXZ=              1.2304 YYYX=             13.8303 YYYZ=            -68.6300 ZZZX=            -20.4375
 ZZZY=             -9.2699 XXYY=           -573.1749 XXZZ=           -327.5892 YYZZ=           -306.5200
 XXYZ=             10.3223 YYXZ=             -9.2924 ZZXY=             -9.8088
 N-N= 8.789166679829D+02 E-N=-3.436785459010D+03  KE= 7.128901530558D+02
 Unable to Open any file for archive entry.
 1\1\GINC-NODE-007\FTS\RwB97XD\def2SVP\C8H8N2O4\JP2658\26-Dec-2023\0\\#
  wb97xd def2svp geom=allchk scrf=(iefpcm,solvent=toluene) opt=(readfc,
 ts,noeigen,maxcycles=50,maxstep=10)\\cyclic-1_1_opt_hf_re4.out\\0,1\C,
 1.7043169523,0.1610931159,0.1468405493\C,-0.2807982937,-2.9728839732,-
 0.3120390196\C,0.4757021227,1.7469434662,1.0492297472\C,-1.0557381798,
 -2.0137129142,-0.8196829348\N,1.0804396095,0.5495826645,1.2468447777\H
 ,0.1663067601,-3.7421824052,-0.9442386471\H,-0.0719543833,-3.006157246
 ,0.76084056\H,-0.1086515073,2.2426984697,1.8143444015\H,-1.2887599376,
 -1.9539542941,-1.8849359386\O,1.5465061063,1.0652348016,-0.8000432317\
 C,0.7298447794,2.1471396606,-0.2875171583\O,0.4359340992,3.0731504958,
 -0.9917128766\C,-1.6454939373,-0.9676391025,0.0552213567\O,-1.43780276
 03,-0.8528577131,1.2428307715\O,-2.4326236172,-0.1494573051,-0.6374968
 798\C,-3.0401726411,0.925681734,0.0658389642\H,-3.7622661044,1.3733840
 119,-0.6246960013\H,-2.2830855077,1.671829511,0.3460847841\H,-3.546904
 0017,0.564656446,0.971153465\C,2.4488611489,-1.0273151862,-0.022432349
 2\N,3.056055669,-2.0072195267,-0.1429282331\H,0.9927236241,-0.01485471
 07,2.0873338929\\Version=ES64L-G16RevC.01\State=1-A\HF=-719.2318757\RM
 SD=8.111e-09\RMSF=3.693e-06\Dipole=-0.8318256,-0.7015627,1.5871239\Qua
 drupole=1.0961874,-6.0358051,4.9396178,0.2657534,4.5072257,7.5434897\P
 G=C01 [X(C8H8N2O4)]\\@
 The archive entry for this job was punched.


 NOT WHAT WE DID SHALL BE THE TEST
 WHEN ACT AND WILL ARE DONE,
 BUT WHAT OUR LORD INFERS WE WOULD-
 HAD WE DIVINER BEEN.
           EMILY DICKINSON  POEMS NO. CLXXV
 Job cpu time:       0 days  0 hours 24 minutes 33.7 seconds.
 Elapsed time:       0 days  0 hours  2 minutes  5.7 seconds.
 File lengths (MBytes):  RWF=    111 Int=      0 D2E=      0 Chk=     12 Scr=      1
 Normal termination of Gaussian 16 at Tue Dec 26 20:24:06 2023.
