Unloading slurm/anatra/current
  ERROR: No such file or directory on
    '/cm/local/modulefiles/slurm/anatra/current'
environment: line 0: unalias: gv: not found
environment: line 0: unalias: sl: not found
 Entering Gaussian System, Link 0=g16
 Initial command:
 /apps/gaussian/g16/C.01/g16/l1.exe "/local/jobs/1152815/Gau-843311.inp" -scrdir="/local/jobs/1152815/"
 Entering Link 1 = /apps/gaussian/g16/C.01/g16/l1.exe PID=    843312.
  
 Copyright (c) 1988-2019, Gaussian, Inc.  All Rights Reserved.
  
 This is part of the Gaussian(R) 16 program.  It is based on
 the Gaussian(R) 09 system (copyright 2009, Gaussian, Inc.),
 the Gaussian(R) 03 system (copyright 2003, Gaussian, Inc.),
 the Gaussian(R) 98 system (copyright 1998, Gaussian, Inc.),
 the Gaussian(R) 94 system (copyright 1995, Gaussian, Inc.),
 the Gaussian 92(TM) system (copyright 1992, Gaussian, Inc.),
 the Gaussian 90(TM) system (copyright 1990, Gaussian, Inc.),
 the Gaussian 88(TM) system (copyright 1988, Gaussian, Inc.),
 the Gaussian 86(TM) system (copyright 1986, Carnegie Mellon
 University), and the Gaussian 82(TM) system (copyright 1983,
 Carnegie Mellon University). Gaussian is a federally registered
 trademark of Gaussian, Inc.
  
 This software contains proprietary and confidential information,
 including trade secrets, belonging to Gaussian, Inc.
  
 This software is provided under written license and may be
 used, copied, transmitted, or stored only in accord with that
 written license.
  
 The following legend is applicable only to US Government
 contracts under FAR:
  
                    RESTRICTED RIGHTS LEGEND
  
 Use, reproduction and disclosure by the US Government is
 subject to restrictions as set forth in subparagraphs (a)
 and (c) of the Commercial Computer Software - Restricted
 Rights clause in FAR 52.227-19.
  
 Gaussian, Inc.
 340 Quinnipiac St., Bldg. 40, Wallingford CT 06492
  
  
 ---------------------------------------------------------------
 Warning -- This program may not be used in any manner that
 competes with the business of Gaussian, Inc. or will provide
 assistance to any competitor of Gaussian, Inc.  The licensee
 of this program is prohibited from giving any competitor of
 Gaussian, Inc. access to this program.  By using this program,
 the user acknowledges that Gaussian, Inc. is engaged in the
 business of creating and licensing software in the field of
 computational chemistry and represents and warrants to the
 licensee that it is not a competitor of Gaussian, Inc. and that
 it will not use this program in any manner prohibited above.
 ---------------------------------------------------------------
  

 Cite this work as:
 Gaussian 16, Revision C.01,
 M. J. Frisch, G. W. Trucks, H. B. Schlegel, G. E. Scuseria, 
 M. A. Robb, J. R. Cheeseman, G. Scalmani, V. Barone, 
 G. A. Petersson, H. Nakatsuji, X. Li, M. Caricato, A. V. Marenich, 
 J. Bloino, B. G. Janesko, R. Gomperts, B. Mennucci, H. P. Hratchian, 
 J. V. Ortiz, A. F. Izmaylov, J. L. Sonnenberg, D. Williams-Young, 
 F. Ding, F. Lipparini, F. Egidi, J. Goings, B. Peng, A. Petrone, 
 T. Henderson, D. Ranasinghe, V. G. Zakrzewski, J. Gao, N. Rega, 
 G. Zheng, W. Liang, M. Hada, M. Ehara, K. Toyota, R. Fukuda, 
 J. Hasegawa, M. Ishida, T. Nakajima, Y. Honda, O. Kitao, H. Nakai, 
 T. Vreven, K. Throssell, J. A. Montgomery, Jr., J. E. Peralta, 
 F. Ogliaro, M. J. Bearpark, J. J. Heyd, E. N. Brothers, K. N. Kudin, 
 V. N. Staroverov, T. A. Keith, R. Kobayashi, J. Normand, 
 K. Raghavachari, A. P. Rendell, J. C. Burant, S. S. Iyengar, 
 J. Tomasi, M. Cossi, J. M. Millam, M. Klene, C. Adamo, R. Cammi, 
 J. W. Ochterski, R. L. Martin, K. Morokuma, O. Farkas, 
 J. B. Foresman, and D. J. Fox, Gaussian, Inc., Wallingford CT, 2019.
 
 ******************************************
 Gaussian 16:  ES64L-G16RevC.01  3-Jul-2019
                23-Dec-2023 
 ******************************************
 %chk=da-1_1_opt_hf_re.chk
 %nprocshared=12
 Will use up to   12 processors via shared memory.
 %mem=48GB
 ----------------------------------------------------------------------
 # wb97xd def2svp geom=allchk scrf=(iefpcm,solvent=toluene) opt=(readfc
 ,ts,noeigen,maxcycles=50,maxstep=10)
 ----------------------------------------------------------------------
 1/5=1,6=50,8=10,10=3,11=1,18=20,26=3,29=7,38=1/1,3;
 2/9=110,12=2,40=1/2;
 3/5=43,7=101,11=2,14=-4,25=1,30=1,70=2201,71=1,72=13,74=-58/1,2,3;
 4//1;
 5/5=2,38=5,53=13/2;
 6/7=2,8=2,9=2,10=2,28=1/1;
 7//1,2,3,16;
 1/5=1,6=50,8=10,11=1,18=20,26=3/3(2);
 2/9=110/2;
 99//99;
 2/9=110/2;
 3/5=43,7=101,11=2,14=-2,25=1,30=1,70=2205,71=1,72=13,74=-58/1,2,3;
 4/5=5,16=3,69=1/1;
 5/5=2,38=5,53=13/2;
 7//1,2,3,16;
 1/5=1,6=50,8=10,11=1,18=20,26=3/3(-5);
 2/9=110/2;
 6/7=2,8=2,9=2,10=2,19=2,28=1/1;
 99/9=1/99;
 Structure from the checkpoint file:  "da-1_1_opt_hf_re.chk"
 -----------------
 da-1_1_opt_hf.out
 -----------------
 Charge =  0 Multiplicity = 1
 Redundant internal coordinates found in file.  (old form).
 O,0,-2.39764,1.10403,0.33561
 C,0,0.81765,1.57087,0.023
 C,0,-1.26383,-1.51817,0.57621
 C,0,1.60537,0.5817,0.45567
 C,0,-2.6614,0.22497,-0.45177
 C,0,-2.09249,-1.14355,-0.40325
 H,0,-3.37533,0.4143,-1.289
 H,0,-0.99546,-0.81226,1.36696
 H,0,-2.38152,-1.83229,-1.20243
 H,0,0.00549,1.97585,0.62953
 H,0,0.95011,1.99447,-0.97868
 H,0,1.49572,0.13991,1.45121
 C,0,2.66664,0.02134,-0.40162
 O,0,3.3908,-0.89019,-0.08288
 H,0,-0.83476,-2.52175,0.61765
 H,0,2.75886,0.50813,-1.40646
 Recover connectivity data from disk.

 GradGradGradGradGradGradGradGradGradGradGradGradGradGradGradGradGradGrad
 Berny optimization.
 Initialization pass.
 Force constant matrix read from checkpoint file:
 "da-1_1_opt_hf_re.chk"
                           ----------------------------
                           !    Initial Parameters    !
                           ! (Angstroms and Degrees)  !
 --------------------------                            --------------------------
 ! Name  Definition              Value          Derivative Info.                !
 --------------------------------------------------------------------------------
 ! R1    R(1,5)                  1.2092         D2E/DX2 =    0.863              !
 ! R2    R(1,10)                 2.5732         D2E/DX2 =    0.0067             !
 ! R3    R(2,4)                  1.3365         D2E/DX2 =    0.6362             !
 ! R4    R(2,10)                 1.0916         D2E/DX2 =    0.3529             !
 ! R5    R(2,11)                 1.0956         D2E/DX2 =    0.3598             !
 ! R6    R(3,6)                  1.3365         D2E/DX2 =    0.6236             !
 ! R7    R(3,8)                  1.0934         D2E/DX2 =    0.3488             !
 ! R8    R(3,15)                 1.0922         D2E/DX2 =    0.3681             !
 ! R9    R(4,12)                 1.0947         D2E/DX2 =    0.3484             !
 ! R10   R(4,13)                 1.4749         D2E/DX2 =    0.3518             !
 ! R11   R(5,6)                  1.4829         D2E/DX2 =    0.3267             !
 ! R12   R(5,7)                  1.1165         D2E/DX2 =    0.3135             !
 ! R13   R(6,9)                  1.0939         D2E/DX2 =    0.3613             !
 ! R14   R(8,12)                 2.6683         D2E/DX2 =    0.0061             !
 ! R15   R(13,14)                1.207          D2E/DX2 =    0.9345             !
 ! R16   R(13,16)                1.1203         D2E/DX2 =    0.3054             !
 ! A1    A(5,1,10)             121.6257         D2E/DX2 =    0.0283             !
 ! A2    A(4,2,10)             122.2252         D2E/DX2 =    0.0663             !
 ! A3    A(4,2,11)             120.7231         D2E/DX2 =    0.0882             !
 ! A4    A(10,2,11)            117.0348         D2E/DX2 =    0.0762             !
 ! A5    A(6,3,8)              120.0783         D2E/DX2 =    0.0643             !
 ! A6    A(6,3,15)             121.9311         D2E/DX2 =    0.0837             !
 ! A7    A(8,3,15)             117.9906         D2E/DX2 =    0.0745             !
 ! A8    A(2,4,12)             122.2822         D2E/DX2 =    0.0715             !
 ! A9    A(2,4,13)             121.1407         D2E/DX2 =    0.1168             !
 ! A10   A(12,4,13)            116.5749         D2E/DX2 =    0.0907             !
 ! A11   A(1,5,6)              124.4653         D2E/DX2 =    0.0945             !
 ! A12   A(1,5,7)              120.2969         D2E/DX2 =    0.1166             !
 ! A13   A(6,5,7)              115.2377         D2E/DX2 =    0.1038             !
 ! A14   A(3,6,5)              121.3675         D2E/DX2 =    0.0886             !
 ! A15   A(3,6,9)              121.5159         D2E/DX2 =    0.0917             !
 ! A16   A(5,6,9)              117.1166         D2E/DX2 =    0.0928             !
 ! A17   A(3,8,12)             118.8394         D2E/DX2 =    0.0095             !
 ! A18   A(1,10,2)             120.377          D2E/DX2 =    0.0109             !
 ! A19   A(4,12,8)             102.0533         D2E/DX2 =    0.0151             !
 ! A20   A(4,13,14)            124.4121         D2E/DX2 =    0.159              !
 ! A21   A(4,13,16)            114.5498         D2E/DX2 =    0.1158             !
 ! A22   A(14,13,16)           121.0371         D2E/DX2 =    0.1361             !
 ! D1    D(10,1,5,6)            60.4623         D2E/DX2 =    0.0176             !
 ! D2    D(10,1,5,7)          -119.3948         D2E/DX2 =    0.0167             !
 ! D3    D(5,1,10,2)             1.3608         D2E/DX2 =    0.0132             !
 ! D4    D(10,2,4,12)           -1.549          D2E/DX2 =    0.0152             !
 ! D5    D(10,2,4,13)          177.8963         D2E/DX2 =    0.0166             !
 ! D6    D(11,2,4,12)          179.9915         D2E/DX2 =    0.0178             !
 ! D7    D(11,2,4,13)           -0.5632         D2E/DX2 =    0.0168             !
 ! D8    D(4,2,10,1)           -95.2674         D2E/DX2 =    0.0149             !
 ! D9    D(11,2,10,1)           83.2458         D2E/DX2 =    0.0154             !
 ! D10   D(8,3,6,5)              0.3004         D2E/DX2 =    0.0151             !
 ! D11   D(8,3,6,9)           -179.6168         D2E/DX2 =    0.0157             !
 ! D12   D(15,3,6,5)          -179.6238         D2E/DX2 =    0.019              !
 ! D13   D(15,3,6,9)             0.459          D2E/DX2 =    0.0166             !
 ! D14   D(6,3,8,12)          -110.0774         D2E/DX2 =    0.014              !
 ! D15   D(15,3,8,12)           69.8497         D2E/DX2 =    0.0123             !
 ! D16   D(2,4,12,8)            60.4373         D2E/DX2 =    0.0129             !
 ! D17   D(13,4,12,8)         -119.0319         D2E/DX2 =    0.0125             !
 ! D18   D(2,4,13,14)         -178.2761         D2E/DX2 =    0.0245             !
 ! D19   D(2,4,13,16)            1.3833         D2E/DX2 =    0.0267             !
 ! D20   D(12,4,13,14)           1.1996         D2E/DX2 =    0.0277             !
 ! D21   D(12,4,13,16)        -179.1411         D2E/DX2 =    0.026              !
 ! D22   D(1,5,6,3)              2.6544         D2E/DX2 =    0.0142             !
 ! D23   D(1,5,6,9)           -177.4249         D2E/DX2 =    0.0136             !
 ! D24   D(7,5,6,3)           -177.4821         D2E/DX2 =    0.0131             !
 ! D25   D(7,5,6,9)              2.4386         D2E/DX2 =    0.0155             !
 ! D26   D(3,8,12,4)            56.4634         D2E/DX2 =    0.0134             !
 --------------------------------------------------------------------------------
 Trust Radius=1.00D-01 FncErr=1.00D-07 GrdErr=1.00D-06 EigMax=2.50D+02 EigMin=1.00D-04
 Number of steps in this run=     50 maximum allowed number of steps=    100.
 Search for a saddle point of order  1.
 GradGradGradGradGradGradGradGradGradGradGradGradGradGradGradGradGradGrad

                          Input orientation:                          
 ---------------------------------------------------------------------
 Center     Atomic      Atomic             Coordinates (Angstroms)
 Number     Number       Type             X           Y           Z
 ---------------------------------------------------------------------
      1          8           0       -2.397640    1.104030    0.335610
      2          6           0        0.817650    1.570870    0.023000
      3          6           0       -1.263830   -1.518170    0.576210
      4          6           0        1.605370    0.581700    0.455670
      5          6           0       -2.661400    0.224970   -0.451770
      6          6           0       -2.092490   -1.143550   -0.403250
      7          1           0       -3.375330    0.414300   -1.289000
      8          1           0       -0.995460   -0.812260    1.366960
      9          1           0       -2.381520   -1.832290   -1.202430
     10          1           0        0.005490    1.975850    0.629530
     11          1           0        0.950110    1.994470   -0.978680
     12          1           0        1.495720    0.139910    1.451210
     13          6           0        2.666640    0.021340   -0.401620
     14          8           0        3.390800   -0.890190   -0.082880
     15          1           0       -0.834760   -2.521750    0.617650
     16          1           0        2.758860    0.508130   -1.406460
 ---------------------------------------------------------------------
                    Distance matrix (angstroms):
                    1          2          3          4          5
     1  O    0.000000
     2  C    3.264009   0.000000
     3  C    2.866940   3.765736   0.000000
     4  C    4.038729   1.336474   3.557568   0.000000
     5  C    1.209249   3.760405   2.459366   4.376760   0.000000
     6  C    2.385508   4.002334   1.336548   4.169940   1.482855
     7  H    2.017663   4.543135   3.416413   5.280082   1.116466
     8  H    2.588814   3.282210   1.093443   3.088348   2.675627
     9  H    3.314785   4.828858   2.124020   4.946912   2.207746
    10  H    2.573226   1.091555   3.717821   2.129201   3.368545
    11  H    3.705087   1.095603   4.433718   2.117226   4.056078
    12  H    4.163213   2.132419   3.336161   1.094670   4.572769
    13  C    5.230933   2.449512   4.332994   1.474871   5.332166
    14  O    6.136618   3.562180   4.742820   2.375764   6.165127
    15  H    3.958336   4.453494   1.092241   3.951186   3.467671
    16  H    5.475344   2.634591   4.921271   2.191684   5.510974
                    6          7          8          9         10
     6  C    0.000000
     7  H    2.203889   0.000000
     8  H    2.108761   3.771254   0.000000
     9  H    1.093887   2.458113   3.092473   0.000000
    10  H    3.898565   4.189169   3.052747   4.853434   0.000000
    11  H    4.408594   4.615481   4.143067   5.078771   1.865206
    12  H    4.238106   5.595638   2.668277   5.095524   2.503322
    13  C    4.899621   6.119417   4.151354   5.437018   3.459060
    14  O    5.498481   6.995494   4.620323   5.954882   4.492442
    15  H    2.126865   4.325529   1.873405   2.486064   4.575431
    16  H    5.222076   6.136032   4.850794   5.651787   3.725655
                   11         12         13         14         15
    11  H    0.000000
    12  H    3.105068   0.000000
    13  C    2.678193   2.195015   0.000000
    14  O    3.883386   2.646860   1.207017   0.000000
    15  H    5.111778   3.634610   4.445899   4.583458   0.000000
    16  H    2.379870   3.146011   1.120345   2.026453   5.117744
                   16
    16  H    0.000000
 Stoichiometry    C6H8O2
 Framework group  C1[X(C6H8O2)]
 Deg. of freedom    42
 Full point group                 C1      NOp   1
 Largest Abelian subgroup         C1      NOp   1
 Largest concise Abelian subgroup C1      NOp   1
                         Standard orientation:                         
 ---------------------------------------------------------------------
 Center     Atomic      Atomic             Coordinates (Angstroms)
 Number     Number       Type             X           Y           Z
 ---------------------------------------------------------------------
      1          8           0       -2.397642   -1.104026   -0.335609
      2          6           0        0.817647   -1.570870   -0.022999
      3          6           0       -1.263829    1.518172   -0.576209
      4          6           0        1.605369   -0.581701   -0.455669
      5          6           0       -2.661401   -0.224966    0.451771
      6          6           0       -2.092489    1.143553    0.403251
      7          1           0       -3.375331   -0.414295    1.289001
      8          1           0       -0.995459    0.812262   -1.366959
      9          1           0       -2.381518    1.832294    1.202431
     10          1           0        0.005487   -1.975849   -0.629529
     11          1           0        0.950107   -1.994471    0.978681
     12          1           0        1.495719   -0.139911   -1.451209
     13          6           0        2.666639   -0.021343    0.401621
     14          8           0        3.390801    0.890186    0.082881
     15          1           0       -0.834757    2.521752   -0.617649
     16          1           0        2.758859   -0.508133    1.406461
 ---------------------------------------------------------------------
 Rotational constants (GHZ):           3.2803563           0.8254167           0.7065853
 Standard basis: def2SVP (5D, 7F)
 There are   160 symmetry adapted cartesian basis functions of A   symmetry.
 There are   152 symmetry adapted basis functions of A   symmetry.
   152 basis functions,   256 primitive gaussians,   160 cartesian basis functions
    30 alpha electrons       30 beta electrons
       nuclear repulsion energy       314.4529061632 Hartrees.
 NAtoms=   16 NActive=   16 NUniq=   16 SFac= 1.00D+00 NAtFMM=   60 NAOKFM=F Big=F
 Integral buffers will be    131072 words long.
 Raffenetti 2 integral format.
 Two-electron integral symmetry is turned on.
 Nuclear repulsion after empirical dispersion term =      314.4463528604 Hartrees.
 ------------------------------------------------------------------------------
 Polarizable Continuum Model (PCM)
 =================================
 Model                : PCM.
 Atomic radii         : UFF (Universal Force Field).
 Polarization charges : Total charges.
 Charge compensation  : None.
 Solution method      : On-the-fly selection.
 Cavity type          : Scaled VdW (van der Waals Surface) (Alpha=1.100).
 Cavity algorithm     : GePol (No added spheres)
                        Default sphere list used, NSphG=   16.
                        Lebedev-Laikov grids with approx.  5.0 points / Ang**2.
                        Smoothing algorithm: York/Karplus (Gamma=1.0000).
                        Polarization charges: spherical gaussians, with
                                              point-specific exponents (IZeta= 3).
                        Self-potential: point-specific (ISelfS= 7).
                        Self-field    : sphere-specific E.n sum rule (ISelfD= 2).
 1st derivatives      : Analytical E(r).r(x)/FMM algorithm (CHGder, D1EAlg=3).
                        Cavity 1st derivative terms included.
 Solvent              : Toluene, Eps=   2.374100 Eps(inf)=   2.238315
 ------------------------------------------------------------------------------
 Spheres list:
 ISph  on   Nord     Re0    Alpha      Xe            Ye            Ze
    1   O      1    1.7500  1.100     -2.397642     -1.104026     -0.335609
    2   C      2    1.9255  1.100      0.817647     -1.570870     -0.022999
    3   C      3    1.9255  1.100     -1.263829      1.518172     -0.576209
    4   C      4    1.9255  1.100      1.605369     -0.581701     -0.455669
    5   C      5    1.9255  1.100     -2.661401     -0.224966      0.451771
    6   C      6    1.9255  1.100     -2.092489      1.143553      0.403251
    7   H      7    1.4430  1.100     -3.375331     -0.414295      1.289001
    8   H      8    1.4430  1.100     -0.995459      0.812262     -1.366959
    9   H      9    1.4430  1.100     -2.381518      1.832294      1.202431
   10   H     10    1.4430  1.100      0.005487     -1.975849     -0.629529
   11   H     11    1.4430  1.100      0.950107     -1.994471      0.978681
   12   H     12    1.4430  1.100      1.495719     -0.139911     -1.451209
   13   C     13    1.9255  1.100      2.666639     -0.021343      0.401621
   14   O     14    1.7500  1.100      3.390801      0.890186      0.082881
   15   H     15    1.4430  1.100     -0.834757      2.521752     -0.617649
   16   H     16    1.4430  1.100      2.758859     -0.508133      1.406461
 ------------------------------------------------------------------------------
 One-electron integrals computed using PRISM.
   1 Symmetry operations used in ECPInt.
 ECPInt:  NShTT=    2628 NPrTT=    9444 LenC2=    2563 LenP2D=    7176.
 LDataN:  DoStor=T MaxTD1= 4 Len=   56
 NBasis=   152 RedAO= T EigKep=  2.19D-03  NBF=   152
 NBsUse=   152 1.00D-06 EigRej= -1.00D+00 NBFU=   152
 ExpMin= 1.22D-01 ExpMax= 2.27D+03 ExpMxC= 3.41D+02 IAcc=3 IRadAn=         5 AccDes= 0.00D+00
 Harris functional with IExCor= 4639 and IRadAn=       5 diagonalized for initial guess.
 HarFok:  IExCor= 4639 AccDes= 0.00D+00 IRadAn=         5 IDoV= 1 UseB2=F ITyADJ=14
 ICtDFT=  3500011 ScaDFX=  1.000000  1.000000  1.000000  1.000000
 FoFCou: FMM=F IPFlag=           0 FMFlag=      100000 FMFlg1=           0
         NFxFlg=           0 DoJE=T BraDBF=F KetDBF=T FulRan=T
         wScrn=  0.000000 ICntrl=       500 IOpCl=  0 I1Cent=   200000004 NGrid=           0
         NMat0=    1 NMatS0=      1 NMatT0=    0 NMatD0=    1 NMtDS0=    0 NMtDT0=    0
 Petite list used in FoFCou.
 Requested convergence on RMS density matrix=1.00D-08 within 128 cycles.
 Requested convergence on MAX density matrix=1.00D-06.
 Requested convergence on             energy=1.00D-06.
 No special actions if energy rises.
 Inv3:  Mode=1 IEnd=     6967728.
 Iteration    1 A*A^-1 deviation from unit magnitude is 3.22D-15 for   1130.
 Iteration    1 A*A^-1 deviation from orthogonality  is 1.73D-15 for   1239    294.
 Iteration    1 A^-1*A deviation from unit magnitude is 3.22D-15 for   1130.
 Iteration    1 A^-1*A deviation from orthogonality  is 7.74D-15 for   1331   1233.
 Error on total polarization charges =  0.00555
 SCF Done:  E(RwB97XD) =  -383.413844657     A.U. after   14 cycles
            NFock= 14  Conv=0.73D-08     -V/T= 2.0097

 **********************************************************************

            Population analysis using the SCF Density.

 **********************************************************************

 Orbital symmetries:
       Occupied  (A) (A) (A) (A) (A) (A) (A) (A) (A) (A) (A) (A)
                 (A) (A) (A) (A) (A) (A) (A) (A) (A) (A) (A) (A)
                 (A) (A) (A) (A) (A) (A)
       Virtual   (A) (A) (A) (A) (A) (A) (A) (A) (A) (A) (A) (A)
                 (A) (A) (A) (A) (A) (A) (A) (A) (A) (A) (A) (A)
                 (A) (A) (A) (A) (A) (A) (A) (A) (A) (A) (A) (A)
                 (A) (A) (A) (A) (A) (A) (A) (A) (A) (A) (A) (A)
                 (A) (A) (A) (A) (A) (A) (A) (A) (A) (A) (A) (A)
                 (A) (A) (A) (A) (A) (A) (A) (A) (A) (A) (A) (A)
                 (A) (A) (A) (A) (A) (A) (A) (A) (A) (A) (A) (A)
                 (A) (A) (A) (A) (A) (A) (A) (A) (A) (A) (A) (A)
                 (A) (A) (A) (A) (A) (A) (A) (A) (A) (A) (A) (A)
                 (A) (A) (A) (A) (A) (A) (A) (A) (A) (A) (A) (A)
                 (A) (A)
 The electronic state is 1-A.
 Alpha  occ. eigenvalues --  -19.26387 -19.25630 -10.39593 -10.38987 -10.32922
 Alpha  occ. eigenvalues --  -10.32714 -10.31716 -10.31464  -1.14586  -1.13989
 Alpha  occ. eigenvalues --   -0.89257  -0.88860  -0.75009  -0.73172  -0.65872
 Alpha  occ. eigenvalues --   -0.63322  -0.60452  -0.56550  -0.56168  -0.54349
 Alpha  occ. eigenvalues --   -0.51708  -0.50832  -0.49842  -0.49312  -0.47319
 Alpha  occ. eigenvalues --   -0.46672  -0.37878  -0.36739  -0.35137  -0.34458
 Alpha virt. eigenvalues --   -0.00399   0.00694   0.12821   0.14016   0.14990
 Alpha virt. eigenvalues --    0.15464   0.16244   0.19608   0.21140   0.21828
 Alpha virt. eigenvalues --    0.24232   0.25108   0.30157   0.31467   0.36747
 Alpha virt. eigenvalues --    0.38163   0.38915   0.41544   0.42986   0.48510
 Alpha virt. eigenvalues --    0.49767   0.51192   0.52816   0.54459   0.56785
 Alpha virt. eigenvalues --    0.57334   0.59798   0.60388   0.63389   0.66270
 Alpha virt. eigenvalues --    0.68052   0.69701   0.70220   0.71381   0.73487
 Alpha virt. eigenvalues --    0.73764   0.74808   0.75436   0.76391   0.77952
 Alpha virt. eigenvalues --    0.78375   0.79549   0.81628   0.84360   0.89024
 Alpha virt. eigenvalues --    0.90317   0.94205   0.98814   1.07101   1.09541
 Alpha virt. eigenvalues --    1.10514   1.13751   1.19221   1.20310   1.22795
 Alpha virt. eigenvalues --    1.24841   1.26913   1.28741   1.31594   1.32842
 Alpha virt. eigenvalues --    1.34248   1.35148   1.50097   1.51770   1.52677
 Alpha virt. eigenvalues --    1.53429   1.66218   1.66651   1.70171   1.71000
 Alpha virt. eigenvalues --    1.74861   1.77791   1.78386   1.79520   1.81344
 Alpha virt. eigenvalues --    1.82558   1.85004   1.86972   1.89076   1.90811
 Alpha virt. eigenvalues --    1.91710   1.95133   1.97068   1.99028   2.03087
 Alpha virt. eigenvalues --    2.10430   2.11690   2.14853   2.17409   2.18265
 Alpha virt. eigenvalues --    2.20295   2.23171   2.31030   2.36901   2.42678
 Alpha virt. eigenvalues --    2.43807   2.52498   2.53825   2.54148   2.55014
 Alpha virt. eigenvalues --    2.58055   2.59191   2.66735   2.67407   2.78824
 Alpha virt. eigenvalues --    2.79731   2.80684   2.82116   2.85511   2.88210
 Alpha virt. eigenvalues --    2.93913   2.96957   3.05897   3.14888   3.22368
 Alpha virt. eigenvalues --    3.23072   3.24306   3.39456   3.53351   3.58073
 Alpha virt. eigenvalues --    3.69788   3.70434
          Condensed to atoms (all electrons):
               1          2          3          4          5          6
     1  O    7.713258  -0.000747   0.011376  -0.001413   0.654233  -0.120962
     2  C   -0.000747   4.779253  -0.000997   0.496401   0.001063  -0.001439
     3  C    0.011376  -0.000997   4.676254  -0.001112  -0.020655   0.572118
     4  C   -0.001413   0.496401  -0.001112   5.271334  -0.000818   0.002672
     5  C    0.654233   0.001063  -0.020655  -0.000818   4.567094   0.232314
     6  C   -0.120962  -0.001439   0.572118   0.002672   0.232314   5.257668
     7  H   -0.039713   0.000019   0.012381  -0.000082   0.418144  -0.122696
     8  H    0.015837   0.000340   0.398625   0.001066  -0.015440  -0.033699
     9  H    0.003131   0.000052  -0.031589  -0.000039  -0.025775   0.385203
    10  H    0.012201   0.383884   0.000291  -0.006143  -0.000320  -0.001207
    11  H    0.000073   0.400308  -0.000010  -0.030538   0.000096  -0.000025
    12  H   -0.000096  -0.025248  -0.000037   0.374409  -0.000016   0.000150
    13  C   -0.000006  -0.010246   0.000340   0.251388  -0.000008  -0.000007
    14  O    0.000000   0.005998   0.000004  -0.094551   0.000000  -0.000004
    15  H    0.000254   0.000049   0.393425  -0.000146   0.007241  -0.017299
    16  H   -0.000001   0.014681   0.000016  -0.138824   0.000000  -0.000002
               7          8          9         10         11         12
     1  O   -0.039713   0.015837   0.003131   0.012201   0.000073  -0.000096
     2  C    0.000019   0.000340   0.000052   0.383884   0.400308  -0.025248
     3  C    0.012381   0.398625  -0.031589   0.000291  -0.000010  -0.000037
     4  C   -0.000082   0.001066  -0.000039  -0.006143  -0.030538   0.374409
     5  C    0.418144  -0.015440  -0.025775  -0.000320   0.000096  -0.000016
     6  C   -0.122696  -0.033699   0.385203  -0.001207  -0.000025   0.000150
     7  H    0.701112   0.001317   0.000027   0.000237   0.000013  -0.000004
     8  H    0.001317   0.584603   0.007318   0.000583   0.000016   0.000562
     9  H    0.000027   0.007318   0.618014  -0.000017   0.000001  -0.000003
    10  H    0.000237   0.000583  -0.000017   0.558148  -0.034250  -0.010933
    11  H    0.000013   0.000016   0.000001  -0.034250   0.594000   0.006593
    12  H   -0.000004   0.000562  -0.000003  -0.010933   0.006593   0.607538
    13  C   -0.000000  -0.000243  -0.000003   0.005012  -0.013697  -0.025417
    14  O    0.000000  -0.000032   0.000000  -0.000119   0.000145   0.007498
    15  H   -0.000173  -0.035537  -0.010674   0.000001   0.000000   0.000083
    16  H   -0.000000  -0.000022  -0.000002  -0.000371   0.007836   0.008035
              13         14         15         16
     1  O   -0.000006   0.000000   0.000254  -0.000001
     2  C   -0.010246   0.005998   0.000049   0.014681
     3  C    0.000340   0.000004   0.393425   0.000016
     4  C    0.251388  -0.094551  -0.000146  -0.138824
     5  C   -0.000008   0.000000   0.007241   0.000000
     6  C   -0.000007  -0.000004  -0.017299  -0.000002
     7  H   -0.000000   0.000000  -0.000173  -0.000000
     8  H   -0.000243  -0.000032  -0.035537  -0.000022
     9  H   -0.000003   0.000000  -0.010674  -0.000002
    10  H    0.005012  -0.000119   0.000001  -0.000371
    11  H   -0.013697   0.000145   0.000000   0.007836
    12  H   -0.025417   0.007498   0.000083   0.008035
    13  C    4.547393   0.654982   0.000068   0.418341
    14  O    0.654982   7.718369   0.000021  -0.039785
    15  H    0.000068   0.000021   0.580645   0.000007
    16  H    0.418341  -0.039785   0.000007   0.714737
 Mulliken charges:
               1
     1  O   -0.247425
     2  C   -0.043370
     3  C   -0.010432
     4  C   -0.123604
     5  C    0.182845
     6  C   -0.152786
     7  H    0.029418
     8  H    0.074706
     9  H    0.054355
    10  H    0.093002
    11  H    0.069439
    12  H    0.056886
    13  C    0.172104
    14  O   -0.252527
    15  H    0.082037
    16  H    0.015353
 Sum of Mulliken charges =  -0.00000
 Mulliken charges with hydrogens summed into heavy atoms:
               1
     1  O   -0.247425
     2  C    0.119070
     3  C    0.146311
     4  C   -0.066717
     5  C    0.212263
     6  C   -0.098431
    13  C    0.187457
    14  O   -0.252527
 Electronic spatial extent (au):  <R**2>=           1538.8341
 Charge=             -0.0000 electrons
 Dipole moment (field-independent basis, Debye):
    X=             -2.5331    Y=              0.0830    Z=              1.5286  Tot=              2.9598
 Quadrupole moment (field-independent basis, Debye-Ang):
   XX=            -58.5528   YY=            -47.1889   ZZ=            -43.9945
   XY=            -10.6312   XZ=             -3.0413   YZ=             -2.0193
 Traceless Quadrupole moment (field-independent basis, Debye-Ang):
   XX=             -8.6408   YY=              2.7232   ZZ=              5.9175
   XY=            -10.6312   XZ=             -3.0413   YZ=             -2.0193
 Octapole moment (field-independent basis, Debye-Ang**2):
  XXX=            -52.0949  YYY=              5.4737  ZZZ=             -0.3553  XYY=             -1.4721
  XXY=            -12.3946  XXZ=             16.9975  XZZ=              0.5132  YZZ=             -0.3183
  YYZ=              2.5480  XYZ=             -1.7092
 Hexadecapole moment (field-independent basis, Debye-Ang**3):
 XXXX=          -1599.4778 YYYY=           -369.9215 ZZZZ=           -121.7162 XXXY=            -70.1856
 XXXZ=            -29.0254 YYYX=              7.2548 YYYZ=             -2.6855 ZZZX=              1.1054
 ZZZY=             -0.0573 XXYY=           -345.6240 XXZZ=           -248.1617 YYZZ=            -82.2153
 XXYZ=             -5.6795 YYXZ=             -2.0713 ZZXY=              4.3985
 N-N= 3.144463528604D+02 E-N=-1.522645554455D+03  KE= 3.797367844057D+02
   1 Symmetry operations used in ECPInt.
 ECPInt:  NShTT=    2628 NPrTT=    9444 LenC2=    2563 LenP2D=    7176.
 LDataN:  DoStor=T MaxTD1= 5 Len=  102
 D1PCM: PCM CHGder 1st derivatives, ID1Alg=3 FixD1E=F DoIter=F DoCFld=F I1PDM=0.
 Calling FoFJK, ICntrl=      2127 FMM=F ISym2X=0 I1Cent= 0 IOpClX= 0 NMat=1 NMatS=1 NMatT=0.
 ***** Axes restored to original set *****
 -------------------------------------------------------------------
 Center     Atomic                   Forces (Hartrees/Bohr)
 Number     Number              X              Y              Z
 -------------------------------------------------------------------
      1        8           0.000084519    0.000012996   -0.000010585
      2        6          -0.000053187   -0.000157660   -0.000067328
      3        6           0.000173629   -0.000113941   -0.000090600
      4        6           0.000147993    0.000074225    0.000219035
      5        6           0.000030303    0.000148277    0.000064646
      6        6           0.000043392    0.000014099   -0.000000628
      7        1          -0.000026111   -0.000017935    0.000027950
      8        1          -0.000181679    0.000109107   -0.000002978
      9        1           0.000017798   -0.000008967   -0.000001640
     10        1          -0.000185068   -0.000007780    0.000108011
     11        1          -0.000020280   -0.000046610   -0.000037335
     12        1          -0.000043928    0.000031208   -0.000233382
     13        6           0.000094233   -0.000109390    0.000001606
     14        8           0.000021447    0.000073700   -0.000003619
     15        1          -0.000093847   -0.000005551    0.000037104
     16        1          -0.000009214    0.000004222   -0.000010258
 -------------------------------------------------------------------
 Cartesian Forces:  Max     0.000233382 RMS     0.000089808

 GradGradGradGradGradGradGradGradGradGradGradGradGradGradGradGradGradGrad
 Berny optimization.
 FormGI is forming the generalized inverse of G from B-inverse, IUseBI=4.
 Internal  Forces:  Max     0.000211087 RMS     0.000069727
 Search for a saddle point.
 Step number   1 out of a maximum of   50
 All quantities printed in internal units (Hartrees-Bohrs-Radians)
 Swapping is turned off.
 Second derivative matrix not updated -- first step.
 ITU=  0
     Eigenvalues ---    0.00028   0.00057   0.00146   0.00205   0.00306
     Eigenvalues ---    0.00426   0.00701   0.01463   0.01825   0.01968
     Eigenvalues ---    0.02543   0.02706   0.03012   0.03587   0.03746
     Eigenvalues ---    0.05872   0.09033   0.09735   0.11537   0.12089
     Eigenvalues ---    0.12289   0.13337   0.15584   0.15868   0.17475
     Eigenvalues ---    0.18214   0.21715   0.24901   0.31055   0.31328
     Eigenvalues ---    0.33556   0.35281   0.35503   0.35839   0.36138
     Eigenvalues ---    0.36407   0.36655   0.36937   0.63510   0.66889
     Eigenvalues ---    0.89802   0.94650
 Eigenvectors required to have negative eigenvalues:
                          D3        D17       D16       R2        A18
   1                    0.37317  -0.36656  -0.35951  -0.34174   0.30558
                          D26       D2        D1        D14       D15
   1                    0.29153  -0.28221  -0.28024  -0.19057  -0.19022
 RFO step:  Lambda0=3.626951788D-04 Lambda=-4.05180391D-05.
 Linear search not attempted -- option 19 set.
 Iteration  1 RMS(Cart)=  0.05349148 RMS(Int)=  0.00159639
 Iteration  2 RMS(Cart)=  0.00208353 RMS(Int)=  0.00056123
 Iteration  3 RMS(Cart)=  0.00000294 RMS(Int)=  0.00056122
 Iteration  4 RMS(Cart)=  0.00000001 RMS(Int)=  0.00056122
 Variable       Old X    -DE/DX   Delta X   Delta X   Delta X     New X
                                 (Linear)    (Quad)   (Total)
    R1        2.28515  -0.00010   0.00000  -0.00013  -0.00033   2.28482
    R2        4.86269  -0.00018   0.00000  -0.02547  -0.02579   4.83690
    R3        2.52557  -0.00002   0.00000  -0.00006  -0.00019   2.52538
    R4        2.06274   0.00014   0.00000   0.00055   0.00041   2.06315
    R5        2.07039   0.00001   0.00000   0.00016   0.00016   2.07055
    R6        2.52571  -0.00004   0.00000   0.00005   0.00026   2.52597
    R7        2.06631   0.00003   0.00000   0.00024   0.00045   2.06676
    R8        2.06404  -0.00003   0.00000  -0.00012  -0.00012   2.06392
    R9        2.06863  -0.00021   0.00000  -0.00083  -0.00083   2.06779
   R10        2.78710   0.00010   0.00000   0.00028   0.00028   2.78738
   R11        2.80219   0.00005   0.00000   0.00010   0.00011   2.80230
   R12        2.10981  -0.00001   0.00000   0.00000   0.00000   2.10982
   R13        2.06715   0.00000   0.00000   0.00001   0.00001   2.06716
   R14        5.04231   0.00008   0.00000   0.07304   0.07337   5.11568
   R15        2.28093  -0.00005   0.00000  -0.00010  -0.00010   2.28083
   R16        2.11714   0.00001   0.00000   0.00014   0.00014   2.11728
    A1        2.12277  -0.00009   0.00000  -0.03329  -0.03433   2.08844
    A2        2.13323  -0.00001   0.00000   0.00042  -0.00054   2.13269
    A3        2.10702  -0.00001   0.00000  -0.00084  -0.00038   2.10663
    A4        2.04264   0.00002   0.00000   0.00046   0.00095   2.04359
    A5        2.09576  -0.00013   0.00000  -0.00069  -0.00105   2.09471
    A6        2.12810   0.00005   0.00000   0.00028   0.00046   2.12856
    A7        2.05932   0.00008   0.00000   0.00041   0.00059   2.05992
    A8        2.13423  -0.00013   0.00000  -0.00088  -0.00166   2.13257
    A9        2.11430   0.00007   0.00000  -0.00026   0.00013   2.11443
   A10        2.03462   0.00005   0.00000   0.00114   0.00152   2.03614
   A11        2.17233   0.00001   0.00000  -0.00089  -0.00195   2.17038
   A12        2.09958   0.00000   0.00000   0.00035   0.00088   2.10046
   A13        2.01128  -0.00001   0.00000   0.00054   0.00107   2.01235
   A14        2.11826  -0.00003   0.00000  -0.00093  -0.00148   2.11678
   A15        2.12085  -0.00000   0.00000   0.00033   0.00061   2.12146
   A16        2.04407   0.00003   0.00000   0.00060   0.00087   2.04494
   A17        2.07414  -0.00005   0.00000   0.01623   0.01645   2.09059
   A18        2.10098   0.00008   0.00000   0.02163   0.02045   2.12143
   A19        1.78117   0.00002   0.00000  -0.00854  -0.00995   1.77122
   A20        2.17140   0.00004   0.00000   0.00042   0.00042   2.17182
   A21        1.99927  -0.00003   0.00000  -0.00041  -0.00041   1.99886
   A22        2.11250  -0.00001   0.00000  -0.00000  -0.00000   2.11249
    D1        1.05527  -0.00001   0.00000   0.06962   0.06826   1.12353
    D2       -2.08383  -0.00004   0.00000   0.06919   0.06815  -2.01569
    D3        0.02375  -0.00009   0.00000  -0.13357  -0.13332  -0.10957
    D4       -0.02704   0.00010   0.00000   0.00345   0.00359  -0.02344
    D5        3.10488   0.00009   0.00000   0.00314   0.00286   3.10774
    D6        3.14145   0.00003   0.00000   0.00161   0.00234  -3.13940
    D7       -0.00983   0.00001   0.00000   0.00130   0.00161  -0.00822
    D8       -1.66273  -0.00013   0.00000   0.03305   0.03468  -1.62805
    D9        1.45291  -0.00006   0.00000   0.03480   0.03587   1.48878
   D10        0.00524  -0.00004   0.00000   0.00047   0.00058   0.00583
   D11       -3.13490   0.00002   0.00000   0.00184   0.00149  -3.13341
   D12       -3.13503  -0.00012   0.00000  -0.00304  -0.00257  -3.13760
   D13        0.00801  -0.00006   0.00000  -0.00167  -0.00166   0.00635
   D14       -1.92121  -0.00009   0.00000   0.04125   0.04210  -1.87911
   D15        1.21911  -0.00002   0.00000   0.04463   0.04513   1.26424
   D16        1.05483  -0.00010   0.00000   0.04041   0.03965   1.09448
   D17       -2.07750  -0.00008   0.00000   0.04072   0.04035  -2.03714
   D18       -3.11150  -0.00005   0.00000  -0.00336  -0.00316  -3.11466
   D19        0.02414   0.00000   0.00000  -0.00249  -0.00229   0.02186
   D20        0.02094  -0.00007   0.00000  -0.00367  -0.00387   0.01707
   D21       -3.12660  -0.00001   0.00000  -0.00279  -0.00299  -3.12960
   D22        0.04633   0.00002   0.00000   0.00132   0.00086   0.04718
   D23       -3.09665  -0.00003   0.00000   0.00001  -0.00001  -3.09666
   D24       -3.09765   0.00005   0.00000   0.00174   0.00097  -3.09668
   D25        0.04256  -0.00000   0.00000   0.00043   0.00010   0.04266
   D26        0.98547  -0.00004   0.00000  -0.10653  -0.10652   0.87895
         Item               Value     Threshold  Converged?
 Maximum Force            0.000211     0.000450     YES
 RMS     Force            0.000070     0.000300     YES
 Maximum Displacement     0.144560     0.001800     NO 
 RMS     Displacement     0.053969     0.001200     NO 
 Predicted change in Energy= 1.223647D-05
 GradGradGradGradGradGradGradGradGradGradGradGradGradGradGradGradGradGrad

                          Input orientation:                          
 ---------------------------------------------------------------------
 Center     Atomic      Atomic             Coordinates (Angstroms)
 Number     Number       Type             X           Y           Z
 ---------------------------------------------------------------------
      1          8           0       -2.395004    1.082164    0.412108
      2          6           0        0.805889    1.567402   -0.019750
      3          6           0       -1.256198   -1.541372    0.550019
      4          6           0        1.601021    0.605300    0.457767
      5          6           0       -2.659047    0.235152   -0.409302
      6          6           0       -2.086465   -1.132751   -0.414563
      7          1           0       -3.374946    0.455899   -1.237106
      8          1           0       -0.991113   -0.864210    1.366914
      9          1           0       -2.374346   -1.791524   -1.239030
     10          1           0       -0.008608    1.994311    0.568730
     11          1           0        0.935454    1.945095   -1.040090
     12          1           0        1.492006    0.208876    1.471819
     13          6           0        2.667947    0.015263   -0.372416
     14          8           0        3.401250   -0.872841   -0.011453
     15          1           0       -0.825295   -2.544942    0.555067
     16          1           0        2.755665    0.455539   -1.398964
 ---------------------------------------------------------------------
                    Distance matrix (angstroms):
                    1          2          3          4          5
     1  O    0.000000
     2  C    3.266141   0.000000
     3  C    2.863362   3.773767   0.000000
     4  C    4.024637   1.336375   3.574969   0.000000
     5  C    1.209075   3.732616   2.458520   4.363140   0.000000
     6  C    2.384204   3.976482   1.336687   4.168852   1.482915
     7  H    2.018018   4.494083   3.416432   5.258817   1.116468
     8  H    2.582815   3.326378   1.093680   3.115311   2.673115
     9  H    3.314327   4.783610   2.124507   4.942410   2.208375
    10  H    2.559576   1.091772   3.749384   2.128983   3.328065
    11  H    3.734365   1.095688   4.414435   2.116980   4.030166
    12  H    4.122435   2.130992   3.386105   1.094229   4.557472
    13  C    5.233281   2.449646   4.321216   1.475018   5.331658
    14  O    6.131722   3.562408   4.738565   2.376109   6.173584
    15  H    3.954785   4.461227   1.092179   3.977499   3.467215
    16  H    5.495637   2.634405   4.886842   2.191593   5.508821
                    6          7          8          9         10
     6  C    0.000000
     7  H    2.204670   0.000000
     8  H    2.108451   3.769120   0.000000
     9  H    1.093894   2.460105   3.092602   0.000000
    10  H    3.881091   4.118250   3.126268   4.816353   0.000000
    11  H    4.358487   4.564655   4.171034   4.995666   1.866006
    12  H    4.261907   5.575529   2.707102   5.128254   2.501038
    13  C    4.891231   6.120328   4.145777   5.425884   3.459239
    14  O    5.508635   7.013174   4.603567   5.975653   4.492695
    15  H    2.127209   4.326391   1.873887   2.487163   4.612156
    16  H    5.190176   6.132747   4.840471   5.602846   3.725700
                   11         12         13         14         15
    11  H    0.000000
    12  H    3.103851   0.000000
    13  C    2.677979   2.195797   0.000000
    14  O    3.883169   2.648664   1.206961   0.000000
    15  H    5.079881   3.714005   4.429177   4.580452   0.000000
    16  H    2.379229   3.146278   1.120419   2.026465   5.064029
                   16
    16  H    0.000000
 Stoichiometry    C6H8O2
 Framework group  C1[X(C6H8O2)]
 Deg. of freedom    42
 Full point group                 C1      NOp   1
 Largest Abelian subgroup         C1      NOp   1
 Largest concise Abelian subgroup C1      NOp   1
                         Standard orientation:                         
 ---------------------------------------------------------------------
 Center     Atomic      Atomic             Coordinates (Angstroms)
 Number     Number       Type             X           Y           Z
 ---------------------------------------------------------------------
      1          8           0       -2.395007   -1.084790   -0.396782
      2          6           0        0.805827   -1.566053    0.039943
      3          6           0       -1.258725    1.539701   -0.537318
      4          6           0        1.600581   -0.603875   -0.438050
      5          6           0       -2.660978   -0.236773    0.422967
      6          6           0       -2.089811    1.131726    0.426832
      7          1           0       -3.377713   -0.456970    1.250193
      8          1           0       -0.991893    0.861542   -1.352815
      9          1           0       -2.379431    1.791485    1.249902
     10          1           0       -0.007473   -1.994717   -0.548917
     11          1           0        0.934468   -1.942023    1.061036
     12          1           0        1.492463   -0.209144   -1.452858
     13          6           0        2.665830   -0.011447    0.392582
     14          8           0        3.398682    0.876851    0.031179
     15          1           0       -0.828850    2.543706   -0.543375
     16          1           0        2.752681   -0.450034    1.419927
 ---------------------------------------------------------------------
 Rotational constants (GHZ):           3.2948190           0.8260234           0.7072618
 Standard basis: def2SVP (5D, 7F)
 There are   160 symmetry adapted cartesian basis functions of A   symmetry.
 There are   152 symmetry adapted basis functions of A   symmetry.
   152 basis functions,   256 primitive gaussians,   160 cartesian basis functions
    30 alpha electrons       30 beta electrons
       nuclear repulsion energy       314.5653268503 Hartrees.
 NAtoms=   16 NActive=   16 NUniq=   16 SFac= 1.00D+00 NAtFMM=   60 NAOKFM=F Big=F
 Integral buffers will be    131072 words long.
 Raffenetti 2 integral format.
 Two-electron integral symmetry is turned on.
 Nuclear repulsion after empirical dispersion term =      314.5587903544 Hartrees.
 ------------------------------------------------------------------------------
 Polarizable Continuum Model (PCM)
 =================================
 Model                : PCM.
 Atomic radii         : UFF (Universal Force Field).
 Polarization charges : Total charges.
 Charge compensation  : None.
 Solution method      : On-the-fly selection.
 Cavity type          : Scaled VdW (van der Waals Surface) (Alpha=1.100).
 Cavity algorithm     : GePol (No added spheres)
                        Default sphere list used, NSphG=   16.
                        Lebedev-Laikov grids with approx.  5.0 points / Ang**2.
                        Smoothing algorithm: York/Karplus (Gamma=1.0000).
                        Polarization charges: spherical gaussians, with
                                              point-specific exponents (IZeta= 3).
                        Self-potential: point-specific (ISelfS= 7).
                        Self-field    : sphere-specific E.n sum rule (ISelfD= 2).
 1st derivatives      : Analytical E(r).r(x)/FMM algorithm (CHGder, D1EAlg=3).
                        Cavity 1st derivative terms included.
 Solvent              : Toluene, Eps=   2.374100 Eps(inf)=   2.238315
 ------------------------------------------------------------------------------
 Spheres list:
 ISph  on   Nord     Re0    Alpha      Xe            Ye            Ze
    1   O      1    1.7500  1.100     -2.395007     -1.084790     -0.396782
    2   C      2    1.9255  1.100      0.805827     -1.566053      0.039943
    3   C      3    1.9255  1.100     -1.258725      1.539701     -0.537318
    4   C      4    1.9255  1.100      1.600581     -0.603875     -0.438050
    5   C      5    1.9255  1.100     -2.660978     -0.236773      0.422967
    6   C      6    1.9255  1.100     -2.089811      1.131726      0.426832
    7   H      7    1.4430  1.100     -3.377713     -0.456970      1.250193
    8   H      8    1.4430  1.100     -0.991893      0.861542     -1.352815
    9   H      9    1.4430  1.100     -2.379431      1.791485      1.249902
   10   H     10    1.4430  1.100     -0.007473     -1.994717     -0.548917
   11   H     11    1.4430  1.100      0.934468     -1.942023      1.061036
   12   H     12    1.4430  1.100      1.492463     -0.209144     -1.452858
   13   C     13    1.9255  1.100      2.665830     -0.011447      0.392582
   14   O     14    1.7500  1.100      3.398682      0.876851      0.031179
   15   H     15    1.4430  1.100     -0.828850      2.543706     -0.543375
   16   H     16    1.4430  1.100      2.752681     -0.450034      1.419927
 ------------------------------------------------------------------------------
 One-electron integrals computed using PRISM.
   1 Symmetry operations used in ECPInt.
 ECPInt:  NShTT=    2628 NPrTT=    9444 LenC2=    2563 LenP2D=    7176.
 LDataN:  DoStor=T MaxTD1= 4 Len=   56
 NBasis=   152 RedAO= T EigKep=  2.18D-03  NBF=   152
 NBsUse=   152 1.00D-06 EigRej= -1.00D+00 NBFU=   152
 Initial guess from the checkpoint file:  "da-1_1_opt_hf_re.chk"
 B after Tr=    -0.000000    0.000000   -0.000000
         Rot=    1.000000   -0.000527    0.000074    0.000808 Ang=  -0.11 deg.
 ExpMin= 1.22D-01 ExpMax= 2.27D+03 ExpMxC= 3.41D+02 IAcc=3 IRadAn=         5 AccDes= 0.00D+00
 Harris functional with IExCor= 4639 and IRadAn=       5 diagonalized for initial guess.
 HarFok:  IExCor= 4639 AccDes= 0.00D+00 IRadAn=         5 IDoV= 1 UseB2=F ITyADJ=14
 ICtDFT=  3500011 ScaDFX=  1.000000  1.000000  1.000000  1.000000
 FoFCou: FMM=F IPFlag=           0 FMFlag=      100000 FMFlg1=           0
         NFxFlg=           0 DoJE=T BraDBF=F KetDBF=T FulRan=T
         wScrn=  0.000000 ICntrl=       500 IOpCl=  0 I1Cent=   200000004 NGrid=           0
         NMat0=    1 NMatS0=      1 NMatT0=    0 NMatD0=    1 NMtDS0=    0 NMtDT0=    0
 Petite list used in FoFCou.
 Requested convergence on RMS density matrix=1.00D-08 within 128 cycles.
 Requested convergence on MAX density matrix=1.00D-06.
 Requested convergence on             energy=1.00D-06.
 No special actions if energy rises.
 Inv3:  Mode=1 IEnd=     6858432.
 Iteration    1 A*A^-1 deviation from unit magnitude is 3.55D-15 for   1262.
 Iteration    1 A*A^-1 deviation from orthogonality  is 1.78D-15 for   1111    494.
 Iteration    1 A^-1*A deviation from unit magnitude is 3.33D-15 for    226.
 Iteration    1 A^-1*A deviation from orthogonality  is 7.30D-15 for   1258   1227.
 Error on total polarization charges =  0.00557
 SCF Done:  E(RwB97XD) =  -383.413842733     A.U. after   13 cycles
            NFock= 13  Conv=0.37D-08     -V/T= 2.0097
   1 Symmetry operations used in ECPInt.
 ECPInt:  NShTT=    2628 NPrTT=    9444 LenC2=    2563 LenP2D=    7176.
 LDataN:  DoStor=T MaxTD1= 5 Len=  102
 D1PCM: PCM CHGder 1st derivatives, ID1Alg=3 FixD1E=F DoIter=F DoCFld=F I1PDM=0.
 Calling FoFJK, ICntrl=      2127 FMM=F ISym2X=0 I1Cent= 0 IOpClX= 0 NMat=1 NMatS=1 NMatT=0.
 ***** Axes restored to original set *****
 -------------------------------------------------------------------
 Center     Atomic                   Forces (Hartrees/Bohr)
 Number     Number              X              Y              Z
 -------------------------------------------------------------------
      1        8          -0.000025131    0.000448932    0.000075114
      2        6          -0.000085066   -0.000000176   -0.000134800
      3        6          -0.000037647    0.000014031   -0.000025880
      4        6           0.000058434    0.000040168    0.000051199
      5        6           0.000109929   -0.000234206    0.000010784
      6        6           0.000076801   -0.000080154    0.000008695
      7        1          -0.000026195   -0.000013077    0.000041835
      8        1          -0.000072049    0.000013558   -0.000146435
      9        1           0.000017438   -0.000007141    0.000011991
     10        1          -0.000091418   -0.000107664    0.000041958
     11        1          -0.000002380    0.000003218    0.000015279
     12        1           0.000079972   -0.000103218    0.000057766
     13        6           0.000021915    0.000016638   -0.000009048
     14        8          -0.000002536    0.000014416    0.000012497
     15        1          -0.000014698   -0.000003611   -0.000011876
     16        1          -0.000007367   -0.000001715    0.000000921
 -------------------------------------------------------------------
 Cartesian Forces:  Max     0.000448932 RMS     0.000090888

 GradGradGradGradGradGradGradGradGradGradGradGradGradGradGradGradGradGrad
 Berny optimization.
 FormGI is forming the generalized inverse of G from B-inverse, IUseBI=4.
 Internal  Forces:  Max     0.000242360 RMS     0.000068191
 Search for a saddle point.
 Step number   2 out of a maximum of   50
 All quantities printed in internal units (Hartrees-Bohrs-Radians)
 Swapping is turned off.
 Update second derivatives using D2CorX and points    1    2
 ITU=  0  0
     Eigenvalues ---    0.00023   0.00053   0.00112   0.00210   0.00306
     Eigenvalues ---    0.00426   0.00701   0.01461   0.01825   0.01968
     Eigenvalues ---    0.02542   0.02705   0.03012   0.03586   0.03745
     Eigenvalues ---    0.05871   0.09033   0.09732   0.11537   0.12087
     Eigenvalues ---    0.12286   0.13336   0.15581   0.15868   0.17472
     Eigenvalues ---    0.18214   0.21708   0.24901   0.31055   0.31327
     Eigenvalues ---    0.33552   0.35280   0.35501   0.35837   0.36137
     Eigenvalues ---    0.36407   0.36653   0.36936   0.63499   0.66885
     Eigenvalues ---    0.89790   0.94650
 Eigenvectors required to have negative eigenvalues:
                          D3        D26       D17       D16       D2
   1                    0.53548   0.44038  -0.31229  -0.30564  -0.25824
                          D1        A17       D8        D9        R14
   1                   -0.25613  -0.17952  -0.16529  -0.16485  -0.15406
 RFO step:  Lambda0=2.806490729D-04 Lambda=-4.88405914D-05.
 Linear search not attempted -- option 19 set.
 Maximum step size (   0.100) exceeded in Quadratic search.
    -- Step size scaled by   0.503
 Iteration  1 RMS(Cart)=  0.06290774 RMS(Int)=  0.00148706
 Iteration  2 RMS(Cart)=  0.00192397 RMS(Int)=  0.00050034
 Iteration  3 RMS(Cart)=  0.00000442 RMS(Int)=  0.00050034
 Iteration  4 RMS(Cart)=  0.00000000 RMS(Int)=  0.00050034
 Variable       Old X    -DE/DX   Delta X   Delta X   Delta X     New X
                                 (Linear)    (Quad)   (Total)
    R1        2.28482   0.00024   0.00000   0.00033   0.00031   2.28513
    R2        4.83690  -0.00013   0.00000  -0.05351  -0.05365   4.78325
    R3        2.52538   0.00010   0.00000   0.00003  -0.00004   2.52534
    R4        2.06315   0.00004   0.00000   0.00007  -0.00006   2.06309
    R5        2.07055  -0.00001   0.00000   0.00007   0.00007   2.07062
    R6        2.52597  -0.00015   0.00000   0.00001   0.00007   2.52604
    R7        2.06676  -0.00008   0.00000  -0.00034  -0.00033   2.06643
    R8        2.06392  -0.00000   0.00000  -0.00003  -0.00003   2.06389
    R9        2.06779   0.00005   0.00000   0.00023   0.00029   2.06808
   R10        2.78738  -0.00001   0.00000   0.00013   0.00013   2.78751
   R11        2.80230   0.00007   0.00000   0.00016   0.00021   2.80251
   R12        2.10982  -0.00002   0.00000  -0.00009  -0.00009   2.10973
   R13        2.06716  -0.00001   0.00000  -0.00003  -0.00003   2.06713
   R14        5.11568   0.00006   0.00000   0.02906   0.02920   5.14488
   R15        2.28083  -0.00001   0.00000  -0.00005  -0.00005   2.28078
   R16        2.11728  -0.00000   0.00000   0.00002   0.00002   2.11730
    A1        2.08844  -0.00018   0.00000  -0.02375  -0.02413   2.06431
    A2        2.13269   0.00002   0.00000  -0.00140  -0.00238   2.13031
    A3        2.10663  -0.00001   0.00000  -0.00013   0.00035   2.10698
    A4        2.04359  -0.00002   0.00000   0.00153   0.00202   2.04562
    A5        2.09471  -0.00004   0.00000  -0.00150  -0.00200   2.09270
    A6        2.12856   0.00001   0.00000   0.00073   0.00098   2.12954
    A7        2.05992   0.00004   0.00000   0.00077   0.00102   2.06094
    A8        2.13257   0.00006   0.00000  -0.00100  -0.00175   2.13081
    A9        2.11443  -0.00003   0.00000   0.00012   0.00049   2.11493
   A10        2.03614  -0.00003   0.00000   0.00088   0.00126   2.03740
   A11        2.17038   0.00019   0.00000  -0.00070  -0.00130   2.16908
   A12        2.10046  -0.00010   0.00000   0.00020   0.00051   2.10096
   A13        2.01235  -0.00009   0.00000   0.00049   0.00080   2.01314
   A14        2.11678   0.00002   0.00000  -0.00125  -0.00173   2.11506
   A15        2.12146  -0.00003   0.00000   0.00072   0.00096   2.12242
   A16        2.04494   0.00001   0.00000   0.00053   0.00077   2.04571
   A17        2.09059   0.00008   0.00000   0.04648   0.04645   2.13704
   A18        2.12143   0.00011   0.00000   0.05501   0.05383   2.17526
   A19        1.77122  -0.00007   0.00000  -0.01857  -0.01978   1.75143
   A20        2.17182  -0.00002   0.00000   0.00009   0.00009   2.17191
   A21        1.99886   0.00001   0.00000  -0.00019  -0.00019   1.99867
   A22        2.11249   0.00001   0.00000   0.00010   0.00010   2.11259
    D1        1.12353  -0.00012   0.00000   0.02171   0.02041   1.14394
    D2       -2.01569  -0.00011   0.00000   0.02175   0.02072  -1.99496
    D3       -0.10957   0.00007   0.00000  -0.09813  -0.09835  -0.20793
    D4       -0.02344   0.00007   0.00000   0.00029   0.00018  -0.02326
    D5        3.10774   0.00006   0.00000   0.00048   0.00003   3.10777
    D6       -3.13940   0.00002   0.00000   0.00022   0.00069  -3.13871
    D7       -0.00822   0.00000   0.00000   0.00040   0.00054  -0.00768
    D8       -1.62805  -0.00002   0.00000   0.02172   0.02291  -1.60514
    D9        1.48878   0.00003   0.00000   0.02177   0.02239   1.51117
   D10        0.00583  -0.00001   0.00000  -0.00083  -0.00072   0.00510
   D11       -3.13341  -0.00001   0.00000  -0.00005  -0.00043  -3.13384
   D12       -3.13760  -0.00003   0.00000  -0.00075  -0.00020  -3.13780
   D13        0.00635  -0.00002   0.00000   0.00003   0.00009   0.00644
   D14       -1.87911  -0.00005   0.00000   0.00370   0.00475  -1.87437
   D15        1.26424  -0.00004   0.00000   0.00362   0.00425   1.26849
   D16        1.09448  -0.00004   0.00000   0.01128   0.01032   1.10480
   D17       -2.03714  -0.00003   0.00000   0.01111   0.01047  -2.02668
   D18       -3.11466  -0.00001   0.00000  -0.00030  -0.00014  -3.11480
   D19        0.02186  -0.00000   0.00000  -0.00024  -0.00008   0.02178
   D20        0.01707  -0.00002   0.00000  -0.00014  -0.00030   0.01677
   D21       -3.12960  -0.00001   0.00000  -0.00007  -0.00024  -3.12983
   D22        0.04718  -0.00000   0.00000   0.00244   0.00193   0.04912
   D23       -3.09666  -0.00001   0.00000   0.00170   0.00165  -3.09501
   D24       -3.09668  -0.00001   0.00000   0.00241   0.00164  -3.09504
   D25        0.04266  -0.00002   0.00000   0.00166   0.00136   0.04402
   D26        0.87895   0.00001   0.00000  -0.08022  -0.08011   0.79884
         Item               Value     Threshold  Converged?
 Maximum Force            0.000242     0.000450     YES
 RMS     Force            0.000068     0.000300     YES
 Maximum Displacement     0.168439     0.001800     NO 
 RMS     Displacement     0.063141     0.001200     NO 
 Predicted change in Energy=-2.645425D-06
 GradGradGradGradGradGradGradGradGradGradGradGradGradGradGradGradGradGrad

                          Input orientation:                          
 ---------------------------------------------------------------------
 Center     Atomic      Atomic             Coordinates (Angstroms)
 Number     Number       Type             X           Y           Z
 ---------------------------------------------------------------------
      1          8           0       -2.397174    1.070153    0.470682
      2          6           0        0.801052    1.542203   -0.066256
      3          6           0       -1.251680   -1.550571    0.507120
      4          6           0        1.612117    0.620083    0.460726
      5          6           0       -2.687115    0.244069   -0.363454
      6          6           0       -2.112050   -1.121683   -0.421668
      7          1           0       -3.429969    0.484231   -1.161505
      8          1           0       -0.964871   -0.890835    1.330674
      9          1           0       -2.423562   -1.760542   -1.253163
     10          1           0       -0.031626    1.970418    0.495146
     11          1           0        0.936010    1.881775   -1.099259
     12          1           0        1.496041    0.262961    1.488668
     13          6           0        2.705601    0.023632   -0.329478
     14          8           0        3.454664   -0.830663    0.077681
     15          1           0       -0.817353   -2.552165    0.475557
     16          1           0        2.798124    0.424294   -1.371721
 ---------------------------------------------------------------------
                    Distance matrix (angstroms):
                    1          2          3          4          5
     1  O    0.000000
     2  C    3.277162   0.000000
     3  C    2.860363   3.756025   0.000000
     4  C    4.034486   1.336354   3.593776   0.000000
     5  C    1.209240   3.733737   2.457459   4.393638   0.000000
     6  C    2.383637   3.963429   1.336723   4.204972   1.483026
     7  H    2.018416   4.496711   3.416089   5.298369   1.116420
     8  H    2.576150   3.315052   1.093505   3.111358   2.669120
     9  H    3.314388   4.766026   2.125086   4.989138   2.208961
    10  H    2.531185   1.091739   3.726398   2.127552   3.281630
    11  H    3.772740   1.095727   4.375779   2.117202   4.043578
    12  H    4.104264   2.130084   3.435449   1.094383   4.574878
    13  C    5.270083   2.450030   4.340287   1.475088   5.397327
    14  O    6.165352   3.562705   4.780414   2.376208   6.250688
    15  H    3.951841   4.435837   1.092166   3.995710   3.466825
    16  H    5.550018   2.634815   4.881705   2.191531   5.580047
                    6          7          8          9         10
     6  C    0.000000
     7  H    2.205272   0.000000
     8  H    2.107134   3.765430   0.000000
     9  H    1.093876   2.461759   3.091987   0.000000
    10  H    3.837942   4.062263   3.123430   4.764242   0.000000
    11  H    4.332500   4.584624   4.147926   4.957507   1.867165
    12  H    4.311026   5.598031   2.722553   5.193793   2.497250
    13  C    4.952778   6.208835   4.130946   5.508610   3.458669
    14  O    5.596637   7.117773   4.594116   6.098308   4.491608
    15  H    2.127800   4.327289   1.874301   2.488985   4.590371
    16  H    5.234735   6.231927   4.815872   5.661587   3.726013
                   11         12         13         14         15
    11  H    0.000000
    12  H    3.103475   0.000000
    13  C    2.678938   2.196808   0.000000
    14  O    3.884086   2.650113   1.206936   0.000000
    15  H    5.021369   3.781947   4.437794   4.622986   0.000000
    16  H    2.380326   3.146946   1.120428   2.026506   5.034224
                   16
    16  H    0.000000
 Stoichiometry    C6H8O2
 Framework group  C1[X(C6H8O2)]
 Deg. of freedom    42
 Full point group                 C1      NOp   1
 Largest Abelian subgroup         C1      NOp   1
 Largest concise Abelian subgroup C1      NOp   1
                         Standard orientation:                         
 ---------------------------------------------------------------------
 Center     Atomic      Atomic             Coordinates (Angstroms)
 Number     Number       Type             X           Y           Z
 ---------------------------------------------------------------------
      1          8           0       -2.396659   -1.076836   -0.451197
      2          6           0        0.799956   -1.533793    0.107935
      3          6           0       -1.262493    1.548847   -0.484815
      4          6           0        1.610457   -0.609059   -0.415322
      5          6           0       -2.695798   -0.250531    0.379464
      6          6           0       -2.127152    1.117849    0.438999
      7          1           0       -3.442902   -0.492523    1.172982
      8          1           0       -0.967288    0.888892   -1.305222
      9          1           0       -2.447019    1.756832    1.267220
     10          1           0       -0.027060   -1.966695   -0.458222
     11          1           0        0.929504   -1.870894    1.142438
     12          1           0        1.499679   -0.254315   -1.444670
     13          6           0        2.696002   -0.006357    0.381061
     14          8           0        3.444001    0.850497   -0.022663
     15          1           0       -0.832799    2.552404   -0.452200
     16          1           0        2.783323   -0.404718    1.424633
 ---------------------------------------------------------------------
 Rotational constants (GHZ):           3.3646773           0.8104929           0.6975341
 Standard basis: def2SVP (5D, 7F)
 There are   160 symmetry adapted cartesian basis functions of A   symmetry.
 There are   152 symmetry adapted basis functions of A   symmetry.
   152 basis functions,   256 primitive gaussians,   160 cartesian basis functions
    30 alpha electrons       30 beta electrons
       nuclear repulsion energy       314.0879837861 Hartrees.
 NAtoms=   16 NActive=   16 NUniq=   16 SFac= 1.00D+00 NAtFMM=   60 NAOKFM=F Big=F
 Integral buffers will be    131072 words long.
 Raffenetti 2 integral format.
 Two-electron integral symmetry is turned on.
 Nuclear repulsion after empirical dispersion term =      314.0814725285 Hartrees.
 ------------------------------------------------------------------------------
 Polarizable Continuum Model (PCM)
 =================================
 Model                : PCM.
 Atomic radii         : UFF (Universal Force Field).
 Polarization charges : Total charges.
 Charge compensation  : None.
 Solution method      : On-the-fly selection.
 Cavity type          : Scaled VdW (van der Waals Surface) (Alpha=1.100).
 Cavity algorithm     : GePol (No added spheres)
                        Default sphere list used, NSphG=   16.
                        Lebedev-Laikov grids with approx.  5.0 points / Ang**2.
                        Smoothing algorithm: York/Karplus (Gamma=1.0000).
                        Polarization charges: spherical gaussians, with
                                              point-specific exponents (IZeta= 3).
                        Self-potential: point-specific (ISelfS= 7).
                        Self-field    : sphere-specific E.n sum rule (ISelfD= 2).
 1st derivatives      : Analytical E(r).r(x)/FMM algorithm (CHGder, D1EAlg=3).
                        Cavity 1st derivative terms included.
 Solvent              : Toluene, Eps=   2.374100 Eps(inf)=   2.238315
 ------------------------------------------------------------------------------
 Spheres list:
 ISph  on   Nord     Re0    Alpha      Xe            Ye            Ze
    1   O      1    1.7500  1.100     -2.396659     -1.076836     -0.451197
    2   C      2    1.9255  1.100      0.799956     -1.533793      0.107935
    3   C      3    1.9255  1.100     -1.262493      1.548847     -0.484815
    4   C      4    1.9255  1.100      1.610457     -0.609059     -0.415322
    5   C      5    1.9255  1.100     -2.695798     -0.250531      0.379464
    6   C      6    1.9255  1.100     -2.127152      1.117849      0.438999
    7   H      7    1.4430  1.100     -3.442902     -0.492523      1.172982
    8   H      8    1.4430  1.100     -0.967288      0.888892     -1.305222
    9   H      9    1.4430  1.100     -2.447019      1.756832      1.267220
   10   H     10    1.4430  1.100     -0.027060     -1.966695     -0.458222
   11   H     11    1.4430  1.100      0.929504     -1.870894      1.142438
   12   H     12    1.4430  1.100      1.499679     -0.254315     -1.444670
   13   C     13    1.9255  1.100      2.696002     -0.006357      0.381061
   14   O     14    1.7500  1.100      3.444001      0.850497     -0.022663
   15   H     15    1.4430  1.100     -0.832799      2.552404     -0.452200
   16   H     16    1.4430  1.100      2.783323     -0.404718      1.424633
 ------------------------------------------------------------------------------
 One-electron integrals computed using PRISM.
   1 Symmetry operations used in ECPInt.
 ECPInt:  NShTT=    2628 NPrTT=    9444 LenC2=    2558 LenP2D=    7170.
 LDataN:  DoStor=T MaxTD1= 4 Len=   56
 NBasis=   152 RedAO= T EigKep=  2.17D-03  NBF=   152
 NBsUse=   152 1.00D-06 EigRej= -1.00D+00 NBFU=   152
 Initial guess from the checkpoint file:  "da-1_1_opt_hf_re.chk"
 B after Tr=     0.000000   -0.000000    0.000000
         Rot=    1.000000   -0.000209    0.000843    0.000168 Ang=  -0.10 deg.
 ExpMin= 1.22D-01 ExpMax= 2.27D+03 ExpMxC= 3.41D+02 IAcc=3 IRadAn=         5 AccDes= 0.00D+00
 Harris functional with IExCor= 4639 and IRadAn=       5 diagonalized for initial guess.
 HarFok:  IExCor= 4639 AccDes= 0.00D+00 IRadAn=         5 IDoV= 1 UseB2=F ITyADJ=14
 ICtDFT=  3500011 ScaDFX=  1.000000  1.000000  1.000000  1.000000
 FoFCou: FMM=F IPFlag=           0 FMFlag=      100000 FMFlg1=           0
         NFxFlg=           0 DoJE=T BraDBF=F KetDBF=T FulRan=T
         wScrn=  0.000000 ICntrl=       500 IOpCl=  0 I1Cent=   200000004 NGrid=           0
         NMat0=    1 NMatS0=      1 NMatT0=    0 NMatD0=    1 NMtDS0=    0 NMtDT0=    0
 Petite list used in FoFCou.
 Requested convergence on RMS density matrix=1.00D-08 within 128 cycles.
 Requested convergence on MAX density matrix=1.00D-06.
 Requested convergence on             energy=1.00D-06.
 No special actions if energy rises.
 Inv3:  Mode=1 IEnd=     6931200.
 Iteration    1 A*A^-1 deviation from unit magnitude is 3.89D-15 for   1151.
 Iteration    1 A*A^-1 deviation from orthogonality  is 2.02D-15 for   1110    490.
 Iteration    1 A^-1*A deviation from unit magnitude is 3.89D-15 for   1151.
 Iteration    1 A^-1*A deviation from orthogonality  is 1.78D-15 for   1323    767.
 Error on total polarization charges =  0.00559
 SCF Done:  E(RwB97XD) =  -383.413851379     A.U. after   13 cycles
            NFock= 13  Conv=0.55D-08     -V/T= 2.0097
   1 Symmetry operations used in ECPInt.
 ECPInt:  NShTT=    2628 NPrTT=    9444 LenC2=    2558 LenP2D=    7170.
 LDataN:  DoStor=T MaxTD1= 5 Len=  102
 D1PCM: PCM CHGder 1st derivatives, ID1Alg=3 FixD1E=F DoIter=F DoCFld=F I1PDM=0.
 Calling FoFJK, ICntrl=      2127 FMM=F ISym2X=0 I1Cent= 0 IOpClX= 0 NMat=1 NMatS=1 NMatT=0.
 ***** Axes restored to original set *****
 -------------------------------------------------------------------
 Center     Atomic                   Forces (Hartrees/Bohr)
 Number     Number              X              Y              Z
 -------------------------------------------------------------------
      1        8          -0.000200015    0.000469420   -0.000137351
      2        6          -0.000005954   -0.000106811   -0.000129521
      3        6          -0.000114465    0.000046006   -0.000142915
      4        6           0.000043691    0.000006736    0.000126860
      5        6           0.000255303   -0.000270895    0.000157335
      6        6           0.000048399   -0.000063447   -0.000018297
      7        1          -0.000039270    0.000001622    0.000076210
      8        1           0.000045979   -0.000028131    0.000011079
      9        1           0.000002204   -0.000011127    0.000020301
     10        1          -0.000202338    0.000004575   -0.000017735
     11        1           0.000003952    0.000047763    0.000065268
     12        1           0.000199740   -0.000142396   -0.000034072
     13        6           0.000004293    0.000056962    0.000056274
     14        8          -0.000001163    0.000003897   -0.000004322
     15        1          -0.000030236    0.000000656   -0.000014781
     16        1          -0.000010121   -0.000014832   -0.000014333
 -------------------------------------------------------------------
 Cartesian Forces:  Max     0.000469420 RMS     0.000117205

 GradGradGradGradGradGradGradGradGradGradGradGradGradGradGradGradGradGrad
 Berny optimization.
 FormGI is forming the generalized inverse of G from B-inverse, IUseBI=4.
 Internal  Forces:  Max     0.000306801 RMS     0.000105736
 Search for a saddle point.
 Step number   3 out of a maximum of   50
 All quantities printed in internal units (Hartrees-Bohrs-Radians)
 Swapping is turned off.
 Update second derivatives using D2CorX and points    1    2    3
 ITU=  0  0  0
     Eigenvalues ---    0.00000   0.00066   0.00100   0.00212   0.00306
     Eigenvalues ---    0.00425   0.00700   0.01462   0.01828   0.01968
     Eigenvalues ---    0.02543   0.02706   0.03011   0.03586   0.03745
     Eigenvalues ---    0.05871   0.09033   0.09736   0.11536   0.12085
     Eigenvalues ---    0.12282   0.13336   0.15576   0.15866   0.17469
     Eigenvalues ---    0.18213   0.21704   0.24901   0.31055   0.31325
     Eigenvalues ---    0.33545   0.35279   0.35497   0.35833   0.36136
     Eigenvalues ---    0.36407   0.36651   0.36936   0.63493   0.66873
     Eigenvalues ---    0.89779   0.94650
 Eigenvectors required to have negative eigenvalues:
                          A18       R2        D3        D26       A17
   1                    0.51659  -0.50091  -0.44289  -0.32919   0.24996
                          D8        D9        A1        D17       D16
   1                    0.16035   0.15879  -0.14159  -0.13716  -0.12958
 RFO step:  Lambda0=1.453650046D-04 Lambda=-6.97234139D-05.
 Linear search not attempted -- option 19 set.
 Maximum step size (   0.100) exceeded in Quadratic search.
    -- Step size scaled by   0.724
 Iteration  1 RMS(Cart)=  0.07962915 RMS(Int)=  0.00294793
 Iteration  2 RMS(Cart)=  0.00346725 RMS(Int)=  0.00105354
 Iteration  3 RMS(Cart)=  0.00002136 RMS(Int)=  0.00105352
 Iteration  4 RMS(Cart)=  0.00000004 RMS(Int)=  0.00105352
 Variable       Old X    -DE/DX   Delta X   Delta X   Delta X     New X
                                 (Linear)    (Quad)   (Total)
    R1        2.28513   0.00008   0.00000   0.00008   0.00007   2.28520
    R2        4.78325  -0.00009   0.00000   0.04063   0.04024   4.82349
    R3        2.52534   0.00021   0.00000   0.00042   0.00016   2.52551
    R4        2.06309   0.00017   0.00000   0.00024  -0.00014   2.06295
    R5        2.07062  -0.00005   0.00000  -0.00005  -0.00005   2.07057
    R6        2.52604  -0.00011   0.00000  -0.00048  -0.00027   2.52577
    R7        2.06643   0.00005   0.00000  -0.00013  -0.00011   2.06631
    R8        2.06389  -0.00001   0.00000   0.00000   0.00000   2.06390
    R9        2.06808  -0.00002   0.00000  -0.00003   0.00008   2.06816
   R10        2.78751  -0.00005   0.00000  -0.00013  -0.00013   2.78738
   R11        2.80251   0.00006   0.00000  -0.00031  -0.00012   2.80240
   R12        2.10973  -0.00003   0.00000   0.00003   0.00003   2.10976
   R13        2.06713  -0.00001   0.00000   0.00000   0.00000   2.06713
   R14        5.14488   0.00007   0.00000   0.00419   0.00457   5.14945
   R15        2.28078  -0.00001   0.00000   0.00004   0.00004   2.28082
   R16        2.11730   0.00001   0.00000  -0.00009  -0.00009   2.11721
    A1        2.06431  -0.00014   0.00000   0.02718   0.02592   2.09022
    A2        2.13031   0.00023   0.00000   0.00355   0.00153   2.13184
    A3        2.10698  -0.00008   0.00000  -0.00077   0.00020   2.10718
    A4        2.04562  -0.00015   0.00000  -0.00274  -0.00173   2.04389
    A5        2.09270   0.00009   0.00000   0.00188   0.00078   2.09348
    A6        2.12954  -0.00007   0.00000  -0.00096  -0.00041   2.12914
    A7        2.06094  -0.00002   0.00000  -0.00092  -0.00037   2.06057
    A8        2.13081   0.00022   0.00000   0.00285   0.00140   2.13221
    A9        2.11493  -0.00010   0.00000  -0.00087  -0.00015   2.11478
   A10        2.03740  -0.00011   0.00000  -0.00198  -0.00125   2.03615
   A11        2.16908   0.00031   0.00000   0.00293   0.00163   2.17071
   A12        2.10096  -0.00019   0.00000  -0.00133  -0.00068   2.10028
   A13        2.01314  -0.00012   0.00000  -0.00159  -0.00095   2.01219
   A14        2.11506   0.00013   0.00000   0.00212   0.00118   2.11624
   A15        2.12242  -0.00009   0.00000  -0.00108  -0.00061   2.12181
   A16        2.04571  -0.00005   0.00000  -0.00104  -0.00057   2.04514
   A17        2.13704   0.00016   0.00000  -0.06569  -0.06537   2.07167
   A18        2.17526   0.00013   0.00000  -0.04965  -0.05216   2.12310
   A19        1.75143  -0.00010   0.00000   0.01127   0.00876   1.76020
   A20        2.17191   0.00000   0.00000  -0.00013  -0.00013   2.17179
   A21        1.99867   0.00000   0.00000   0.00014   0.00014   1.99881
   A22        2.11259  -0.00000   0.00000  -0.00001  -0.00001   2.11257
    D1        1.14394  -0.00025   0.00000  -0.05005  -0.05270   1.09125
    D2       -1.99496  -0.00023   0.00000  -0.05094  -0.05301  -2.04797
    D3       -0.20793   0.00014   0.00000   0.16578   0.16532  -0.04261
    D4       -0.02326   0.00006   0.00000   0.00049   0.00027  -0.02299
    D5        3.10777   0.00003   0.00000   0.00114   0.00015   3.10791
    D6       -3.13871   0.00001   0.00000  -0.00085   0.00027  -3.13844
    D7       -0.00768  -0.00001   0.00000  -0.00020   0.00014  -0.00754
    D8       -1.60514   0.00006   0.00000  -0.07168  -0.06891  -1.67405
    D9        1.51117   0.00011   0.00000  -0.07036  -0.06887   1.44230
   D10        0.00510   0.00003   0.00000   0.00032   0.00050   0.00560
   D11       -3.13384  -0.00001   0.00000   0.00094   0.00019  -3.13366
   D12       -3.13780   0.00003   0.00000  -0.00066   0.00033  -3.13747
   D13        0.00644  -0.00001   0.00000  -0.00004   0.00002   0.00646
   D14       -1.87437   0.00004   0.00000  -0.02638  -0.02451  -1.89887
   D15        1.26849   0.00004   0.00000  -0.02543  -0.02434   1.24415
   D16        1.10480  -0.00013   0.00000  -0.04035  -0.04251   1.06228
   D17       -2.02668  -0.00010   0.00000  -0.04097  -0.04240  -2.06907
   D18       -3.11480   0.00001   0.00000  -0.00124  -0.00087  -3.11567
   D19        0.02178  -0.00001   0.00000  -0.00102  -0.00065   0.02113
   D20        0.01677  -0.00001   0.00000  -0.00060  -0.00098   0.01579
   D21       -3.12983  -0.00003   0.00000  -0.00038  -0.00075  -3.13059
   D22        0.04912  -0.00005   0.00000   0.00089  -0.00010   0.04902
   D23       -3.09501  -0.00001   0.00000   0.00029   0.00020  -3.09481
   D24       -3.09504  -0.00007   0.00000   0.00173   0.00020  -3.09484
   D25        0.04402  -0.00003   0.00000   0.00114   0.00050   0.04452
   D26        0.79884   0.00001   0.00000   0.12367   0.12321   0.92205
         Item               Value     Threshold  Converged?
 Maximum Force            0.000307     0.000450     YES
 RMS     Force            0.000106     0.000300     YES
 Maximum Displacement     0.220219     0.001800     NO 
 RMS     Displacement     0.079596     0.001200     NO 
 Predicted change in Energy=-6.231106D-06
 GradGradGradGradGradGradGradGradGradGradGradGradGradGradGradGradGradGrad

                          Input orientation:                          
 ---------------------------------------------------------------------
[...]
 ! A9    A(2,4,13)             121.0885         -DE/DX =    0.0                 !
 ! A10   A(12,4,13)            116.6499         -DE/DX =    0.0                 !
 ! A11   A(1,5,6)              124.4569         -DE/DX =    0.0                 !
 ! A12   A(1,5,7)              120.3028         -DE/DX =    0.0                 !
 ! A13   A(6,5,7)              115.2402         -DE/DX =    0.0                 !
 ! A14   A(3,6,5)              121.338          -DE/DX =    0.0                 !
 ! A15   A(3,6,9)              121.5293         -DE/DX =    0.0                 !
 ! A16   A(5,6,9)              117.1324         -DE/DX =    0.0                 !
 ! A17   A(3,8,12)             118.9826         -DE/DX =    0.0                 !
 ! A18   A(1,10,2)             115.2572         -DE/DX =    0.0                 !
 ! A19   A(4,12,8)              95.1793         -DE/DX =    0.0                 !
 ! A20   A(4,13,14)            124.4515         -DE/DX =    0.0                 !
 ! A21   A(4,13,16)            114.5152         -DE/DX =    0.0                 !
 ! A22   A(14,13,16)           121.0327         -DE/DX =    0.0                 !
 ! D1    D(10,1,5,6)            59.7981         -DE/DX =    0.0                 !
 ! D2    D(10,1,5,7)          -120.0832         -DE/DX =    0.0                 !
 ! D3    D(5,1,10,2)             2.5434         -DE/DX =    0.0                 !
 ! D4    D(10,2,4,12)           -1.296          -DE/DX =    0.0                 !
 ! D5    D(10,2,4,13)          177.9814         -DE/DX =    0.0                 !
 ! D6    D(11,2,4,12)         -179.7461         -DE/DX =    0.0                 !
 ! D7    D(11,2,4,13)           -0.4687         -DE/DX =    0.0                 !
 ! D8    D(4,2,10,1)          -102.1876         -DE/DX =    0.0                 !
 ! D9    D(11,2,10,1)           76.3185         -DE/DX =    0.0                 !
 ! D10   D(8,3,6,5)              0.2783         -DE/DX =    0.0                 !
 ! D11   D(8,3,6,9)           -179.5495         -DE/DX =    0.0                 !
 ! D12   D(15,3,6,5)          -179.7874         -DE/DX =    0.0                 !
 ! D13   D(15,3,6,9)             0.3848         -DE/DX =    0.0                 !
 ! D14   D(6,3,8,12)          -109.4767         -DE/DX =    0.0                 !
 ! D15   D(15,3,8,12)           70.5864         -DE/DX =    0.0                 !
 ! D16   D(2,4,12,8)            62.7872         -DE/DX =    0.0                 !
 ! D17   D(13,4,12,8)         -116.5205         -DE/DX =    0.0                 !
 ! D18   D(2,4,13,14)         -178.5041         -DE/DX =    0.0                 !
 ! D19   D(2,4,13,16)            1.2062         -DE/DX =    0.0                 !
 ! D20   D(12,4,13,14)           0.8123         -DE/DX =    0.0                 !
 ! D21   D(12,4,13,16)        -179.4774         -DE/DX =    0.0                 !
 ! D22   D(1,5,6,3)              2.9792         -DE/DX =    0.0                 !
 ! D23   D(1,5,6,9)           -177.1857         -DE/DX =    0.0                 !
 ! D24   D(7,5,6,3)           -177.1341         -DE/DX =    0.0                 !
 ! D25   D(7,5,6,9)              2.701          -DE/DX =    0.0                 !
 ! D26   D(3,8,12,4)            53.7672         -DE/DX =    0.0                 !
 --------------------------------------------------------------------------------
 GradGradGradGradGradGradGradGradGradGradGradGradGradGradGradGradGradGrad

                          Input orientation:                          
 ---------------------------------------------------------------------
 Center     Atomic      Atomic             Coordinates (Angstroms)
 Number     Number       Type             X           Y           Z
 ---------------------------------------------------------------------
      1          8           0       -2.384741    1.111433    0.325610
      2          6           0        0.785145    1.549812    0.062064
      3          6           0       -1.246749   -1.508598    0.563705
      4          6           0        1.623414    0.602771    0.493901
      5          6           0       -2.629111    0.239473   -0.475786
      6          6           0       -2.053837   -1.126540   -0.430890
      7          1           0       -3.328627    0.433834   -1.324018
      8          1           0       -1.002025   -0.810010    1.368586
      9          1           0       -2.320791   -1.807257   -1.244510
     10          1           0        0.021266    1.990715    0.705182
     11          1           0        0.823264    1.900911   -0.975067
     12          1           0        1.604406    0.230920    1.523008
     13          6           0        2.616557   -0.005539   -0.411079
     14          8           0        3.383866   -0.881294   -0.093154
     15          1           0       -0.814969   -2.510995    0.604699
     16          1           0        2.611142    0.407723   -1.452500
 ---------------------------------------------------------------------
                    Distance matrix (angstroms):
                    1          2          3          4          5
     1  O    0.000000
     2  C    3.210890   0.000000
     3  C    2.866405   3.705956   0.000000
     4  C    4.043807   1.336438   3.563789   0.000000
     5  C    1.209242   3.696406   2.459109   4.376785   0.000000
     6  C    2.385437   3.932643   1.336630   4.167485   1.482885
     7  H    2.017755   4.482159   3.416249   5.277887   1.116511
     8  H    2.586822   3.235697   1.093503   3.107082   2.674048
     9  H    3.314833   4.756457   2.124242   4.938325   2.207963
    10  H    2.589611   1.091562   3.724657   2.130236   3.389105
    11  H    3.550541   1.095612   4.275223   2.117374   3.863749
    12  H    4.257037   2.131905   3.474950   1.094393   4.681658
    13  C    5.177193   2.448888   4.258465   1.474910   5.251786
    14  O    6.117447   3.561983   4.718853   2.376189   6.128493
    15  H    3.957784   4.398292   1.092206   3.956454   3.467511
    16  H    5.349368   2.632971   4.756122   2.191375   5.333154
                    6          7          8          9         10
     6  C    0.000000
     7  H    2.203981   0.000000
     8  H    2.108226   3.769661   0.000000
     9  H    1.093900   2.458565   3.092235   0.000000
    10  H    3.913309   4.214655   3.054716   4.869406   0.000000
    11  H    4.211805   4.417271   4.021627   4.869106   1.864002
    12  H    4.363847   5.699259   2.810848   5.217326   2.504405
    13  C    4.803084   6.030898   4.111996   5.321485   3.459278
    14  O    5.453699   6.949976   4.623614   5.892889   4.493646
    15  H    2.126959   4.325557   1.873996   2.486427   4.579823
    16  H    5.015943   5.941216   4.743035   5.410486   3.724099
                   11         12         13         14         15
    11  H    0.000000
    12  H    3.104743   0.000000
    13  C    2.677412   2.195689   0.000000
    14  O    3.882669   2.648675   1.206974   0.000000
    15  H    4.964311   3.770248   4.368579   4.557756   0.000000
    16  H    2.377826   3.146176   1.120435   2.026448   4.948658
                   16
    16  H    0.000000
 Stoichiometry    C6H8O2
 Framework group  C1[X(C6H8O2)]
 Deg. of freedom    42
 Full point group                 C1      NOp   1
 Largest Abelian subgroup         C1      NOp   1
 Largest concise Abelian subgroup C1      NOp   1
                         Standard orientation:                         
 ---------------------------------------------------------------------
 Center     Atomic      Atomic             Coordinates (Angstroms)
 Number     Number       Type             X           Y           Z
 ---------------------------------------------------------------------
      1          8           0       -2.394485   -1.097053   -0.313627
      2          6           0        0.769870   -1.554269   -0.017621
      3          6           0       -1.233047    1.506217   -0.614160
      4          6           0        1.618788   -0.626055   -0.469088
      5          6           0       -2.636613   -0.201969    0.462558
      6          6           0       -2.049617    1.157576    0.384961
      7          1           0       -3.343112   -0.367790    1.311063
      8          1           0       -0.989087    0.784340   -1.398459
      9          1           0       -2.316010    1.862006    1.178327
     10          1           0        0.006418   -2.005937   -0.653737
     11          1           0        0.798450   -1.877774    1.028750
     12          1           0        1.609442   -0.281749   -1.507867
     13          6           0        2.611233   -0.001919    0.425824
     14          8           0        3.387872    0.858671    0.089664
     15          1           0       -0.792614    2.503572   -0.679084
     16          1           0        2.595731   -0.387090    1.477859
 ---------------------------------------------------------------------
 Rotational constants (GHZ):           3.2881415           0.8379486           0.7188740

 **********************************************************************

            Population analysis using the SCF Density.

 **********************************************************************

 Orbital symmetries:
       Occupied  (A) (A) (A) (A) (A) (A) (A) (A) (A) (A) (A) (A)
                 (A) (A) (A) (A) (A) (A) (A) (A) (A) (A) (A) (A)
                 (A) (A) (A) (A) (A) (A)
       Virtual   (A) (A) (A) (A) (A) (A) (A) (A) (A) (A) (A) (A)
                 (A) (A) (A) (A) (A) (A) (A) (A) (A) (A) (A) (A)
                 (A) (A) (A) (A) (A) (A) (A) (A) (A) (A) (A) (A)
                 (A) (A) (A) (A) (A) (A) (A) (A) (A) (A) (A) (A)
                 (A) (A) (A) (A) (A) (A) (A) (A) (A) (A) (A) (A)
                 (A) (A) (A) (A) (A) (A) (A) (A) (A) (A) (A) (A)
                 (A) (A) (A) (A) (A) (A) (A) (A) (A) (A) (A) (A)
                 (A) (A) (A) (A) (A) (A) (A) (A) (A) (A) (A) (A)
                 (A) (A) (A) (A) (A) (A) (A) (A) (A) (A) (A) (A)
                 (A) (A) (A) (A) (A) (A) (A) (A) (A) (A) (A) (A)
                 (A) (A)
 The electronic state is 1-A.
 Alpha  occ. eigenvalues --  -19.26384 -19.25618 -10.39588 -10.38979 -10.32912
 Alpha  occ. eigenvalues --  -10.32724 -10.31706 -10.31436  -1.14585  -1.13979
 Alpha  occ. eigenvalues --   -0.89252  -0.88849  -0.74997  -0.73159  -0.65856
 Alpha  occ. eigenvalues --   -0.63312  -0.60448  -0.56538  -0.56149  -0.54347
 Alpha  occ. eigenvalues --   -0.51704  -0.50827  -0.49842  -0.49294  -0.47243
 Alpha  occ. eigenvalues --   -0.46735  -0.37903  -0.36700  -0.35115  -0.34447
 Alpha virt. eigenvalues --   -0.00382   0.00707   0.12842   0.13968   0.15085
 Alpha virt. eigenvalues --    0.15551   0.16182   0.19455   0.21161   0.21633
 Alpha virt. eigenvalues --    0.24159   0.24849   0.30088   0.31376   0.36825
 Alpha virt. eigenvalues --    0.38030   0.38726   0.41465   0.42666   0.48599
 Alpha virt. eigenvalues --    0.49841   0.51332   0.52728   0.54289   0.56812
 Alpha virt. eigenvalues --    0.57335   0.60147   0.60776   0.63541   0.66259
 Alpha virt. eigenvalues --    0.68517   0.69744   0.70319   0.71184   0.73515
 Alpha virt. eigenvalues --    0.73665   0.74832   0.75368   0.76584   0.78020
 Alpha virt. eigenvalues --    0.78198   0.79556   0.81669   0.84070   0.88819
 Alpha virt. eigenvalues --    0.90340   0.94314   0.98574   1.07487   1.09579
 Alpha virt. eigenvalues --    1.10088   1.14015   1.19449   1.20459   1.22875
 Alpha virt. eigenvalues --    1.24842   1.26640   1.28659   1.31204   1.33044
 Alpha virt. eigenvalues --    1.34270   1.34891   1.49802   1.51845   1.52756
 Alpha virt. eigenvalues --    1.53568   1.66295   1.67017   1.70303   1.71021
 Alpha virt. eigenvalues --    1.74759   1.77691   1.78413   1.79465   1.81659
 Alpha virt. eigenvalues --    1.82656   1.85157   1.87103   1.88952   1.91014
 Alpha virt. eigenvalues --    1.91778   1.95332   1.97142   1.98969   2.03113
 Alpha virt. eigenvalues --    2.10512   2.11745   2.14809   2.17383   2.18168
 Alpha virt. eigenvalues --    2.20336   2.23249   2.31050   2.36972   2.42635
 Alpha virt. eigenvalues --    2.43726   2.52472   2.53783   2.54107   2.55049
 Alpha virt. eigenvalues --    2.57993   2.59186   2.66722   2.67413   2.78860
 Alpha virt. eigenvalues --    2.79739   2.80699   2.82195   2.85360   2.88166
 Alpha virt. eigenvalues --    2.93867   2.96925   3.05894   3.14868   3.22393
 Alpha virt. eigenvalues --    3.23099   3.24309   3.39478   3.53369   3.58077
 Alpha virt. eigenvalues --    3.69767   3.70464
          Condensed to atoms (all electrons):
               1          2          3          4          5          6
     1  O    7.713787   0.000241   0.011435  -0.001413   0.654766  -0.121159
     2  C    0.000241   4.779741  -0.001116   0.492186   0.000943  -0.001707
     3  C    0.011435  -0.001116   4.676331  -0.001628  -0.020576   0.571434
     4  C   -0.001413   0.492186  -0.001628   5.274591  -0.000899   0.002778
     5  C    0.654766   0.000943  -0.020576  -0.000899   4.567742   0.231894
     6  C   -0.121159  -0.001707   0.571434   0.002778   0.231894   5.259753
     7  H   -0.039695   0.000059   0.012388  -0.000090   0.418236  -0.122875
     8  H    0.015588   0.000825   0.398849   0.001026  -0.015620  -0.033159
     9  H    0.003143   0.000067  -0.031739  -0.000042  -0.025893   0.385337
    10  H    0.010563   0.384815   0.000295  -0.006233  -0.000335  -0.001051
    11  H    0.000057   0.400198  -0.000039  -0.030115   0.000191   0.000045
    12  H   -0.000055  -0.025436  -0.000186   0.375961  -0.000010   0.000123
    13  C   -0.000009  -0.009614   0.000425   0.250571  -0.000011   0.000032
    14  O    0.000000   0.006012  -0.000001  -0.094215   0.000000  -0.000004
    15  H    0.000254   0.000039   0.393388  -0.000141   0.007246  -0.017443
    16  H   -0.000001   0.014848   0.000019  -0.138948  -0.000001   0.000006
               7          8          9         10         11         12
     1  O   -0.039695   0.015588   0.003143   0.010563   0.000057  -0.000055
     2  C    0.000059   0.000825   0.000067   0.384815   0.400198  -0.025436
     3  C    0.012388   0.398849  -0.031739   0.000295  -0.000039  -0.000186
     4  C   -0.000090   0.001026  -0.000042  -0.006233  -0.030115   0.375961
     5  C    0.418236  -0.015620  -0.025893  -0.000335   0.000191  -0.000010
     6  C   -0.122875  -0.033159   0.385337  -0.001051   0.000045   0.000123
     7  H    0.701289   0.001295   0.000027   0.000199   0.000004  -0.000002
     8  H    0.001295   0.583560   0.007291   0.000435   0.000012   0.000543
     9  H    0.000027   0.007291   0.618353  -0.000018  -0.000000  -0.000001
    10  H    0.000199   0.000435  -0.000018   0.559111  -0.034526  -0.010828
    11  H    0.000004   0.000012  -0.000000  -0.034526   0.594383   0.006591
    12  H   -0.000002   0.000543  -0.000001  -0.010828   0.006591   0.606783
    13  C   -0.000000  -0.000280  -0.000004   0.005042  -0.013803  -0.025792
    14  O    0.000000  -0.000023   0.000000  -0.000119   0.000146   0.007194
    15  H   -0.000174  -0.035340  -0.010664   0.000003  -0.000001   0.000050
    16  H   -0.000001  -0.000016  -0.000002  -0.000377   0.007892   0.007951
              13         14         15         16
     1  O   -0.000009   0.000000   0.000254  -0.000001
     2  C   -0.009614   0.006012   0.000039   0.014848
     3  C    0.000425  -0.000001   0.393388   0.000019
     4  C    0.250571  -0.094215  -0.000141  -0.138948
     5  C   -0.000011   0.000000   0.007246  -0.000001
     6  C    0.000032  -0.000004  -0.017443   0.000006
     7  H   -0.000000   0.000000  -0.000174  -0.000001
     8  H   -0.000280  -0.000023  -0.035340  -0.000016
     9  H   -0.000004   0.000000  -0.010664  -0.000002
    10  H    0.005042  -0.000119   0.000003  -0.000377
    11  H   -0.013803   0.000146  -0.000001   0.007892
    12  H   -0.025792   0.007194   0.000050   0.007951
    13  C    4.548277   0.654809   0.000100   0.418199
    14  O    0.654809   7.718602   0.000020  -0.039814
    15  H    0.000100   0.000020   0.580780   0.000008
    16  H    0.418199  -0.039814   0.000008   0.715213
 Mulliken charges:
               1
     1  O   -0.247505
     2  C   -0.042103
     3  C   -0.009279
     4  C   -0.123390
     5  C    0.182326
     6  C   -0.154004
     7  H    0.029340
     8  H    0.075016
     9  H    0.054147
    10  H    0.093025
    11  H    0.068965
    12  H    0.057114
    13  C    0.172057
    14  O   -0.252606
    15  H    0.081875
    16  H    0.015023
 Sum of Mulliken charges =  -0.00000
 Mulliken charges with hydrogens summed into heavy atoms:
               1
     1  O   -0.247505
     2  C    0.119887
     3  C    0.147613
     4  C   -0.066276
     5  C    0.211666
     6  C   -0.099858
    13  C    0.187080
    14  O   -0.252606
 Electronic spatial extent (au):  <R**2>=           1517.7341
 Charge=             -0.0000 electrons
 Dipole moment (field-independent basis, Debye):
    X=             -2.5839    Y=              0.1904    Z=              1.4836  Tot=              2.9856
 Quadrupole moment (field-independent basis, Debye-Ang):
   XX=            -59.3318   YY=            -47.2735   ZZ=            -43.6325
   XY=            -10.2142   XZ=             -3.1277   YZ=             -1.7538
 Traceless Quadrupole moment (field-independent basis, Debye-Ang):
   XX=             -9.2525   YY=              2.8058   ZZ=              6.4468
   XY=            -10.2142   XZ=             -3.1277   YZ=             -1.7538
 Octapole moment (field-independent basis, Debye-Ang**2):
  XXX=            -52.9413  YYY=              6.0624  ZZZ=             -0.4502  XYY=             -1.5073
  XXY=            -10.9371  XXZ=             16.0187  XZZ=              0.7185  YZZ=             -0.6677
  YYZ=              1.8676  XYZ=             -1.3970
 Hexadecapole moment (field-independent basis, Debye-Ang**3):
 XXXX=          -1580.5290 YYYY=           -366.7787 ZZZZ=           -125.1044 XXXY=            -67.6599
 XXXZ=            -29.1064 YYYX=              9.4999 YYYZ=             -1.7487 ZZZX=              0.3546
 ZZZY=              0.4122 XXYY=           -339.9226 XXZZ=           -243.9754 YYZZ=            -81.9426
 XXYZ=             -4.3496 YYXZ=             -2.7745 ZZXY=              4.2494
 N-N= 3.154024131028D+02 E-N=-1.524555502437D+03  KE= 3.797365876319D+02
 Unable to Open any file for archive entry.
 1\1\GINC-NODE-005\FTS\RwB97XD\def2SVP\C6H8O2\JP2658\23-Dec-2023\0\\# w
 b97xd def2svp geom=allchk scrf=(iefpcm,solvent=toluene) opt=(readfc,ts
 ,noeigen,maxcycles=50,maxstep=10)\\da-1_1_opt_hf.out\\0,1\O,-2.3847414
 584,1.1114326941,0.3256103491\C,0.7851448792,1.5498121169,0.0620639787
 \C,-1.2467493973,-1.5085979105,0.5637049745\C,1.6234143051,0.602770856
 1,0.4939006402\C,-2.6291112773,0.2394730555,-0.4757859697\C,-2.0538372
 558,-1.1265396425,-0.4308904049\H,-3.3286273879,0.433834059,-1.3240183
 998\H,-1.0020248209,-0.8100102643,1.3685859992\H,-2.3207907511,-1.8072
 56664,-1.2445099833\H,0.0212661038,1.9907146913,0.7051824925\H,0.82326
 43753,1.9009111447,-0.9750672099\H,1.6044063823,0.2309204356,1.5230075
 036\C,2.6165570269,-0.005539035,-0.4110785253\O,3.3838664486,-0.881293
 9911,-0.0931538643\H,-0.8149690632,-2.5109948406,0.6046986658\H,2.6111
 418907,0.4077232948,-1.4525002465\\Version=ES64L-G16RevC.01\State=1-A\
 HF=-383.4138577\RMSD=3.230e-09\RMSF=9.272e-07\Dipole=-1.0133188,-0.050
 7363,-0.5919341\Quadrupole=-6.7834742,2.0305596,4.7529146,7.6126759,2.
 4427643,-1.3471959\PG=C01 [X(C6H8O2)]\\@
 The archive entry for this job was punched.


 A MAN THINKING OR WORKING IS ALWAYS ALONE, 
 LET HIM BE WHERE HE WILL.

                                    -- THOREAU
 Job cpu time:       0 days  0 hours 22 minutes 41.4 seconds.
 Elapsed time:       0 days  0 hours  1 minutes 56.6 seconds.
 File lengths (MBytes):  RWF=     62 Int=      0 D2E=      0 Chk=      7 Scr=      1
 Normal termination of Gaussian 16 at Sat Dec 23 14:36:18 2023.
