Unloading slurm/anatra/current
  ERROR: No such file or directory on
    '/cm/local/modulefiles/slurm/anatra/current'
environment: line 0: unalias: gv: not found
environment: line 0: unalias: sl: not found
 Entering Gaussian System, Link 0=g16
 Initial command:
 /apps/gaussian/g16/C.01/g16/l1.exe "/local/jobs/1153105/Gau-3390269.inp" -scrdir="/local/jobs/1153105/"
 Entering Link 1 = /apps/gaussian/g16/C.01/g16/l1.exe PID=   3390272.
  
 Copyright (c) 1988-2019, Gaussian, Inc.  All Rights Reserved.
  
 This is part of the Gaussian(R) 16 program.  It is based on
 the Gaussian(R) 09 system (copyright 2009, Gaussian, Inc.),
 the Gaussian(R) 03 system (copyright 2003, Gaussian, Inc.),
 the Gaussian(R) 98 system (copyright 1998, Gaussian, Inc.),
 the Gaussian(R) 94 system (copyright 1995, Gaussian, Inc.),
 the Gaussian 92(TM) system (copyright 1992, Gaussian, Inc.),
 the Gaussian 90(TM) system (copyright 1990, Gaussian, Inc.),
 the Gaussian 88(TM) system (copyright 1988, Gaussian, Inc.),
 the Gaussian 86(TM) system (copyright 1986, Carnegie Mellon
 University), and the Gaussian 82(TM) system (copyright 1983,
 Carnegie Mellon University). Gaussian is a federally registered
 trademark of Gaussian, Inc.
  
 This software contains proprietary and confidential information,
 including trade secrets, belonging to Gaussian, Inc.
  
 This software is provided under written license and may be
 used, copied, transmitted, or stored only in accord with that
 written license.
  
 The following legend is applicable only to US Government
 contracts under FAR:
  
                    RESTRICTED RIGHTS LEGEND
  
 Use, reproduction and disclosure by the US Government is
 subject to restrictions as set forth in subparagraphs (a)
 and (c) of the Commercial Computer Software - Restricted
 Rights clause in FAR 52.227-19.
  
 Gaussian, Inc.
 340 Quinnipiac St., Bldg. 40, Wallingford CT 06492
  
  
 ---------------------------------------------------------------
 Warning -- This program may not be used in any manner that
 competes with the business of Gaussian, Inc. or will provide
 assistance to any competitor of Gaussian, Inc.  The licensee
 of this program is prohibited from giving any competitor of
 Gaussian, Inc. access to this program.  By using this program,
 the user acknowledges that Gaussian, Inc. is engaged in the
 business of creating and licensing software in the field of
 computational chemistry and represents and warrants to the
 licensee that it is not a competitor of Gaussian, Inc. and that
 it will not use this program in any manner prohibited above.
 ---------------------------------------------------------------
  

 Cite this work as:
 Gaussian 16, Revision C.01,
 M. J. Frisch, G. W. Trucks, H. B. Schlegel, G. E. Scuseria, 
 M. A. Robb, J. R. Cheeseman, G. Scalmani, V. Barone, 
 G. A. Petersson, H. Nakatsuji, X. Li, M. Caricato, A. V. Marenich, 
 J. Bloino, B. G. Janesko, R. Gomperts, B. Mennucci, H. P. Hratchian, 
 J. V. Ortiz, A. F. Izmaylov, J. L. Sonnenberg, D. Williams-Young, 
 F. Ding, F. Lipparini, F. Egidi, J. Goings, B. Peng, A. Petrone, 
 T. Henderson, D. Ranasinghe, V. G. Zakrzewski, J. Gao, N. Rega, 
 G. Zheng, W. Liang, M. Hada, M. Ehara, K. Toyota, R. Fukuda, 
 J. Hasegawa, M. Ishida, T. Nakajima, Y. Honda, O. Kitao, H. Nakai, 
 T. Vreven, K. Throssell, J. A. Montgomery, Jr., J. E. Peralta, 
 F. Ogliaro, M. J. Bearpark, J. J. Heyd, E. N. Brothers, K. N. Kudin, 
 V. N. Staroverov, T. A. Keith, R. Kobayashi, J. Normand, 
 K. Raghavachari, A. P. Rendell, J. C. Burant, S. S. Iyengar, 
 J. Tomasi, M. Cossi, J. M. Millam, M. Klene, C. Adamo, R. Cammi, 
 J. W. Ochterski, R. L. Martin, K. Morokuma, O. Farkas, 
 J. B. Foresman, and D. J. Fox, Gaussian, Inc., Wallingford CT, 2019.
 
 ******************************************
 Gaussian 16:  ES64L-G16RevC.01  3-Jul-2019
                28-Dec-2023 
 ******************************************
 %chk=imda-1_1_opt_hf_re.chk
 %nprocshared=12
 Will use up to   12 processors via shared memory.
 %mem=48GB
 ----------------------------------------------------------------------
 # wb97xd def2svp geom=allchk scrf=(iefpcm,solvent=toluene) opt=(readfc
 ,ts,noeigen,maxcycles=50,maxstep=10)
 ----------------------------------------------------------------------
 1/5=1,6=50,8=10,10=3,11=1,18=20,26=3,29=7,38=1/1,3;
 2/9=110,12=2,40=1/2;
 3/5=43,7=101,11=2,14=-4,25=1,30=1,70=2201,71=1,72=13,74=-58/1,2,3;
 4//1;
 5/5=2,38=5,53=13/2;
 6/7=2,8=2,9=2,10=2,28=1/1;
 7//1,2,3,16;
 1/5=1,6=50,8=10,11=1,18=20,26=3/3(2);
 2/9=110/2;
 99//99;
 2/9=110/2;
 3/5=43,7=101,11=2,14=-2,25=1,30=1,70=2205,71=1,72=13,74=-58/1,2,3;
 4/5=5,16=3,69=1/1;
 5/5=2,38=5,53=13/2;
 7//1,2,3,16;
 1/5=1,6=50,8=10,11=1,18=20,26=3/3(-5);
 2/9=110/2;
 6/7=2,8=2,9=2,10=2,19=2,28=1/1;
 99/9=1/99;
 Structure from the checkpoint file:  "imda-1_1_opt_hf_re.chk"
 -------------------
 imda-1_1_opt_hf.out
 -------------------
 Charge =  0 Multiplicity = 1
 Redundant internal coordinates found in file.  (old form).
 C,0,-2.4685,0.31773,-0.21974
 C,0,0.99254,1.27143,1.11647
 C,0,-0.92141,-1.47646,-0.03972
 C,0,1.36842,-0.00422,1.09826
 C,0,-2.6743,-0.34642,0.93936
 C,0,-1.72266,-1.45444,1.04763
 C,0,0.22301,-2.40406,-0.32142
 H,0,0.45834,-2.97857,0.58883
 H,0,-0.08039,-3.14847,-1.07788
 C,0,1.48451,-1.71717,-0.85704
 H,0,2.25626,-2.45599,-1.11981
 H,0,1.24848,-1.1925,-1.80042
 C,0,2.16368,-0.66732,0.00793
 O,0,3.31337,-0.35439,-0.19111
 H,0,1.05761,-0.62952,1.94035
 H,0,0.41896,1.71059,1.93385
 C,0,-1.34834,-0.36241,-0.95899
 H,0,-1.68862,-0.75212,-1.93645
 H,0,-0.53122,0.3457,-1.18215
 Cl,0,1.29114,2.38289,-0.18734
 C,0,-3.17251,1.52731,-0.74058
 H,0,-2.46552,2.36191,-0.8803
 H,0,-3.96168,1.85911,-0.05139
 H,0,-3.63463,1.33302,-1.72232
 H,0,-1.65536,-2.13684,1.89772
 H,0,-3.4251,-0.09408,1.6907
 Recover connectivity data from disk.

 GradGradGradGradGradGradGradGradGradGradGradGradGradGradGradGradGradGrad
 Berny optimization.
 Initialization pass.
 Force constant matrix read from checkpoint file:
 "imda-1_1_opt_hf_re.chk"
                           ----------------------------
                           !    Initial Parameters    !
                           ! (Angstroms and Degrees)  !
 --------------------------                            --------------------------
 ! Name  Definition              Value          Derivative Info.                !
 --------------------------------------------------------------------------------
 ! R1    R(1,5)                  1.3517         D2E/DX2 =    0.5105             !
 ! R2    R(1,17)                 1.5046         D2E/DX2 =    0.2788             !
 ! R3    R(1,21)                 1.4933         D2E/DX2 =    0.3542             !
 ! R4    R(2,4)                  1.33           D2E/DX2 =    0.6816             !
 ! R5    R(2,16)                 1.0909         D2E/DX2 =    0.3703             !
 ! R6    R(2,20)                 1.7391         D2E/DX2 =    0.2715             !
 ! R7    R(3,6)                  1.3509         D2E/DX2 =    0.5108             !
 ! R8    R(3,7)                  1.4998         D2E/DX2 =    0.3486             !
 ! R9    R(3,17)                 1.5061         D2E/DX2 =    0.2772             !
 ! R10   R(4,13)                 1.5036         D2E/DX2 =    0.314              !
 ! R11   R(4,15)                 1.0939         D2E/DX2 =    0.3625             !
 ! R12   R(5,6)                  1.4646         D2E/DX2 =    0.3121             !
 ! R13   R(5,26)                 1.0917         D2E/DX2 =    0.3664             !
 ! R14   R(6,25)                 1.0922         D2E/DX2 =    0.365              !
 ! R15   R(7,8)                  1.1018         D2E/DX2 =    0.3366             !
 ! R16   R(7,9)                  1.1038         D2E/DX2 =    0.3309             !
 ! R17   R(7,10)                 1.533          D2E/DX2 =    0.3171             !
 ! R18   R(10,11)                1.1002         D2E/DX2 =    0.3436             !
 ! R19   R(10,12)                1.105          D2E/DX2 =    0.3326             !
 ! R20   R(10,13)                1.5204         D2E/DX2 =    0.3162             !
 ! R21   R(13,14)                1.208          D2E/DX2 =    0.9305             !
 ! R22   R(17,18)                1.1059         D2E/DX2 =    0.3304             !
 ! R23   R(17,19)                1.104          D2E/DX2 =    0.3374             !
 ! R24   R(21,22)                1.1027         D2E/DX2 =    0.3363             !
 ! R25   R(21,23)                1.099          D2E/DX2 =    0.3461             !
 ! R26   R(21,24)                1.1023         D2E/DX2 =    0.337              !
 ! A1    A(5,1,17)             108.2143         D2E/DX2 =    0.0998             !
 ! A2    A(5,1,21)             128.7054         D2E/DX2 =    0.109              !
 ! A3    A(17,1,21)            123.0771         D2E/DX2 =    0.1095             !
 ! A4    A(4,2,16)             123.0242         D2E/DX2 =    0.1057             !
 ! A5    A(4,2,20)             123.6555         D2E/DX2 =    0.1539             !
 ! A6    A(16,2,20)            113.2501         D2E/DX2 =    0.1135             !
 ! A7    A(6,3,7)              127.8685         D2E/DX2 =    0.1199             !
 ! A8    A(6,3,17)             108.1257         D2E/DX2 =    0.101              !
 ! A9    A(7,3,17)             123.995          D2E/DX2 =    0.1259             !
 ! A10   A(2,4,13)             125.6176         D2E/DX2 =    0.1227             !
 ! A11   A(2,4,15)             117.2198         D2E/DX2 =    0.1003             !
 ! A12   A(13,4,15)            117.1534         D2E/DX2 =    0.0919             !
 ! A13   A(1,5,6)              109.6452         D2E/DX2 =    0.0902             !
 ! A14   A(1,5,26)             125.5424         D2E/DX2 =    0.0854             !
 ! A15   A(6,5,26)             124.8086         D2E/DX2 =    0.0842             !
 ! A16   A(3,6,5)              109.769          D2E/DX2 =    0.0907             !
 ! A17   A(3,6,25)             125.4351         D2E/DX2 =    0.0855             !
 ! A18   A(5,6,25)             124.7687         D2E/DX2 =    0.0842             !
 ! A19   A(3,7,8)              109.2863         D2E/DX2 =    0.0658             !
 ! A20   A(3,7,9)              109.638          D2E/DX2 =    0.0707             !
 ! A21   A(3,7,10)             114.6077         D2E/DX2 =    0.2274             !
 ! A22   A(8,7,9)              105.8561         D2E/DX2 =    0.0244             !
 ! A23   A(8,7,10)             110.2747         D2E/DX2 =    0.0793             !
 ! A24   A(9,7,10)             106.793          D2E/DX2 =    0.072              !
 ! A25   A(7,10,11)            111.0866         D2E/DX2 =    0.0763             !
 ! A26   A(7,10,12)            109.5894         D2E/DX2 =    0.0698             !
 ! A27   A(7,10,13)            118.5688         D2E/DX2 =    0.2652             !
 ! A28   A(11,10,12)           105.354          D2E/DX2 =    0.0246             !
 ! A29   A(11,10,13)           106.6319         D2E/DX2 =    0.0904             !
 ! A30   A(12,10,13)           104.6705         D2E/DX2 =    0.0646             !
 ! A31   A(4,13,10)            118.7365         D2E/DX2 =    0.2331             !
 ! A32   A(4,13,14)            120.5696         D2E/DX2 =    0.188              !
 ! A33   A(10,13,14)           120.6816         D2E/DX2 =    0.1955             !
 ! A34   A(1,17,3)             104.2123         D2E/DX2 =    0.0959             !
 ! A35   A(1,17,18)            111.375          D2E/DX2 =    0.0398             !
 ! A36   A(1,17,19)            111.1242         D2E/DX2 =    0.0421             !
 ! A37   A(3,17,18)            111.4702         D2E/DX2 =    0.0392             !
 ! A38   A(3,17,19)            112.8295         D2E/DX2 =    0.0411             !
 ! A39   A(18,17,19)           105.967          D2E/DX2 =    0.0254             !
 ! A40   A(1,21,22)            110.7933         D2E/DX2 =    0.1206             !
 ! A41   A(1,21,23)            111.3674         D2E/DX2 =    0.1204             !
 ! A42   A(1,21,24)            111.4384         D2E/DX2 =    0.1199             !
 ! A43   A(22,21,23)           108.1401         D2E/DX2 =    0.0648             !
 ! A44   A(22,21,24)           106.8186         D2E/DX2 =    0.0652             !
 ! A45   A(23,21,24)           108.1            D2E/DX2 =    0.0653             !
 ! D1    D(17,1,5,6)             0.9268         D2E/DX2 =    0.0105             !
 ! D2    D(17,1,5,26)         -179.7615         D2E/DX2 =    0.0078             !
 ! D3    D(21,1,5,6)          -178.426          D2E/DX2 =    0.0092             !
 ! D4    D(21,1,5,26)            0.8857         D2E/DX2 =    0.0074             !
 ! D5    D(5,1,17,3)            -1.6615         D2E/DX2 =    0.0098             !
 ! D6    D(5,1,17,18)          118.6426         D2E/DX2 =    0.0168             !
 ! D7    D(5,1,17,19)         -123.4593         D2E/DX2 =    0.0175             !
 ! D8    D(21,1,17,3)          177.7357         D2E/DX2 =    0.0082             !
 ! D9    D(21,1,17,18)         -61.9601         D2E/DX2 =    0.0151             !
 ! D10   D(21,1,17,19)          55.9379         D2E/DX2 =    0.0156             !
 ! D11   D(5,1,21,22)          119.2252         D2E/DX2 =    0.0146             !
 ! D12   D(5,1,21,23)           -1.1845         D2E/DX2 =    0.015              !
 ! D13   D(5,1,21,24)         -121.9838         D2E/DX2 =    0.0145             !
 ! D14   D(17,1,21,22)         -60.0411         D2E/DX2 =    0.0152             !
 ! D15   D(17,1,21,23)         179.5492         D2E/DX2 =    0.0148             !
 ! D16   D(17,1,21,24)          58.7499         D2E/DX2 =    0.0151             !
 ! D17   D(16,2,4,13)         -179.6821         D2E/DX2 =    0.0248             !
 ! D18   D(16,2,4,15)            1.4544         D2E/DX2 =    0.0224             !
 ! D19   D(20,2,4,13)            3.571          D2E/DX2 =    0.0287             !
 ! D20   D(20,2,4,15)         -175.2924         D2E/DX2 =    0.0392             !
 ! D21   D(7,3,6,5)            177.4775         D2E/DX2 =    0.0096             !
 ! D22   D(7,3,6,25)            -0.6957         D2E/DX2 =    0.0079             !
 ! D23   D(17,3,6,5)            -1.3508         D2E/DX2 =    0.0108             !
 ! D24   D(17,3,6,25)         -179.524          D2E/DX2 =    0.008              !
 ! D25   D(6,3,7,8)            -10.5397         D2E/DX2 =    0.0163             !
 ! D26   D(6,3,7,9)            105.0681         D2E/DX2 =    0.0166             !
 ! D27   D(6,3,7,10)          -134.877          D2E/DX2 =    0.0179             !
 ! D28   D(17,3,7,8)           168.1171         D2E/DX2 =    0.0198             !
 ! D29   D(17,3,7,9)           -76.2751         D2E/DX2 =    0.0178             !
 ! D30   D(17,3,7,10)           43.7798         D2E/DX2 =    0.0203             !
 ! D31   D(6,3,17,1)             1.8295         D2E/DX2 =    0.01               !
 ! D32   D(6,3,17,18)         -118.4106         D2E/DX2 =    0.0174             !
 ! D33   D(6,3,17,19)          122.4923         D2E/DX2 =    0.0178             !
 ! D34   D(7,3,17,1)          -177.0548         D2E/DX2 =    0.0087             !
 ! D35   D(7,3,17,18)           62.7051         D2E/DX2 =    0.0155             !
 ! D36   D(7,3,17,19)          -56.392          D2E/DX2 =    0.0157             !
 ! D37   D(2,4,13,10)         -111.7244         D2E/DX2 =    0.0213             !
 ! D38   D(2,4,13,14)           67.0061         D2E/DX2 =    0.0151             !
 ! D39   D(15,4,13,10)          67.1397         D2E/DX2 =    0.014              !
 ! D40   D(15,4,13,14)        -114.1298         D2E/DX2 =    0.0094             !
 ! D41   D(1,5,6,3)              0.2772         D2E/DX2 =    0.0117             !
 ! D42   D(1,5,6,25)           178.4652         D2E/DX2 =    0.008              !
 ! D43   D(26,5,6,3)          -179.0407         D2E/DX2 =    0.008              !
 ! D44   D(26,5,6,25)           -0.8527         D2E/DX2 =    0.0085             !
 ! D45   D(3,7,10,11)         -175.4133         D2E/DX2 =    0.023              !
 ! D46   D(3,7,10,12)          -59.4086         D2E/DX2 =    0.0175             !
 ! D47   D(3,7,10,13)           60.5825         D2E/DX2 =    0.0293             !
 ! D48   D(8,7,10,11)           60.7749         D2E/DX2 =    0.0171             !
 ! D49   D(8,7,10,12)          176.7797         D2E/DX2 =    0.0201             !
 ! D50   D(8,7,10,13)          -63.2293         D2E/DX2 =    0.019              !
 ! D51   D(9,7,10,11)          -53.7901         D2E/DX2 =    0.0182             !
 ! D52   D(9,7,10,12)           62.2147         D2E/DX2 =    0.0176             !
 ! D53   D(9,7,10,13)         -177.7943         D2E/DX2 =    0.0235             !
 ! D54   D(7,10,13,4)          -20.589          D2E/DX2 =    0.0152             !
 ! D55   D(7,10,13,14)         160.682          D2E/DX2 =    0.0208             !
 ! D56   D(11,10,13,4)        -146.7601         D2E/DX2 =    0.0166             !
 ! D57   D(11,10,13,14)         34.5109         D2E/DX2 =    0.0175             !
 ! D58   D(12,10,13,4)         101.9025         D2E/DX2 =    0.018              !
 ! D59   D(12,10,13,14)        -76.8266         D2E/DX2 =    0.0167             !
 --------------------------------------------------------------------------------
 Trust Radius=1.00D-01 FncErr=1.00D-07 GrdErr=1.00D-06 EigMax=2.50D+02 EigMin=1.00D-04
 Number of steps in this run=     50 maximum allowed number of steps=    156.
 Search for a saddle point of order  1.
 GradGradGradGradGradGradGradGradGradGradGradGradGradGradGradGradGradGrad

                          Input orientation:                          
 ---------------------------------------------------------------------
 Center     Atomic      Atomic             Coordinates (Angstroms)
 Number     Number       Type             X           Y           Z
 ---------------------------------------------------------------------
      1          6           0       -2.468500    0.317730   -0.219740
      2          6           0        0.992540    1.271430    1.116470
      3          6           0       -0.921410   -1.476460   -0.039720
      4          6           0        1.368420   -0.004220    1.098260
      5          6           0       -2.674300   -0.346420    0.939360
      6          6           0       -1.722660   -1.454440    1.047630
      7          6           0        0.223010   -2.404060   -0.321420
      8          1           0        0.458340   -2.978570    0.588830
      9          1           0       -0.080390   -3.148470   -1.077880
     10          6           0        1.484510   -1.717170   -0.857040
     11          1           0        2.256260   -2.455990   -1.119810
     12          1           0        1.248480   -1.192500   -1.800420
     13          6           0        2.163680   -0.667320    0.007930
     14          8           0        3.313370   -0.354390   -0.191110
     15          1           0        1.057610   -0.629520    1.940350
     16          1           0        0.418960    1.710590    1.933850
     17          6           0       -1.348340   -0.362410   -0.958990
     18          1           0       -1.688620   -0.752120   -1.936450
     19          1           0       -0.531220    0.345700   -1.182150
     20         17           0        1.291140    2.382890   -0.187340
     21          6           0       -3.172510    1.527310   -0.740580
     22          1           0       -2.465520    2.361910   -0.880300
     23          1           0       -3.961680    1.859110   -0.051390
     24          1           0       -3.634630    1.333020   -1.722320
     25          1           0       -1.655360   -2.136840    1.897720
     26          1           0       -3.425100   -0.094080    1.690700
 ---------------------------------------------------------------------
                    Distance matrix (angstroms):
                    1          2          3          4          5
     1  C    0.000000
     2  C    3.830639   0.000000
     3  C    2.375923   3.542722   0.000000
     4  C    4.069734   1.330000   2.950561   0.000000
     5  C    1.351651   4.011798   2.303956   4.060288   0.000000
     6  C    2.302844   3.848041   1.350858   3.414744   1.464599
     7  C    3.829191   4.021061   1.499831   3.014413   3.770657
     8  H    4.481715   4.315817   2.134273   3.151908   4.106643
     9  H    4.295814   5.049937   2.140259   4.089125   4.318462
    10  C    4.491465   3.615039   2.552333   2.602090   4.733044
    11  H    5.552207   4.526764   3.496235   3.423342   5.744640
    12  H    4.312225   3.826840   2.808758   3.135082   4.859058
    13  C    4.741229   2.521742   3.189790   1.503649   4.937265
    14  O    5.820875   3.120786   4.383528   2.359645   6.093457
    15  H    4.242254   2.072830   2.924808   1.093946   3.874181
    16  H    3.862051   1.090855   3.981062   2.130788   3.845589
    17  C    1.504606   3.529403   1.506132   3.426567   2.315633
    18  H    2.167922   4.539129   2.170453   4.371992   3.066992
    19  H    2.163347   2.909033   2.185786   2.988536   3.093966
    20  Cl   4.289619   1.739088   4.451039   2.712385   4.944017
    21  C    1.493314   4.567467   3.818546   5.132929   2.565400
    22  H    2.148260   4.139374   4.221840   4.920606   3.269526
    23  H    2.152622   5.123823   4.513248   5.762262   2.739214
    24  H    2.156019   5.428925   4.252750   5.896982   3.290485
    25  H    3.342117   4.386118   2.174502   3.785558   2.272069
    26  H    2.175880   4.659388   3.342722   4.830827   1.091736
                    6          7          8          9         10
     6  C    0.000000
     7  C    2.561583   0.000000
     8  H    2.700043   1.101815   0.000000
     9  H    3.175623   1.103825   1.759835   0.000000
    10  C    3.739349   1.533000   2.175935   2.132206   0.000000
    11  H    4.640334   2.185001   2.534770   2.437462   1.100228
    12  H    4.124036   2.169541   3.085917   2.472606   1.104968
    13  C    4.099289   2.625059   2.930445   3.517235   1.520405
    14  O    5.301527   3.710587   3.955480   4.484512   2.375997
    15  H    3.034360   2.993518   2.775566   4.092660   3.031603
    16  H    3.922925   4.696273   4.878407   5.738496   4.546867
    17  C    2.314988   2.654048   3.536118   3.063325   3.141784
    18  H    3.065803   2.998592   3.992938   3.010986   3.487865
    19  H    3.103539   2.978405   3.894402   3.524676   2.902464
    20  Cl   5.033214   4.906503   5.480990   5.768024   4.158892
    21  C    3.767040   5.211614   5.937454   5.615861   5.676975
    22  H    4.339733   5.500455   6.263228   6.007676   5.678219
    23  H    4.147369   5.979897   6.584042   6.418251   6.565047
    24  H    4.370147   5.550646   6.378372   5.756012   6.021459
    25  H    1.092178   2.919634   2.624772   3.515412   4.198048
    26  H    2.272096   4.763753   4.961402   5.308617   5.764518
                   11         12         13         14         15
    11  H    0.000000
    12  H    1.753641   0.000000
    13  C    2.116532   2.093689   0.000000
    14  O    2.529167   2.748832   1.208027   0.000000
    15  H    3.759965   3.787709   2.226896   3.115649   0.000000
    16  H    5.482782   4.802167   3.522453   4.142126   2.425702
    17  C    4.171580   2.853161   3.655433   4.724536   3.777051
    18  H    4.374032   2.973045   4.316019   5.312655   4.752514
    19  H    3.952644   2.432211   3.115283   4.031521   3.636680
    20  Cl   5.021525   3.922660   3.178559   3.403253   3.695432
    21  C    6.744037   5.297715   5.818212   6.775644   5.452817
    22  H    6.750165   5.222475   5.603096   6.422526   5.414533
    23  H    7.643585   6.286270   6.626191   7.605620   5.945888
    24  H    7.030092   5.498101   6.373031   7.312090   6.267681
    25  H    4.950567   4.795863   4.507312   5.677025   3.103875
    26  H    6.764277   5.936059   5.864706   7.001139   4.521472
                   16         17         18         19         20
    16  H    0.000000
    17  C    3.973563   0.000000
    18  H    5.048372   1.105935   0.000000
    19  H    3.532028   1.104040   1.764583   0.000000
    20  Cl   2.390007   3.885739   4.665474   2.908743   0.000000
    21  C    4.481610   2.635591   2.971167   2.927046   4.578456
    22  H    4.082142   2.945539   3.378788   2.810290   3.820095
    23  H    4.811782   3.548018   3.941925   3.916259   5.280620
    24  H    5.471904   2.946910   2.860178   3.301172   5.265131
    25  H    4.371136   3.376930   4.076692   4.112456   5.784228
    26  H    4.253558   3.377246   4.074874   4.101367   5.648481
                   21         22         23         24         25
    21  C    0.000000
    22  H    1.102685   0.000000
    23  H    1.099028   1.782805   0.000000
    24  H    1.102323   1.770432   1.782060   0.000000
    25  H    4.763231   5.349066   5.008568   5.390930   0.000000
    26  H    2.933229   3.682760   2.671656   3.705297   2.710665
                   26
    26  H    0.000000
 Stoichiometry    C11H13ClO
 Framework group  C1[X(C11H13ClO)]
 Deg. of freedom    72
 Full point group                 C1      NOp   1
 Largest Abelian subgroup         C1      NOp   1
 Largest concise Abelian subgroup C1      NOp   1
                         Standard orientation:                         
 ---------------------------------------------------------------------
 Center     Atomic      Atomic             Coordinates (Angstroms)
 Number     Number       Type             X           Y           Z
 ---------------------------------------------------------------------
      1          6           0       -2.468501    0.317728   -0.219740
      2          6           0        0.992538    1.271430    1.116470
      3          6           0       -0.921411   -1.476461   -0.039720
      4          6           0        1.368419   -0.004220    1.098260
      5          6           0       -2.674301   -0.346422    0.939360
      6          6           0       -1.722661   -1.454441    1.047630
      7          6           0        0.223010   -2.404061   -0.321420
      8          1           0        0.458340   -2.978571    0.588830
      9          1           0       -0.080390   -3.148471   -1.077880
     10          6           0        1.484510   -1.717170   -0.857040
     11          1           0        2.256260   -2.455990   -1.119810
     12          1           0        1.248479   -1.192500   -1.800420
     13          6           0        2.163679   -0.667320    0.007930
     14          8           0        3.313369   -0.354389   -0.191110
     15          1           0        1.057609   -0.629520    1.940350
     16          1           0        0.418958    1.710589    1.933850
     17          6           0       -1.348341   -0.362411   -0.958990
     18          1           0       -1.688621   -0.752121   -1.936450
     19          1           0       -0.531221    0.345699   -1.182150
     20         17           0        1.291138    2.382890   -0.187340
     21          6           0       -3.172512    1.527308   -0.740580
     22          1           0       -2.465522    2.361908   -0.880300
     23          1           0       -3.961682    1.859108   -0.051390
     24          1           0       -3.634632    1.333018   -1.722320
     25          1           0       -1.655360   -2.136841    1.897720
     26          1           0       -3.425101   -0.094082    1.690700
 ---------------------------------------------------------------------
 Rotational constants (GHZ):           0.8866549           0.5787300           0.4147300
 Standard basis: def2SVP (5D, 7F)
 There are   264 symmetry adapted cartesian basis functions of A   symmetry.
 There are   251 symmetry adapted basis functions of A   symmetry.
   251 basis functions,   428 primitive gaussians,   264 cartesian basis functions
    52 alpha electrons       52 beta electrons
       nuclear repulsion energy       873.2374492313 Hartrees.
 NAtoms=   26 NActive=   26 NUniq=   26 SFac= 1.00D+00 NAtFMM=   60 NAOKFM=F Big=F
 Integral buffers will be    131072 words long.
 Raffenetti 2 integral format.
 Two-electron integral symmetry is turned on.
 Nuclear repulsion after empirical dispersion term =      873.2169311508 Hartrees.
 ------------------------------------------------------------------------------
 Polarizable Continuum Model (PCM)
 =================================
 Model                : PCM.
 Atomic radii         : UFF (Universal Force Field).
 Polarization charges : Total charges.
 Charge compensation  : None.
 Solution method      : On-the-fly selection.
 Cavity type          : Scaled VdW (van der Waals Surface) (Alpha=1.100).
 Cavity algorithm     : GePol (No added spheres)
                        Default sphere list used, NSphG=   26.
                        Lebedev-Laikov grids with approx.  5.0 points / Ang**2.
                        Smoothing algorithm: York/Karplus (Gamma=1.0000).
                        Polarization charges: spherical gaussians, with
                                              point-specific exponents (IZeta= 3).
                        Self-potential: point-specific (ISelfS= 7).
                        Self-field    : sphere-specific E.n sum rule (ISelfD= 2).
 1st derivatives      : Analytical E(r).r(x)/FMM algorithm (CHGder, D1EAlg=3).
                        Cavity 1st derivative terms included.
 Solvent              : Toluene, Eps=   2.374100 Eps(inf)=   2.238315
 ------------------------------------------------------------------------------
 One-electron integrals computed using PRISM.
   1 Symmetry operations used in ECPInt.
 ECPInt:  NShTT=    7140 NPrTT=   26096 LenC2=    6946 LenP2D=   19115.
 LDataN:  DoStor=T MaxTD1= 4 Len=   56
 NBasis=   251 RedAO= T EigKep=  5.71D-04  NBF=   251
 NBsUse=   251 1.00D-06 EigRej= -1.00D+00 NBFU=   251
 ExpMin= 1.22D-01 ExpMax= 1.04D+04 ExpMxC= 1.57D+03 IAcc=3 IRadAn=         5 AccDes= 0.00D+00
 Harris functional with IExCor= 4639 and IRadAn=       5 diagonalized for initial guess.
 HarFok:  IExCor= 4639 AccDes= 0.00D+00 IRadAn=         5 IDoV= 1 UseB2=F ITyADJ=14
 ICtDFT=  3500011 ScaDFX=  1.000000  1.000000  1.000000  1.000000
 FoFCou: FMM=F IPFlag=           0 FMFlag=      100000 FMFlg1=           0
         NFxFlg=           0 DoJE=T BraDBF=F KetDBF=T FulRan=T
         wScrn=  0.000000 ICntrl=       500 IOpCl=  0 I1Cent=   200000004 NGrid=           0
         NMat0=    1 NMatS0=      1 NMatT0=    0 NMatD0=    1 NMtDS0=    0 NMtDT0=    0
 Petite list used in FoFCou.
 Requested convergence on RMS density matrix=1.00D-08 within 128 cycles.
 Requested convergence on MAX density matrix=1.00D-06.
 Requested convergence on             energy=1.00D-06.
 No special actions if energy rises.
 Inv3:  Mode=1 IEnd=    12000000.
 Iteration    1 A*A^-1 deviation from unit magnitude is 3.33D-15 for    100.
 Iteration    1 A*A^-1 deviation from orthogonality  is 2.09D-15 for   1715   1639.
 Iteration    1 A^-1*A deviation from unit magnitude is 3.11D-15 for    776.
 Iteration    1 A^-1*A deviation from orthogonality  is 1.75D-15 for   1476   1103.
 Error on total polarization charges =  0.00624
 SCF Done:  E(RwB97XD) =  -961.702758624     A.U. after   15 cycles
            NFock= 15  Conv=0.48D-08     -V/T= 2.0068

 **********************************************************************

            Population analysis using the SCF Density.

 **********************************************************************

 Orbital symmetries:
       Occupied  (A) (A) (A) (A) (A) (A) (A) (A) (A) (A) (A) (A)
                 (A) (A) (A) (A) (A) (A) (A) (A) (A) (A) (A) (A)
                 (A) (A) (A) (A) (A) (A) (A) (A) (A) (A) (A) (A)
                 (A) (A) (A) (A) (A) (A) (A) (A) (A) (A) (A) (A)
                 (A) (A) (A) (A)
       Virtual   (A) (A) (A) (A) (A) (A) (A) (A) (A) (A) (A) (A)
                 (A) (A) (A) (A) (A) (A) (A) (A) (A) (A) (A) (A)
                 (A) (A) (A) (A) (A) (A) (A) (A) (A) (A) (A) (A)
                 (A) (A) (A) (A) (A) (A) (A) (A) (A) (A) (A) (A)
                 (A) (A) (A) (A) (A) (A) (A) (A) (A) (A) (A) (A)
                 (A) (A) (A) (A) (A) (A) (A) (A) (A) (A) (A) (A)
                 (A) (A) (A) (A) (A) (A) (A) (A) (A) (A) (A) (A)
                 (A) (A) (A) (A) (A) (A) (A) (A) (A) (A) (A) (A)
                 (A) (A) (A) (A) (A) (A) (A) (A) (A) (A) (A) (A)
                 (A) (A) (A) (A) (A) (A) (A) (A) (A) (A) (A) (A)
                 (A) (A) (A) (A) (A) (A) (A) (A) (A) (A) (A) (A)
                 (A) (A) (A) (A) (A) (A) (A) (A) (A) (A) (A) (A)
                 (A) (A) (A) (A) (A) (A) (A) (A) (A) (A) (A) (A)
                 (A) (A) (A) (A) (A) (A) (A) (A) (A) (A) (A) (A)
                 (A) (A) (A) (A) (A) (A) (A) (A) (A) (A) (A) (A)
                 (A) (A) (A) (A) (A) (A) (A) (A) (A) (A) (A) (A)
                 (A) (A) (A) (A) (A) (A) (A)
 The electronic state is 1-A.
 Alpha  occ. eigenvalues -- -101.68791 -19.25542 -10.40037 -10.36779 -10.32225
 Alpha  occ. eigenvalues --  -10.31259 -10.31231 -10.30186 -10.30080 -10.30049
 Alpha  occ. eigenvalues --  -10.29686 -10.29207 -10.29010  -9.59534  -7.34902
 Alpha  occ. eigenvalues --   -7.33979  -7.33910  -1.14498  -0.97844  -0.96150
 Alpha  occ. eigenvalues --   -0.89929  -0.86026  -0.83820  -0.79556  -0.77588
 Alpha  occ. eigenvalues --   -0.72960  -0.70511  -0.62719  -0.61631  -0.60762
 Alpha  occ. eigenvalues --   -0.59597  -0.57495  -0.55477  -0.54845  -0.53430
 Alpha  occ. eigenvalues --   -0.52543  -0.49932  -0.49801  -0.48956  -0.48600
 Alpha  occ. eigenvalues --   -0.47408  -0.45888  -0.45352  -0.44687  -0.43064
 Alpha  occ. eigenvalues --   -0.42832  -0.41364  -0.40118  -0.38207  -0.34791
 Alpha  occ. eigenvalues --   -0.33874  -0.28291
 Alpha virt. eigenvalues --    0.02924   0.04843   0.07733   0.12608   0.13315
 Alpha virt. eigenvalues --    0.14512   0.15302   0.16456   0.17479   0.18562
 Alpha virt. eigenvalues --    0.19276   0.20641   0.21725   0.22243   0.22713
 Alpha virt. eigenvalues --    0.23745   0.24443   0.24783   0.26455   0.30016
 Alpha virt. eigenvalues --    0.30787   0.31240   0.33810   0.34660   0.36752
 Alpha virt. eigenvalues --    0.38920   0.40359   0.41233   0.42463   0.44780
 Alpha virt. eigenvalues --    0.47615   0.48133   0.50884   0.52176   0.52721
 Alpha virt. eigenvalues --    0.53418   0.54230   0.54921   0.55708   0.56894
 Alpha virt. eigenvalues --    0.58003   0.58534   0.60399   0.62880   0.63490
 Alpha virt. eigenvalues --    0.64844   0.66077   0.68555   0.69050   0.69819
 Alpha virt. eigenvalues --    0.70317   0.70818   0.71230   0.72448   0.73096
 Alpha virt. eigenvalues --    0.73719   0.73898   0.74711   0.74992   0.75886
 Alpha virt. eigenvalues --    0.76324   0.77150   0.77613   0.78331   0.78468
 Alpha virt. eigenvalues --    0.78685   0.79572   0.80021   0.80957   0.82457
 Alpha virt. eigenvalues --    0.83144   0.83340   0.84583   0.86743   0.87064
 Alpha virt. eigenvalues --    0.88564   0.89858   0.91019   0.91865   0.93072
 Alpha virt. eigenvalues --    0.95053   0.97071   0.98630   1.01990   1.04168
 Alpha virt. eigenvalues --    1.06598   1.08172   1.09317   1.10880   1.13700
 Alpha virt. eigenvalues --    1.14761   1.17531   1.18947   1.23660   1.24357
 Alpha virt. eigenvalues --    1.25023   1.26654   1.29892   1.33398   1.34365
 Alpha virt. eigenvalues --    1.34399   1.37716   1.41342   1.43937   1.46064
 Alpha virt. eigenvalues --    1.55233   1.58544   1.59908   1.60836   1.62052
 Alpha virt. eigenvalues --    1.62373   1.65660   1.66097   1.66655   1.69623
 Alpha virt. eigenvalues --    1.70844   1.73589   1.75473   1.77800   1.79285
 Alpha virt. eigenvalues --    1.80785   1.81435   1.82712   1.83051   1.84084
 Alpha virt. eigenvalues --    1.85124   1.85876   1.86647   1.87514   1.88325
 Alpha virt. eigenvalues --    1.89918   1.91037   1.91939   1.94051   1.94486
 Alpha virt. eigenvalues --    1.96329   1.97091   1.99813   2.01375   2.03640
 Alpha virt. eigenvalues --    2.05158   2.06439   2.07715   2.08848   2.10324
 Alpha virt. eigenvalues --    2.14453   2.15599   2.16617   2.17269   2.18745
 Alpha virt. eigenvalues --    2.21567   2.24217   2.25377   2.29171   2.30497
 Alpha virt. eigenvalues --    2.33340   2.34824   2.35786   2.36342   2.39050
 Alpha virt. eigenvalues --    2.41307   2.42949   2.44760   2.48089   2.48557
 Alpha virt. eigenvalues --    2.49448   2.53012   2.56217   2.57708   2.65207
 Alpha virt. eigenvalues --    2.66237   2.68958   2.70763   2.73320   2.74610
 Alpha virt. eigenvalues --    2.76434   2.78439   2.79045   2.79365   2.81904
 Alpha virt. eigenvalues --    2.82212   2.83683   2.87518   2.92070   2.95175
 Alpha virt. eigenvalues --    2.99497   3.01183   3.02048   3.05205   3.08597
 Alpha virt. eigenvalues --    3.11767   3.13246   3.20361   3.21973   3.25884
 Alpha virt. eigenvalues --    3.27059   3.47914   3.48610   3.70743
          Condensed to atoms (all electrons):
               1          2          3          4          5          6
     1  C    5.082900   0.003624  -0.096526  -0.001369   0.590599  -0.002205
     2  C    0.003624   4.720982  -0.006968   0.630756   0.002680  -0.002690
     3  C   -0.096526  -0.006968   5.193644  -0.004942  -0.006468   0.582263
     4  C   -0.001369   0.630756  -0.004942   5.105749  -0.001380  -0.000419
     5  C    0.590599   0.002680  -0.006468  -0.001380   4.963615   0.274222
     6  C   -0.002205  -0.002690   0.582263  -0.000419   0.274222   4.989701
     7  C    0.010392  -0.001940   0.335294   0.013128   0.009886  -0.060795
     8  H   -0.000614   0.000402  -0.015029  -0.002261   0.000690  -0.015221
     9  H    0.000461  -0.000039  -0.001005   0.000001  -0.000651   0.001622
    10  C    0.000508   0.007624  -0.048566  -0.168760  -0.000434   0.002710
    11  H   -0.000012  -0.000303   0.006406   0.011255   0.000012  -0.000149
    12  H   -0.000014  -0.000363  -0.014625   0.002940   0.000073  -0.000150
    13  C    0.000079  -0.031445  -0.006810   0.269379   0.000024   0.001191
    14  O    0.000000   0.000271  -0.000079  -0.080342  -0.000000  -0.000000
    15  H   -0.000018   0.003504   0.004550   0.370397  -0.000878   0.002604
    16  H    0.000303   0.409449  -0.000199  -0.021237   0.001178  -0.000238
    17  C    0.334754  -0.000095   0.333473   0.003569  -0.091799  -0.109233
    18  H    0.003023   0.000153  -0.001044   0.000157   0.000386   0.000602
    19  H   -0.008124  -0.002534   0.001310  -0.009069   0.001266   0.003295
    20  Cl   0.000380   0.286308   0.000372  -0.086047  -0.000119   0.000068
    21  C    0.403557  -0.000142   0.009069   0.000019  -0.063929   0.010141
    22  H   -0.015875  -0.000542   0.000473   0.000052   0.001547  -0.000370
    23  H   -0.010486  -0.000004  -0.000597   0.000001  -0.012164   0.000429
    24  H   -0.015143   0.000026   0.000582  -0.000005   0.002828  -0.000538
    25  H    0.007430   0.000008  -0.065518  -0.000265  -0.053473   0.442414
    26  H   -0.064379  -0.000019   0.007764   0.000006   0.443958  -0.056674
               7          8          9         10         11         12
     1  C    0.010392  -0.000614   0.000461   0.000508  -0.000012  -0.000014
     2  C   -0.001940   0.000402  -0.000039   0.007624  -0.000303  -0.000363
     3  C    0.335294  -0.015029  -0.001005  -0.048566   0.006406  -0.014625
     4  C    0.013128  -0.002261   0.000001  -0.168760   0.011255   0.002940
     5  C    0.009886   0.000690  -0.000651  -0.000434   0.000012   0.000073
     6  C   -0.060795  -0.015221   0.001622   0.002710  -0.000149  -0.000150
     7  C    4.713894   0.380461   0.341942   0.308059  -0.009186  -0.007479
     8  H    0.380461   0.662644  -0.023262  -0.025884  -0.005178   0.006489
     9  H    0.341942  -0.023262   0.648828  -0.006564  -0.005939  -0.008276
    10  C    0.308059  -0.025884  -0.006564   5.091700   0.340909   0.350446
    11  H   -0.009186  -0.005178  -0.005939   0.340909   0.606599  -0.006044
    12  H   -0.007479   0.006489  -0.008276   0.350446  -0.006044   0.592417
    13  C   -0.035935  -0.007871   0.006604   0.295123  -0.008033  -0.004573
    14  O    0.004656   0.000156  -0.000163  -0.088146   0.007669   0.000910
    15  H    0.000328   0.000409   0.000160  -0.002680  -0.000285   0.000101
    16  H    0.000096   0.000004  -0.000003  -0.000400   0.000009   0.000024
    17  C   -0.079815   0.009924  -0.005806  -0.000321   0.000226   0.006711
    18  H    0.004155  -0.000269   0.001160  -0.001976  -0.000048   0.000644
    19  H   -0.010273  -0.000163   0.000149   0.006359  -0.000087   0.001223
    20  Cl   0.000014  -0.000003   0.000001  -0.002286  -0.000003   0.000855
    21  C   -0.000224   0.000006   0.000010   0.000000  -0.000000   0.000010
    22  H    0.000004  -0.000001   0.000003  -0.000011   0.000000  -0.000012
    23  H    0.000007  -0.000000  -0.000000   0.000000   0.000000  -0.000000
    24  H    0.000014   0.000000  -0.000007   0.000002  -0.000000   0.000003
    25  H   -0.012038   0.004820   0.000306   0.000141  -0.000008   0.000001
    26  H   -0.000312   0.000009   0.000006   0.000006  -0.000000  -0.000000
              13         14         15         16         17         18
     1  C    0.000079   0.000000  -0.000018   0.000303   0.334754   0.003023
     2  C   -0.031445   0.000271   0.003504   0.409449  -0.000095   0.000153
     3  C   -0.006810  -0.000079   0.004550  -0.000199   0.333473  -0.001044
     4  C    0.269379  -0.080342   0.370397  -0.021237   0.003569   0.000157
     5  C    0.000024  -0.000000  -0.000878   0.001178  -0.091799   0.000386
     6  C    0.001191  -0.000000   0.002604  -0.000238  -0.109233   0.000602
     7  C   -0.035935   0.004656   0.000328   0.000096  -0.079815   0.004155
     8  H   -0.007871   0.000156   0.000409   0.000004   0.009924  -0.000269
     9  H    0.006604  -0.000163   0.000160  -0.000003  -0.005806   0.001160
    10  C    0.295123  -0.088146  -0.002680  -0.000400  -0.000321  -0.001976
    11  H   -0.008033   0.007669  -0.000285   0.000009   0.000226  -0.000048
    12  H   -0.004573   0.000910   0.000101   0.000024   0.006711   0.000644
    13  C    4.767499   0.695105  -0.022574   0.006804  -0.004648   0.000266
    14  O    0.695105   7.684170   0.001259  -0.000144   0.000017  -0.000001
    15  H   -0.022574   0.001259   0.568597  -0.010882  -0.000282   0.000001
    16  H    0.006804  -0.000144  -0.010882   0.552859  -0.000184   0.000008
    17  C   -0.004648   0.000017  -0.000282  -0.000184   4.857575   0.333146
    18  H    0.000266  -0.000001   0.000001   0.000008   0.333146   0.610539
    19  H    0.000326  -0.000130   0.000043   0.000179   0.331150  -0.015230
    20  Cl   0.008401  -0.000851   0.003677  -0.037238  -0.006448   0.000014
    21  C   -0.000001  -0.000000   0.000001  -0.000001  -0.066863  -0.000780
    22  H    0.000001   0.000000   0.000000  -0.000104  -0.005848  -0.000082
    23  H   -0.000000   0.000000  -0.000000   0.000002   0.008809  -0.000240
    24  H    0.000000   0.000000  -0.000000   0.000002  -0.005654   0.001959
    25  H   -0.000008   0.000000   0.000671  -0.000006   0.014733  -0.000386
    26  H    0.000001  -0.000000  -0.000003   0.000016   0.015158  -0.000379
              19         20         21         22         23         24
     1  C   -0.008124   0.000380   0.403557  -0.015875  -0.010486  -0.015143
     2  C   -0.002534   0.286308  -0.000142  -0.000542  -0.000004   0.000026
     3  C    0.001310   0.000372   0.009069   0.000473  -0.000597   0.000582
     4  C   -0.009069  -0.086047   0.000019   0.000052   0.000001  -0.000005
     5  C    0.001266  -0.000119  -0.063929   0.001547  -0.012164   0.002828
     6  C    0.003295   0.000068   0.010141  -0.000370   0.000429  -0.000538
     7  C   -0.010273   0.000014  -0.000224   0.000004   0.000007   0.000014
     8  H   -0.000163  -0.000003   0.000006  -0.000001  -0.000000   0.000000
     9  H    0.000149   0.000001   0.000010   0.000003  -0.000000  -0.000007
    10  C    0.006359  -0.002286   0.000000  -0.000011   0.000000   0.000002
    11  H   -0.000087  -0.000003  -0.000000   0.000000   0.000000  -0.000000
    12  H    0.001223   0.000855   0.000010  -0.000012  -0.000000   0.000003
    13  C    0.000326   0.008401  -0.000001   0.000001  -0.000000   0.000000
    14  O   -0.000130  -0.000851  -0.000000   0.000000   0.000000   0.000000
    15  H    0.000043   0.003677   0.000001   0.000000  -0.000000  -0.000000
    16  H    0.000179  -0.037238  -0.000001  -0.000104   0.000002   0.000002
    17  C    0.331150  -0.006448  -0.066863  -0.005848   0.008809  -0.005654
    18  H   -0.015230   0.000014  -0.000780  -0.000082  -0.000240   0.001959
    19  H    0.639823   0.020259  -0.000659   0.003119  -0.000241  -0.000293
    20  Cl   0.020259  16.912754  -0.000871   0.003218   0.000003  -0.000001
    21  C   -0.000659  -0.000871   4.520488   0.380122   0.386432   0.383113
    22  H    0.003119   0.003218   0.380122   0.631223  -0.019735  -0.023136
    23  H   -0.000241   0.000003   0.386432  -0.019735   0.628540  -0.020332
    24  H   -0.000293  -0.000001   0.383113  -0.023136  -0.020332   0.631393
    25  H   -0.000337   0.000001  -0.000293   0.000007   0.000006   0.000005
    26  H   -0.000373  -0.000000  -0.010759   0.000136   0.004509   0.000093
              25         26
     1  C    0.007430  -0.064379
     2  C    0.000008  -0.000019
     3  C   -0.065518   0.007764
     4  C   -0.000265   0.000006
     5  C   -0.053473   0.443958
     6  C    0.442414  -0.056674
     7  C   -0.012038  -0.000312
     8  H    0.004820   0.000009
     9  H    0.000306   0.000006
    10  C    0.000141   0.000006
    11  H   -0.000008  -0.000000
    12  H    0.000001  -0.000000
    13  C   -0.000008   0.000001
    14  O    0.000000  -0.000000
    15  H    0.000671  -0.000003
    16  H   -0.000006   0.000016
    17  C    0.014733   0.015158
    18  H   -0.000386  -0.000379
    19  H   -0.000337  -0.000373
    20  Cl   0.000001  -0.000000
    21  C   -0.000293  -0.010759
    22  H    0.000007   0.000136
    23  H    0.000006   0.004509
    24  H    0.000005   0.000093
    25  H    0.659657  -0.003587
    26  H   -0.003587   0.659185
 Mulliken charges:
               1
     1  C   -0.223243
     2  C   -0.018702
     3  C   -0.206821
     4  C   -0.031311
     5  C   -0.061671
     6  C   -0.062576
     7  C    0.095667
     8  H    0.029742
     9  H    0.050462
    10  C   -0.057560
    11  H    0.062190
    12  H    0.078688
    13  C    0.071096
    14  O   -0.224356
    15  H    0.081299
    16  H    0.099701
    17  C    0.127748
    18  H    0.064222
    19  H    0.039015
    20  Cl  -0.102460
    21  C    0.051551
    22  H    0.045808
    23  H    0.035062
    24  H    0.045091
    25  H    0.005719
    26  H    0.005639
 Sum of Mulliken charges =  -0.00000
 Mulliken charges with hydrogens summed into heavy atoms:
               1
     1  C   -0.223243
     2  C    0.080999
     3  C   -0.206821
     4  C    0.049988
     5  C   -0.056032
     6  C   -0.056857
     7  C    0.175871
    10  C    0.083317
    13  C    0.071096
    14  O   -0.224356
    17  C    0.230985
    20  Cl  -0.102460
    21  C    0.177513
 Electronic spatial extent (au):  <R**2>=           2796.4278
 Charge=              0.0000 electrons
 Dipole moment (field-independent basis, Debye):
    X=             -3.0706    Y=             -1.3927    Z=              0.4641  Tot=              3.4034
 Quadrupole moment (field-independent basis, Debye-Ang):
   XX=            -98.8993   YY=            -80.9040   ZZ=            -77.0232
   XY=             -5.4296   XZ=              1.0093   YZ=              0.5657
 Traceless Quadrupole moment (field-independent basis, Debye-Ang):
   XX=            -13.2905   YY=              4.7049   ZZ=              8.5857
   XY=             -5.4296   XZ=              1.0093   YZ=              0.5657
 Octapole moment (field-independent basis, Debye-Ang**2):
  XXX=            -40.7917  YYY=              1.9898  ZZZ=              0.2077  XYY=             11.4122
  XXY=              9.5899  XXZ=              2.6938  XZZ=              2.1659  YZZ=              1.2951
  YYZ=             -0.1887  XYZ=              0.4092
 Hexadecapole moment (field-independent basis, Debye-Ang**3):
 XXXX=          -2237.1775 YYYY=          -1237.3799 ZZZZ=           -396.6130 XXXY=            -27.2351
 XXXZ=             -7.6041 YYYX=            -15.7523 YYYZ=             -1.4346 ZZZX=             -5.8524
 ZZZY=             -0.8396 XXYY=           -546.6581 XXZZ=           -388.9119 YYZZ=           -256.6094
 XXYZ=             -6.5225 YYXZ=             -7.6648 ZZXY=              4.7188
 N-N= 8.732169311508D+02 E-N=-4.003414555320D+03  KE= 9.552502323653D+02
   1 Symmetry operations used in ECPInt.
 ECPInt:  NShTT=    7140 NPrTT=   26096 LenC2=    6946 LenP2D=   19115.
 LDataN:  DoStor=T MaxTD1= 5 Len=  102
 D1PCM: PCM CHGder 1st derivatives, ID1Alg=3 FixD1E=F DoIter=F DoCFld=F I1PDM=0.
 Calling FoFJK, ICntrl=      2127 FMM=F ISym2X=0 I1Cent= 0 IOpClX= 0 NMat=1 NMatS=1 NMatT=0.
 ***** Axes restored to original set *****
 -------------------------------------------------------------------
 Center     Atomic                   Forces (Hartrees/Bohr)
 Number     Number              X              Y              Z
 -------------------------------------------------------------------
      1        6           0.000002539    0.000009398    0.000010183
      2        6           0.000001296   -0.000000667   -0.000005881
      3        6          -0.000058673   -0.000046784   -0.000047251
      4        6           0.000009260   -0.000017575    0.000026058
      5        6          -0.000003280    0.000006630   -0.000002539
      6        6           0.000024587    0.000015011    0.000007220
      7        6           0.000027876    0.000019044    0.000030798
      8        1          -0.000004490   -0.000002565   -0.000002584
      9        1          -0.000001441   -0.000005304    0.000003337
     10        6          -0.000013694   -0.000005340    0.000019235
     11        1           0.000001600   -0.000002717   -0.000001411
     12        1          -0.000011066   -0.000002881    0.000000704
     13        6          -0.000000789    0.000011202   -0.000030773
     14        8           0.000004607   -0.000007632    0.000008642
     15        1          -0.000008740   -0.000002356   -0.000006477
     16        1           0.000002256   -0.000001647   -0.000001132
     17        6           0.000027857    0.000025783    0.000017551
     18        1          -0.000011590   -0.000001359    0.000003839
     19        1           0.000015445    0.000003194   -0.000008331
     20       17          -0.000007582   -0.000011356   -0.000007078
     21        6           0.000004416    0.000000202   -0.000008592
     22        1           0.000002743    0.000001605   -0.000002888
     23        1           0.000001779    0.000005236    0.000001337
     24        1           0.000003038    0.000004351    0.000001546
     25        1          -0.000004467    0.000003750   -0.000003064
     26        1          -0.000003487    0.000002778   -0.000002448
 -------------------------------------------------------------------
 Cartesian Forces:  Max     0.000058673 RMS     0.000014792

 GradGradGradGradGradGradGradGradGradGradGradGradGradGradGradGradGradGrad
 Berny optimization.
 FormGI is forming the generalized inverse of G from B-inverse, IUseBI=4.
 Internal  Forces:  Max     0.000076084 RMS     0.000013369
 Search for a saddle point.
 Step number   1 out of a maximum of   50
 All quantities printed in internal units (Hartrees-Bohrs-Radians)
 Swapping is turned off.
 Second derivative matrix not updated -- first step.
 ITU=  0
     Eigenvalues ---   -0.00263   0.00197   0.00335   0.00716   0.01019
     Eigenvalues ---    0.01372   0.01597   0.01656   0.02093   0.02497
     Eigenvalues ---    0.02624   0.03521   0.04124   0.04203   0.04960
     Eigenvalues ---    0.05274   0.05362   0.05531   0.05865   0.06263
     Eigenvalues ---    0.06712   0.06863   0.08017   0.08379   0.09298
     Eigenvalues ---    0.09605   0.09756   0.11689   0.12366   0.12648
     Eigenvalues ---    0.12688   0.12975   0.13903   0.14640   0.15536
     Eigenvalues ---    0.16942   0.17044   0.19151   0.20173   0.21055
     Eigenvalues ---    0.22395   0.22679   0.23927   0.25039   0.26160
     Eigenvalues ---    0.28362   0.29616   0.30452   0.31074   0.31911
     Eigenvalues ---    0.32753   0.32933   0.33300   0.33384   0.33617
     Eigenvalues ---    0.33816   0.34038   0.34584   0.34855   0.35005
     Eigenvalues ---    0.35924   0.36397   0.36676   0.36783   0.37086
     Eigenvalues ---    0.37227   0.40039   0.54068   0.59711   0.65901
     Eigenvalues ---    0.69247   0.94309
 Eigenvectors required to have negative eigenvalues:
                          D54       D58       D55       D56       D59
   1                    0.35764   0.34614   0.32976   0.32951   0.31826
                          D57       D39       D37       D40       D38
   1                    0.30163  -0.27830  -0.25602  -0.25080  -0.22851
 RFO step:  Lambda0=1.374129561D-08 Lambda=-2.19000864D-07.
 Linear search not attempted -- option 19 set.
 Iteration  1 RMS(Cart)=  0.00072842 RMS(Int)=  0.00000014
 Iteration  2 RMS(Cart)=  0.00000025 RMS(Int)=  0.00000004
 Variable       Old X    -DE/DX   Delta X   Delta X   Delta X     New X
                                 (Linear)    (Quad)   (Total)
    R1        2.55425  -0.00000   0.00000  -0.00000  -0.00000   2.55425
    R2        2.84329   0.00000   0.00000   0.00001   0.00001   2.84330
    R3        2.82196  -0.00000   0.00000  -0.00000  -0.00000   2.82195
    R4        2.51334  -0.00001   0.00000  -0.00001  -0.00001   2.51332
    R5        2.06142  -0.00000   0.00000  -0.00001  -0.00001   2.06141
    R6        3.28640  -0.00000   0.00000   0.00002   0.00002   3.28642
    R7        2.55275  -0.00001   0.00000  -0.00000  -0.00000   2.55275
    R8        2.83427  -0.00000   0.00000   0.00004   0.00004   2.83431
    R9        2.84618   0.00000   0.00000   0.00002   0.00002   2.84620
   R10        2.84148   0.00000   0.00000   0.00004   0.00004   2.84152
   R11        2.06726  -0.00000   0.00000  -0.00001  -0.00001   2.06725
   R12        2.76769   0.00000   0.00000  -0.00001  -0.00001   2.76768
   R13        2.06308   0.00000   0.00000   0.00000   0.00000   2.06308
   R14        2.06392  -0.00000   0.00000  -0.00001  -0.00001   2.06391
   R15        2.08213  -0.00000   0.00000  -0.00001  -0.00001   2.08212
   R16        2.08593   0.00000   0.00000   0.00001   0.00001   2.08594
   R17        2.89695  -0.00003   0.00000  -0.00003  -0.00003   2.89692
   R18        2.07913   0.00000   0.00000   0.00000   0.00000   2.07913
   R19        2.08809   0.00000   0.00000  -0.00000  -0.00000   2.08808
   R20        2.87315  -0.00002   0.00000  -0.00003  -0.00003   2.87312
   R21        2.28284   0.00000   0.00000  -0.00001  -0.00001   2.28283
   R22        2.08991   0.00000   0.00000   0.00003   0.00003   2.08994
   R23        2.08633   0.00001   0.00000  -0.00002  -0.00002   2.08632
   R24        2.08377  -0.00000   0.00000  -0.00001  -0.00001   2.08376
   R25        2.07686   0.00000   0.00000   0.00001   0.00001   2.07687
   R26        2.08309  -0.00000   0.00000  -0.00001  -0.00001   2.08308
    A1        1.88870  -0.00000   0.00000   0.00000   0.00000   1.88870
    A2        2.24633   0.00000   0.00000   0.00000   0.00000   2.24634
    A3        2.14810  -0.00000   0.00000  -0.00000  -0.00000   2.14810
    A4        2.14718   0.00000   0.00000   0.00004   0.00004   2.14722
    A5        2.15820  -0.00001   0.00000  -0.00006  -0.00006   2.15813
    A6        1.97659   0.00001   0.00000   0.00002   0.00002   1.97661
    A7        2.23173   0.00000   0.00000  -0.00010  -0.00010   2.23162
    A8        1.88715   0.00000   0.00000  -0.00002  -0.00002   1.88713
    A9        2.16412  -0.00000   0.00000   0.00010   0.00010   2.16422
   A10        2.19244  -0.00001   0.00000  -0.00006  -0.00006   2.19238
   A11        2.04587   0.00001   0.00000   0.00005   0.00005   2.04592
   A12        2.04471   0.00001   0.00000   0.00001   0.00001   2.04472
   A13        1.91367  -0.00000   0.00000  -0.00001  -0.00001   1.91366
   A14        2.19113  -0.00000   0.00000   0.00000   0.00000   2.19113
   A15        2.17832   0.00000   0.00000   0.00001   0.00001   2.17833
   A16        1.91583   0.00000   0.00000   0.00003   0.00003   1.91586
   A17        2.18926  -0.00000   0.00000  -0.00002  -0.00002   2.18924
   A18        2.17763  -0.00000   0.00000  -0.00001  -0.00001   2.17761
   A19        1.90741   0.00002   0.00000   0.00003   0.00003   1.90744
   A20        1.91354   0.00003   0.00000   0.00009   0.00009   1.91363
   A21        2.00028  -0.00008   0.00000  -0.00013  -0.00013   2.00015
   A22        1.84754  -0.00001   0.00000  -0.00005  -0.00005   1.84748
   A23        1.92466   0.00003   0.00000   0.00007   0.00007   1.92473
   A24        1.86389   0.00001   0.00000  -0.00001  -0.00001   1.86388
   A25        1.93883   0.00002   0.00000   0.00009   0.00009   1.93891
   A26        1.91270  -0.00001   0.00000  -0.00007  -0.00007   1.91263
   A27        2.06942  -0.00004   0.00000  -0.00013  -0.00013   2.06928
   A28        1.83878  -0.00000   0.00000   0.00002   0.00002   1.83880
   A29        1.86108   0.00001   0.00000  -0.00002  -0.00002   1.86106
   A30        1.82684   0.00001   0.00000   0.00012   0.00012   1.82697
   A31        2.07234  -0.00005   0.00000  -0.00009  -0.00009   2.07225
   A32        2.10434   0.00002   0.00000  -0.00000  -0.00000   2.10433
   A33        2.10629   0.00003   0.00000   0.00010   0.00010   2.10639
   A34        1.81885  -0.00000   0.00000   0.00000   0.00000   1.81885
   A35        1.94386  -0.00000   0.00000  -0.00028  -0.00028   1.94358
   A36        1.93948   0.00000   0.00000   0.00023   0.00023   1.93972
   A37        1.94552  -0.00000   0.00000  -0.00009  -0.00009   1.94544
   A38        1.96925   0.00000   0.00000   0.00012   0.00012   1.96937
   A39        1.84947   0.00000   0.00000   0.00001   0.00001   1.84948
   A40        1.93371   0.00000   0.00000   0.00002   0.00002   1.93373
   A41        1.94373  -0.00000   0.00000  -0.00002  -0.00002   1.94371
   A42        1.94497   0.00000   0.00000  -0.00000  -0.00000   1.94496
   A43        1.88740   0.00000   0.00000   0.00001   0.00001   1.88741
   A44        1.86434  -0.00000   0.00000   0.00000   0.00000   1.86434
   A45        1.88670   0.00000   0.00000  -0.00001  -0.00001   1.88669
    D1        0.01618   0.00000   0.00000   0.00024   0.00024   0.01642
    D2       -3.13743   0.00000   0.00000   0.00030   0.00030  -3.13713
    D3       -3.11412   0.00000   0.00000  -0.00023  -0.00023  -3.11435
    D4        0.01546  -0.00000   0.00000  -0.00017  -0.00017   0.01529
    D5       -0.02900   0.00000   0.00000  -0.00014  -0.00014  -0.02914
    D6        2.07070  -0.00000   0.00000  -0.00039  -0.00039   2.07031
    D7       -2.15477   0.00000   0.00000  -0.00041  -0.00041  -2.15518
    D8        3.10207   0.00000   0.00000   0.00030   0.00030   3.10237
    D9       -1.08141  -0.00000   0.00000   0.00005   0.00005  -1.08136
   D10        0.97630   0.00000   0.00000   0.00003   0.00003   0.97633
   D11        2.08087   0.00000   0.00000   0.00080   0.00080   2.08167
   D12       -0.02067   0.00000   0.00000   0.00079   0.00079  -0.01988
   D13       -2.12902   0.00000   0.00000   0.00081   0.00081  -2.12821
   D14       -1.04792  -0.00000   0.00000   0.00026   0.00026  -1.04765
   D15        3.13372   0.00000   0.00000   0.00025   0.00025   3.13398
   D16        1.02538   0.00000   0.00000   0.00028   0.00028   1.02566
   D17       -3.13604  -0.00001   0.00000  -0.00009  -0.00009  -3.13613
   D18        0.02538   0.00001   0.00000   0.00013   0.00013   0.02551
   D19        0.06233   0.00001   0.00000  -0.00006  -0.00006   0.06227
   D20       -3.05943   0.00003   0.00000   0.00016   0.00016  -3.05927
   D21        3.09757  -0.00001   0.00000  -0.00097  -0.00097   3.09660
   D22       -0.01214  -0.00001   0.00000  -0.00093  -0.00093  -0.01307
   D23       -0.02358   0.00001   0.00000   0.00016   0.00016  -0.02341
   D24       -3.13328   0.00001   0.00000   0.00021   0.00020  -3.13308
   D25       -0.18395  -0.00000   0.00000   0.00036   0.00036  -0.18359
   D26        1.83378   0.00001   0.00000   0.00036   0.00036   1.83415
   D27       -2.35405   0.00000   0.00000   0.00033   0.00033  -2.35372
   D28        2.93420  -0.00002   0.00000  -0.00094  -0.00094   2.93326
   D29       -1.33125  -0.00001   0.00000  -0.00093  -0.00093  -1.33218
   D30        0.76410  -0.00002   0.00000  -0.00097  -0.00097   0.76314
   D31        0.03193  -0.00001   0.00000  -0.00002  -0.00002   0.03191
   D32       -2.06665  -0.00000   0.00000   0.00036   0.00036  -2.06629
   D33        2.13789  -0.00000   0.00000   0.00033   0.00033   2.13823
   D34       -3.09019   0.00001   0.00000   0.00106   0.00106  -3.08913
   D35        1.09441   0.00002   0.00000   0.00144   0.00144   1.09585
   D36       -0.98423   0.00002   0.00000   0.00141   0.00141  -0.98282
   D37       -1.94996   0.00002   0.00000   0.00081   0.00081  -1.94915
   D38        1.16948   0.00002   0.00000   0.00099   0.00099   1.17047
   D39        1.17181   0.00001   0.00000   0.00059   0.00059   1.17240
   D40       -1.99194   0.00001   0.00000   0.00077   0.00077  -1.99117
   D41        0.00484  -0.00001   0.00000  -0.00026  -0.00026   0.00458
   D42        3.11481  -0.00000   0.00000  -0.00030  -0.00030   3.11450
   D43       -3.12485  -0.00000   0.00000  -0.00032  -0.00032  -3.12517
   D44       -0.01488  -0.00000   0.00000  -0.00037  -0.00037  -0.01525
   D45       -3.06154  -0.00000   0.00000   0.00069   0.00069  -3.06085
   D46       -1.03687   0.00000   0.00000   0.00073   0.00073  -1.03615
   D47        1.05736  -0.00001   0.00000   0.00074   0.00074   1.05810
   D48        1.06072   0.00000   0.00000   0.00068   0.00068   1.06141
   D49        3.08539   0.00001   0.00000   0.00072   0.00072   3.08611
   D50       -1.10356  -0.00001   0.00000   0.00073   0.00073  -1.10283
   D51       -0.93881  -0.00001   0.00000   0.00071   0.00071  -0.93810
   D52        1.08585   0.00000   0.00000   0.00075   0.00075   1.08660
   D53       -3.10310  -0.00002   0.00000   0.00076   0.00076  -3.10233
   D54       -0.35935   0.00002   0.00000  -0.00054  -0.00054  -0.35989
   D55        2.80443   0.00002   0.00000  -0.00072  -0.00072   2.80370
   D56       -2.56145   0.00001   0.00000  -0.00055  -0.00055  -2.56200
   D57        0.60233   0.00000   0.00000  -0.00073  -0.00073   0.60160
   D58        1.77853  -0.00000   0.00000  -0.00062  -0.00062   1.77791
   D59       -1.34088  -0.00000   0.00000  -0.00080  -0.00080  -1.34168
         Item               Value     Threshold  Converged?
 Maximum Force            0.000076     0.000450     YES
 RMS     Force            0.000013     0.000300     YES
 Maximum Displacement     0.003472     0.001800     NO 
 RMS     Displacement     0.000728     0.001200     YES
 Predicted change in Energy=-1.026297D-07
 GradGradGradGradGradGradGradGradGradGradGradGradGradGradGradGradGradGrad

                          Input orientation:                          
 ---------------------------------------------------------------------
 Center     Atomic      Atomic             Coordinates (Angstroms)
 Number     Number       Type             X           Y           Z
 ---------------------------------------------------------------------
      1          6           0       -2.467896    0.317978   -0.219551
      2          6           0        0.991325    1.271166    1.116113
      3          6           0       -0.921540   -1.476913   -0.040041
      4          6           0        1.367927   -0.004270    1.098317
      5          6           0       -2.673887   -0.346329    0.939424
      6          6           0       -1.722571   -1.454644    1.047462
      7          6           0        0.223238   -2.404236   -0.321324
      8          1           0        0.458718   -2.978353    0.589126
      9          1           0       -0.079757   -3.149061   -1.077546
     10          6           0        1.484428   -1.716945   -0.857109
     11          1           0        2.256337   -2.455460   -1.120280
     12          1           0        1.247951   -1.192102   -1.800279
     13          6           0        2.163480   -0.667227    0.008085
     14          8           0        3.313269   -0.354387   -0.190501
     15          1           0        1.057398   -0.629546    1.940525
     16          1           0        0.417502    1.710308    1.933328
     17          6           0       -1.348166   -0.362557   -0.959098
     18          1           0       -1.689152   -0.752119   -1.936387
     19          1           0       -0.530778    0.345096   -1.182683
     20         17           0        1.289303    2.382285   -0.188145
     21          6           0       -3.171728    1.527705   -0.740286
     22          1           0       -2.464519    2.362016   -0.880581
     23          1           0       -3.960410    1.859938   -0.050737
     24          1           0       -3.634457    1.333362   -1.721725
     25          1           0       -1.655290   -2.137054    1.897539
     26          1           0       -3.424645   -0.093942    1.690792
 ---------------------------------------------------------------------
                    Distance matrix (angstroms):
                    1          2          3          4          5
     1  C    0.000000
     2  C    3.828679   0.000000
     3  C    2.375937   3.542271   0.000000
     4  C    4.068681   1.329994   2.950626   0.000000
     5  C    1.351650   4.010149   2.303973   4.059374   0.000000
     6  C    2.302828   3.847075   1.350855   3.414286   1.464595
     7  C    3.829231   4.020543   1.499855   3.014221   3.770650
     8  H    4.481611   4.315067   2.134312   3.151366   4.106517
     9  H    4.296479   5.049531   2.140349   4.088995   4.318911
    10  C    4.490909   3.614633   2.552234   2.602022   4.732622
    11  H    5.551725   4.526528   3.496194   3.423416   5.744382
    12  H    4.311214   3.826080   2.808246   3.134836   4.858201
    13  C    4.740474   2.521714   3.189868   1.503670   4.936648
    14  O    5.820206   3.121072   4.383641   2.359659   6.092852
    15  H    4.241631   2.072855   2.925213   1.093943   3.873617
    16  H    3.859921   1.090852   3.980652   2.130805   3.843733
    17  C    1.504611   3.528282   1.506142   3.426148   2.315640
    18  H    2.167736   4.538326   2.170410   4.372006   3.066701
    19  H    2.163513   2.908413   2.185873   2.988327   3.094241
    20  Cl   4.287062   1.739099   4.450075   2.712345   4.942026
    21  C    1.493313   4.565418   3.818562   5.131850   2.565399
    22  H    2.148270   4.137584   4.221927   4.919654   3.269768
    23  H    2.152611   5.121315   4.513249   5.760796   2.739192
    24  H    2.156014   5.427251   4.252719   5.896248   3.290253
    25  H    3.342092   4.385335   2.174487   3.785151   2.272052
    26  H    2.175880   4.657743   3.342742   4.829887   1.091737
                    6          7          8          9         10
     6  C    0.000000
     7  C    2.561537   0.000000
     8  H    2.699960   1.101808   0.000000
     9  H    3.175775   1.103830   1.759798   0.000000
    10  C    3.739123   1.532983   2.175966   2.132187   0.000000
    11  H    4.640307   2.185051   2.535136   2.437261   1.100230
    12  H    4.123416   2.169473   3.085909   2.472820   1.104966
    13  C    4.098990   2.624929   2.930039   3.517130   1.520388
    14  O    5.301208   3.710430   3.954931   4.484382   2.376046
    15  H    3.034234   2.993545   2.775175   4.092655   3.031757
    16  H    3.921937   4.695813   4.877717   5.738126   4.546530
    17  C    2.314977   2.654151   3.536131   3.063902   3.141394
    18  H    3.065617   2.999192   3.993455   3.012157   3.488172
    19  H    3.103704   2.978138   3.894063   3.524714   2.901563
    20  Cl   5.031911   4.905611   5.480006   5.767248   4.158038
    21  C    3.767028   5.211668   5.937343   5.616598   5.676372
    22  H    4.339899   5.500360   6.262978   6.008149   5.677381
    23  H    4.147338   5.979908   6.583857   6.419024   6.564342
    24  H    4.369975   5.550907   6.378480   5.756993   6.021206
    25  H    1.092173   2.919522   2.624645   3.515337   4.197906
    26  H    2.272100   4.763729   4.961251   5.309023   5.764108
                   11         12         13         14         15
    11  H    0.000000
    12  H    1.753658   0.000000
    13  C    2.116508   2.093768   0.000000
    14  O    2.529052   2.749308   1.208024   0.000000
    15  H    3.760311   3.787663   2.226917   3.115435   0.000000
    16  H    5.482651   4.801401   3.522453   4.142352   2.425785
    17  C    4.171171   2.852289   3.655123   4.724382   3.777014
    18  H    4.374276   2.972993   4.316359   5.313241   4.752790
    19  H    3.951584   2.430695   3.114763   4.031179   3.636847
    20  Cl   5.020738   3.921343   3.178398   3.403795   3.695422
    21  C    6.743433   5.296650   5.817408   6.774934   5.452155
    22  H    6.749223   5.221114   5.602179   6.421674   5.414054
    23  H    7.642939   6.285131   6.625107   7.604550   5.944834
    24  H    7.029820   5.497458   6.372650   7.311912   6.267263
    25  H    4.950701   4.795373   4.507043   5.676654   3.103725
    26  H    6.764056   5.935207   5.864068   7.000470   4.520835
                   16         17         18         19         20
    16  H    0.000000
    17  C    3.972465   0.000000
    18  H    5.047399   1.105949   0.000000
    19  H    3.531652   1.104032   1.764592   0.000000
    20  Cl   2.390029   3.883912   4.663908   2.907222   0.000000
    21  C    4.479300   2.635593   2.970907   2.927268   4.575584
    22  H    4.080301   2.945455   3.378425   2.810443   3.817205
    23  H    4.808847   3.548017   3.941717   3.916430   5.277425
    24  H    5.469906   2.947010   2.859986   3.301524   5.262654
    25  H    4.370348   3.376913   4.076540   4.112586   5.783177
    26  H    4.251615   3.377253   4.074501   4.101717   5.646540
                   21         22         23         24         25
    21  C    0.000000
    22  H    1.102680   0.000000
    23  H    1.099034   1.782810   0.000000
    24  H    1.102321   1.770426   1.782058   0.000000
    25  H    4.763210   5.349246   5.008523   5.390729   0.000000
    26  H    2.933231   3.683141   2.671631   3.704928   2.710658
                   26
    26  H    0.000000
 Stoichiometry    C11H13ClO
 Framework group  C1[X(C11H13ClO)]
 Deg. of freedom    72
 Full point group                 C1      NOp   1
 Largest Abelian subgroup         C1      NOp   1
 Largest concise Abelian subgroup C1      NOp   1
                         Standard orientation:                         
 ---------------------------------------------------------------------
 Center     Atomic      Atomic             Coordinates (Angstroms)
 Number     Number       Type             X           Y           Z
 ---------------------------------------------------------------------
      1          6           0       -2.467800    0.316588   -0.219556
      2          6           0        0.990742    1.271668    1.116518
      3          6           0       -0.920337   -1.477375   -0.040301
      4          6           0        1.368139   -0.003531    1.098495
      5          6           0       -2.673451   -0.348076    0.939275
      6          6           0       -1.721451   -1.455819    1.047155
      7          6           0        0.225036   -2.403929   -0.321693
      8          1           0        0.460816   -2.978079    0.588659
      9          1           0       -0.077446   -3.148794   -1.078081
     10          6           0        1.485833   -1.715747   -0.857262
     11          1           0        2.258218   -2.453730   -1.120528
     12          1           0        1.249089   -1.190866   -1.800343
     13          6           0        2.164175   -0.665777    0.008183
     14          8           0        3.313782   -0.352181   -0.190267
     15          1           0        1.057946   -0.629166    1.940559
     16          1           0        0.416593    1.710290    1.933783
     17          6           0       -1.347598   -0.363104   -0.959166
     18          1           0       -1.688279   -0.752686   -1.936553
     19          1           0       -0.530637    0.345102   -1.182558
     20         17           0        1.288111    2.383229   -0.187502
     21          6           0       -3.172352    1.525979   -0.740097
     22          1           0       -2.465654    2.360758   -0.880183
     23          1           0       -3.961284    1.857584   -0.050533
     24          1           0       -3.634897    1.331540   -1.721605
     25          1           0       -1.653800   -2.138355    1.897102
     26          1           0       -3.424414   -0.096305    1.690645
 ---------------------------------------------------------------------
 Rotational constants (GHZ):           0.8867248           0.5790031           0.4148792
 Standard basis: def2SVP (5D, 7F)
 There are   264 symmetry adapted cartesian basis functions of A   symmetry.
 There are   251 symmetry adapted basis functions of A   symmetry.
   251 basis functions,   428 primitive gaussians,   264 cartesian basis functions
    52 alpha electrons       52 beta electrons
       nuclear repulsion energy       873.3085096510 Hartrees.
 NAtoms=   26 NActive=   26 NUniq=   26 SFac= 1.00D+00 NAtFMM=   60 NAOKFM=F Big=F
 Integral buffers will be    131072 words long.
 Raffenetti 2 integral format.
 Two-electron integral symmetry is turned on.
 Nuclear repulsion after empirical dispersion term =      873.2879856773 Hartrees.
 ------------------------------------------------------------------------------
 Polarizable Continuum Model (PCM)
 =================================
 Model                : PCM.
 Atomic radii         : UFF (Universal Force Field).
 Polarization charges : Total charges.
 Charge compensation  : None.
 Solution method      : On-the-fly selection.
 Cavity type          : Scaled VdW (van der Waals Surface) (Alpha=1.100).
 Cavity algorithm     : GePol (No added spheres)
                        Default sphere list used, NSphG=   26.
                        Lebedev-Laikov grids with approx.  5.0 points / Ang**2.
                        Smoothing algorithm: York/Karplus (Gamma=1.0000).
                        Polarization charges: spherical gaussians, with
                                              point-specific exponents (IZeta= 3).
                        Self-potential: point-specific (ISelfS= 7).
                        Self-field    : sphere-specific E.n sum rule (ISelfD= 2).
 1st derivatives      : Analytical E(r).r(x)/FMM algorithm (CHGder, D1EAlg=3).
                        Cavity 1st derivative terms included.
 Solvent              : Toluene, Eps=   2.374100 Eps(inf)=   2.238315
 ------------------------------------------------------------------------------
 One-electron integrals computed using PRISM.
   1 Symmetry operations used in ECPInt.
 ECPInt:  NShTT=    7140 NPrTT=   26096 LenC2=    6946 LenP2D=   19115.
 LDataN:  DoStor=T MaxTD1= 4 Len=   56
 NBasis=   251 RedAO= T EigKep=  5.71D-04  NBF=   251
 NBsUse=   251 1.00D-06 EigRej= -1.00D+00 NBFU=   251
 Initial guess from the checkpoint file:  "imda-1_1_opt_hf_re.chk"
 B after Tr=    -0.000000   -0.000000    0.000000
         Rot=    1.000000   -0.000056    0.000031   -0.000353 Ang=  -0.04 deg.
 Requested convergence on RMS density matrix=1.00D-08 within 128 cycles.
 Requested convergence on MAX density matrix=1.00D-06.
 Requested convergence on             energy=1.00D-06.
 No special actions if energy rises.
 Inv3:  Mode=1 IEnd=    12024012.
 Iteration    1 A*A^-1 deviation from unit magnitude is 3.55D-15 for   1821.
 Iteration    1 A*A^-1 deviation from orthogonality  is 1.97D-15 for   1579   1287.
 Iteration    1 A^-1*A deviation from unit magnitude is 2.78D-15 for    405.
 Iteration    1 A^-1*A deviation from orthogonality  is 2.15D-15 for   1478   1104.
 Error on total polarization charges =  0.00624
 SCF Done:  E(RwB97XD) =  -961.702758454     A.U. after    8 cycles
            NFock=  8  Conv=0.66D-08     -V/T= 2.0068
   1 Symmetry operations used in ECPInt.
 ECPInt:  NShTT=    7140 NPrTT=   26096 LenC2=    6946 LenP2D=   19115.
 LDataN:  DoStor=T MaxTD1= 5 Len=  102
 D1PCM: PCM CHGder 1st derivatives, ID1Alg=3 FixD1E=F DoIter=F DoCFld=F I1PDM=0.
 Calling FoFJK, ICntrl=      2127 FMM=F ISym2X=0 I1Cent= 0 IOpClX= 0 NMat=1 NMatS=1 NMatT=0.
 ***** Axes restored to original set *****
 -------------------------------------------------------------------
 Center     Atomic                   Forces (Hartrees/Bohr)
 Number     Number              X              Y              Z
 -------------------------------------------------------------------
      1        6           0.000000314    0.000002376   -0.000000572
      2        6           0.000001020   -0.000002926   -0.000001212
      3        6          -0.000010462   -0.000009032   -0.000000588
      4        6           0.000003372   -0.000007070    0.000008155
      5        6           0.000001156    0.000005402    0.000000533
      6        6           0.000000475    0.000004048    0.000001133
      7        6          -0.000005484    0.000004998   -0.000005811
      8        1          -0.000003454   -0.000001589    0.000001392
      9        1          -0.000002771   -0.000000557    0.000001588
     10        6           0.000001991   -0.000008030    0.000013820
     11        1          -0.000001959   -0.000003920    0.000001467
     12        1          -0.000003362   -0.000002332   -0.000000158
     13        6           0.000000510    0.000003945   -0.000012110
     14        8          -0.000001818   -0.000007286    0.000003479
     15        1          -0.000001996   -0.000000490   -0.000000095
     16        1           0.000001849   -0.000000409   -0.000000612
     17        6           0.000005921    0.000000618    0.000000483
     18        1          -0.000002510    0.000000784    0.000002522
     19        1           0.000006560    0.000004842   -0.000002606
     20       17          -0.000001267   -0.000004579   -0.000005085
     21        6           0.000003649    0.000003657   -0.000001316
     22        1           0.000005697    0.000001921   -0.000001502
     23        1           0.000003084    0.000004450   -0.000001894
     24        1           0.000002291    0.000003479   -0.000001235
     25        1          -0.000002958    0.000002695    0.000000855
     26        1           0.000000150    0.000005006   -0.000000632
 -------------------------------------------------------------------
 Cartesian Forces:  Max     0.000013820 RMS     0.000004189

 GradGradGradGradGradGradGradGradGradGradGradGradGradGradGradGradGradGrad
 Berny optimization.
 FormGI is forming the generalized inverse of G from B-inverse, IUseBI=4.
 Internal  Forces:  Max     0.000030044 RMS     0.000005403
 Search for a saddle point.
 Step number   2 out of a maximum of   50
 All quantities printed in internal units (Hartrees-Bohrs-Radians)
 Swapping is turned off.
 Update second derivatives using D2CorX and points    1    2
 ITU=  0  0
     Eigenvalues ---   -0.00220   0.00197   0.00439   0.00663   0.00957
     Eigenvalues ---    0.01343   0.01579   0.01636   0.02094   0.02495
     Eigenvalues ---    0.02622   0.03517   0.04118   0.04197   0.04961
     Eigenvalues ---    0.05275   0.05364   0.05536   0.05865   0.06260
     Eigenvalues ---    0.06712   0.06863   0.07978   0.08379   0.09298
     Eigenvalues ---    0.09606   0.09754   0.11689   0.12365   0.12647
     Eigenvalues ---    0.12688   0.12964   0.13903   0.14640   0.15532
     Eigenvalues ---    0.16942   0.17044   0.19152   0.20173   0.21055
     Eigenvalues ---    0.22395   0.22678   0.23927   0.25039   0.26140
     Eigenvalues ---    0.28362   0.29616   0.30450   0.31072   0.31911
[...]
     23          1           0       -3.960750    1.856696   -0.050236
     24          1           0       -3.634962    1.330393   -1.721339
     25          1           0       -1.652686   -2.139119    1.896964
     26          1           0       -3.423726   -0.097426    1.690654
 ---------------------------------------------------------------------
 Rotational constants (GHZ):           0.8867023           0.5792311           0.4149936

 **********************************************************************

            Population analysis using the SCF Density.

 **********************************************************************

 Orbital symmetries:
       Occupied  (A) (A) (A) (A) (A) (A) (A) (A) (A) (A) (A) (A)
                 (A) (A) (A) (A) (A) (A) (A) (A) (A) (A) (A) (A)
                 (A) (A) (A) (A) (A) (A) (A) (A) (A) (A) (A) (A)
                 (A) (A) (A) (A) (A) (A) (A) (A) (A) (A) (A) (A)
                 (A) (A) (A) (A)
       Virtual   (A) (A) (A) (A) (A) (A) (A) (A) (A) (A) (A) (A)
                 (A) (A) (A) (A) (A) (A) (A) (A) (A) (A) (A) (A)
                 (A) (A) (A) (A) (A) (A) (A) (A) (A) (A) (A) (A)
                 (A) (A) (A) (A) (A) (A) (A) (A) (A) (A) (A) (A)
                 (A) (A) (A) (A) (A) (A) (A) (A) (A) (A) (A) (A)
                 (A) (A) (A) (A) (A) (A) (A) (A) (A) (A) (A) (A)
                 (A) (A) (A) (A) (A) (A) (A) (A) (A) (A) (A) (A)
                 (A) (A) (A) (A) (A) (A) (A) (A) (A) (A) (A) (A)
                 (A) (A) (A) (A) (A) (A) (A) (A) (A) (A) (A) (A)
                 (A) (A) (A) (A) (A) (A) (A) (A) (A) (A) (A) (A)
                 (A) (A) (A) (A) (A) (A) (A) (A) (A) (A) (A) (A)
                 (A) (A) (A) (A) (A) (A) (A) (A) (A) (A) (A) (A)
                 (A) (A) (A) (A) (A) (A) (A) (A) (A) (A) (A) (A)
                 (A) (A) (A) (A) (A) (A) (A) (A) (A) (A) (A) (A)
                 (A) (A) (A) (A) (A) (A) (A) (A) (A) (A) (A) (A)
                 (A) (A) (A) (A) (A) (A) (A) (A) (A) (A) (A) (A)
                 (A) (A) (A) (A) (A) (A) (A)
 The electronic state is 1-A.
 Alpha  occ. eigenvalues -- -101.68792 -19.25543 -10.40038 -10.36777 -10.32225
 Alpha  occ. eigenvalues --  -10.31259 -10.31231 -10.30186 -10.30080 -10.30049
 Alpha  occ. eigenvalues --  -10.29685 -10.29206 -10.29010  -9.59535  -7.34903
 Alpha  occ. eigenvalues --   -7.33980  -7.33911  -1.14499  -0.97844  -0.96150
 Alpha  occ. eigenvalues --   -0.89930  -0.86025  -0.83820  -0.79555  -0.77588
 Alpha  occ. eigenvalues --   -0.72959  -0.70511  -0.62719  -0.61631  -0.60762
 Alpha  occ. eigenvalues --   -0.59596  -0.57495  -0.55478  -0.54845  -0.53431
 Alpha  occ. eigenvalues --   -0.52542  -0.49932  -0.49800  -0.48956  -0.48601
 Alpha  occ. eigenvalues --   -0.47408  -0.45887  -0.45352  -0.44687  -0.43064
 Alpha  occ. eigenvalues --   -0.42831  -0.41365  -0.40119  -0.38208  -0.34790
 Alpha  occ. eigenvalues --   -0.33873  -0.28291
 Alpha virt. eigenvalues --    0.02930   0.04843   0.07726   0.12607   0.13317
 Alpha virt. eigenvalues --    0.14513   0.15302   0.16455   0.17482   0.18562
 Alpha virt. eigenvalues --    0.19277   0.20641   0.21724   0.22245   0.22715
 Alpha virt. eigenvalues --    0.23746   0.24441   0.24791   0.26454   0.30016
 Alpha virt. eigenvalues --    0.30787   0.31242   0.33809   0.34659   0.36753
 Alpha virt. eigenvalues --    0.38918   0.40361   0.41234   0.42464   0.44771
 Alpha virt. eigenvalues --    0.47613   0.48134   0.50884   0.52177   0.52720
 Alpha virt. eigenvalues --    0.53420   0.54229   0.54925   0.55709   0.56897
 Alpha virt. eigenvalues --    0.58008   0.58532   0.60401   0.62883   0.63488
 Alpha virt. eigenvalues --    0.64848   0.66080   0.68555   0.69053   0.69816
 Alpha virt. eigenvalues --    0.70315   0.70824   0.71229   0.72449   0.73097
 Alpha virt. eigenvalues --    0.73720   0.73898   0.74714   0.74999   0.75888
 Alpha virt. eigenvalues --    0.76327   0.77148   0.77615   0.78330   0.78471
 Alpha virt. eigenvalues --    0.78688   0.79577   0.80027   0.80954   0.82459
 Alpha virt. eigenvalues --    0.83146   0.83341   0.84587   0.86754   0.87075
 Alpha virt. eigenvalues --    0.88571   0.89871   0.91022   0.91876   0.93075
 Alpha virt. eigenvalues --    0.95066   0.97071   0.98638   1.01990   1.04171
 Alpha virt. eigenvalues --    1.06596   1.08194   1.09324   1.10867   1.13705
 Alpha virt. eigenvalues --    1.14764   1.17530   1.18942   1.23663   1.24356
 Alpha virt. eigenvalues --    1.25035   1.26659   1.29888   1.33400   1.34370
 Alpha virt. eigenvalues --    1.34411   1.37720   1.41347   1.43953   1.46063
 Alpha virt. eigenvalues --    1.55223   1.58547   1.59909   1.60847   1.62046
 Alpha virt. eigenvalues --    1.62374   1.65663   1.66106   1.66661   1.69622
 Alpha virt. eigenvalues --    1.70844   1.73595   1.75476   1.77804   1.79286
 Alpha virt. eigenvalues --    1.80788   1.81434   1.82711   1.83049   1.84092
 Alpha virt. eigenvalues --    1.85130   1.85878   1.86648   1.87509   1.88326
 Alpha virt. eigenvalues --    1.89921   1.91039   1.91940   1.94061   1.94482
 Alpha virt. eigenvalues --    1.96325   1.97099   1.99813   2.01380   2.03648
 Alpha virt. eigenvalues --    2.05162   2.06440   2.07715   2.08849   2.10327
 Alpha virt. eigenvalues --    2.14458   2.15604   2.16624   2.17276   2.18746
 Alpha virt. eigenvalues --    2.21562   2.24217   2.25386   2.29171   2.30505
 Alpha virt. eigenvalues --    2.33343   2.34820   2.35789   2.36343   2.39053
 Alpha virt. eigenvalues --    2.41304   2.42955   2.44757   2.48091   2.48561
 Alpha virt. eigenvalues --    2.49449   2.53021   2.56218   2.57713   2.65205
 Alpha virt. eigenvalues --    2.66243   2.68960   2.70765   2.73320   2.74613
 Alpha virt. eigenvalues --    2.76432   2.78438   2.79048   2.79368   2.81907
 Alpha virt. eigenvalues --    2.82214   2.83686   2.87520   2.92061   2.95174
 Alpha virt. eigenvalues --    2.99504   3.01181   3.02049   3.05199   3.08601
 Alpha virt. eigenvalues --    3.11773   3.13243   3.20364   3.21982   3.25885
 Alpha virt. eigenvalues --    3.27061   3.47912   3.48606   3.70742
          Condensed to atoms (all electrons):
               1          2          3          4          5          6
     1  C    5.082948   0.003630  -0.096520  -0.001390   0.590534  -0.002191
     2  C    0.003630   4.721000  -0.006991   0.630772   0.002698  -0.002708
     3  C   -0.096520  -0.006991   5.193544  -0.004929  -0.006472   0.582260
     4  C   -0.001390   0.630772  -0.004929   5.105644  -0.001382  -0.000416
     5  C    0.590534   0.002698  -0.006472  -0.001382   4.963712   0.274186
     6  C   -0.002191  -0.002708   0.582260  -0.000416   0.274186   4.989786
     7  C    0.010390  -0.001942   0.335303   0.013118   0.009893  -0.060831
     8  H   -0.000614   0.000403  -0.015039  -0.002263   0.000691  -0.015229
     9  H    0.000461  -0.000039  -0.000992   0.000002  -0.000653   0.001645
    10  C    0.000508   0.007619  -0.048555  -0.168760  -0.000433   0.002695
    11  H   -0.000012  -0.000303   0.006405   0.011258   0.000012  -0.000149
    12  H   -0.000014  -0.000361  -0.014640   0.002933   0.000074  -0.000150
    13  C    0.000079  -0.031435  -0.006808   0.269402   0.000025   0.001192
    14  O    0.000001   0.000262  -0.000079  -0.080302  -0.000000  -0.000000
    15  H   -0.000017   0.003507   0.004523   0.370430  -0.000882   0.002618
    16  H    0.000306   0.409464  -0.000199  -0.021247   0.001188  -0.000242
    17  C    0.334756  -0.000082   0.333507   0.003586  -0.091786  -0.109232
    18  H    0.003074   0.000154  -0.000988   0.000157   0.000360   0.000608
    19  H   -0.008188  -0.002555   0.001258  -0.009079   0.001288   0.003294
    20  Cl   0.000388   0.286300   0.000373  -0.086060  -0.000121   0.000069
    21  C    0.403552  -0.000142   0.009070   0.000020  -0.063933   0.010143
    22  H   -0.015865  -0.000548   0.000475   0.000052   0.001565  -0.000372
    23  H   -0.010487  -0.000004  -0.000598   0.000001  -0.012165   0.000429
    24  H   -0.015140   0.000026   0.000581  -0.000005   0.002808  -0.000537
    25  H    0.007431   0.000008  -0.065525  -0.000266  -0.053481   0.442426
    26  H   -0.064380  -0.000019   0.007764   0.000006   0.443963  -0.056679
               7          8          9         10         11         12
     1  C    0.010390  -0.000614   0.000461   0.000508  -0.000012  -0.000014
     2  C   -0.001942   0.000403  -0.000039   0.007619  -0.000303  -0.000361
     3  C    0.335303  -0.015039  -0.000992  -0.048555   0.006405  -0.014640
     4  C    0.013118  -0.002263   0.000002  -0.168760   0.011258   0.002933
     5  C    0.009893   0.000691  -0.000653  -0.000433   0.000012   0.000074
     6  C   -0.060831  -0.015229   0.001645   0.002695  -0.000149  -0.000150
     7  C    4.713840   0.380497   0.341882   0.308151  -0.009187  -0.007478
     8  H    0.380497   0.662644  -0.023270  -0.025901  -0.005169   0.006490
     9  H    0.341882  -0.023270   0.648868  -0.006551  -0.005947  -0.008271
    10  C    0.308151  -0.025901  -0.006551   5.091677   0.340901   0.350441
    11  H   -0.009187  -0.005169  -0.005947   0.340901   0.606612  -0.006042
    12  H   -0.007478   0.006490  -0.008271   0.350441  -0.006042   0.592410
    13  C   -0.035943  -0.007874   0.006606   0.295099  -0.008036  -0.004567
    14  O    0.004655   0.000156  -0.000163  -0.088142   0.007672   0.000911
    15  H    0.000334   0.000408   0.000160  -0.002673  -0.000285   0.000101
    16  H    0.000096   0.000004  -0.000003  -0.000400   0.000009   0.000024
    17  C   -0.079833   0.009920  -0.005794  -0.000303   0.000228   0.006706
    18  H    0.004149  -0.000269   0.001156  -0.001972  -0.000048   0.000644
    19  H   -0.010291  -0.000162   0.000149   0.006373  -0.000087   0.001229
    20  Cl   0.000014  -0.000003   0.000001  -0.002289  -0.000003   0.000856
    21  C   -0.000224   0.000006   0.000010   0.000000  -0.000000   0.000011
    22  H    0.000005  -0.000001   0.000003  -0.000011   0.000000  -0.000012
    23  H    0.000007  -0.000000  -0.000000   0.000000   0.000000  -0.000000
    24  H    0.000014   0.000000  -0.000007   0.000002  -0.000000   0.000003
    25  H   -0.012041   0.004818   0.000307   0.000141  -0.000008   0.000001
    26  H   -0.000312   0.000009   0.000006   0.000006  -0.000000  -0.000000
              13         14         15         16         17         18
     1  C    0.000079   0.000001  -0.000017   0.000306   0.334756   0.003074
     2  C   -0.031435   0.000262   0.003507   0.409464  -0.000082   0.000154
     3  C   -0.006808  -0.000079   0.004523  -0.000199   0.333507  -0.000988
     4  C    0.269402  -0.080302   0.370430  -0.021247   0.003586   0.000157
     5  C    0.000025  -0.000000  -0.000882   0.001188  -0.091786   0.000360
     6  C    0.001192  -0.000000   0.002618  -0.000242  -0.109232   0.000608
     7  C   -0.035943   0.004655   0.000334   0.000096  -0.079833   0.004149
     8  H   -0.007874   0.000156   0.000408   0.000004   0.009920  -0.000269
     9  H    0.006606  -0.000163   0.000160  -0.000003  -0.005794   0.001156
    10  C    0.295099  -0.088142  -0.002673  -0.000400  -0.000303  -0.001972
    11  H   -0.008036   0.007672  -0.000285   0.000009   0.000228  -0.000048
    12  H   -0.004567   0.000911   0.000101   0.000024   0.006706   0.000644
    13  C    4.767521   0.695086  -0.022592   0.006804  -0.004660   0.000266
    14  O    0.695086   7.684140   0.001256  -0.000144   0.000017  -0.000001
    15  H   -0.022592   0.001256   0.568554  -0.010880  -0.000280   0.000001
    16  H    0.006804  -0.000144  -0.010880   0.552850  -0.000185   0.000008
    17  C   -0.004660   0.000017  -0.000280  -0.000185   4.857569   0.333020
    18  H    0.000266  -0.000001   0.000001   0.000008   0.333020   0.610563
    19  H    0.000324  -0.000131   0.000043   0.000181   0.331294  -0.015230
    20  Cl   0.008413  -0.000850   0.003677  -0.037238  -0.006488   0.000014
    21  C   -0.000001  -0.000000   0.000001  -0.000001  -0.066861  -0.000773
    22  H    0.000001   0.000000   0.000000  -0.000105  -0.005862  -0.000082
    23  H   -0.000000   0.000000  -0.000000   0.000002   0.008809  -0.000240
    24  H    0.000000   0.000000  -0.000000   0.000002  -0.005646   0.001957
    25  H   -0.000008   0.000000   0.000672  -0.000006   0.014733  -0.000386
    26  H    0.000001  -0.000000  -0.000003   0.000016   0.015157  -0.000379
              19         20         21         22         23         24
     1  C   -0.008188   0.000388   0.403552  -0.015865  -0.010487  -0.015140
     2  C   -0.002555   0.286300  -0.000142  -0.000548  -0.000004   0.000026
     3  C    0.001258   0.000373   0.009070   0.000475  -0.000598   0.000581
     4  C   -0.009079  -0.086060   0.000020   0.000052   0.000001  -0.000005
     5  C    0.001288  -0.000121  -0.063933   0.001565  -0.012165   0.002808
     6  C    0.003294   0.000069   0.010143  -0.000372   0.000429  -0.000537
     7  C   -0.010291   0.000014  -0.000224   0.000005   0.000007   0.000014
     8  H   -0.000162  -0.000003   0.000006  -0.000001  -0.000000   0.000000
     9  H    0.000149   0.000001   0.000010   0.000003  -0.000000  -0.000007
    10  C    0.006373  -0.002289   0.000000  -0.000011   0.000000   0.000002
    11  H   -0.000087  -0.000003  -0.000000   0.000000   0.000000  -0.000000
    12  H    0.001229   0.000856   0.000011  -0.000012  -0.000000   0.000003
    13  C    0.000324   0.008413  -0.000001   0.000001  -0.000000   0.000000
    14  O   -0.000131  -0.000850  -0.000000   0.000000   0.000000   0.000000
    15  H    0.000043   0.003677   0.000001   0.000000  -0.000000  -0.000000
    16  H    0.000181  -0.037238  -0.000001  -0.000105   0.000002   0.000002
    17  C    0.331294  -0.006488  -0.066861  -0.005862   0.008809  -0.005646
    18  H   -0.015230   0.000014  -0.000773  -0.000082  -0.000240   0.001957
    19  H    0.639785   0.020316  -0.000666   0.003123  -0.000241  -0.000294
    20  Cl   0.020316  16.912696  -0.000884   0.003265   0.000003  -0.000001
    21  C   -0.000666  -0.000884   4.520536   0.380060   0.386430   0.383121
    22  H    0.003123   0.003265   0.380060   0.631299  -0.019742  -0.023134
    23  H   -0.000241   0.000003   0.386430  -0.019742   0.628548  -0.020324
    24  H   -0.000294  -0.000001   0.383121  -0.023134  -0.020324   0.631362
    25  H   -0.000337   0.000001  -0.000293   0.000007   0.000006   0.000005
    26  H   -0.000373  -0.000000  -0.010759   0.000136   0.004509   0.000093
              25         26
     1  C    0.007431  -0.064380
     2  C    0.000008  -0.000019
     3  C   -0.065525   0.007764
     4  C   -0.000266   0.000006
     5  C   -0.053481   0.443963
     6  C    0.442426  -0.056679
     7  C   -0.012041  -0.000312
     8  H    0.004818   0.000009
     9  H    0.000307   0.000006
    10  C    0.000141   0.000006
    11  H   -0.000008  -0.000000
    12  H    0.000001  -0.000000
    13  C   -0.000008   0.000001
    14  O    0.000000  -0.000000
    15  H    0.000672  -0.000003
    16  H   -0.000006   0.000016
    17  C    0.014733   0.015157
    18  H   -0.000386  -0.000379
    19  H   -0.000337  -0.000373
    20  Cl   0.000001  -0.000000
    21  C   -0.000293  -0.010759
    22  H    0.000007   0.000136
    23  H    0.000006   0.004509
    24  H    0.000005   0.000093
    25  H    0.659668  -0.003587
    26  H   -0.003587   0.659187
 Mulliken charges:
               1
     1  C   -0.223240
     2  C   -0.018712
     3  C   -0.206729
     4  C   -0.031282
     5  C   -0.061688
     6  C   -0.062614
     7  C    0.095734
     8  H    0.029747
     9  H    0.050433
    10  C   -0.057624
    11  H    0.062179
    12  H    0.078702
    13  C    0.071105
    14  O   -0.224343
    15  H    0.081328
    16  H    0.099694
    17  C    0.127710
    18  H    0.064237
    19  H    0.038976
    20  Cl  -0.102450
    21  C    0.051575
    22  H    0.045741
    23  H    0.035057
    24  H    0.045114
    25  H    0.005714
    26  H    0.005638
 Sum of Mulliken charges =  -0.00000
 Mulliken charges with hydrogens summed into heavy atoms:
               1
     1  C   -0.223240
     2  C    0.080982
     3  C   -0.206729
     4  C    0.050046
     5  C   -0.056051
     6  C   -0.056900
     7  C    0.175914
    10  C    0.083256
    13  C    0.071105
    14  O   -0.224343
    17  C    0.230922
    20  Cl  -0.102450
    21  C    0.177487
 Electronic spatial extent (au):  <R**2>=           2794.9700
 Charge=              0.0000 electrons
 Dipole moment (field-independent basis, Debye):
    X=             -3.0677    Y=             -1.3967    Z=              0.4633  Tot=              3.4024
 Quadrupole moment (field-independent basis, Debye-Ang):
   XX=            -98.8845   YY=            -80.9180   ZZ=            -77.0222
   XY=             -5.4517   XZ=              1.0009   YZ=              0.5644
 Traceless Quadrupole moment (field-independent basis, Debye-Ang):
   XX=            -13.2763   YY=              4.6903   ZZ=              8.5860
   XY=             -5.4517   XZ=              1.0009   YZ=              0.5644
 Octapole moment (field-independent basis, Debye-Ang**2):
  XXX=            -40.8172  YYY=              2.0273  ZZZ=              0.2119  XYY=             11.4305
  XXY=              9.5084  XXZ=              2.6753  XZZ=              2.1607  YZZ=              1.2947
  YYZ=             -0.1865  XYZ=              0.4099
 Hexadecapole moment (field-independent basis, Debye-Ang**3):
 XXXX=          -2235.2990 YYYY=          -1237.3621 ZZZZ=           -396.6059 XXXY=            -27.4750
 XXXZ=             -7.6089 YYYX=            -15.7922 YYYZ=             -1.4784 ZZZX=             -5.8445
 ZZZY=             -0.8619 XXYY=           -546.3451 XXZZ=           -388.6140 YYZZ=           -256.5862
 XXYZ=             -6.4982 YYXZ=             -7.6868 ZZXY=              4.6784
 N-N= 8.733365359604D+02 E-N=-4.003653352543D+03  KE= 9.552501599832D+02
 Unable to Open any file for archive entry.
 1\1\GINC-NODE-008\FTS\RwB97XD\def2SVP\C11H13Cl1O1\JP2658\28-Dec-2023\0
 \\# wb97xd def2svp geom=allchk scrf=(iefpcm,solvent=toluene) opt=(read
 fc,ts,noeigen,maxcycles=50,maxstep=10)\\imda-1_1_opt_hf.out\\0,1\C,-2.
 4675086136,0.3181089553,-0.2194711134\C,0.9904125525,1.2710103973,1.11
 60758247\C,-0.9215697681,-1.4771562219,-0.0401890923\C,1.367581634,-0.
 0042589973,1.0983561424\C,-2.6735410761,-0.3461917236,0.9395020672\C,-
 1.7224647306,-1.4547212413,1.0474103448\C,0.2232804628,-2.4044002558,-
 0.3214070391\H,0.4587147876,-2.9785097728,0.5890609358\H,-0.0795356395
 ,-3.1492461439,-1.0776779532\C,1.4844695639,-1.7169818811,-0.857031336
 4\H,2.2565422057,-2.4554015228,-1.1199925694\H,1.2480415172,-1.1923202
 383,-1.8003190309\C,2.1632322556,-0.6669799552,0.0080451952\O,3.312911
 8861,-0.3538065467,-0.1906322693\H,1.0574610415,-0.6295951152,1.940670
 6646\H,0.4165223741,1.7099927381,1.9333281839\C,-1.3480907859,-0.36273
 05565,-0.9592082667\H,-1.6895093668,-0.7523188885,-1.9363385183\H,-0.5
 30583805,0.3446740766,-1.1831489724\Cl,1.287688254,2.3821121431,-0.188
 3677001\C,-3.1711449468,1.5279768298,-0.7401360634\H,-2.4636947505,2.3
 620041328,-0.8808929455\H,-3.9594186211,1.8606131781,-0.050315702\H,-3
 .6343657959,1.3336037086,-1.721339171\H,-1.6551802651,-2.1371058609,1.
 8975081422\H,-3.4241703701,-0.093661238,1.6909502424\\Version=ES64L-G1
 6RevC.01\State=1-A\HF=-961.7027583\RMSD=3.667e-09\RMSF=2.639e-06\Dipol
 e=-1.2074514,-0.548229,0.1825566\Quadrupole=-9.8786417,3.4954956,6.383
 146,-4.0394373,0.7474032,0.4199623\PG=C01 [X(C11H13Cl1O1)]\\@
 The archive entry for this job was punched.


 ACHIEVEMENT--  THE MAN WHO ROWS THE BOAT GENERALLY 
                DOESN'T HAVE TIME TO ROCK IT.

                   -- FROM THE BACK OF A SUGAR PACKET
 Job cpu time:       0 days  0 hours 16 minutes  7.6 seconds.
 Elapsed time:       0 days  0 hours  1 minutes 22.4 seconds.
 File lengths (MBytes):  RWF=    112 Int=      0 D2E=      0 Chk=     13 Scr=      1
 Normal termination of Gaussian 16 at Thu Dec 28 13:26:51 2023.
