Unloading slurm/anatra/current
  ERROR: No such file or directory on
    '/cm/local/modulefiles/slurm/anatra/current'
environment: line 0: unalias: gv: not found
environment: line 0: unalias: sl: not found
 Entering Gaussian System, Link 0=g16
 Initial command:
 /apps/gaussian/g16/C.01/g16/l1.exe "/local/jobs/1150835/Gau-198405.inp" -scrdir="/local/jobs/1150835/"
 Entering Link 1 = /apps/gaussian/g16/C.01/g16/l1.exe PID=    198406.
  
 Copyright (c) 1988-2019, Gaussian, Inc.  All Rights Reserved.
  
 This is part of the Gaussian(R) 16 program.  It is based on
 the Gaussian(R) 09 system (copyright 2009, Gaussian, Inc.),
 the Gaussian(R) 03 system (copyright 2003, Gaussian, Inc.),
 the Gaussian(R) 98 system (copyright 1998, Gaussian, Inc.),
 the Gaussian(R) 94 system (copyright 1995, Gaussian, Inc.),
 the Gaussian 92(TM) system (copyright 1992, Gaussian, Inc.),
 the Gaussian 90(TM) system (copyright 1990, Gaussian, Inc.),
 the Gaussian 88(TM) system (copyright 1988, Gaussian, Inc.),
 the Gaussian 86(TM) system (copyright 1986, Carnegie Mellon
 University), and the Gaussian 82(TM) system (copyright 1983,
 Carnegie Mellon University). Gaussian is a federally registered
 trademark of Gaussian, Inc.
  
 This software contains proprietary and confidential information,
 including trade secrets, belonging to Gaussian, Inc.
  
 This software is provided under written license and may be
 used, copied, transmitted, or stored only in accord with that
 written license.
  
 The following legend is applicable only to US Government
 contracts under FAR:
  
                    RESTRICTED RIGHTS LEGEND
  
 Use, reproduction and disclosure by the US Government is
 subject to restrictions as set forth in subparagraphs (a)
 and (c) of the Commercial Computer Software - Restricted
 Rights clause in FAR 52.227-19.
  
 Gaussian, Inc.
 340 Quinnipiac St., Bldg. 40, Wallingford CT 06492
  
  
 ---------------------------------------------------------------
 Warning -- This program may not be used in any manner that
 competes with the business of Gaussian, Inc. or will provide
 assistance to any competitor of Gaussian, Inc.  The licensee
 of this program is prohibited from giving any competitor of
 Gaussian, Inc. access to this program.  By using this program,
 the user acknowledges that Gaussian, Inc. is engaged in the
 business of creating and licensing software in the field of
 computational chemistry and represents and warrants to the
 licensee that it is not a competitor of Gaussian, Inc. and that
 it will not use this program in any manner prohibited above.
 ---------------------------------------------------------------
  

 Cite this work as:
 Gaussian 16, Revision C.01,
 M. J. Frisch, G. W. Trucks, H. B. Schlegel, G. E. Scuseria, 
 M. A. Robb, J. R. Cheeseman, G. Scalmani, V. Barone, 
 G. A. Petersson, H. Nakatsuji, X. Li, M. Caricato, A. V. Marenich, 
 J. Bloino, B. G. Janesko, R. Gomperts, B. Mennucci, H. P. Hratchian, 
 J. V. Ortiz, A. F. Izmaylov, J. L. Sonnenberg, D. Williams-Young, 
 F. Ding, F. Lipparini, F. Egidi, J. Goings, B. Peng, A. Petrone, 
 T. Henderson, D. Ranasinghe, V. G. Zakrzewski, J. Gao, N. Rega, 
 G. Zheng, W. Liang, M. Hada, M. Ehara, K. Toyota, R. Fukuda, 
 J. Hasegawa, M. Ishida, T. Nakajima, Y. Honda, O. Kitao, H. Nakai, 
 T. Vreven, K. Throssell, J. A. Montgomery, Jr., J. E. Peralta, 
 F. Ogliaro, M. J. Bearpark, J. J. Heyd, E. N. Brothers, K. N. Kudin, 
 V. N. Staroverov, T. A. Keith, R. Kobayashi, J. Normand, 
 K. Raghavachari, A. P. Rendell, J. C. Burant, S. S. Iyengar, 
 J. Tomasi, M. Cossi, J. M. Millam, M. Klene, C. Adamo, R. Cammi, 
 J. W. Ochterski, R. L. Martin, K. Morokuma, O. Farkas, 
 J. B. Foresman, and D. J. Fox, Gaussian, Inc., Wallingford CT, 2019.
 
 ******************************************
 Gaussian 16:  ES64L-G16RevC.01  3-Jul-2019
                19-Dec-2023 
 ******************************************
 %chk=TS-325_hf.chk
 ----------------------------------------------------------------------
 # wb97xd def2svp geom=allchk scrf=(iefpcm,solvent=toluene) opt=(readfc
 ,ts,noeigen,maxcycles=50,maxstep=10)
 ----------------------------------------------------------------------
 1/5=1,6=50,8=10,10=3,11=1,18=20,26=3,29=7,38=1/1,3;
 2/9=110,12=2,40=1/2;
 3/5=43,7=101,11=2,14=-4,25=1,30=1,70=2201,71=1,72=13,74=-58/1,2,3;
 4//1;
 5/5=2,38=5,53=13/2;
 6/7=2,8=2,9=2,10=2,28=1/1;
 7//1,2,3,16;
 1/5=1,6=50,8=10,11=1,18=20,26=3/3(2);
 2/9=110/2;
 99//99;
 2/9=110/2;
 3/5=43,7=101,11=2,14=-2,25=1,30=1,70=2205,71=1,72=13,74=-58/1,2,3;
 4/5=5,16=3,69=1/1;
 5/5=2,38=5,53=13/2;
 7//1,2,3,16;
 1/5=1,6=50,8=10,11=1,18=20,26=3/3(-5);
 2/9=110/2;
 6/7=2,8=2,9=2,10=2,19=2,28=1/1;
 99/9=1/99;
 Structure from the checkpoint file:  "TS-325_hf.chk"
 ----------
 TS-325.out
 ----------
 Charge =  0 Multiplicity = 1
 Redundant internal coordinates found in file.  (old form).
 C,0,0.06177,0.16222,-0.05987
 C,0,-0.40074,1.45584,0.53163
 O,0,-1.15429,1.50254,1.49781
 C,0,-0.85367,-0.80502,-0.34582
 C,0,-0.17766,-2.94069,1.77398
 H,0,-0.63118,-3.30064,2.7018
 H,0,-0.07938,-3.77989,1.08005
 H,0,0.82018,-2.55382,1.99723
 N,0,-1.00546,-1.89012,1.17544
 H,0,-1.95493,-2.2718,1.0865
 H,0,-1.12869,-1.1636,1.89783
 H,0,-0.54188,-1.70552,-0.88485
 Br,0,-2.6779,-0.38746,-0.7648
 C,0,1.50834,-0.10668,-0.22143
 C,0,2.39043,0.13335,0.84219
 C,0,3.76031,-0.0945,0.69505
 C,0,4.26366,-0.56034,-0.51778
 C,0,3.39924,-0.79839,-1.58439
 C,0,2.02876,-0.57131,-1.43866
 H,0,2.01427,0.49002,1.7996
 H,0,4.43291,0.08937,1.52903
 H,0,5.33005,-0.7391,-0.63114
 H,0,3.79175,-1.16099,-2.5311
 H,0,1.37285,-0.75516,-2.28698
 N,0,0.13935,2.56268,-0.08207
 C,0,-0.10745,3.88962,0.41632
 H,0,0.84287,2.43119,-0.79729
 H,0,-1.14152,3.98435,0.75836
 H,0,0.57131,4.07921,1.25198
 H,0,0.08687,4.60465,-0.38633
 Recover connectivity data from disk.

 GradGradGradGradGradGradGradGradGradGradGradGradGradGradGradGradGradGrad
 Berny optimization.
 Initialization pass.
 Force constant matrix read from checkpoint file:
 "TS-325_hf.chk"
                           ----------------------------
                           !    Initial Parameters    !
                           ! (Angstroms and Degrees)  !
 --------------------------                            --------------------------
 ! Name  Definition              Value          Derivative Info.                !
 --------------------------------------------------------------------------------
 ! R1    R(1,2)                  1.4957         D2E/DX2 =    0.3271             !
 ! R2    R(1,4)                  1.3621         D2E/DX2 =    0.5534             !
 ! R3    R(1,14)                 1.4802         D2E/DX2 =    0.366              !
 ! R4    R(2,3)                  1.2262         D2E/DX2 =    0.8039             !
 ! R5    R(2,25)                 1.376          D2E/DX2 =    0.4373             !
 ! R6    R(4,9)                  1.8748         D2E/DX2 =    0.0077             !
 ! R7    R(4,12)                 1.0948         D2E/DX2 =    0.3514             !
 ! R8    R(4,13)                 1.9177         D2E/DX2 =    0.2026             !
 ! R9    R(5,6)                  1.0937         D2E/DX2 =    0.3534             !
 ! R10   R(5,7)                  1.0934         D2E/DX2 =    0.3583             !
 ! R11   R(5,8)                  1.0932         D2E/DX2 =    0.3604             !
 ! R12   R(5,9)                  1.4653         D2E/DX2 =    0.3638             !
 ! R13   R(9,10)                 1.0272         D2E/DX2 =    0.4307             !
 ! R14   R(9,11)                 1.0319         D2E/DX2 =    0.4201             !
 ! R15   R(14,15)                1.4025         D2E/DX2 =    0.4078             !
 ! R16   R(14,19)                1.403          D2E/DX2 =    0.4066             !
 ! R17   R(15,16)                1.3965         D2E/DX2 =    0.4169             !
 ! R18   R(15,20)                1.0887         D2E/DX2 =    0.3709             !
 ! R19   R(16,17)                1.3933         D2E/DX2 =    0.4255             !
 ! R20   R(16,21)                1.0871         D2E/DX2 =    0.3747             !
 ! R21   R(17,18)                1.3934         D2E/DX2 =    0.4252             !
 ! R22   R(17,22)                1.0872         D2E/DX2 =    0.3741             !
 ! R23   R(18,19)                1.3968         D2E/DX2 =    0.4162             !
 ! R24   R(18,23)                1.0871         D2E/DX2 =    0.3746             !
 ! R25   R(19,24)                1.088          D2E/DX2 =    0.3725             !
 ! R26   R(25,26)                1.4388         D2E/DX2 =    0.4143             !
 ! R27   R(25,27)                1.0118         D2E/DX2 =    0.4816             !
 ! R28   R(26,28)                1.0933         D2E/DX2 =    0.3601             !
 ! R29   R(26,29)                1.0932         D2E/DX2 =    0.3526             !
 ! R30   R(26,30)                1.0924         D2E/DX2 =    0.3595             !
 ! A1    A(2,1,4)              119.2977         D2E/DX2 =    0.1732             !
 ! A2    A(2,1,14)             120.1638         D2E/DX2 =    0.1532             !
 ! A3    A(4,1,14)             120.3242         D2E/DX2 =    0.1524             !
 ! A4    A(1,2,3)              122.3149         D2E/DX2 =    0.1936             !
 ! A5    A(1,2,25)             113.4496         D2E/DX2 =    0.2051             !
 ! A6    A(3,2,25)             124.1945         D2E/DX2 =    0.2123             !
 ! A7    A(1,4,9)              107.1618         D2E/DX2 =    0.1786             !
 ! A8    A(1,4,12)             119.737          D2E/DX2 =    0.0299             !
 ! A9    A(1,4,13)             122.0429         D2E/DX2 =    0.0635             !
 ! A10   A(9,4,12)              86.9335         D2E/DX2 =    0.0666             !
 ! A11   A(9,4,13)             103.0786         D2E/DX2 =    0.0946             !
 ! A12   A(12,4,13)            110.0243         D2E/DX2 =    0.026              !
 ! A13   A(6,5,7)              108.85           D2E/DX2 =    0.0625             !
 ! A14   A(6,5,8)              108.7668         D2E/DX2 =    0.0626             !
 ! A15   A(6,5,9)              110.3791         D2E/DX2 =    0.1407             !
 ! A16   A(7,5,8)              108.6128         D2E/DX2 =    0.0618             !
 ! A17   A(7,5,9)              109.9879         D2E/DX2 =    0.1396             !
 ! A18   A(8,5,9)              110.2017         D2E/DX2 =    0.1389             !
 ! A19   A(4,9,5)              134.4812         D2E/DX2 =    0.036              !
 ! A20   A(4,9,10)             102.6885         D2E/DX2 =    0.0428             !
 ! A21   A(4,9,11)              99.8004         D2E/DX2 =    0.0447             !
 ! A22   A(5,9,10)             106.9268         D2E/DX2 =    0.0618             !
 ! A23   A(5,9,11)             106.6355         D2E/DX2 =    0.0581             !
 ! A24   A(10,9,11)            102.2303         D2E/DX2 =    0.0162             !
 ! A25   A(1,14,15)            120.0524         D2E/DX2 =    0.1437             !
 ! A26   A(1,14,19)            121.1561         D2E/DX2 =    0.1456             !
 ! A27   A(15,14,19)           118.7735         D2E/DX2 =    0.0964             !
 ! A28   A(14,15,16)           120.6063         D2E/DX2 =    0.0937             !
 ! A29   A(14,15,20)           120.3757         D2E/DX2 =    0.0945             !
 ! A30   A(16,15,20)           119.0145         D2E/DX2 =    0.0953             !
 ! A31   A(15,16,17)           120.043          D2E/DX2 =    0.0916             !
 ! A32   A(15,16,21)           119.9017         D2E/DX2 =    0.0932             !
 ! A33   A(17,16,21)           120.0551         D2E/DX2 =    0.0933             !
 ! A34   A(16,17,18)           119.9552         D2E/DX2 =    0.0914             !
 ! A35   A(16,17,22)           120.0055         D2E/DX2 =    0.0936             !
 ! A36   A(18,17,22)           120.0393         D2E/DX2 =    0.0936             !
 ! A37   A(17,18,19)           120.0693         D2E/DX2 =    0.0917             !
 ! A38   A(17,18,23)           119.9742         D2E/DX2 =    0.0934             !
 ! A39   A(19,18,23)           119.9565         D2E/DX2 =    0.0931             !
 ! A40   A(14,19,18)           120.5513         D2E/DX2 =    0.0935             !
 ! A41   A(14,19,24)           120.5858         D2E/DX2 =    0.0933             !
 ! A42   A(18,19,24)           118.8619         D2E/DX2 =    0.0949             !
 ! A43   A(2,25,26)            121.3346         D2E/DX2 =    0.1431             !
 ! A44   A(2,25,27)            118.9233         D2E/DX2 =    0.1083             !
 ! A45   A(26,25,27)           118.9457         D2E/DX2 =    0.1045             !
 ! A46   A(25,26,28)           110.5197         D2E/DX2 =    0.1467             !
 ! A47   A(25,26,29)           108.557          D2E/DX2 =    0.1614             !
 ! A48   A(25,26,30)           108.5812         D2E/DX2 =    0.1514             !
 ! A49   A(28,26,29)           109.457          D2E/DX2 =    0.0694             !
 ! A50   A(28,26,30)           109.9632         D2E/DX2 =    0.0667             !
 ! A51   A(29,26,30)           109.7381         D2E/DX2 =    0.0676             !
 ! D1    D(4,1,2,3)             49.1418         D2E/DX2 =    0.0109             !
 ! D2    D(4,1,2,25)          -133.0961         D2E/DX2 =    0.0112             !
 ! D3    D(14,1,2,3)          -125.5571         D2E/DX2 =    0.0096             !
 ! D4    D(14,1,2,25)           52.2051         D2E/DX2 =    0.0112             !
 ! D5    D(2,1,4,9)            -90.7057         D2E/DX2 =    0.0138             !
 ! D6    D(2,1,4,12)           172.8674         D2E/DX2 =    0.0235             !
 ! D7    D(2,1,4,13)            27.5036         D2E/DX2 =    0.0241             !
 ! D8    D(14,1,4,9)            83.9844         D2E/DX2 =    0.0143             !
 ! D9    D(14,1,4,12)          -12.4424         D2E/DX2 =    0.0214             !
 ! D10   D(14,1,4,13)         -157.8063         D2E/DX2 =    0.0264             !
 ! D11   D(2,1,14,15)           47.5529         D2E/DX2 =    0.0042             !
 ! D12   D(2,1,14,19)         -130.8817         D2E/DX2 =    0.0034             !
 ! D13   D(4,1,14,15)         -127.091          D2E/DX2 =    0.0052             !
 ! D14   D(4,1,14,19)           54.4743         D2E/DX2 =    0.0048             !
 ! D15   D(1,2,25,26)         -175.0909         D2E/DX2 =    0.0144             !
 ! D16   D(1,2,25,27)           -5.4202         D2E/DX2 =    0.012              !
 ! D17   D(3,2,25,26)            2.6225         D2E/DX2 =    0.0145             !
 ! D18   D(3,2,25,27)          172.2932         D2E/DX2 =    0.0143             !
 ! D19   D(1,4,9,5)            -76.1611         D2E/DX2 =    0.0148             !
 ! D20   D(1,4,9,10)           154.0923         D2E/DX2 =    0.0166             !
 ! D21   D(1,4,9,11)            49.0666         D2E/DX2 =    0.0184             !
 ! D22   D(12,4,9,5)            44.0598         D2E/DX2 =    0.012              !
 ! D23   D(12,4,9,10)          -85.6868         D2E/DX2 =    0.0141             !
 ! D24   D(12,4,9,11)          169.2875         D2E/DX2 =    0.0148             !
 ! D25   D(13,4,9,5)           153.9121         D2E/DX2 =    0.0156             !
 ! D26   D(13,4,9,10)           24.1655         D2E/DX2 =    0.0178             !
 ! D27   D(13,4,9,11)          -80.8602         D2E/DX2 =    0.0181             !
 ! D28   D(6,5,9,4)            178.1429         D2E/DX2 =    0.0107             !
 ! D29   D(6,5,9,10)           -53.4919         D2E/DX2 =    0.0143             !
 ! D30   D(6,5,9,11)            55.2944         D2E/DX2 =    0.0144             !
 ! D31   D(7,5,9,4)            -61.7329         D2E/DX2 =    0.0106             !
 ! D32   D(7,5,9,10)            66.6323         D2E/DX2 =    0.0143             !
 ! D33   D(7,5,9,11)           175.4186         D2E/DX2 =    0.0142             !
 ! D34   D(8,5,9,4)             57.985          D2E/DX2 =    0.0109             !
 ! D35   D(8,5,9,10)          -173.6498         D2E/DX2 =    0.0141             !
 ! D36   D(8,5,9,11)           -64.8635         D2E/DX2 =    0.0146             !
 ! D37   D(1,14,15,16)        -178.8957         D2E/DX2 =    0.0086             !
 ! D38   D(1,14,15,20)           1.7968         D2E/DX2 =    0.0097             !
 ! D39   D(19,14,15,16)         -0.424          D2E/DX2 =    0.0088             !
 ! D40   D(19,14,15,20)       -179.7315         D2E/DX2 =    0.0091             !
 ! D41   D(1,14,19,18)         178.8607         D2E/DX2 =    0.0087             !
 ! D42   D(1,14,19,24)          -0.7663         D2E/DX2 =    0.0096             !
 ! D43   D(15,14,19,18)          0.4065         D2E/DX2 =    0.0088             !
 ! D44   D(15,14,19,24)       -179.2205         D2E/DX2 =    0.0092             !
 ! D45   D(14,15,16,17)          0.2129         D2E/DX2 =    0.0105             !
 ! D46   D(14,15,16,21)       -179.6096         D2E/DX2 =    0.0099             !
 ! D47   D(20,15,16,17)        179.5297         D2E/DX2 =    0.0101             !
 ! D48   D(20,15,16,21)         -0.2928         D2E/DX2 =    0.0109             !
 ! D49   D(15,16,17,18)          0.0232         D2E/DX2 =    0.0108             !
 ! D50   D(15,16,17,22)       -179.898          D2E/DX2 =    0.01               !
 ! D51   D(21,16,17,18)        179.8455         D2E/DX2 =    0.01               !
 ! D52   D(21,16,17,22)         -0.0757         D2E/DX2 =    0.0107             !
 ! D53   D(16,17,18,19)         -0.0404         D2E/DX2 =    0.0108             !
 ! D54   D(16,17,18,23)        179.9442         D2E/DX2 =    0.0099             !
 ! D55   D(22,17,18,19)        179.8808         D2E/DX2 =    0.01               !
 ! D56   D(22,17,18,23)         -0.1346         D2E/DX2 =    0.0107             !
 ! D57   D(17,18,19,14)         -0.1782         D2E/DX2 =    0.0105             !
 ! D58   D(17,18,19,24)        179.4552         D2E/DX2 =    0.0101             !
 ! D59   D(23,18,19,14)        179.8372         D2E/DX2 =    0.0099             !
 ! D60   D(23,18,19,24)         -0.5294         D2E/DX2 =    0.0108             !
 ! D61   D(2,25,26,28)         -38.8072         D2E/DX2 =    0.0146             !
 ! D62   D(2,25,26,29)          81.2469         D2E/DX2 =    0.0147             !
 ! D63   D(2,25,26,30)        -159.4988         D2E/DX2 =    0.0148             !
 ! D64   D(27,25,26,28)        151.5243         D2E/DX2 =    0.0151             !
 ! D65   D(27,25,26,29)        -88.4216         D2E/DX2 =    0.0151             !
 ! D66   D(27,25,26,30)         30.8328         D2E/DX2 =    0.0141             !
 --------------------------------------------------------------------------------
 Trust Radius=1.00D-01 FncErr=1.00D-07 GrdErr=1.00D-06 EigMax=2.50D+02 EigMin=1.00D-04
 Number of steps in this run=     50 maximum allowed number of steps=    180.
 Search for a saddle point of order  1.
 GradGradGradGradGradGradGradGradGradGradGradGradGradGradGradGradGradGrad

                          Input orientation:                          
 ---------------------------------------------------------------------
 Center     Atomic      Atomic             Coordinates (Angstroms)
 Number     Number       Type             X           Y           Z
 ---------------------------------------------------------------------
      1          6           0        0.061770    0.162220   -0.059870
      2          6           0       -0.400740    1.455840    0.531630
      3          8           0       -1.154290    1.502540    1.497810
      4          6           0       -0.853670   -0.805020   -0.345820
      5          6           0       -0.177660   -2.940690    1.773980
      6          1           0       -0.631180   -3.300640    2.701800
      7          1           0       -0.079380   -3.779890    1.080050
      8          1           0        0.820180   -2.553820    1.997230
      9          7           0       -1.005460   -1.890120    1.175440
     10          1           0       -1.954930   -2.271800    1.086500
     11          1           0       -1.128690   -1.163600    1.897830
     12          1           0       -0.541880   -1.705520   -0.884850
     13         35           0       -2.677900   -0.387460   -0.764800
     14          6           0        1.508340   -0.106680   -0.221430
     15          6           0        2.390430    0.133350    0.842190
     16          6           0        3.760310   -0.094500    0.695050
     17          6           0        4.263660   -0.560340   -0.517780
     18          6           0        3.399240   -0.798390   -1.584390
     19          6           0        2.028760   -0.571310   -1.438660
     20          1           0        2.014270    0.490020    1.799600
     21          1           0        4.432910    0.089370    1.529030
     22          1           0        5.330050   -0.739100   -0.631140
     23          1           0        3.791750   -1.160990   -2.531100
     24          1           0        1.372850   -0.755160   -2.286980
     25          7           0        0.139350    2.562680   -0.082070
     26          6           0       -0.107450    3.889620    0.416320
     27          1           0        0.842870    2.431190   -0.797290
     28          1           0       -1.141520    3.984350    0.758360
     29          1           0        0.571310    4.079210    1.251980
     30          1           0        0.086870    4.604650   -0.386330
 ---------------------------------------------------------------------
                    Distance matrix (angstroms):
                    1          2          3          4          5
     1  C    0.000000
     2  C    1.495741   0.000000
     3  O    2.387808   1.226182   0.000000
     4  C    1.362113   2.467094   2.968868   0.000000
     5  C    3.612255   4.574131   4.557671   3.084093   0.000000
     6  H    4.483124   5.233244   4.979335   3.945327   1.093661
     7  H    4.106041   5.274173   5.406850   3.388581   1.093368
     8  H    3.490519   4.440271   4.538944   3.368970   1.093249
     9  N    2.622417   3.460582   3.411190   1.874757   1.465333
    10  H    3.362394   4.076602   3.880186   2.327178   2.019587
    11  H    2.647184   3.042676   2.696103   2.288707   2.019368
    12  H    2.129187   3.467064   4.042742   1.094836   2.954264
    13  Br   2.881816   3.203739   3.318568   1.917737   4.383559
    14  C    1.480194   2.579371   3.554571   2.466220   3.854331
    15  C    2.497439   3.104200   3.856107   3.579957   4.112547
    16  C    3.783518   4.443489   5.229556   4.782997   4.977198
    17  C    4.288083   5.188725   6.137773   5.126061   5.535662
    18  C    3.792840   4.898871   5.960610   4.429599   5.353719
    19  C    2.511609   3.727446   4.801616   3.091492   4.561064
    20  H    2.716126   2.893584   3.340067   3.808548   4.071239
    21  H    4.651535   5.121154   5.763231   5.680046   5.522556
    22  H    5.375268   6.245939   7.183595   6.190650   6.400505
    23  H    4.665899   5.814214   6.913018   5.146075   6.120234
    24  H    2.742360   3.997337   5.080185   2.954315   4.865390
    25  N    2.401816   1.376016   2.300744   3.520945   5.816571
    26  C    3.761503   2.454099   2.821993   4.814286   6.964288
    27  H    2.510404   2.064922   3.180963   3.681729   6.042351
    28  H    4.089754   2.644527   2.589658   4.923427   7.065174
    29  H    4.162138   2.888919   3.110845   5.332845   7.079014
    30  H    4.454480   3.315934   3.835824   5.490973   7.852966
                    6          7          8          9         10
     6  H    0.000000
     7  H    1.778830   0.000000
     8  H    1.777809   1.775859   0.000000
     9  N    2.111736   2.106645   2.109217   0.000000
    10  H    2.328094   2.406671   2.934314   1.027172   0.000000
    11  H    2.336841   2.935096   2.395973   1.031923   1.602821
    12  H    3.926378   2.894434   3.298667   2.119853   2.490704
    13  Br   4.969205   4.654499   4.955652   2.969777   2.738747
    14  C    4.829513   4.207990   3.374094   3.383947   4.288667
    15  C    4.937668   4.633572   3.319742   3.967059   4.972584
    16  C    5.795823   5.336061   4.048246   5.115427   6.128445
    17  C    6.467952   5.637425   4.707100   5.692006   6.646328
    18  C    6.393510   5.299941   4.749851   5.311301   6.162120
    19  C    5.627427   4.591638   4.146848   4.216547   5.013770
    20  H    4.709721   4.809704   3.275648   3.895306   4.887812
    21  H    6.205849   5.961000   4.500831   5.798213   6.824621
    22  H    7.294261   6.437120   5.526343   6.687845   7.640052
    23  H    7.177998   5.906326   5.592493   6.106005   6.880789
    24  H    5.948406   4.753405   4.679218   4.351189   4.975408
    25  N    6.536220   6.451865   5.564673   4.766482   5.396644
    26  C    7.562906   7.698228   6.699081   5.898142   6.467258
    27  H    6.875342   6.553813   5.714909   5.097225   5.787440
    28  H    7.557016   7.843153   6.937632   5.890829   6.317335
    29  H    7.616439   7.887865   6.679403   6.174541   6.837002
    30  H    8.517379   8.513426   7.580422   6.768630   7.322823
                   11         12         13         14         15
    11  H    0.000000
    12  H    2.895053   0.000000
    13  Br   3.176798   2.512822   0.000000
    14  C    3.544329   2.683248   4.230685   0.000000
    15  C    3.896237   3.868146   5.342437   1.402492   0.000000
    16  C    5.147036   4.858015   6.608142   2.431348   1.396473
    17  C    5.939405   4.953725   6.948105   2.808099   2.416550
    18  C    5.723756   4.104226   6.145911   2.431383   2.788212
    19  C    4.631680   2.863796   4.758207   1.402985   2.414462
    20  H    3.552788   4.308198   5.418725   2.167159   1.088735
    21  H    5.712910   5.813517   7.486831   3.414038   2.155321
    22  H    6.949188   5.956333   8.016781   3.895290   3.401946
    23  H    6.620133   4.667655   6.750891   3.414690   3.875319
    24  H    4.892562   2.556432   4.342903   2.169189   3.408317
    25  N    4.406029   4.396142   4.135982   3.003171   3.438497
    26  C    5.364032   5.760848   5.127930   4.357513   4.531041
    27  H    4.906448   4.363206   4.510173   2.686122   3.219147
    28  H    5.272565   5.952674   4.877828   4.971747   5.226079
    29  H    5.549250   6.266445   5.880128   4.535486   4.364280
    30  H    6.322000   6.360982   5.719122   4.923860   5.177661
                   16         17         18         19         20
    16  C    0.000000
    17  C    1.393314   0.000000
    18  C    2.412816   1.393394   0.000000
    19  C    2.788966   2.417213   1.396788   0.000000
    20  H    2.147173   3.396066   3.876794   3.407779   0.000000
    21  H    1.087070   2.154112   3.398526   3.876031   2.466485
    22  H    2.153688   1.087195   2.154119   3.402757   4.291111
    23  H    3.398004   2.153355   1.087107   2.156219   4.963893
    24  H    3.876718   3.394820   2.145171   1.087964   4.319957
    25  N    4.558056   5.191631   4.917381   3.902832   3.369262
    26  C    5.559719   6.307241   6.186853   5.282446   4.239391
    27  H    4.137348   4.552931   4.193416   3.291306   3.447341
    28  H    6.377222   7.176260   6.998684   5.969222   4.822192
    29  H    5.282021   6.187966   6.311352   5.566960   3.906956
    30  H    6.061811   6.643792   6.449805   5.627513   5.042156
                   21         22         23         24         25
    21  H    0.000000
    22  H    2.481443   0.000000
    23  H    4.296410   2.480767   0.000000
    24  H    4.963782   4.289696   2.464827   0.000000
    25  N    5.210332   6.176293   5.762247   4.170277   0.000000
    26  C    6.024524   7.217245   7.028492   5.574325   1.438775
    27  H    4.876912   5.496647   4.960418   3.557089   1.011815
    28  H    6.843908   8.131599   7.850619   6.169206   2.089999
    29  H    5.559455   7.029072   7.220985   6.044654   2.065464
    30  H    6.553199   7.490429   7.181140   5.830418   2.065180
                   26         27         28         29         30
    26  C    0.000000
    27  H    2.122022   0.000000
    28  H    1.093282   2.961445   0.000000
    29  H    1.093155   2.643714   1.785062   0.000000
    30  H    1.092371   2.337595   1.789980   1.787408   0.000000
 Stoichiometry    C11H15BrN2O
 Framework group  C1[X(C11H15BrN2O)]
 Deg. of freedom    84
 Full point group                 C1      NOp   1
 Largest Abelian subgroup         C1      NOp   1
 Largest concise Abelian subgroup C1      NOp   1
                         Standard orientation:                         
 ---------------------------------------------------------------------
 Center     Atomic      Atomic             Coordinates (Angstroms)
 Number     Number       Type             X           Y           Z
 ---------------------------------------------------------------------
      1          6           0        0.061771    0.162220   -0.059871
      2          6           0       -0.400741    1.455839    0.531629
      3          8           0       -1.154291    1.502538    1.497809
      4          6           0       -0.853668   -0.805021   -0.345821
      5          6           0       -0.177655   -2.940690    1.773979
      6          1           0       -0.631175   -3.300641    2.701799
      7          1           0       -0.079374   -3.779890    1.080049
      8          1           0        0.820184   -2.553819    1.997229
      9          7           0       -1.005456   -1.890121    1.175439
     10          1           0       -1.954926   -2.271803    1.086499
     11          1           0       -1.128687   -1.163601    1.897829
     12          1           0       -0.541877   -1.705521   -0.884851
     13         35           0       -2.677898   -0.387463   -0.764801
     14          6           0        1.508341   -0.106678   -0.221431
     15          6           0        2.390431    0.133353    0.842189
     16          6           0        3.760311   -0.094495    0.695049
     17          6           0        4.263662   -0.560335   -0.517781
     18          6           0        3.399242   -0.798386   -1.584391
     19          6           0        2.028762   -0.571308   -1.438661
     20          1           0        2.014271    0.490022    1.799599
     21          1           0        4.432911    0.089375    1.529029
     22          1           0        5.330052   -0.739093   -0.631141
     23          1           0        3.791753   -1.160985   -2.531101
     24          1           0        1.372852   -0.755158   -2.286981
     25          7           0        0.139348    2.562680   -0.082071
     26          6           0       -0.107454    3.889620    0.416319
     27          1           0        0.842868    2.431191   -0.797291
     28          1           0       -1.141524    3.984349    0.758359
     29          1           0        0.571306    4.079211    1.251979
     30          1           0        0.086865    4.604650   -0.386331
 ---------------------------------------------------------------------
 Rotational constants (GHZ):           0.5707058           0.3130453           0.2543192
 Standard basis: def2SVP (5D, 7F)
 There are   320 symmetry adapted cartesian basis functions of A   symmetry.
 There are   303 symmetry adapted basis functions of A   symmetry.
   303 basis functions,   535 primitive gaussians,   320 cartesian basis functions
    69 alpha electrons       69 beta electrons
       nuclear repulsion energy      1347.9991246151 Hartrees.
 NAtoms=   30 NActive=   30 NUniq=   30 SFac= 1.00D+00 NAtFMM=   60 NAOKFM=F Big=F
 Integral buffers will be    131072 words long.
 Raffenetti 2 integral format.
 Two-electron integral symmetry is turned on.
 Nuclear repulsion after empirical dispersion term =     1347.9774848751 Hartrees.
 ------------------------------------------------------------------------------
 Polarizable Continuum Model (PCM)
 =================================
 Model                : PCM.
 Atomic radii         : UFF (Universal Force Field).
 Polarization charges : Total charges.
 Charge compensation  : None.
 Solution method      : On-the-fly selection.
 Cavity type          : Scaled VdW (van der Waals Surface) (Alpha=1.100).
 Cavity algorithm     : GePol (No added spheres)
                        Default sphere list used, NSphG=   30.
                        Lebedev-Laikov grids with approx.  5.0 points / Ang**2.
                        Smoothing algorithm: York/Karplus (Gamma=1.0000).
                        Polarization charges: spherical gaussians, with
                                              point-specific exponents (IZeta= 3).
                        Self-potential: point-specific (ISelfS= 7).
                        Self-field    : sphere-specific E.n sum rule (ISelfD= 2).
 1st derivatives      : Analytical E(r).r(x)/FMM algorithm (CHGder, D1EAlg=3).
                        Cavity 1st derivative terms included.
 Solvent              : Toluene, Eps=   2.374100 Eps(inf)=   2.238315
 ------------------------------------------------------------------------------
 One-electron integrals computed using PRISM.
   1 Symmetry operations used in ECPInt.
 ECPInt:  NShTT=   10011 NPrTT=   37668 LenC2=    9528 LenP2D=   25663.
 LDataN:  DoStor=T MaxTD1= 4 Len=   56
 NBasis=   303 RedAO= T EigKep=  2.86D-04  NBF=   303
 NBsUse=   303 1.00D-06 EigRej= -1.00D+00 NBFU=   303
 ExpMin= 1.22D-01 ExpMax= 1.13D+05 ExpMxC= 1.70D+04 IAcc=3 IRadAn=         5 AccDes= 0.00D+00
 Harris functional with IExCor= 4639 and IRadAn=       5 diagonalized for initial guess.
 HarFok:  IExCor= 4639 AccDes= 0.00D+00 IRadAn=         5 IDoV= 1 UseB2=F ITyADJ=14
 ICtDFT=  3500011 ScaDFX=  1.000000  1.000000  1.000000  1.000000
 FoFCou: FMM=F IPFlag=           0 FMFlag=      100000 FMFlg1=           0
         NFxFlg=           0 DoJE=T BraDBF=F KetDBF=T FulRan=T
         wScrn=  0.000000 ICntrl=       500 IOpCl=  0 I1Cent=   200000004 NGrid=           0
         NMat0=    1 NMatS0=      1 NMatT0=    0 NMatD0=    1 NMtDS0=    0 NMtDT0=    0
 Petite list used in FoFCou.
 Requested convergence on RMS density matrix=1.00D-08 within 128 cycles.
 Requested convergence on MAX density matrix=1.00D-06.
 Requested convergence on             energy=1.00D-06.
 No special actions if energy rises.
 Inv3:  Mode=1 IEnd=    17612787.
 Iteration    1 A*A^-1 deviation from unit magnitude is 3.11D-15 for   1994.
 Iteration    1 A*A^-1 deviation from orthogonality  is 1.95D-15 for   1301    230.
 Iteration    1 A^-1*A deviation from unit magnitude is 3.33D-15 for   1994.
 Iteration    1 A^-1*A deviation from orthogonality  is 3.39D-14 for   1481   1418.
 Error on total polarization charges =  0.00587
 SCF Done:  E(RwB97XD) =  -3186.13623593     A.U. after   16 cycles
            NFock= 16  Conv=0.42D-08     -V/T= 2.0029

 **********************************************************************

            Population analysis using the SCF Density.

 **********************************************************************

 Orbital symmetries:
       Occupied  (A) (A) (A) (A) (A) (A) (A) (A) (A) (A) (A) (A)
                 (A) (A) (A) (A) (A) (A) (A) (A) (A) (A) (A) (A)
                 (A) (A) (A) (A) (A) (A) (A) (A) (A) (A) (A) (A)
                 (A) (A) (A) (A) (A) (A) (A) (A) (A) (A) (A) (A)
                 (A) (A) (A) (A) (A) (A) (A) (A) (A) (A) (A) (A)
                 (A) (A) (A) (A) (A) (A) (A) (A) (A)
       Virtual   (A) (A) (A) (A) (A) (A) (A) (A) (A) (A) (A) (A)
                 (A) (A) (A) (A) (A) (A) (A) (A) (A) (A) (A) (A)
                 (A) (A) (A) (A) (A) (A) (A) (A) (A) (A) (A) (A)
                 (A) (A) (A) (A) (A) (A) (A) (A) (A) (A) (A) (A)
                 (A) (A) (A) (A) (A) (A) (A) (A) (A) (A) (A) (A)
                 (A) (A) (A) (A) (A) (A) (A) (A) (A) (A) (A) (A)
                 (A) (A) (A) (A) (A) (A) (A) (A) (A) (A) (A) (A)
                 (A) (A) (A) (A) (A) (A) (A) (A) (A) (A) (A) (A)
                 (A) (A) (A) (A) (A) (A) (A) (A) (A) (A) (A) (A)
                 (A) (A) (A) (A) (A) (A) (A) (A) (A) (A) (A) (A)
                 (A) (A) (A) (A) (A) (A) (A) (A) (A) (A) (A) (A)
                 (A) (A) (A) (A) (A) (A) (A) (A) (A) (A) (A) (A)
                 (A) (A) (A) (A) (A) (A) (A) (A) (A) (A) (A) (A)
                 (A) (A) (A) (A) (A) (A) (A) (A) (A) (A) (A) (A)
                 (A) (A) (A) (A) (A) (A) (A) (A) (A) (A) (A) (A)
                 (A) (A) (A) (A) (A) (A) (A) (A) (A) (A) (A) (A)
                 (A) (A) (A) (A) (A) (A) (A) (A) (A) (A) (A) (A)
                 (A) (A) (A) (A) (A) (A) (A) (A) (A) (A) (A) (A)
                 (A) (A) (A) (A) (A) (A) (A) (A) (A) (A) (A) (A)
                 (A) (A) (A) (A) (A) (A)
 The electronic state is 1-A.
 Alpha  occ. eigenvalues -- -483.05775 -62.63987 -56.44758 -56.44404 -56.44384
 Alpha  occ. eigenvalues --  -19.20346 -14.48246 -14.44876 -10.37905 -10.37455
 Alpha  occ. eigenvalues --  -10.33943 -10.31525 -10.30697 -10.29870 -10.29855
 Alpha  occ. eigenvalues --  -10.29504 -10.29467 -10.29431 -10.25488  -8.80939
 Alpha  occ. eigenvalues --   -6.63489  -6.62198  -6.62125  -2.73860  -2.73503
 Alpha  occ. eigenvalues --   -2.73445  -2.72416  -2.72415  -1.10507  -1.02610
 Alpha  occ. eigenvalues --   -0.99325  -0.94987  -0.91722  -0.86235  -0.83325
 Alpha  occ. eigenvalues --   -0.80497  -0.78723  -0.77276  -0.70156  -0.68682
 Alpha  occ. eigenvalues --   -0.67170  -0.64710  -0.61676  -0.60912  -0.57131
 Alpha  occ. eigenvalues --   -0.56629  -0.54763  -0.54535  -0.53038  -0.52640
 Alpha  occ. eigenvalues --   -0.51828  -0.51155  -0.50131  -0.48920  -0.47711
 Alpha  occ. eigenvalues --   -0.46664  -0.46268  -0.45384  -0.44827  -0.44346
 Alpha  occ. eigenvalues --   -0.42218  -0.41743  -0.37120  -0.36481  -0.34677
 Alpha  occ. eigenvalues --   -0.32982  -0.31789  -0.31492  -0.24095
 Alpha virt. eigenvalues --    0.04793   0.06145   0.08462   0.09484   0.12706
 Alpha virt. eigenvalues --    0.14980   0.15643   0.16238   0.17366   0.17571
 Alpha virt. eigenvalues --    0.18856   0.19152   0.20003   0.20787   0.21677
 Alpha virt. eigenvalues --    0.22219   0.22642   0.23479   0.24263   0.24864
 Alpha virt. eigenvalues --    0.25770   0.28113   0.29237   0.33103   0.33616
 Alpha virt. eigenvalues --    0.36393   0.37495   0.38552   0.38706   0.41800
 Alpha virt. eigenvalues --    0.42448   0.43537   0.44811   0.45900   0.47672
 Alpha virt. eigenvalues --    0.49150   0.49732   0.50329   0.51946   0.52233
 Alpha virt. eigenvalues --    0.53069   0.53831   0.54968   0.55788   0.56548
 Alpha virt. eigenvalues --    0.57127   0.57606   0.57817   0.58491   0.59495
 Alpha virt. eigenvalues --    0.60380   0.62602   0.63733   0.64465   0.65487
 Alpha virt. eigenvalues --    0.66419   0.68220   0.68482   0.69259   0.69511
 Alpha virt. eigenvalues --    0.70706   0.71714   0.72740   0.73086   0.73603
 Alpha virt. eigenvalues --    0.74472   0.74708   0.75353   0.75900   0.75959
 Alpha virt. eigenvalues --    0.76287   0.76423   0.77688   0.77870   0.78401
 Alpha virt. eigenvalues --    0.79359   0.80703   0.80947   0.82218   0.82654
 Alpha virt. eigenvalues --    0.83556   0.84087   0.85012   0.85610   0.86834
 Alpha virt. eigenvalues --    0.87039   0.88577   0.90103   0.91239   0.94220
 Alpha virt. eigenvalues --    0.94703   0.96784   0.97939   0.98059   1.00759
 Alpha virt. eigenvalues --    1.03736   1.04232   1.06100   1.08140   1.11065
 Alpha virt. eigenvalues --    1.14007   1.15193   1.17860   1.18847   1.20169
 Alpha virt. eigenvalues --    1.23107   1.26246   1.28278   1.30679   1.31082
 Alpha virt. eigenvalues --    1.32178   1.33631   1.35679   1.37222   1.38256
 Alpha virt. eigenvalues --    1.38993   1.39577   1.42983   1.45166   1.46822
 Alpha virt. eigenvalues --    1.49177   1.52519   1.56570   1.57437   1.59945
 Alpha virt. eigenvalues --    1.60981   1.62023   1.62157   1.67697   1.71286
 Alpha virt. eigenvalues --    1.73194   1.75371   1.76759   1.78888   1.79651
 Alpha virt. eigenvalues --    1.80481   1.83099   1.83143   1.84324   1.84945
 Alpha virt. eigenvalues --    1.85195   1.85916   1.86296   1.86604   1.87977
 Alpha virt. eigenvalues --    1.88221   1.88823   1.89605   1.90593   1.91474
 Alpha virt. eigenvalues --    1.92085   1.95198   1.95999   1.98876   2.01434
 Alpha virt. eigenvalues --    2.03246   2.03797   2.04390   2.05857   2.06980
 Alpha virt. eigenvalues --    2.07922   2.08022   2.09293   2.12923   2.13604
 Alpha virt. eigenvalues --    2.15659   2.16943   2.17990   2.19365   2.19937
 Alpha virt. eigenvalues --    2.23003   2.23275   2.24688   2.25184   2.27100
 Alpha virt. eigenvalues --    2.30015   2.31045   2.37380   2.38186   2.39536
 Alpha virt. eigenvalues --    2.39972   2.40621   2.41822   2.42750   2.43951
 Alpha virt. eigenvalues --    2.44353   2.46793   2.51655   2.52469   2.55006
 Alpha virt. eigenvalues --    2.59617   2.62430   2.63407   2.65825   2.70065
 Alpha virt. eigenvalues --    2.71800   2.73030   2.74386   2.75354   2.76366
 Alpha virt. eigenvalues --    2.77659   2.78681   2.81056   2.82938   2.83351
 Alpha virt. eigenvalues --    2.83818   2.87803   2.89146   2.93864   2.96928
 Alpha virt. eigenvalues --    2.98264   3.00006   3.03021   3.05257   3.05726
 Alpha virt. eigenvalues --    3.06156   3.08014   3.10130   3.20540   3.22534
 Alpha virt. eigenvalues --    3.23495   3.27472   3.29119   3.34728   3.41247
 Alpha virt. eigenvalues --    3.51319   3.54879   3.57705   3.64282   3.67214
 Alpha virt. eigenvalues --    3.70554   3.73681   3.77991   3.93214
          Condensed to atoms (all electrons):
               1          2          3          4          5          6
     1  C    5.736507   0.270264  -0.118207   0.457851   0.004085  -0.000743
     2  C    0.270264   4.583206   0.717841  -0.031574  -0.000025  -0.000036
     3  O   -0.118207   0.717841   7.783384   0.007891  -0.000245   0.000008
     4  C    0.457851  -0.031574   0.007891   4.970392   0.000407   0.000612
     5  C    0.004085  -0.000025  -0.000245   0.000407   4.484092   0.405906
     6  H   -0.000743  -0.000036   0.000008   0.000612   0.405906   0.618074
     7  H   -0.000135  -0.000025  -0.000006  -0.000996   0.403752  -0.023674
     8  H    0.002633   0.000334  -0.000004  -0.000806   0.404381  -0.023739
     9  N   -0.079003  -0.010498  -0.000748  -0.062934   0.316988  -0.014879
    10  H    0.004500   0.000664  -0.000285   0.000499  -0.020791  -0.010888
    11  H   -0.013304   0.004617   0.018875  -0.001323  -0.024349  -0.008455
    12  H   -0.019925   0.008738  -0.000019   0.405480   0.001235  -0.000433
    13  Br  -0.073872  -0.002810  -0.002461   0.272147   0.001328  -0.000107
    14  C    0.364180  -0.044678  -0.001545  -0.019824   0.000706   0.000107
    15  C   -0.117549  -0.003474  -0.000076   0.002287  -0.000832   0.000089
    16  C    0.016236   0.000173   0.000023  -0.000256  -0.000194  -0.000002
    17  C   -0.000689   0.000059  -0.000000   0.000131  -0.000000  -0.000001
    18  C    0.014771  -0.000197   0.000002   0.000183  -0.000006   0.000001
    19  C   -0.102266   0.003949  -0.000156  -0.011728   0.000234   0.000005
    20  H   -0.017780   0.006921   0.001124  -0.000926   0.000007  -0.000006
    21  H   -0.000361  -0.000012  -0.000000  -0.000005  -0.000003   0.000000
    22  H    0.000021  -0.000000  -0.000000   0.000001   0.000000  -0.000000
    23  H   -0.000373   0.000002  -0.000000  -0.000006   0.000000  -0.000000
    24  H   -0.014120  -0.000269  -0.000001   0.001540  -0.000007   0.000001
    25  N   -0.158119   0.362369  -0.099762   0.002103  -0.000004  -0.000000
    26  C    0.013838  -0.026461   0.004648  -0.000421   0.000000   0.000000
    27  H   -0.014575  -0.001550   0.003092   0.000119   0.000001  -0.000000
    28  H    0.001457  -0.006951   0.012880   0.000171   0.000000  -0.000000
    29  H    0.000312  -0.001830   0.000787  -0.000097   0.000000  -0.000000
    30  H   -0.000373   0.007085   0.000490   0.000030   0.000000  -0.000000
               7          8          9         10         11         12
     1  C   -0.000135   0.002633  -0.079003   0.004500  -0.013304  -0.019925
     2  C   -0.000025   0.000334  -0.010498   0.000664   0.004617   0.008738
     3  O   -0.000006  -0.000004  -0.000748  -0.000285   0.018875  -0.000019
     4  C   -0.000996  -0.000806  -0.062934   0.000499  -0.001323   0.405480
     5  C    0.403752   0.404381   0.316988  -0.020791  -0.024349   0.001235
     6  H   -0.023674  -0.023739  -0.014879  -0.010888  -0.008455  -0.000433
     7  H    0.600362  -0.018048  -0.025778  -0.004955   0.006624   0.003286
     8  H   -0.018048   0.587513  -0.026631   0.007577  -0.005031   0.000142
     9  N   -0.025778  -0.026631   6.559161   0.316427   0.330124  -0.045013
    10  H   -0.004955   0.007577   0.316427   0.562876  -0.012395   0.000656
    11  H    0.006624  -0.005031   0.330124  -0.012395   0.541181   0.003706
    12  H    0.003286   0.000142  -0.045013   0.000656   0.003706   0.620017
    13  Br   0.000049  -0.000038  -0.043963   0.008640   0.002492  -0.034925
    14  C   -0.000164   0.001629   0.004928  -0.000162  -0.003321  -0.011394
    15  C    0.000011   0.001350   0.002564  -0.000060   0.000338  -0.000042
    16  C    0.000004   0.000609  -0.000072   0.000001   0.000021  -0.000015
    17  C    0.000001   0.000045  -0.000009   0.000000   0.000001  -0.000009
    18  C    0.000003  -0.000130   0.000058  -0.000002   0.000001  -0.000367
    19  C   -0.000023  -0.000051  -0.000432   0.000030  -0.000081   0.005355
    20  H   -0.000004   0.000366   0.000043  -0.000002   0.000124  -0.000009
    21  H   -0.000000   0.000010   0.000001  -0.000000  -0.000001   0.000001
    22  H   -0.000000  -0.000001  -0.000000   0.000000  -0.000000  -0.000001
    23  H    0.000000   0.000001  -0.000001   0.000000  -0.000000   0.000027
    24  H   -0.000013  -0.000010   0.000239  -0.000005  -0.000012   0.001408
    25  N   -0.000000   0.000003  -0.000079   0.000001   0.000564  -0.000096
    26  C    0.000000  -0.000000   0.000006  -0.000000  -0.000026   0.000007
    27  H    0.000000   0.000000   0.000002   0.000000  -0.000030  -0.000031
    28  H    0.000000   0.000000  -0.000001   0.000000  -0.000018   0.000001
    29  H    0.000000   0.000000  -0.000001   0.000000   0.000005   0.000000
    30  H    0.000000   0.000000  -0.000000   0.000000  -0.000000  -0.000000
              13         14         15         16         17         18
     1  C   -0.073872   0.364180  -0.117549   0.016236  -0.000689   0.014771
     2  C   -0.002810  -0.044678  -0.003474   0.000173   0.000059  -0.000197
     3  O   -0.002461  -0.001545  -0.000076   0.000023  -0.000000   0.000002
     4  C    0.272147  -0.019824   0.002287  -0.000256   0.000131   0.000183
     5  C    0.001328   0.000706  -0.000832  -0.000194  -0.000000  -0.000006
     6  H   -0.000107   0.000107   0.000089  -0.000002  -0.000001   0.000001
     7  H    0.000049  -0.000164   0.000011   0.000004   0.000001   0.000003
     8  H   -0.000038   0.001629   0.001350   0.000609   0.000045  -0.000130
     9  N   -0.043963   0.004928   0.002564  -0.000072  -0.000009   0.000058
    10  H    0.008640  -0.000162  -0.000060   0.000001   0.000000  -0.000002
    11  H    0.002492  -0.003321   0.000338   0.000021   0.000001   0.000001
    12  H   -0.034925  -0.011394  -0.000042  -0.000015  -0.000009  -0.000367
    13  Br  34.945604   0.003060  -0.000101   0.000003  -0.000000   0.000000
    14  C    0.003060   5.147035   0.324799   0.076363  -0.140091   0.075677
    15  C   -0.000101   0.324799   5.140447   0.305808   0.066263  -0.122626
    16  C    0.000003   0.076363   0.305808   5.044989   0.305495   0.068447
    17  C   -0.000000  -0.140091   0.066263   0.305495   5.094955   0.303813
    18  C    0.000000   0.075677  -0.122626   0.068447   0.303813   5.047649
    19  C    0.000036   0.314428   0.034356  -0.123378   0.066736   0.307843
    20  H   -0.000007  -0.063058   0.448671  -0.063942   0.013136  -0.001910
    21  H   -0.000000   0.014263  -0.064698   0.448692  -0.068879   0.012976
    22  H    0.000000  -0.001510   0.012922  -0.065154   0.447821  -0.065198
    23  H   -0.000000   0.014056  -0.001740   0.012897  -0.068272   0.446520
    24  H   -0.000119  -0.066566   0.013803  -0.002083   0.013494  -0.064210
    25  N   -0.000117  -0.004841   0.004398  -0.000635   0.000033  -0.000060
    26  C   -0.000116  -0.000009  -0.000514   0.000001   0.000001   0.000000
    27  H    0.000051   0.005223   0.000949  -0.000300   0.000006  -0.000002
    28  H    0.000069   0.000079   0.000004  -0.000003   0.000000  -0.000000
    29  H    0.000006  -0.000107  -0.000006   0.000060  -0.000002  -0.000001
    30  H   -0.000000  -0.000005   0.000008  -0.000002   0.000000  -0.000000
              19         20         21         22         23         24
     1  C   -0.102266  -0.017780  -0.000361   0.000021  -0.000373  -0.014120
     2  C    0.003949   0.006921  -0.000012  -0.000000   0.000002  -0.000269
     3  O   -0.000156   0.001124  -0.000000  -0.000000  -0.000000  -0.000001
     4  C   -0.011728  -0.000926  -0.000005   0.000001  -0.000006   0.001540
     5  C    0.000234   0.000007  -0.000003   0.000000   0.000000  -0.000007
     6  H    0.000005  -0.000006   0.000000  -0.000000  -0.000000   0.000001
     7  H   -0.000023  -0.000004  -0.000000  -0.000000   0.000000  -0.000013
     8  H   -0.000051   0.000366   0.000010  -0.000001   0.000001  -0.000010
     9  N   -0.000432   0.000043   0.000001  -0.000000  -0.000001   0.000239
    10  H    0.000030  -0.000002  -0.000000   0.000000   0.000000  -0.000005
    11  H   -0.000081   0.000124  -0.000001  -0.000000  -0.000000  -0.000012
    12  H    0.005355  -0.000009   0.000001  -0.000001   0.000027   0.001408
    13  Br   0.000036  -0.000007  -0.000000   0.000000  -0.000000  -0.000119
    14  C    0.314428  -0.063058   0.014263  -0.001510   0.014056  -0.066566
    15  C    0.034356   0.448671  -0.064698   0.012922  -0.001740   0.013803
    16  C   -0.123378  -0.063942   0.448692  -0.065154   0.012897  -0.002083
    17  C    0.066736   0.013136  -0.068879   0.447821  -0.068272   0.013494
    18  C    0.307843  -0.001910   0.012976  -0.065198   0.446520  -0.064210
    19  C    5.139053   0.013434  -0.001764   0.012712  -0.063188   0.451899
    20  H    0.013434   0.662494  -0.011458  -0.000227   0.000025  -0.000150
    21  H   -0.001764  -0.011458   0.663340  -0.011422  -0.000224   0.000027
    22  H    0.012712  -0.000227  -0.011422   0.662159  -0.011422  -0.000227
    23  H   -0.063188   0.000025  -0.000224  -0.011422   0.663850  -0.011804
    24  H    0.451899  -0.000150   0.000027  -0.000227  -0.011804   0.668404
    25  N   -0.000651  -0.001609   0.000002   0.000000  -0.000000  -0.000029
    26  C    0.000020   0.000039   0.000001   0.000000   0.000000   0.000004
    27  H    0.000745   0.000024  -0.000003  -0.000001  -0.000003   0.000069
    28  H    0.000000  -0.000012   0.000000   0.000000   0.000000   0.000000
    29  H    0.000015   0.000191  -0.000001  -0.000000   0.000000  -0.000001
    30  H    0.000003  -0.000004   0.000000   0.000000   0.000000  -0.000000
              25         26         27         28         29         30
     1  C   -0.158119   0.013838  -0.014575   0.001457   0.000312  -0.000373
     2  C    0.362369  -0.026461  -0.001550  -0.006951  -0.001830   0.007085
     3  O   -0.099762   0.004648   0.003092   0.012880   0.000787   0.000490
     4  C    0.002103  -0.000421   0.000119   0.000171  -0.000097   0.000030
     5  C   -0.000004   0.000000   0.000001   0.000000   0.000000   0.000000
     6  H   -0.000000   0.000000  -0.000000  -0.000000  -0.000000  -0.000000
     7  H   -0.000000   0.000000   0.000000   0.000000   0.000000   0.000000
     8  H    0.000003  -0.000000   0.000000   0.000000   0.000000   0.000000
     9  N   -0.000079   0.000006   0.000002  -0.000001  -0.000001  -0.000000
    10  H    0.000001  -0.000000   0.000000   0.000000   0.000000   0.000000
    11  H    0.000564  -0.000026  -0.000030  -0.000018   0.000005  -0.000000
    12  H   -0.000096   0.000007  -0.000031   0.000001   0.000000  -0.000000
    13  Br  -0.000117  -0.000116   0.000051   0.000069   0.000006  -0.000000
    14  C   -0.004841  -0.000009   0.005223   0.000079  -0.000107  -0.000005
    15  C    0.004398  -0.000514   0.000949   0.000004  -0.000006   0.000008
    16  C   -0.000635   0.000001  -0.000300  -0.000003   0.000060  -0.000002
    17  C    0.000033   0.000001   0.000006   0.000000  -0.000002   0.000000
    18  C   -0.000060   0.000000  -0.000002  -0.000000  -0.000001  -0.000000
    19  C   -0.000651   0.000020   0.000745   0.000000   0.000015   0.000003
    20  H   -0.001609   0.000039   0.000024  -0.000012   0.000191  -0.000004
    21  H    0.000002   0.000001  -0.000003   0.000000  -0.000001   0.000000
    22  H    0.000000   0.000000  -0.000001   0.000000  -0.000000   0.000000
    23  H   -0.000000   0.000000  -0.000003   0.000000   0.000000   0.000000
    24  H   -0.000029   0.000004   0.000069   0.000000  -0.000001  -0.000000
    25  N    6.576228   0.302548   0.357794  -0.027290  -0.039575  -0.022661
    26  C    0.302548   4.447198  -0.025129   0.400526   0.408759   0.399793
    27  H    0.357794  -0.025129   0.524179   0.004825   0.001356  -0.008416
    28  H   -0.027290   0.400526   0.004825   0.605361  -0.028372  -0.017599
    29  H   -0.039575   0.408759   0.001356  -0.028372   0.647270  -0.026036
    30  H   -0.022661   0.399793  -0.008416  -0.017599  -0.026036   0.627110
 Mulliken charges:
               1
     1  C   -0.155259
     2  C    0.164165
     3  O   -0.327528
     4  C    0.009052
     5  C    0.023337
     6  H    0.058160
     7  H    0.059730
     8  H    0.067896
     9  N   -0.220500
    10  H    0.147672
    11  H    0.159675
    12  H    0.062221
    13  Br  -0.074850
    14  C    0.010741
    15  C   -0.047350
    16  C   -0.023788
    17  C   -0.034038
    18  C   -0.023238
    19  C   -0.047137
    20  H    0.014508
    21  H    0.019518
    22  H    0.019527
    23  H    0.019655
    24  H    0.008735
    25  N   -0.250518
    26  C    0.075288
    27  H    0.151604
    28  H    0.054872
    29  H    0.037270
    30  H    0.040578
 Sum of Mulliken charges =  -0.00000
 Mulliken charges with hydrogens summed into heavy atoms:
               1
     1  C   -0.155259
     2  C    0.164165
     3  O   -0.327528
     4  C    0.071272
     5  C    0.209123
     9  N    0.086847
    13  Br  -0.074850
    14  C    0.010741
    15  C   -0.032843
    16  C   -0.004270
    17  C   -0.014511
    18  C   -0.003583
    19  C   -0.038402
    25  N   -0.098914
    26  C    0.208008
 Electronic spatial extent (au):  <R**2>=           4492.6776
 Charge=             -0.0000 electrons
 Dipole moment (field-independent basis, Debye):
    X=              1.3392    Y=             -3.5318    Z=              0.3866  Tot=              3.7968
 Quadrupole moment (field-independent basis, Debye-Ang):
   XX=           -101.8482   YY=            -87.4147   ZZ=            -98.2492
   XY=              7.3825   XZ=             -0.0514   YZ=             -8.7899
 Traceless Quadrupole moment (field-independent basis, Debye-Ang):
   XX=             -6.0108   YY=              8.4227   ZZ=             -2.4118
   XY=              7.3825   XZ=             -0.0514   YZ=             -8.7899
 Octapole moment (field-independent basis, Debye-Ang**2):
  XXX=            -81.9788  YYY=             -3.3254  ZZZ=            -11.7634  XYY=            -42.0703
  XXY=            -13.3838  XXZ=             -2.7862  XZZ=            -21.4170  YZZ=            -22.8153
  YYZ=              1.7467  XYZ=             16.1329
 Hexadecapole moment (field-independent basis, Debye-Ang**3):
 XXXX=          -2869.8967 YYYY=          -1587.4802 ZZZZ=           -715.7448 XXXY=             14.9335
 XXXZ=             66.9268 YYYX=             82.4379 YYYZ=            -51.7912 ZZZX=             47.5795
 ZZZY=            -22.5950 XXYY=           -824.0701 XXZZ=           -603.7055 YYZZ=           -399.4560
 XXYZ=              1.9741 YYXZ=              3.7176 ZZXY=             26.5176
 N-N= 1.347977484875D+03 E-N=-1.027160764672D+04  KE= 3.176998885425D+03
   1 Symmetry operations used in ECPInt.
 ECPInt:  NShTT=   10011 NPrTT=   37668 LenC2=    9528 LenP2D=   25663.
 LDataN:  DoStor=T MaxTD1= 5 Len=  102
 D1PCM: PCM CHGder 1st derivatives, ID1Alg=3 FixD1E=F DoIter=F DoCFld=F I1PDM=0.
 Calling FoFJK, ICntrl=      2127 FMM=F ISym2X=0 I1Cent= 0 IOpClX= 0 NMat=1 NMatS=1 NMatT=0.
 ***** Axes restored to original set *****
 -------------------------------------------------------------------
 Center     Atomic                   Forces (Hartrees/Bohr)
 Number     Number              X              Y              Z
 -------------------------------------------------------------------
      1        6          -0.000829166    0.023707474   -0.011629158
      2        6           0.022829666   -0.010142602   -0.005930423
      3        8          -0.005448261    0.009358861   -0.003424563
      4        6           0.022602835   -0.007679479   -0.020163169
      5        6           0.005637031    0.002408037   -0.009401114
      6        1          -0.000253178   -0.002962592    0.004274437
      7        1           0.000932722   -0.002763789   -0.002379040
      8        1           0.003233767    0.001989407   -0.000427732
      9        7          -0.041614630   -0.017737946    0.050314747
     10        1           0.002194730   -0.000328008    0.000078076
     11        1           0.002104785    0.001734312   -0.008965034
     12        1           0.000681306    0.008096385   -0.009339548
     13       35          -0.000468944   -0.002689370    0.004386524
     14        6          -0.011412025    0.004439013   -0.002327208
     15        6           0.010383006   -0.001489334   -0.001821914
     16        6          -0.005881303    0.000898326   -0.002669287
     17        6           0.000984830   -0.000392347   -0.000027025
     18        6          -0.005107925   -0.000050452    0.004389028
     19        6           0.011291014   -0.003726960    0.000957451
     20        1          -0.003337876    0.001255535    0.001739022
     21        1           0.002398759    0.000699677    0.003060658
     22        1           0.003760333   -0.000435076   -0.000495261
     23        1           0.001297346   -0.000976183   -0.003624032
     24        1          -0.004120887    0.001060543   -0.001334063
     25        7          -0.015068423   -0.008885170    0.010074128
     26        6           0.007550305   -0.005985702   -0.002207971
     27        1          -0.002641460   -0.002816445   -0.000069114
     28        1          -0.002370818   -0.000201527    0.001085499
     29        1           0.001015949    0.008807156    0.006730424
     30        1          -0.000343491    0.004808255   -0.000854341
 -------------------------------------------------------------------
 Cartesian Forces:  Max     0.050314747 RMS     0.009860989

 GradGradGradGradGradGradGradGradGradGradGradGradGradGradGradGradGradGrad
 Berny optimization.
 FormGI is forming the generalized inverse of G from B-inverse, IUseBI=4.
 Internal  Forces:  Max     0.039644978 RMS     0.006055168
 Search for a saddle point.
 Step number   1 out of a maximum of   50
 All quantities printed in internal units (Hartrees-Bohrs-Radians)
 Swapping is turned off.
 Second derivative matrix not updated -- first step.
 ITU=  0
     Eigenvalues ---   -0.08228  -0.00026   0.00058   0.00169   0.00176
     Eigenvalues ---    0.00182   0.00769   0.00894   0.01035   0.01564
     Eigenvalues ---    0.02003   0.02015   0.02100   0.02159   0.02790
     Eigenvalues ---    0.02880   0.02944   0.03081   0.03302   0.03366
     Eigenvalues ---    0.03846   0.05646   0.05720   0.05772   0.06207
     Eigenvalues ---    0.06762   0.07208   0.07287   0.07380   0.10804
     Eigenvalues ---    0.11357   0.12176   0.12948   0.13028   0.13435
     Eigenvalues ---    0.13601   0.14223   0.14607   0.15075   0.15551
     Eigenvalues ---    0.16059   0.19059   0.19157   0.19983   0.20211
     Eigenvalues ---    0.20472   0.20638   0.21125   0.21739   0.21887
     Eigenvalues ---    0.22237   0.22285   0.24388   0.25195   0.25966
     Eigenvalues ---    0.27225   0.29376   0.34936   0.35131   0.35198
     Eigenvalues ---    0.35662   0.35823   0.36250   0.36476   0.36848
     Eigenvalues ---    0.37179   0.37493   0.37544   0.37679   0.38232
     Eigenvalues ---    0.39047   0.39703   0.42075   0.43235   0.44102
     Eigenvalues ---    0.44963   0.45660   0.46318   0.48320   0.51024
     Eigenvalues ---    0.51293   0.54959   0.59321   0.84116
 Eigenvectors required to have negative eigenvalues:
                          R6        A19       A10       A20       D10
   1                   -0.78435  -0.32317   0.18890   0.16499   0.15800
                          D7        R2        D8        D5        A21
   1                    0.15717   0.14610   0.13585   0.13502   0.12212
 RFO step:  Lambda0=7.210672968D-04 Lambda=-3.13452688D-02.
 Linear search not attempted -- option 19 set.
 Maximum step size (   0.100) exceeded in Quadratic search.
    -- Step size scaled by   0.242
 Iteration  1 RMS(Cart)=  0.02665375 RMS(Int)=  0.00043714
 Iteration  2 RMS(Cart)=  0.00075241 RMS(Int)=  0.00009707
 Iteration  3 RMS(Cart)=  0.00000038 RMS(Int)=  0.00009707
 Variable       Old X    -DE/DX   Delta X   Delta X   Delta X     New X
                                 (Linear)    (Quad)   (Total)
    R1        2.82654  -0.00395   0.00000  -0.00404  -0.00404   2.82250
    R2        2.57402   0.01572   0.00000   0.00293   0.00293   2.57695
    R3        2.79716   0.00026   0.00000   0.00037   0.00037   2.79753
    R4        2.31715   0.00100   0.00000   0.00152   0.00152   2.31867
    R5        2.60029  -0.01466   0.00000  -0.00727  -0.00727   2.59303
    R6        3.54278   0.03964   0.00000   0.04196   0.04196   3.58474
    R7        2.06894  -0.00187   0.00000  -0.00127  -0.00127   2.06767
    R8        3.62400  -0.00110   0.00000   0.00170   0.00170   3.62570
    R9        2.06672   0.00471   0.00000   0.00329   0.00329   2.07001
   R10        2.06617   0.00371   0.00000   0.00251   0.00251   2.06868
   R11        2.06594   0.00357   0.00000   0.00240   0.00240   2.06834
   R12        2.76908   0.00310   0.00000  -0.00583  -0.00583   2.76325
   R13        1.94107  -0.00191   0.00000  -0.00223  -0.00223   1.93885
   R14        1.95005  -0.00530   0.00000  -0.00365  -0.00365   1.94640
   R15        2.65033   0.00351   0.00000   0.00226   0.00226   2.65259
   R16        2.65126   0.00292   0.00000   0.00119   0.00119   2.65245
   R17        2.63895  -0.00126   0.00000  -0.00159  -0.00159   2.63736
   R18        2.05741   0.00309   0.00000   0.00199   0.00199   2.05940
   R19        2.63298   0.00168   0.00000   0.00108   0.00108   2.63406
   R20        2.05426   0.00395   0.00000   0.00236   0.00236   2.05662
   R21        2.63313   0.00162   0.00000   0.00045   0.00045   2.63359
   R22        2.05450   0.00381   0.00000   0.00206   0.00206   2.05657
   R23        2.63955  -0.00126   0.00000  -0.00101  -0.00101   2.63854
   R24        2.05434   0.00395   0.00000   0.00234   0.00234   2.05668
   R25        2.05595   0.00334   0.00000   0.00215   0.00215   2.05811
   R26        2.71889   0.00749   0.00000   0.00154   0.00154   2.72043
   R27        1.91205  -0.00142   0.00000  -0.00019  -0.00019   1.91186
   R28        2.06600   0.00256   0.00000   0.00135   0.00135   2.06736
   R29        2.06576   0.00730   0.00000   0.00454   0.00454   2.07030
   R30        2.06428   0.00372   0.00000   0.00238   0.00238   2.06666
    A1        2.08214   0.00522   0.00000   0.00153   0.00151   2.08364
    A2        2.09725  -0.00229   0.00000  -0.00164  -0.00166   2.09559
    A3        2.10005  -0.00314   0.00000  -0.00094  -0.00097   2.09909
    A4        2.13480   0.00619   0.00000   0.00189   0.00188   2.13668
    A5        1.98007   0.00903   0.00000   0.00643   0.00643   1.98650
    A6        2.16760  -0.01514   0.00000  -0.00810  -0.00810   2.15950
    A7        1.87033   0.01729   0.00000   0.01181   0.01181   1.88214
    A8        2.08981  -0.00437   0.00000  -0.00529  -0.00549   2.08432
    A9        2.13005   0.00045   0.00000   0.00193   0.00194   2.13199
   A10        1.51728   0.00837   0.00000   0.01829   0.01831   1.53558
   A11        1.79906  -0.01953   0.00000  -0.02663  -0.02661   1.77245
   A12        1.92029  -0.00013   0.00000   0.00170   0.00187   1.92216
   A13        1.89979  -0.00120   0.00000  -0.00140  -0.00140   1.89839
   A14        1.89834  -0.00038   0.00000  -0.00106  -0.00106   1.89728
   A15        1.92648   0.00378   0.00000   0.00778   0.00778   1.93426
   A16        1.89565   0.00009   0.00000  -0.00094  -0.00095   1.89470
   A17        1.91965   0.00001   0.00000  -0.00166  -0.00166   1.91799
   A18        1.92338  -0.00237   0.00000  -0.00284  -0.00284   1.92054
   A19        2.34714  -0.02463   0.00000  -0.06602  -0.06607   2.28107
   A20        1.79225   0.01005   0.00000   0.02994   0.03015   1.82240
   A21        1.74185   0.00140   0.00000   0.00323   0.00295   1.74479
   A22        1.86622   0.00668   0.00000   0.01712   0.01730   1.88353
   A23        1.86114   0.01203   0.00000   0.02239   0.02169   1.88283
   A24        1.78426  -0.00167   0.00000   0.00840   0.00802   1.79228
   A25        2.09531   0.00116   0.00000   0.00130   0.00130   2.09661
   A26        2.11457   0.00352   0.00000   0.00285   0.00285   2.11742
   A27        2.07299  -0.00466   0.00000  -0.00409  -0.00409   2.06890
   A28        2.10498   0.00240   0.00000   0.00214   0.00214   2.10711
   A29        2.10095  -0.00373   0.00000  -0.00411  -0.00411   2.09684
   A30        2.07719   0.00134   0.00000   0.00198   0.00198   2.07917
   A31        2.09515   0.00101   0.00000   0.00105   0.00105   2.09619
   A32        2.09268  -0.00057   0.00000  -0.00086  -0.00086   2.09182
   A33        2.09536  -0.00044   0.00000  -0.00019  -0.00019   2.09517
   A34        2.09361  -0.00229   0.00000  -0.00240  -0.00240   2.09122
   A35        2.09449   0.00118   0.00000   0.00120   0.00120   2.09569
   A36        2.09508   0.00111   0.00000   0.00119   0.00119   2.09627
   A37        2.09560   0.00106   0.00000   0.00107   0.00107   2.09668
   A38        2.09394  -0.00034   0.00000   0.00004   0.00004   2.09399
   A39        2.09364  -0.00072   0.00000  -0.00112  -0.00112   2.09252
   A40        2.10402   0.00249   0.00000   0.00222   0.00222   2.10624
   A41        2.10462  -0.00414   0.00000  -0.00467  -0.00467   2.09995
   A42        2.07453   0.00165   0.00000   0.00245   0.00245   2.07698
   A43        2.11769   0.00371   0.00000   0.00472   0.00472   2.12240
   A44        2.07560  -0.00461   0.00000  -0.00436  -0.00436   2.07124
   A45        2.07599   0.00094   0.00000  -0.00024  -0.00024   2.07576
   A46        1.92893  -0.00376   0.00000  -0.00495  -0.00495   1.92399
   A47        1.89468   0.01247   0.00000   0.01191   0.01190   1.90657
   A48        1.89510   0.00310   0.00000   0.00379   0.00377   1.89887
   A49        1.91039  -0.00452   0.00000  -0.00422  -0.00421   1.90617
   A50        1.91922  -0.00176   0.00000  -0.00213  -0.00213   1.91709
   A51        1.91529  -0.00535   0.00000  -0.00420  -0.00424   1.91106
    D1        0.85769  -0.00492   0.00000  -0.02174  -0.02175   0.83593
    D2       -2.32296  -0.00318   0.00000  -0.01589  -0.01588  -2.33884
    D3       -2.19138  -0.00222   0.00000  -0.00873  -0.00874  -2.20013
    D4        0.91115  -0.00047   0.00000  -0.00288  -0.00287   0.90828
    D5       -1.58311   0.01327   0.00000   0.04185   0.04184  -1.54128
    D6        3.01711  -0.00578   0.00000   0.01449   0.01452   3.03162
    D7        0.48003   0.00207   0.00000   0.01717   0.01717   0.49720
    D8        1.46580   0.01061   0.00000   0.02879   0.02876   1.49457
    D9       -0.21716  -0.00844   0.00000   0.00142   0.00144  -0.21572
   D10       -2.75424  -0.00059   0.00000   0.00411   0.00410  -2.75014
   D11        0.82996  -0.00307   0.00000  -0.02097  -0.02096   0.80899
   D12       -2.28432  -0.00378   0.00000  -0.02354  -0.02354  -2.30785
   D13       -2.21816  -0.00078   0.00000  -0.00796  -0.00797  -2.22612
   D14        0.95076  -0.00149   0.00000  -0.01053  -0.01054   0.94022
   D15       -3.05591   0.00038   0.00000   0.00340   0.00341  -3.05250
   D16       -0.09460   0.00074   0.00000   0.00411   0.00411  -0.09049
   D17        0.04577   0.00273   0.00000   0.00965   0.00964   0.05541
   D18        3.00708   0.00309   0.00000   0.01035   0.01034   3.01743
   D19       -1.32926  -0.00064   0.00000   0.00579   0.00546  -1.32380
   D20        2.68942   0.00003   0.00000   0.00458   0.00461   2.69402
   D21        0.85637  -0.00101   0.00000  -0.01233  -0.01223   0.84414
   D22        0.76899  -0.00047   0.00000   0.00757   0.00744   0.77643
   D23       -1.49552   0.00020   0.00000   0.00637   0.00658  -1.48893
   D24        2.95462  -0.00084   0.00000  -0.01054  -0.01025   2.94437
   D25        2.68627   0.00077   0.00000   0.01277   0.01246   2.69873
   D26        0.42177   0.00144   0.00000   0.01157   0.01160   0.43337
   D27       -1.41128   0.00041   0.00000  -0.00535  -0.00523  -1.41651
   D28        3.10918  -0.00196   0.00000  -0.01199  -0.01209   3.09709
   D29       -0.93361  -0.00238   0.00000  -0.00880  -0.00888  -0.94249
   D30        0.96507   0.00363   0.00000   0.01732   0.01749   0.98256
   D31       -1.07744  -0.00104   0.00000  -0.00984  -0.00994  -1.08738
   D32        1.16295  -0.00145   0.00000  -0.00664  -0.00673   1.15623
   D33        3.06163   0.00456   0.00000   0.01947   0.01964   3.08127
   D34        1.01203  -0.00240   0.00000  -0.01384  -0.01393   0.99810
   D35       -3.03076  -0.00281   0.00000  -0.01064  -0.01072  -3.04148
   D36       -1.13208   0.00320   0.00000   0.01547   0.01565  -1.11643
   D37       -3.12232  -0.00049   0.00000  -0.00212  -0.00212  -3.12444
   D38        0.03136  -0.00079   0.00000  -0.00255  -0.00255   0.02881
   D39       -0.00740   0.00033   0.00000   0.00049   0.00049  -0.00691
   D40       -3.13691   0.00003   0.00000   0.00006   0.00006  -3.13685
   D41        3.12171   0.00100   0.00000   0.00435   0.00435   3.12606
   D42       -0.01337   0.00096   0.00000   0.00461   0.00461  -0.00876
   D43        0.00710   0.00021   0.00000   0.00174   0.00174   0.00883
   D44       -3.12799   0.00017   0.00000   0.00200   0.00200  -3.12599
   D45        0.00372  -0.00056   0.00000  -0.00201  -0.00200   0.00171
   D46       -3.13478  -0.00026   0.00000  -0.00070  -0.00070  -3.13548
   D47        3.13339  -0.00030   0.00000  -0.00162  -0.00162   3.13176
   D48       -0.00511   0.00000   0.00000  -0.00032  -0.00032  -0.00543
   D49        0.00041   0.00026   0.00000   0.00132   0.00132   0.00172
   D50       -3.13981   0.00010   0.00000   0.00051   0.00051  -3.13930
   D51        3.13890  -0.00004   0.00000   0.00000   0.00000   3.13890
   D52       -0.00132  -0.00020   0.00000  -0.00080  -0.00080  -0.00212
   D53       -0.00071   0.00028   0.00000   0.00090   0.00090   0.00019
   D54        3.14062  -0.00032   0.00000  -0.00148  -0.00148   3.13914
   D55        3.13951   0.00044   0.00000   0.00171   0.00170   3.14122
   D56       -0.00235  -0.00016   0.00000  -0.00067  -0.00067  -0.00302
   D57       -0.00311  -0.00053   0.00000  -0.00246  -0.00246  -0.00557
   D58        3.13208  -0.00051   0.00000  -0.00274  -0.00274   3.12934
   D59        3.13875   0.00007   0.00000  -0.00008  -0.00008   3.13867
   D60       -0.00924   0.00009   0.00000  -0.00036  -0.00036  -0.00960
   D61       -0.67731  -0.00085   0.00000   0.02372   0.02372  -0.65359
   D62        1.41803  -0.00085   0.00000   0.02301   0.02299   1.44101
   D63       -2.78378   0.00166   0.00000   0.02697   0.02699  -2.75679
   D64        2.64460  -0.00064   0.00000   0.02343   0.02344   2.66803
   D65       -1.54325  -0.00065   0.00000   0.02272   0.02270  -1.52055
   D66        0.53813   0.00186   0.00000   0.02668   0.02670   0.56483
         Item               Value     Threshold  Converged?
 Maximum Force            0.039645     0.000450     NO 
 RMS     Force            0.006055     0.000300     NO 
 Maximum Displacement     0.105012     0.001800     NO 
 RMS     Displacement     0.026959     0.001200     NO 
 Predicted change in Energy=-6.789259D-03
 GradGradGradGradGradGradGradGradGradGradGradGradGradGradGradGradGradGrad

                          Input orientation:                          
 ---------------------------------------------------------------------
 Center     Atomic      Atomic             Coordinates (Angstroms)
 Number     Number       Type             X           Y           Z
 ---------------------------------------------------------------------
      1          6           0        0.065569    0.157984   -0.073868
      2          6           0       -0.397220    1.445888    0.524440
      3          8           0       -1.160911    1.488702    1.483838
      4          6           0       -0.847311   -0.815012   -0.355837
      5          6           0       -0.183591   -2.914896    1.766405
      6          1           0       -0.599628   -3.300413    2.703527
      7          1           0       -0.076095   -3.745004    1.060907
      8          1           0        0.808281   -2.498250    1.967831
      9          7           0       -1.052634   -1.886518    1.195996
     10          1           0       -1.995509   -2.281910    1.110477
     11          1           0       -1.179385   -1.150565    1.905356
     12          1           0       -0.526109   -1.715472   -0.888000
     13         35           0       -2.672322   -0.408969   -0.786694
     14          6           0        1.513142   -0.108399   -0.232396
     15          6           0        2.396989    0.148535    0.827385
     16          6           0        3.766591   -0.078726    0.684797
     17          6           0        4.273043   -0.564140   -0.519693
     18          6           0        3.408212   -0.820045   -1.582140
     19          6           0        2.038094   -0.590902   -1.441425
     20          1           0        2.017073    0.519460    1.779074
     21          1           0        4.438306    0.120009    1.517705
     22          1           0        5.340849   -0.743208   -0.629668
     23          1           0        3.801146   -1.196922   -2.524511
     24          1           0        1.380436   -0.786249   -2.287281
     25          7           0        0.141838    2.558640   -0.070581
     26          6           0       -0.103850    3.881594    0.441128
     27          1           0        0.846518    2.433501   -0.785656
     28          1           0       -1.133175    3.962313    0.802799
     29          1           0        0.585789    4.082526    1.268331
     30          1           0        0.066033    4.606458   -0.359957
 ---------------------------------------------------------------------
                    Distance matrix (angstroms):
                    1          2          3          4          5
     1  C    0.000000
     2  C    1.493601   0.000000
     3  O    2.387783   1.226988   0.000000
     4  C    1.363663   2.467618   2.964767   0.000000
     5  C    3.590443   4.539224   4.519588   3.058423   0.000000
     6  H    4.485189   5.226544   4.973762   3.949465   1.095403
     7  H    4.067075   5.228411   5.361658   3.344666   1.094697
     8  H    3.431579   4.369535   4.473003   3.312659   1.094521
     9  N    2.653851   3.462006   3.389202   1.896963   1.462247
    10  H    3.406435   4.098103   3.879880   2.370701   2.028291
    11  H    2.679466   3.043071   2.672779   2.309949   2.030709
    12  H    2.126672   3.464939   4.036746   1.094165   2.932883
    13  Br   2.885413   3.214912   3.322775   1.918639   4.357956
    14  C    1.480391   2.576449   3.556226   2.467037   3.840643
    15  C    2.499573   3.095562   3.858190   3.585236   4.114093
    16  C    3.785389   4.437058   5.232167   4.786765   4.981734
    17  C    4.292209   5.190547   6.144603   5.129114   5.532981
    18  C    3.795351   4.904431   5.967195   4.428693   5.338746
    19  C    2.514339   3.734152   4.807863   3.091001   4.541697
    20  H    2.715222   2.874228   3.335592   3.813575   4.078957
    21  H    4.653534   5.111443   5.764174   5.685259   5.534838
    22  H    5.380487   6.248963   7.191746   6.194631   6.401315
    23  H    4.668614   5.822957   6.921087   5.143652   6.102584
    24  H    2.742198   4.006030   5.084799   2.948586   4.838356
    25  N    2.401869   1.372170   2.293063   3.527224   5.782735
    26  C    3.762871   2.454724   2.816124   4.821410   6.924955
    27  H    2.508884   2.058789   3.173801   3.688717   6.014939
    28  H    4.083926   2.636571   2.565800   4.924123   7.009012
    29  H    4.180210   2.910590   3.134537   5.355144   7.057190
    30  H    4.457663   3.314507   3.824313   5.497867   7.820134
                    6          7          8          9         10
     6  H    0.000000
     7  H    1.780434   0.000000
     8  H    1.779585   1.777365   0.000000
     9  N    2.115884   2.103770   2.105457   0.000000
    10  H    2.350243   2.413970   2.939915   1.025993   0.000000
    11  H    2.365384   2.943035   2.402286   1.029993   1.605564
    12  H    3.926386   2.849518   3.247939   2.156276   2.544386
    13  Br   4.983790   4.613367   4.905824   2.955944   2.750499
    14  C    4.824147   4.174111   3.324036   3.432961   4.340287
    15  C    4.939116   4.618476   3.290909   4.022091   5.028046
    16  C    5.789508   5.324405   4.031361   5.172462   6.183609
    17  C    6.451299   5.615265   4.683282   5.749357   6.700965
    18  C    6.370397   5.261320   4.709385   5.362328   6.211879
    19  C    5.610673   4.547508   4.095539   4.264647   5.063760
    20  H    4.721564   4.804454   3.256284   3.943579   4.939182
    21  H    6.203728   5.960437   4.498330   5.854919   6.879609
    22  H    7.275902   6.419666   5.511020   6.746617   7.695314
    23  H    7.150096   5.863527   5.552642   6.154421   6.927593
    24  H    5.928730   4.699583   4.622152   4.389037   5.017845
    25  N    6.524872   6.408096   5.492851   4.773931   5.421630
    26  C    7.546223   7.651791   6.623082   5.894161   6.481912
    27  H    6.866113   6.514210   5.648479   5.118231   5.823018
    28  H    7.526262   7.783750   6.845832   5.862586   6.310991
    29  H    7.613986   7.858202   6.621587   6.190246   6.869793
    30  H    8.505683   8.472660   7.513082   6.769870   7.339056
                   11         12         13         14         15
    11  H    0.000000
    12  H    2.923821   0.000000
    13  Br   3.166380   2.514647   0.000000
    14  C    3.592464   2.677880   4.232694   0.000000
    15  C    3.954761   3.868019   5.349204   1.403688   0.000000
    16  C    5.205889   4.855914   6.613165   2.433137   1.395632
    17  C    5.996143   4.949047   6.952228   2.811991   2.417044
    18  C    5.772168   4.094203   6.146106   2.433011   2.786850
    19  C    4.676146   2.854133   4.759181   1.403615   2.413104
    20  H    3.608639   4.309986   5.425457   2.166603   1.089786
    21  H    5.772615   5.813933   7.493405   3.416374   2.155071
    22  H    7.007549   5.952581   8.021676   3.900276   3.403604
    23  H    6.665701   4.655341   6.748828   3.416671   3.875193
    24  H    4.925812   2.540936   4.338082   2.167866   3.407103
    25  N    4.405469   4.402540   4.151990   3.003291   3.420623
    26  C    5.350081   5.768192   5.149129   4.357562   4.509892
    27  H    4.918471   4.371333   4.523480   2.685468   3.197957
    28  H    5.230610   5.955214   4.899343   4.964405   5.196880
    29  H    5.559395   6.285130   5.917089   4.547089   4.353293
    30  H    6.310786   6.371519   5.730200   4.933585   5.168773
                   16         17         18         19         20
    16  C    0.000000
    17  C    1.393885   0.000000
    18  C    2.411844   1.393633   0.000000
    19  C    2.787623   2.417706   1.396256   0.000000
[...]
 Alpha virt. eigenvalues --    0.49091   0.49747   0.49998   0.50343   0.53133
 Alpha virt. eigenvalues --    0.53404   0.54171   0.54777   0.55734   0.57217
 Alpha virt. eigenvalues --    0.57505   0.57762   0.58880   0.59384   0.59873
 Alpha virt. eigenvalues --    0.60790   0.62805   0.63858   0.64952   0.65109
 Alpha virt. eigenvalues --    0.65717   0.66396   0.67079   0.69356   0.69905
 Alpha virt. eigenvalues --    0.70426   0.71493   0.72587   0.72950   0.73469
 Alpha virt. eigenvalues --    0.73729   0.73890   0.74039   0.75067   0.75864
 Alpha virt. eigenvalues --    0.76046   0.76333   0.77005   0.77799   0.78135
 Alpha virt. eigenvalues --    0.78763   0.80266   0.81395   0.82634   0.82702
 Alpha virt. eigenvalues --    0.83625   0.83678   0.85192   0.86479   0.86941
 Alpha virt. eigenvalues --    0.87414   0.88839   0.90713   0.92134   0.93315
 Alpha virt. eigenvalues --    0.95420   0.96701   0.98422   1.00424   1.00909
 Alpha virt. eigenvalues --    1.03312   1.05026   1.07057   1.08056   1.13298
 Alpha virt. eigenvalues --    1.13906   1.15939   1.17630   1.19995   1.21672
 Alpha virt. eigenvalues --    1.23390   1.27865   1.29334   1.29748   1.30978
 Alpha virt. eigenvalues --    1.33163   1.33530   1.35547   1.36457   1.37291
 Alpha virt. eigenvalues --    1.38812   1.39978   1.41969   1.42787   1.45946
 Alpha virt. eigenvalues --    1.48873   1.52519   1.55629   1.57706   1.59919
 Alpha virt. eigenvalues --    1.61640   1.61691   1.62766   1.67610   1.70298
 Alpha virt. eigenvalues --    1.70855   1.74718   1.75089   1.78117   1.78983
 Alpha virt. eigenvalues --    1.80674   1.82141   1.83049   1.84351   1.84610
 Alpha virt. eigenvalues --    1.84849   1.85508   1.86470   1.86511   1.87362
 Alpha virt. eigenvalues --    1.88356   1.88806   1.89996   1.91362   1.92796
 Alpha virt. eigenvalues --    1.93108   1.95069   1.95444   1.97320   2.00457
 Alpha virt. eigenvalues --    2.03156   2.03683   2.04565   2.05272   2.05600
 Alpha virt. eigenvalues --    2.07508   2.08439   2.09500   2.12287   2.13005
 Alpha virt. eigenvalues --    2.15408   2.16610   2.17076   2.18917   2.21742
 Alpha virt. eigenvalues --    2.23172   2.23488   2.24826   2.25751   2.27198
 Alpha virt. eigenvalues --    2.27421   2.30795   2.33488   2.36947   2.38582
 Alpha virt. eigenvalues --    2.39669   2.39937   2.40229   2.43006   2.43556
 Alpha virt. eigenvalues --    2.44722   2.48650   2.51135   2.52229   2.52603
 Alpha virt. eigenvalues --    2.58150   2.61866   2.65191   2.66347   2.68170
 Alpha virt. eigenvalues --    2.69879   2.71949   2.72815   2.73968   2.74685
 Alpha virt. eigenvalues --    2.75109   2.77045   2.81012   2.81356   2.81942
 Alpha virt. eigenvalues --    2.83604   2.87312   2.89838   2.96437   2.96750
 Alpha virt. eigenvalues --    2.97206   2.97714   3.02253   3.02992   3.06492
 Alpha virt. eigenvalues --    3.07984   3.08576   3.08796   3.17750   3.21682
 Alpha virt. eigenvalues --    3.24908   3.26322   3.26877   3.34477   3.40289
 Alpha virt. eigenvalues --    3.49236   3.55548   3.58229   3.65175   3.68527
 Alpha virt. eigenvalues --    3.70949   3.72929   3.77860   3.92916
          Condensed to atoms (all electrons):
               1          2          3          4          5          6
     1  C    5.728398   0.241770  -0.129204   0.464798  -0.002465  -0.001231
     2  C    0.241770   4.612099   0.689780  -0.045783  -0.001029   0.000132
     3  O   -0.129204   0.689780   7.821687   0.007434   0.000064   0.000006
     4  C    0.464798  -0.045783   0.007434   4.968785  -0.022249   0.002387
     5  C   -0.002465  -0.001029   0.000064  -0.022249   4.492232   0.403395
     6  H   -0.001231   0.000132   0.000006   0.002387   0.403395   0.613866
     7  H   -0.000714  -0.000070  -0.000042   0.000063   0.403817  -0.024396
     8  H    0.019176   0.000383   0.001042  -0.011219   0.400971  -0.022953
     9  N   -0.060266  -0.008081  -0.016158   0.074454   0.328499  -0.018403
    10  H    0.004349   0.000331   0.000141  -0.006296  -0.020636  -0.003926
    11  H   -0.015156   0.000526   0.054987  -0.009612  -0.017754  -0.008182
    12  H   -0.017163   0.008183   0.000328   0.390457   0.001214  -0.000063
    13  Br  -0.076503  -0.003951  -0.001984   0.254806   0.002758  -0.000221
    14  C    0.340906  -0.025876   0.002224  -0.041436  -0.000325   0.000064
    15  C   -0.121321  -0.008650  -0.000222   0.007705  -0.000334   0.000049
    16  C    0.015541  -0.000528  -0.000003  -0.000074  -0.000130  -0.000000
    17  C   -0.000851   0.000058  -0.000000   0.000078  -0.000002  -0.000001
    18  C    0.013952  -0.000169   0.000001   0.000291   0.000010   0.000000
    19  C   -0.092814   0.006492  -0.000098  -0.012802  -0.000060   0.000014
    20  H   -0.024674   0.006802  -0.000565   0.000138  -0.000088   0.000004
    21  H   -0.000301   0.000003   0.000000  -0.000001  -0.000001   0.000000
    22  H    0.000019  -0.000000   0.000000   0.000000   0.000000  -0.000000
    23  H   -0.000303   0.000001  -0.000000  -0.000011   0.000000  -0.000000
    24  H   -0.017151  -0.000080  -0.000002   0.003540   0.000006   0.000001
    25  N   -0.147032   0.386780  -0.099408   0.004920  -0.000005   0.000002
    26  C    0.009425  -0.032837  -0.008646  -0.000264   0.000001   0.000000
    27  H   -0.015614  -0.001383   0.003351   0.000024   0.000001  -0.000000
    28  H    0.003615  -0.009182   0.026719  -0.000044  -0.000004  -0.000000
    29  H   -0.000058   0.004976   0.000373  -0.000011  -0.000001  -0.000000
    30  H   -0.000345   0.000747   0.000149   0.000059   0.000000   0.000000
               7          8          9         10         11         12
     1  C   -0.000714   0.019176  -0.060266   0.004349  -0.015156  -0.017163
     2  C   -0.000070   0.000383  -0.008081   0.000331   0.000526   0.008183
     3  O   -0.000042   0.001042  -0.016158   0.000141   0.054987   0.000328
     4  C    0.000063  -0.011219   0.074454  -0.006296  -0.009612   0.390457
     5  C    0.403817   0.400971   0.328499  -0.020636  -0.017754   0.001214
     6  H   -0.024396  -0.022953  -0.018403  -0.003926  -0.008182  -0.000063
     7  H    0.608312  -0.017558  -0.025251  -0.007527   0.005912   0.001499
     8  H   -0.017558   0.592647  -0.030229   0.007317  -0.002277  -0.000545
     9  N   -0.025251  -0.030229   6.384421   0.342037   0.330414  -0.011336
    10  H   -0.007527   0.007317   0.342037   0.532622  -0.012474  -0.000695
    11  H    0.005912  -0.002277   0.330414  -0.012474   0.498576   0.002271
    12  H    0.001499  -0.000545  -0.011336  -0.000695   0.002271   0.582005
    13  Br   0.000033   0.000536  -0.066607   0.008492   0.003823  -0.035548
    14  C    0.000210   0.001469   0.000834  -0.000092  -0.000665  -0.010942
    15  C    0.000004   0.000793   0.000346  -0.000017  -0.000013   0.000095
    16  C    0.000004   0.000327  -0.000009   0.000000   0.000002  -0.000056
    17  C    0.000000   0.000018  -0.000001   0.000000  -0.000000  -0.000024
    18  C    0.000003  -0.000101   0.000014  -0.000001   0.000001   0.000068
    19  C   -0.000054  -0.000355   0.000382  -0.000013  -0.000055   0.007793
    20  H   -0.000013   0.001049   0.000028   0.000000  -0.000053  -0.000009
    21  H   -0.000000   0.000010   0.000000  -0.000000   0.000000   0.000001
    22  H   -0.000000  -0.000001  -0.000000  -0.000000   0.000000  -0.000001
    23  H    0.000000   0.000000  -0.000000   0.000000  -0.000000   0.000019
    24  H   -0.000012  -0.000031   0.000142  -0.000004  -0.000009   0.001415
    25  N   -0.000003  -0.000253  -0.000101   0.000004   0.001197  -0.000098
    26  C   -0.000000  -0.000012   0.000004  -0.000000  -0.000018   0.000006
    27  H    0.000000   0.000020   0.000002   0.000000  -0.000064  -0.000022
    28  H    0.000000   0.000006   0.000004  -0.000000  -0.000046  -0.000000
    29  H    0.000000   0.000007  -0.000001   0.000000   0.000005  -0.000000
    30  H   -0.000000  -0.000001   0.000001  -0.000000  -0.000005  -0.000000
              13         14         15         16         17         18
     1  C   -0.076503   0.340906  -0.121321   0.015541  -0.000851   0.013952
     2  C   -0.003951  -0.025876  -0.008650  -0.000528   0.000058  -0.000169
     3  O   -0.001984   0.002224  -0.000222  -0.000003  -0.000000   0.000001
     4  C    0.254806  -0.041436   0.007705  -0.000074   0.000078   0.000291
     5  C    0.002758  -0.000325  -0.000334  -0.000130  -0.000002   0.000010
     6  H   -0.000221   0.000064   0.000049  -0.000000  -0.000001   0.000000
     7  H    0.000033   0.000210   0.000004   0.000004   0.000000   0.000003
     8  H    0.000536   0.001469   0.000793   0.000327   0.000018  -0.000101
     9  N   -0.066607   0.000834   0.000346  -0.000009  -0.000001   0.000014
    10  H    0.008492  -0.000092  -0.000017   0.000000   0.000000  -0.000001
    11  H    0.003823  -0.000665  -0.000013   0.000002  -0.000000   0.000001
    12  H   -0.035548  -0.010942   0.000095  -0.000056  -0.000024   0.000068
    13  Br  35.013510   0.002846  -0.000117   0.000003  -0.000000  -0.000008
    14  C    0.002846   5.180241   0.306275   0.072716  -0.135258   0.069364
    15  C   -0.000117   0.306275   5.150762   0.330935   0.061159  -0.123845
    16  C    0.000003   0.072716   0.330935   5.021689   0.309860   0.067073
    17  C   -0.000000  -0.135258   0.061159   0.309860   5.087521   0.312316
    18  C   -0.000008   0.069364  -0.123845   0.067073   0.312316   5.023865
    19  C   -0.000309   0.324832   0.040118  -0.123379   0.062051   0.327118
    20  H   -0.000011  -0.065730   0.449922  -0.061202   0.013137  -0.002021
    21  H   -0.000000   0.014156  -0.062501   0.446009  -0.068226   0.012721
    22  H    0.000000  -0.001474   0.012775  -0.064494   0.447465  -0.064334
    23  H   -0.000000   0.013847  -0.001568   0.012495  -0.067277   0.444831
    24  H    0.000359  -0.063681   0.013701  -0.001956   0.012918  -0.060395
    25  N   -0.000476  -0.010939   0.003931  -0.000302   0.000021  -0.000018
    26  C   -0.000040   0.000032  -0.000485  -0.000013  -0.000000  -0.000000
    27  H    0.000032   0.006184   0.004248  -0.000290  -0.000043  -0.000031
    28  H    0.000007  -0.000116  -0.000058  -0.000003   0.000000  -0.000000
    29  H    0.000001   0.000070   0.000163   0.000016  -0.000001  -0.000000
    30  H    0.000000  -0.000012   0.000030  -0.000002   0.000000  -0.000000
              19         20         21         22         23         24
     1  C   -0.092814  -0.024674  -0.000301   0.000019  -0.000303  -0.017151
     2  C    0.006492   0.006802   0.000003  -0.000000   0.000001  -0.000080
     3  O   -0.000098  -0.000565   0.000000   0.000000  -0.000000  -0.000002
     4  C   -0.012802   0.000138  -0.000001   0.000000  -0.000011   0.003540
     5  C   -0.000060  -0.000088  -0.000001   0.000000   0.000000   0.000006
     6  H    0.000014   0.000004   0.000000  -0.000000  -0.000000   0.000001
     7  H   -0.000054  -0.000013  -0.000000  -0.000000   0.000000  -0.000012
     8  H   -0.000355   0.001049   0.000010  -0.000001   0.000000  -0.000031
     9  N    0.000382   0.000028   0.000000  -0.000000  -0.000000   0.000142
    10  H   -0.000013   0.000000  -0.000000  -0.000000   0.000000  -0.000004
    11  H   -0.000055  -0.000053   0.000000   0.000000  -0.000000  -0.000009
    12  H    0.007793  -0.000009   0.000001  -0.000001   0.000019   0.001415
    13  Br  -0.000309  -0.000011  -0.000000   0.000000  -0.000000   0.000359
    14  C    0.324832  -0.065730   0.014156  -0.001474   0.013847  -0.063681
    15  C    0.040118   0.449922  -0.062501   0.012775  -0.001568   0.013701
    16  C   -0.123379  -0.061202   0.446009  -0.064494   0.012495  -0.001956
    17  C    0.062051   0.013137  -0.068226   0.447465  -0.067277   0.012918
    18  C    0.327118  -0.002021   0.012721  -0.064334   0.444831  -0.060395
    19  C    5.119728   0.014217  -0.001681   0.012423  -0.061454   0.445645
    20  H    0.014217   0.660042  -0.011829  -0.000204   0.000024  -0.000166
    21  H   -0.001681  -0.011829   0.659760  -0.010901  -0.000232   0.000025
    22  H    0.012423  -0.000204  -0.010901   0.655964  -0.010896  -0.000207
    23  H   -0.061454   0.000024  -0.000232  -0.010896   0.658114  -0.011785
    24  H    0.445645  -0.000166   0.000025  -0.000207  -0.011785   0.662786
    25  N   -0.000451   0.006949  -0.000015   0.000000  -0.000000  -0.000009
    26  C    0.000027  -0.000318   0.000002   0.000000   0.000000   0.000001
    27  H   -0.000626  -0.001171   0.000003  -0.000001  -0.000002  -0.000011
    28  H    0.000002  -0.000052   0.000000  -0.000000   0.000000  -0.000000
    29  H   -0.000001  -0.000274   0.000000  -0.000000   0.000000  -0.000000
    30  H    0.000001   0.000065  -0.000000   0.000000  -0.000000   0.000000
              25         26         27         28         29         30
     1  C   -0.147032   0.009425  -0.015614   0.003615  -0.000058  -0.000345
     2  C    0.386780  -0.032837  -0.001383  -0.009182   0.004976   0.000747
     3  O   -0.099408  -0.008646   0.003351   0.026719   0.000373   0.000149
     4  C    0.004920  -0.000264   0.000024  -0.000044  -0.000011   0.000059
     5  C   -0.000005   0.000001   0.000001  -0.000004  -0.000001   0.000000
     6  H    0.000002   0.000000  -0.000000  -0.000000  -0.000000   0.000000
     7  H   -0.000003  -0.000000   0.000000   0.000000   0.000000  -0.000000
     8  H   -0.000253  -0.000012   0.000020   0.000006   0.000007  -0.000001
     9  N   -0.000101   0.000004   0.000002   0.000004  -0.000001   0.000001
    10  H    0.000004  -0.000000   0.000000  -0.000000   0.000000  -0.000000
    11  H    0.001197  -0.000018  -0.000064  -0.000046   0.000005  -0.000005
    12  H   -0.000098   0.000006  -0.000022  -0.000000  -0.000000  -0.000000
    13  Br  -0.000476  -0.000040   0.000032   0.000007   0.000001   0.000000
    14  C   -0.010939   0.000032   0.006184  -0.000116   0.000070  -0.000012
    15  C    0.003931  -0.000485   0.004248  -0.000058   0.000163   0.000030
    16  C   -0.000302  -0.000013  -0.000290  -0.000003   0.000016  -0.000002
    17  C    0.000021  -0.000000  -0.000043   0.000000  -0.000001   0.000000
    18  C   -0.000018  -0.000000  -0.000031  -0.000000  -0.000000  -0.000000
    19  C   -0.000451   0.000027  -0.000626   0.000002  -0.000001   0.000001
    20  H    0.006949  -0.000318  -0.001171  -0.000052  -0.000274   0.000065
    21  H   -0.000015   0.000002   0.000003   0.000000   0.000000  -0.000000
    22  H    0.000000   0.000000  -0.000001  -0.000000  -0.000000   0.000000
    23  H   -0.000000   0.000000  -0.000002   0.000000   0.000000  -0.000000
    24  H   -0.000009   0.000001  -0.000011  -0.000000  -0.000000   0.000000
    25  N    6.508525   0.318382   0.354043  -0.027843  -0.030545  -0.029093
    26  C    0.318382   4.477565  -0.024681   0.394143   0.399682   0.409935
    27  H    0.354043  -0.024681   0.524654   0.006013  -0.002871  -0.004009
    28  H   -0.027843   0.394143   0.006013   0.584473  -0.016835  -0.020863
    29  H   -0.030545   0.399682  -0.002871  -0.016835   0.634045  -0.031176
    30  H   -0.029093   0.409935  -0.004009  -0.020863  -0.031176   0.625521
 Mulliken charges:
               1
     1  C   -0.118782
     2  C    0.178554
     3  O   -0.351954
     4  C   -0.030134
     5  C    0.032114
     6  H    0.059456
     7  H    0.055783
     8  H    0.059765
     9  N   -0.225139
    10  H    0.156385
    11  H    0.168670
    12  H    0.081148
    13  Br  -0.101431
    14  C    0.020277
    15  C   -0.063881
    16  C   -0.024229
    17  C   -0.034917
    18  C   -0.020704
    19  C   -0.066692
    20  H    0.016001
    21  H    0.022997
    22  H    0.023868
    23  H    0.024196
    24  H    0.014960
    25  N   -0.238164
    26  C    0.058109
    27  H    0.152245
    28  H    0.060064
    29  H    0.042438
    30  H    0.048999
 Sum of Mulliken charges =  -0.00000
 Mulliken charges with hydrogens summed into heavy atoms:
               1
     1  C   -0.118782
     2  C    0.178554
     3  O   -0.351954
     4  C    0.051014
     5  C    0.207117
     9  N    0.099916
    13  Br  -0.101431
    14  C    0.020277
    15  C   -0.047880
    16  C   -0.001232
    17  C   -0.011050
    18  C    0.003492
    19  C   -0.051732
    25  N   -0.085919
    26  C    0.209610
 Electronic spatial extent (au):  <R**2>=           4475.8329
 Charge=             -0.0000 electrons
 Dipole moment (field-independent basis, Debye):
    X=              1.6298    Y=             -1.2364    Z=              2.3356  Tot=              3.1049
 Quadrupole moment (field-independent basis, Debye-Ang):
   XX=           -101.0768   YY=            -93.8210   ZZ=            -94.4618
   XY=              7.1983   XZ=             -5.0623   YZ=             -5.1839
 Traceless Quadrupole moment (field-independent basis, Debye-Ang):
   XX=             -4.6236   YY=              2.6322   ZZ=              1.9914
   XY=              7.1983   XZ=             -5.0623   YZ=             -5.1839
 Octapole moment (field-independent basis, Debye-Ang**2):
  XXX=            -76.5302  YYY=              3.6849  ZZZ=              6.1817  XYY=            -18.3660
  XXY=            -14.9717  XXZ=              5.8887  XZZ=            -45.2226  YZZ=            -12.0629
  YYZ=            -15.3659  XYZ=             17.1619
 Hexadecapole moment (field-independent basis, Debye-Ang**3):
 XXXX=          -2900.6606 YYYY=          -1487.0943 ZZZZ=           -790.6182 XXXY=             61.1112
 XXXZ=             58.1499 YYYX=             94.7459 YYYZ=            -10.7798 ZZZX=             28.8601
 ZZZY=             -7.1379 XXYY=           -776.4911 XXZZ=           -640.0573 YYZZ=           -385.8164
 XXYZ=             17.1129 YYXZ=             -7.3424 ZZXY=             38.4583
 N-N= 1.351909681811D+03 E-N=-1.027924167432D+04  KE= 3.176722815059D+03
 Unable to Open any file for archive entry.
 1\1\GINC-NODE-005\FTS\RwB97XD\def2SVP\C11H15Br1N2O1\JP2658\19-Dec-2023
 \0\\# wb97xd def2svp geom=allchk scrf=(iefpcm,solvent=toluene) opt=(re
 adfc,ts,noeigen,maxcycles=50,maxstep=10)\\TS-325.out\\0,1\C,0.15218835
 78,0.0215578266,-0.2521709009\C,-0.4161332063,1.195947811,0.437813695\
 O,-1.4574899512,1.1224134646,1.1015329994\C,-0.700269116,-1.0145771357
 ,-0.5784062601\C,-0.3758618322,-2.2285457834,1.9820536447\H,-0.6795719
 586,-2.303044137,3.0381570538\H,-0.0287490255,-3.2139443275,1.64152633
 68\H,0.4648962117,-1.5213695583,1.91277606\N,-1.4393742422,-1.74926087
 3,1.1238427145\H,-2.2076495171,-2.4067426954,1.0014119277\H,-1.7954524
 359,-0.8300618497,1.4187668424\H,-0.2699329833,-1.9344194764,-0.978812
 1368\Br,-2.4264371483,-0.7193616184,-1.4161392334\C,1.6130835058,-0.17
 0918699,-0.4135861094\C,2.531841503,0.2479868123,0.5695495414\C,3.9000
 023457,0.0383265192,0.4189811381\C,4.3966038023,-0.6114878876,-0.71196
 59148\C,3.5047546646,-1.034708186,-1.6963278703\C,2.1373445499,-0.8047
 487687,-1.555489458\H,2.1623745014,0.7388690705,1.4731369449\H,4.58500
 93328,0.3736153349,1.201622725\H,5.4694012388,-0.7805773872,-0.8266505
 02\H,3.8773013436,-1.5326187871,-2.5948663013\H,1.4576232562,-1.104070
 2628,-2.357338897\N,0.2714652714,2.3648482484,0.33082759\C,-0.12313773
 27,3.5806194193,0.994602368\H,1.0664337149,2.3866271773,-0.2941813565\
 H,-0.9214132754,3.3356776036,1.7053934643\H,0.7226791231,4.0249753051,
 1.5417015213\H,-0.5113602982,4.3290028404,0.2845283733\\Version=ES64L-
 G16RevC.01\State=1-A\HF=-3186.1669568\RMSD=4.646e-09\RMSF=4.160e-06\Di
 pole=0.6766628,-0.7653772,0.6697007\Quadrupole=-4.3474756,5.7844618,-1
 .4369862,5.7637062,-1.1648989,-2.1886303\PG=C01 [X(C11H15Br1N2O1)]\\@
 The archive entry for this job was punched.


 A MAN BEGINS CUTTING HIS WISDOM TEETH THE 1ST
 TIME HE BITES OFF MORE THAN HE CAN CHEW.
 Job cpu time:       0 days  3 hours 57 minutes 15.9 seconds.
 Elapsed time:       0 days  3 hours 58 minutes 22.0 seconds.
 File lengths (MBytes):  RWF=    160 Int=      0 D2E=      0 Chk=     16 Scr=      1
 Normal termination of Gaussian 16 at Tue Dec 19 17:33:04 2023.
