Unloading slurm/anatra/current
  ERROR: No such file or directory on
    '/cm/local/modulefiles/slurm/anatra/current'
environment: line 0: unalias: gv: not found
environment: line 0: unalias: sl: not found
 Entering Gaussian System, Link 0=g16
 Initial command:
 /apps/gaussian/g16/C.01/g16/l1.exe "/local/jobs/1150836/Gau-1293538.inp" -scrdir="/local/jobs/1150836/"
 Entering Link 1 = /apps/gaussian/g16/C.01/g16/l1.exe PID=   1293541.
  
 Copyright (c) 1988-2019, Gaussian, Inc.  All Rights Reserved.
  
 This is part of the Gaussian(R) 16 program.  It is based on
 the Gaussian(R) 09 system (copyright 2009, Gaussian, Inc.),
 the Gaussian(R) 03 system (copyright 2003, Gaussian, Inc.),
 the Gaussian(R) 98 system (copyright 1998, Gaussian, Inc.),
 the Gaussian(R) 94 system (copyright 1995, Gaussian, Inc.),
 the Gaussian 92(TM) system (copyright 1992, Gaussian, Inc.),
 the Gaussian 90(TM) system (copyright 1990, Gaussian, Inc.),
 the Gaussian 88(TM) system (copyright 1988, Gaussian, Inc.),
 the Gaussian 86(TM) system (copyright 1986, Carnegie Mellon
 University), and the Gaussian 82(TM) system (copyright 1983,
 Carnegie Mellon University). Gaussian is a federally registered
 trademark of Gaussian, Inc.
  
 This software contains proprietary and confidential information,
 including trade secrets, belonging to Gaussian, Inc.
  
 This software is provided under written license and may be
 used, copied, transmitted, or stored only in accord with that
 written license.
  
 The following legend is applicable only to US Government
 contracts under FAR:
  
                    RESTRICTED RIGHTS LEGEND
  
 Use, reproduction and disclosure by the US Government is
 subject to restrictions as set forth in subparagraphs (a)
 and (c) of the Commercial Computer Software - Restricted
 Rights clause in FAR 52.227-19.
  
 Gaussian, Inc.
 340 Quinnipiac St., Bldg. 40, Wallingford CT 06492
  
  
 ---------------------------------------------------------------
 Warning -- This program may not be used in any manner that
 competes with the business of Gaussian, Inc. or will provide
 assistance to any competitor of Gaussian, Inc.  The licensee
 of this program is prohibited from giving any competitor of
 Gaussian, Inc. access to this program.  By using this program,
 the user acknowledges that Gaussian, Inc. is engaged in the
 business of creating and licensing software in the field of
 computational chemistry and represents and warrants to the
 licensee that it is not a competitor of Gaussian, Inc. and that
 it will not use this program in any manner prohibited above.
 ---------------------------------------------------------------
  

 Cite this work as:
 Gaussian 16, Revision C.01,
 M. J. Frisch, G. W. Trucks, H. B. Schlegel, G. E. Scuseria, 
 M. A. Robb, J. R. Cheeseman, G. Scalmani, V. Barone, 
 G. A. Petersson, H. Nakatsuji, X. Li, M. Caricato, A. V. Marenich, 
 J. Bloino, B. G. Janesko, R. Gomperts, B. Mennucci, H. P. Hratchian, 
 J. V. Ortiz, A. F. Izmaylov, J. L. Sonnenberg, D. Williams-Young, 
 F. Ding, F. Lipparini, F. Egidi, J. Goings, B. Peng, A. Petrone, 
 T. Henderson, D. Ranasinghe, V. G. Zakrzewski, J. Gao, N. Rega, 
 G. Zheng, W. Liang, M. Hada, M. Ehara, K. Toyota, R. Fukuda, 
 J. Hasegawa, M. Ishida, T. Nakajima, Y. Honda, O. Kitao, H. Nakai, 
 T. Vreven, K. Throssell, J. A. Montgomery, Jr., J. E. Peralta, 
 F. Ogliaro, M. J. Bearpark, J. J. Heyd, E. N. Brothers, K. N. Kudin, 
 V. N. Staroverov, T. A. Keith, R. Kobayashi, J. Normand, 
 K. Raghavachari, A. P. Rendell, J. C. Burant, S. S. Iyengar, 
 J. Tomasi, M. Cossi, J. M. Millam, M. Klene, C. Adamo, R. Cammi, 
 J. W. Ochterski, R. L. Martin, K. Morokuma, O. Farkas, 
 J. B. Foresman, and D. J. Fox, Gaussian, Inc., Wallingford CT, 2019.
 
 ******************************************
 Gaussian 16:  ES64L-G16RevC.01  3-Jul-2019
                19-Dec-2023 
 ******************************************
 %chk=TS-898_hf.chk
 %nprocshared=12
 Will use up to   12 processors via shared memory.
 %mem=48GB
 ----------------------------------------------------------------------
 # wb97xd def2svp geom=allchk scrf=(iefpcm,solvent=toluene) opt=(readfc
 ,ts,noeigen,maxcycles=50,maxstep=10)
 ----------------------------------------------------------------------
 1/5=1,6=50,8=10,10=3,11=1,18=20,26=3,29=7,38=1/1,3;
 2/9=110,12=2,40=1/2;
 3/5=43,7=101,11=2,14=-4,25=1,30=1,70=2201,71=1,72=13,74=-58/1,2,3;
 4//1;
 5/5=2,38=5,53=13/2;
 6/7=2,8=2,9=2,10=2,28=1/1;
 7//1,2,3,16;
 1/5=1,6=50,8=10,11=1,18=20,26=3/3(2);
 2/9=110/2;
 99//99;
 2/9=110/2;
 3/5=43,7=101,11=2,14=-2,25=1,30=1,70=2205,71=1,72=13,74=-58/1,2,3;
 4/5=5,16=3,69=1/1;
 5/5=2,38=5,53=13/2;
 7//1,2,3,16;
 1/5=1,6=50,8=10,11=1,18=20,26=3/3(-5);
 2/9=110/2;
 6/7=2,8=2,9=2,10=2,19=2,28=1/1;
 99/9=1/99;
 Structure from the checkpoint file:  "TS-898_hf.chk"
 ----------
 TS-898.out
 ----------
 Charge =  0 Multiplicity = 1
 Redundant internal coordinates found in file.  (old form).
 C,0,-0.46944,-0.70158,-0.3157
 C,0,-1.80325,-0.37883,0.26459
 O,0,-2.1666,-0.88981,1.32245
 C,0,0.64063,-0.22369,0.32388
 C,0,0.48216,2.80238,-0.36191
 H,0,1.0592,3.479,-0.99873
 H,0,-0.56866,2.85168,-0.65767
 H,0,0.56954,3.13654,0.67555
 N,0,0.98232,1.42813,-0.49487
 H,0,0.9747,1.21586,-1.4994
 H,0,1.99051,1.47348,-0.28996
 Cl,0,2.20424,-1.06498,-0.03906
 C,0,0.5992,0.23794,1.78923
 H,0,-0.22197,0.93682,1.97915
 H,0,0.48467,-0.62723,2.45151
 H,0,1.52984,0.74582,2.06821
 C,0,-0.50617,-1.49801,-1.58355
 H,0,0.43652,-1.45603,-2.13643
 H,0,-0.72787,-2.54679,-1.36119
 H,0,-1.27943,-1.12504,-2.26314
 C,0,-2.69529,0.55705,-0.50643
 H,0,-3.55857,0.003,-0.88378
 H,0,-3.02491,1.36267,0.15514
 H,0,-2.16599,1.00486,-1.35156
 Recover connectivity data from disk.

 GradGradGradGradGradGradGradGradGradGradGradGradGradGradGradGradGradGrad
 Berny optimization.
 Initialization pass.
 Force constant matrix read from checkpoint file:
 "TS-898_hf.chk"
                           ----------------------------
                           !    Initial Parameters    !
                           ! (Angstroms and Degrees)  !
 --------------------------                            --------------------------
 ! Name  Definition              Value          Derivative Info.                !
 --------------------------------------------------------------------------------
 ! R1    R(1,2)                  1.49           D2E/DX2 =    0.3341             !
 ! R2    R(1,4)                  1.3674         D2E/DX2 =    0.5425             !
 ! R3    R(1,17)                 1.4977         D2E/DX2 =    0.354              !
 ! R4    R(2,3)                  1.2297         D2E/DX2 =    0.8083             !
 ! R5    R(2,21)                 1.5053         D2E/DX2 =    0.3297             !
 ! R6    R(4,9)                  1.875          D2E/DX2 =    0.0085             !
 ! R7    R(4,12)                 1.8123         D2E/DX2 =    0.1861             !
 ! R8    R(4,13)                 1.5369         D2E/DX2 =    0.2937             !
 ! R9    R(5,6)                  1.0938         D2E/DX2 =    0.3529             !
 ! R10   R(5,7)                  1.0928         D2E/DX2 =    0.3613             !
 ! R11   R(5,8)                  1.0934         D2E/DX2 =    0.3591             !
 ! R12   R(5,9)                  1.4685         D2E/DX2 =    0.3582             !
 ! R13   R(9,10)                 1.0267         D2E/DX2 =    0.4341             !
 ! R14   R(9,11)                 1.0298         D2E/DX2 =    0.422              !
 ! R15   R(13,14)                1.0949         D2E/DX2 =    0.3568             !
 ! R16   R(13,15)                1.0956         D2E/DX2 =    0.357              !
 ! R17   R(13,16)                1.0963         D2E/DX2 =    0.351              !
 ! R18   R(17,18)                1.0937         D2E/DX2 =    0.3557             !
 ! R19   R(17,19)                1.0948         D2E/DX2 =    0.3478             !
 ! R20   R(17,20)                1.0949         D2E/DX2 =    0.3493             !
 ! R21   R(21,22)                1.093          D2E/DX2 =    0.359              !
 ! R22   R(21,23)                1.0933         D2E/DX2 =    0.3588             !
 ! R23   R(21,24)                1.0931         D2E/DX2 =    0.3583             !
 ! A1    A(2,1,4)              117.9612         D2E/DX2 =    0.1899             !
 ! A2    A(2,1,17)             115.0201         D2E/DX2 =    0.1499             !
 ! A3    A(4,1,17)             126.9934         D2E/DX2 =    0.1773             !
 ! A4    A(1,2,3)              120.6333         D2E/DX2 =    0.1938             !
 ! A5    A(1,2,21)             117.7536         D2E/DX2 =    0.1733             !
 ! A6    A(3,2,21)             121.5909         D2E/DX2 =    0.1752             !
 ! A7    A(1,4,9)              104.5717         D2E/DX2 =    0.0889             !
 ! A8    A(1,4,12)             116.3925         D2E/DX2 =    0.0479             !
 ! A9    A(1,4,13)             121.942          D2E/DX2 =    0.0635             !
 ! A10   A(9,4,12)              99.4555         D2E/DX2 =    0.0305             !
 ! A11   A(9,4,13)              99.0118         D2E/DX2 =    0.0905             !
 ! A12   A(12,4,13)            110.7098         D2E/DX2 =    0.0416             !
 ! A13   A(6,5,7)              108.7737         D2E/DX2 =    0.0627             !
 ! A14   A(6,5,8)              108.7359         D2E/DX2 =    0.0626             !
 ! A15   A(6,5,9)              110.2743         D2E/DX2 =    0.1407             !
 ! A16   A(7,5,8)              108.6541         D2E/DX2 =    0.062              !
 ! A17   A(7,5,9)              110.1965         D2E/DX2 =    0.1387             !
 ! A18   A(8,5,9)              110.1625         D2E/DX2 =    0.1396             !
 ! A19   A(4,9,5)              136.2896         D2E/DX2 =    0.0453             !
 ! A20   A(4,9,10)             104.1071         D2E/DX2 =    0.0465             !
 ! A21   A(4,9,11)              97.488          D2E/DX2 =    0.0426             !
 ! A22   A(5,9,10)             106.2324         D2E/DX2 =    0.0665             !
 ! A23   A(5,9,11)             105.9157         D2E/DX2 =    0.0581             !
 ! A24   A(10,9,11)            102.1836         D2E/DX2 =    0.0158             !
 ! A25   A(4,13,14)            112.1679         D2E/DX2 =    0.1172             !
 ! A26   A(4,13,15)            109.998          D2E/DX2 =    0.1165             !
 ! A27   A(4,13,16)            111.0323         D2E/DX2 =    0.1275             !
 ! A28   A(14,13,15)           108.7118         D2E/DX2 =    0.0584             !
 ! A29   A(14,13,16)           107.2666         D2E/DX2 =    0.0614             !
 ! A30   A(15,13,16)           107.5031         D2E/DX2 =    0.0589             !
 ! A31   A(1,17,18)            112.7305         D2E/DX2 =    0.1243             !
 ! A32   A(1,17,19)            110.0265         D2E/DX2 =    0.1257             !
 ! A33   A(1,17,20)            111.1983         D2E/DX2 =    0.1284             !
 ! A34   A(18,17,19)           108.3006         D2E/DX2 =    0.067              !
 ! A35   A(18,17,20)           106.3728         D2E/DX2 =    0.067              !
 ! A36   A(19,17,20)           108.0213         D2E/DX2 =    0.0669             !
 ! A37   A(2,21,22)            109.2519         D2E/DX2 =    0.1114             !
 ! A38   A(2,21,23)            109.0768         D2E/DX2 =    0.1126             !
 ! A39   A(2,21,24)            111.3301         D2E/DX2 =    0.1299             !
 ! A40   A(22,21,23)           110.1396         D2E/DX2 =    0.0605             !
 ! A41   A(22,21,24)           108.8556         D2E/DX2 =    0.0641             !
 ! A42   A(23,21,24)           108.1763         D2E/DX2 =    0.0641             !
 ! D1    D(4,1,2,3)            -70.3005         D2E/DX2 =    0.0051             !
 ! D2    D(4,1,2,21)           111.3855         D2E/DX2 =    0.0076             !
 ! D3    D(17,1,2,3)           111.4016         D2E/DX2 =    0.0034             !
 ! D4    D(17,1,2,21)          -66.9123         D2E/DX2 =    0.0066             !
 ! D5    D(2,1,4,9)            -91.6361         D2E/DX2 =    0.0162             !
 ! D6    D(2,1,4,12)           159.7922         D2E/DX2 =    0.017              !
 ! D7    D(2,1,4,13)            19.0221         D2E/DX2 =    0.0145             !
 ! D8    D(17,1,4,9)            86.4327         D2E/DX2 =    0.0169             !
 ! D9    D(17,1,4,12)          -22.1391         D2E/DX2 =    0.0151             !
 ! D10   D(17,1,4,13)         -162.9091         D2E/DX2 =    0.0156             !
 ! D11   D(2,1,17,18)          162.4272         D2E/DX2 =    0.0147             !
 ! D12   D(2,1,17,19)          -76.5718         D2E/DX2 =    0.0156             !
 ! D13   D(2,1,17,20)           43.0679         D2E/DX2 =    0.0149             !
 ! D14   D(4,1,17,18)          -15.6904         D2E/DX2 =    0.014              !
 ! D15   D(4,1,17,19)          105.3106         D2E/DX2 =    0.0153             !
 ! D16   D(4,1,17,20)         -135.0496         D2E/DX2 =    0.0147             !
 ! D17   D(1,2,21,22)          111.7252         D2E/DX2 =    0.0153             !
 ! D18   D(1,2,21,23)         -127.832          D2E/DX2 =    0.0154             !
 ! D19   D(1,2,21,24)           -8.532          D2E/DX2 =    0.0186             !
 ! D20   D(3,2,21,22)          -66.5717         D2E/DX2 =    0.0171             !
 ! D21   D(3,2,21,23)           53.8711         D2E/DX2 =    0.0175             !
 ! D22   D(3,2,21,24)          173.1712         D2E/DX2 =    0.0186             !
 ! D23   D(1,4,9,5)             82.3572         D2E/DX2 =    0.0203             !
 ! D24   D(1,4,9,10)           -50.486          D2E/DX2 =    0.0222             !
 ! D25   D(1,4,9,11)          -155.1123         D2E/DX2 =    0.0235             !
 ! D26   D(12,4,9,5)          -157.0514         D2E/DX2 =    0.018              !
 ! D27   D(12,4,9,10)           70.1054         D2E/DX2 =    0.0192             !
 ! D28   D(12,4,9,11)          -34.5209         D2E/DX2 =    0.0209             !
 ! D29   D(13,4,9,5)           -44.1342         D2E/DX2 =    0.0191             !
 ! D30   D(13,4,9,10)         -176.9775         D2E/DX2 =    0.0207             !
 ! D31   D(13,4,9,11)           78.3962         D2E/DX2 =    0.0222             !
 ! D32   D(1,4,13,14)          -50.0825         D2E/DX2 =    0.0191             !
 ! D33   D(1,4,13,15)           71.0434         D2E/DX2 =    0.0196             !
 ! D34   D(1,4,13,16)         -170.0859         D2E/DX2 =    0.02               !
 ! D35   D(9,4,13,14)           63.4373         D2E/DX2 =    0.0242             !
 ! D36   D(9,4,13,15)         -175.4367         D2E/DX2 =    0.0241             !
 ! D37   D(9,4,13,16)          -56.566          D2E/DX2 =    0.0243             !
 ! D38   D(12,4,13,14)         167.1932         D2E/DX2 =    0.0171             !
 ! D39   D(12,4,13,15)         -71.6809         D2E/DX2 =    0.0172             !
 ! D40   D(12,4,13,16)          47.1898         D2E/DX2 =    0.0175             !
 ! D41   D(6,5,9,4)            174.2025         D2E/DX2 =    0.0107             !
 ! D42   D(6,5,9,10)           -53.5824         D2E/DX2 =    0.0138             !
 ! D43   D(6,5,9,11)            54.5726         D2E/DX2 =    0.0146             !
 ! D44   D(7,5,9,4)            -65.7013         D2E/DX2 =    0.0106             !
 ! D45   D(7,5,9,10)            66.5137         D2E/DX2 =    0.0138             !
 ! D46   D(7,5,9,11)           174.6688         D2E/DX2 =    0.0145             !
 ! D47   D(8,5,9,4)             54.1752         D2E/DX2 =    0.0105             !
 ! D48   D(8,5,9,10)          -173.6098         D2E/DX2 =    0.0138             !
 ! D49   D(8,5,9,11)           -65.4548         D2E/DX2 =    0.0148             !
 --------------------------------------------------------------------------------
 Trust Radius=1.00D-01 FncErr=1.00D-07 GrdErr=1.00D-06 EigMax=2.50D+02 EigMin=1.00D-04
 Number of steps in this run=     50 maximum allowed number of steps=    144.
 Search for a saddle point of order  1.
 GradGradGradGradGradGradGradGradGradGradGradGradGradGradGradGradGradGrad

                          Input orientation:                          
 ---------------------------------------------------------------------
 Center     Atomic      Atomic             Coordinates (Angstroms)
 Number     Number       Type             X           Y           Z
 ---------------------------------------------------------------------
      1          6           0       -0.469440   -0.701580   -0.315700
      2          6           0       -1.803250   -0.378830    0.264590
      3          8           0       -2.166600   -0.889810    1.322450
      4          6           0        0.640630   -0.223690    0.323880
      5          6           0        0.482160    2.802380   -0.361910
      6          1           0        1.059200    3.479000   -0.998730
      7          1           0       -0.568660    2.851680   -0.657670
      8          1           0        0.569540    3.136540    0.675550
      9          7           0        0.982320    1.428130   -0.494870
     10          1           0        0.974700    1.215860   -1.499400
     11          1           0        1.990510    1.473480   -0.289960
     12         17           0        2.204240   -1.064980   -0.039060
     13          6           0        0.599200    0.237940    1.789230
     14          1           0       -0.221970    0.936820    1.979150
     15          1           0        0.484670   -0.627230    2.451510
     16          1           0        1.529840    0.745820    2.068210
     17          6           0       -0.506170   -1.498010   -1.583550
     18          1           0        0.436520   -1.456030   -2.136430
     19          1           0       -0.727870   -2.546790   -1.361190
     20          1           0       -1.279430   -1.125040   -2.263140
     21          6           0       -2.695290    0.557050   -0.506430
     22          1           0       -3.558570    0.003000   -0.883780
     23          1           0       -3.024910    1.362670    0.155140
     24          1           0       -2.165990    1.004860   -1.351560
 ---------------------------------------------------------------------
                    Distance matrix (angstroms):
                    1          2          3          4          5
     1  C    0.000000
     2  C    1.489951   0.000000
     3  O    2.366288   1.229712   0.000000
     4  C    1.367369   2.449517   3.053096   0.000000
     5  C    3.631172   3.966825   4.846160   3.106851   0.000000
     6  H    4.503390   4.967137   5.905943   3.954037   1.093768
     7  H    3.571057   3.579242   4.524714   3.447278   1.092761
     8  H    4.097953   4.261085   4.910849   3.379330   1.093445
     9  N    2.583674   3.406066   4.311751   1.874997   1.468469
    10  H    2.676427   3.656734   4.718522   2.346968   2.013337
    11  H    3.283733   4.258074   5.046441   2.253744   2.011535
    12  Cl   2.712407   4.077129   4.581336   1.812283   4.245735
    13  C    2.540752   2.911477   3.023136   1.536903   3.349247
    14  H    2.830536   2.677890   2.747620   2.197904   3.075171
    15  H    2.928021   3.174728   2.893606   2.171170   4.435940
    16  H    3.431489   3.953147   4.110366   2.184795   3.351501
    17  C    1.497696   2.520040   3.401731   2.564631   4.578488
    18  H    2.169105   3.455695   4.365855   2.759248   4.613573
    19  H    2.136501   2.915416   3.466619   3.179473   5.574617
    20  H    2.151261   2.687124   3.701197   3.345405   4.705582
    21  C    2.564164   1.505350   2.391175   3.525242   3.893402
    22  H    3.218986   2.132064   2.757198   4.375284   4.943316
    23  H    3.318621   2.130083   2.678241   3.997649   3.826179
    24  H    2.619776   2.158268   3.277210   3.491926   3.350102
                    6          7          8          9         10
     6  H    0.000000
     7  H    1.777577   0.000000
     8  H    1.777712   1.775984   0.000000
     9  N    2.113257   2.111525   2.111619   0.000000
    10  H    2.319399   2.401328   2.929774   1.026741   0.000000
    11  H    2.322026   2.929846   2.391053   1.029802   1.600307
    12  Cl   4.783287   4.838582   4.564612   2.813618   2.974322
    13  C    4.299859   3.766013   3.105325   2.603929   3.451437
    14  H    4.119690   3.277149   2.676682   2.795080   3.689199
    15  H    5.394012   4.783233   4.162596   3.626750   4.387118
    16  H    4.134960   4.033456   2.928689   2.708266   3.641011
    17  C    5.250050   4.447579   5.266853   3.458775   3.092757
    18  H    5.102608   4.664063   5.386708   3.363182   2.799007
    19  H    6.295645   5.446445   6.175097   4.413077   4.132237
    20  H    5.316494   4.347071   5.496877   3.842001   3.338295
    21  C    4.782922   3.132213   4.325501   3.779382   3.858607
    22  H    5.780968   4.135900   5.412197   4.775136   4.732922
    23  H    4.742386   2.985126   4.041969   4.060134   4.330812
    24  H    4.080160   2.538443   4.017009   3.290126   3.151240
                   11         12         13         14         15
    11  H    0.000000
    12  Cl   2.559768   0.000000
    13  C    2.790221   2.759782   0.000000
    14  H    3.214332   3.737228   1.094908   0.000000
    15  H    3.767784   3.058020   1.095560   1.780089   0.000000
    16  H    2.510512   2.859091   1.096295   1.764441   1.767644
    17  C    4.091032   3.149490   3.951077   4.324581   4.245201
    18  H    3.795572   2.770689   4.278645   4.805969   4.662448
    19  H    4.969879   3.541336   4.409193   4.852767   4.437527
    20  H    4.619335   4.133533   4.669975   4.833892   5.058437
    21  C    4.779480   5.182163   4.028095   3.526988   4.501563
    22  H    5.771241   5.921496   4.948457   4.494584   5.279123
    23  H    5.036351   5.768467   4.131518   3.371177   4.642216
    24  H    4.315448   5.010569   4.254292   3.857133   4.914576
                   16         17         18         19         20
    16  H    0.000000
    17  C    4.745046   0.000000
    18  H    4.870574   1.093665   0.000000
    19  H    5.263014   1.094776   1.773854   0.000000
    20  H    5.491148   1.094934   1.752168   1.771752   0.000000
    21  C    4.951376   3.189938   4.064188   3.772954   2.814270
    22  H    5.929413   3.472730   4.433807   3.839559   2.893024
    23  H    4.978563   4.189342   5.017755   4.781164   3.883746
    24  H    5.041933   3.012172   3.666750   3.831775   2.480613
                   21         22         23         24
    21  C    0.000000
    22  H    1.092985   0.000000
    23  H    1.093320   1.792443   0.000000
    24  H    1.093132   1.778151   1.770852   0.000000
 Stoichiometry    C7H14ClNO
 Framework group  C1[X(C7H14ClNO)]
 Deg. of freedom    66
 Full point group                 C1      NOp   1
 Largest Abelian subgroup         C1      NOp   1
 Largest concise Abelian subgroup C1      NOp   1
                         Standard orientation:                         
 ---------------------------------------------------------------------
 Center     Atomic      Atomic             Coordinates (Angstroms)
 Number     Number       Type             X           Y           Z
 ---------------------------------------------------------------------
      1          6           0       -0.469441   -0.701580   -0.315698
      2          6           0       -1.803251   -0.378831    0.264592
      3          8           0       -2.166601   -0.889811    1.322452
      4          6           0        0.640629   -0.223689    0.323882
      5          6           0        0.482157    2.802381   -0.361908
      6          1           0        1.059196    3.479001   -0.998728
      7          1           0       -0.568663    2.851680   -0.657668
      8          1           0        0.569536    3.136541    0.675552
      9          7           0        0.982317    1.428131   -0.494868
     10          1           0        0.974698    1.215861   -1.499398
     11          1           0        1.990507    1.473482   -0.289958
     12         17           0        2.204239   -1.064978   -0.039058
     13          6           0        0.599198    0.237941    1.789232
     14          1           0       -0.221972    0.936820    1.979152
     15          1           0        0.484669   -0.627229    2.451512
     16          1           0        1.529838    0.745821    2.068212
     17          6           0       -0.506171   -1.498010   -1.583548
     18          1           0        0.436519   -1.456029   -2.136428
     19          1           0       -0.727870   -2.546790   -1.361188
     20          1           0       -1.279431   -1.125041   -2.263138
     21          6           0       -2.695292    0.557049   -0.506428
     22          1           0       -3.558572    0.002998   -0.883778
     23          1           0       -3.024912    1.362668    0.155142
     24          1           0       -2.165992    1.004859   -1.351558
 ---------------------------------------------------------------------
 Rotational constants (GHZ):           1.2552322           0.8692634           0.7181864
 Standard basis: def2SVP (5D, 7F)
 There are   224 symmetry adapted cartesian basis functions of A   symmetry.
 There are   214 symmetry adapted basis functions of A   symmetry.
   214 basis functions,   360 primitive gaussians,   224 cartesian basis functions
    44 alpha electrons       44 beta electrons
       nuclear repulsion energy       665.0561892251 Hartrees.
 NAtoms=   24 NActive=   24 NUniq=   24 SFac= 1.00D+00 NAtFMM=   60 NAOKFM=F Big=F
 Integral buffers will be    131072 words long.
 Raffenetti 2 integral format.
 Two-electron integral symmetry is turned on.
 Nuclear repulsion after empirical dispersion term =      665.0385212876 Hartrees.
 ------------------------------------------------------------------------------
 Polarizable Continuum Model (PCM)
 =================================
 Model                : PCM.
 Atomic radii         : UFF (Universal Force Field).
 Polarization charges : Total charges.
 Charge compensation  : None.
 Solution method      : On-the-fly selection.
 Cavity type          : Scaled VdW (van der Waals Surface) (Alpha=1.100).
 Cavity algorithm     : GePol (No added spheres)
                        Default sphere list used, NSphG=   24.
                        Lebedev-Laikov grids with approx.  5.0 points / Ang**2.
                        Smoothing algorithm: York/Karplus (Gamma=1.0000).
                        Polarization charges: spherical gaussians, with
                                              point-specific exponents (IZeta= 3).
                        Self-potential: point-specific (ISelfS= 7).
                        Self-field    : sphere-specific E.n sum rule (ISelfD= 2).
 1st derivatives      : Analytical E(r).r(x)/FMM algorithm (CHGder, D1EAlg=3).
                        Cavity 1st derivative terms included.
 Solvent              : Toluene, Eps=   2.374100 Eps(inf)=   2.238315
 ------------------------------------------------------------------------------
 One-electron integrals computed using PRISM.
   1 Symmetry operations used in ECPInt.
 ECPInt:  NShTT=    5460 NPrTT=   19488 LenC2=    5399 LenP2D=   15048.
 LDataN:  DoStor=T MaxTD1= 4 Len=   56
 NBasis=   214 RedAO= T EigKep=  1.01D-03  NBF=   214
 NBsUse=   214 1.00D-06 EigRej= -1.00D+00 NBFU=   214
 ExpMin= 1.22D-01 ExpMax= 1.04D+04 ExpMxC= 1.57D+03 IAcc=3 IRadAn=         5 AccDes= 0.00D+00
 Harris functional with IExCor= 4639 and IRadAn=       5 diagonalized for initial guess.
 HarFok:  IExCor= 4639 AccDes= 0.00D+00 IRadAn=         5 IDoV= 1 UseB2=F ITyADJ=14
 ICtDFT=  3500011 ScaDFX=  1.000000  1.000000  1.000000  1.000000
 FoFCou: FMM=F IPFlag=           0 FMFlag=      100000 FMFlg1=           0
         NFxFlg=           0 DoJE=T BraDBF=F KetDBF=T FulRan=T
         wScrn=  0.000000 ICntrl=       500 IOpCl=  0 I1Cent=   200000004 NGrid=           0
         NMat0=    1 NMatS0=      1 NMatT0=    0 NMatD0=    1 NMtDS0=    0 NMtDT0=    0
 Petite list used in FoFCou.
 Requested convergence on RMS density matrix=1.00D-08 within 128 cycles.
 Requested convergence on MAX density matrix=1.00D-06.
 Requested convergence on             energy=1.00D-06.
 No special actions if energy rises.
 Inv3:  Mode=1 IEnd=     9145548.
 Iteration    1 A*A^-1 deviation from unit magnitude is 3.11D-15 for     79.
 Iteration    1 A*A^-1 deviation from orthogonality  is 1.56D-15 for   1374     47.
 Iteration    1 A^-1*A deviation from unit magnitude is 3.11D-15 for     79.
 Iteration    1 A^-1*A deviation from orthogonality  is 2.00D-15 for   1454    306.
 Error on total polarization charges =  0.00611
 SCF Done:  E(RwB97XD) =  -864.693392011     A.U. after   16 cycles
            NFock= 16  Conv=0.35D-08     -V/T= 2.0060

 **********************************************************************

            Population analysis using the SCF Density.

 **********************************************************************

 Orbital symmetries:
       Occupied  (A) (A) (A) (A) (A) (A) (A) (A) (A) (A) (A) (A)
                 (A) (A) (A) (A) (A) (A) (A) (A) (A) (A) (A) (A)
                 (A) (A) (A) (A) (A) (A) (A) (A) (A) (A) (A) (A)
                 (A) (A) (A) (A) (A) (A) (A) (A)
       Virtual   (A) (A) (A) (A) (A) (A) (A) (A) (A) (A) (A) (A)
                 (A) (A) (A) (A) (A) (A) (A) (A) (A) (A) (A) (A)
                 (A) (A) (A) (A) (A) (A) (A) (A) (A) (A) (A) (A)
                 (A) (A) (A) (A) (A) (A) (A) (A) (A) (A) (A) (A)
                 (A) (A) (A) (A) (A) (A) (A) (A) (A) (A) (A) (A)
                 (A) (A) (A) (A) (A) (A) (A) (A) (A) (A) (A) (A)
                 (A) (A) (A) (A) (A) (A) (A) (A) (A) (A) (A) (A)
                 (A) (A) (A) (A) (A) (A) (A) (A) (A) (A) (A) (A)
                 (A) (A) (A) (A) (A) (A) (A) (A) (A) (A) (A) (A)
                 (A) (A) (A) (A) (A) (A) (A) (A) (A) (A) (A) (A)
                 (A) (A) (A) (A) (A) (A) (A) (A) (A) (A) (A) (A)
                 (A) (A) (A) (A) (A) (A) (A) (A) (A) (A) (A) (A)
                 (A) (A) (A) (A) (A) (A) (A) (A) (A) (A) (A) (A)
                 (A) (A) (A) (A) (A) (A) (A) (A) (A) (A) (A) (A)
                 (A) (A)
 The electronic state is 1-A.
 Alpha  occ. eigenvalues -- -101.66665 -19.21865 -14.48242 -10.38088 -10.36397
 Alpha  occ. eigenvalues --  -10.34346 -10.29735 -10.28917 -10.28157 -10.24180
 Alpha  occ. eigenvalues --   -9.57411  -7.32757  -7.31859  -7.31817  -1.09889
 Alpha  occ. eigenvalues --   -1.03172  -0.95164  -0.86444  -0.82615  -0.80702
 Alpha  occ. eigenvalues --   -0.78481  -0.73232  -0.65843  -0.62323  -0.57631
 Alpha  occ. eigenvalues --   -0.57251  -0.55060  -0.54559  -0.53317  -0.50946
 Alpha  occ. eigenvalues --   -0.50655  -0.49176  -0.48375  -0.47899  -0.46988
 Alpha  occ. eigenvalues --   -0.46165  -0.44287  -0.43719  -0.43077  -0.41308
 Alpha  occ. eigenvalues --   -0.38734  -0.38043  -0.30900  -0.23040
 Alpha virt. eigenvalues --    0.05796   0.10006   0.12002   0.13465   0.15258
 Alpha virt. eigenvalues --    0.15724   0.17703   0.19084   0.19300   0.20523
 Alpha virt. eigenvalues --    0.22076   0.22578   0.23052   0.23800   0.24308
 Alpha virt. eigenvalues --    0.24699   0.26593   0.27611   0.28446   0.31624
 Alpha virt. eigenvalues --    0.33822   0.40286   0.42137   0.44353   0.46258
 Alpha virt. eigenvalues --    0.48524   0.50281   0.51646   0.52596   0.54487
 Alpha virt. eigenvalues --    0.56901   0.58073   0.61579   0.61986   0.63740
 Alpha virt. eigenvalues --    0.64614   0.65990   0.67450   0.69170   0.69760
 Alpha virt. eigenvalues --    0.70961   0.72080   0.72634   0.74216   0.74292
 Alpha virt. eigenvalues --    0.75058   0.75338   0.76123   0.76709   0.77148
 Alpha virt. eigenvalues --    0.78415   0.78496   0.78944   0.79399   0.79911
 Alpha virt. eigenvalues --    0.80489   0.81360   0.82484   0.83038   0.84870
 Alpha virt. eigenvalues --    0.85117   0.86684   0.88376   0.89952   0.92017
 Alpha virt. eigenvalues --    0.93346   0.94013   0.96653   0.99753   1.01308
 Alpha virt. eigenvalues --    1.03176   1.04731   1.07589   1.12509   1.15105
 Alpha virt. eigenvalues --    1.16670   1.19080   1.21489   1.23756   1.27691
 Alpha virt. eigenvalues --    1.31047   1.35185   1.37940   1.39241   1.42190
 Alpha virt. eigenvalues --    1.46924   1.48389   1.50274   1.51835   1.56015
 Alpha virt. eigenvalues --    1.59530   1.61054   1.61638   1.64057   1.64868
 Alpha virt. eigenvalues --    1.66401   1.67648   1.69589   1.71400   1.77287
 Alpha virt. eigenvalues --    1.79753   1.80553   1.83483   1.84858   1.84984
 Alpha virt. eigenvalues --    1.85897   1.86262   1.87740   1.88883   1.90014
 Alpha virt. eigenvalues --    1.90925   1.92936   1.94341   1.95541   1.95951
 Alpha virt. eigenvalues --    1.96305   2.00507   2.03720   2.05274   2.06482
 Alpha virt. eigenvalues --    2.10379   2.11558   2.13802   2.14947   2.18064
 Alpha virt. eigenvalues --    2.19138   2.20655   2.22199   2.26451   2.28034
 Alpha virt. eigenvalues --    2.32593   2.35910   2.37830   2.41328   2.42329
 Alpha virt. eigenvalues --    2.45885   2.49562   2.50627   2.52044   2.53414
 Alpha virt. eigenvalues --    2.59501   2.60205   2.64859   2.67045   2.69989
 Alpha virt. eigenvalues --    2.73434   2.75649   2.78212   2.78668   2.81332
 Alpha virt. eigenvalues --    2.81770   2.83250   2.86841   2.89230   2.91927
 Alpha virt. eigenvalues --    2.99497   3.00789   3.02597   3.04362   3.05092
 Alpha virt. eigenvalues --    3.05576   3.05720   3.08761   3.12862   3.15976
 Alpha virt. eigenvalues --    3.27800   3.28888   3.48550   3.53260   3.72447
          Condensed to atoms (all electrons):
               1          2          3          4          5          6
     1  C    5.475563   0.344790  -0.077922   0.545776   0.007011  -0.001028
     2  C    0.344790   4.706736   0.654843  -0.022800   0.001236  -0.000061
     3  O   -0.077922   0.654843   7.804455  -0.028557  -0.000008  -0.000000
     4  C    0.545776  -0.022800  -0.028557   5.235221   0.005466   0.000743
     5  C    0.007011   0.001236  -0.000008   0.005466   4.498045   0.405508
     6  H   -0.001028  -0.000061  -0.000000   0.000743   0.405508   0.620294
     7  H    0.003834   0.001009   0.000000   0.000716   0.403640  -0.025886
     8  H    0.000032  -0.000234  -0.000006  -0.003683   0.403463  -0.022553
     9  N   -0.152383  -0.010565  -0.000035  -0.067467   0.304668  -0.013345
    10  H   -0.001270  -0.000757   0.000010   0.003594  -0.023392  -0.009427
    11  H    0.006702   0.000126  -0.000000  -0.003495  -0.019989  -0.011442
    12  Cl  -0.090572   0.002016  -0.000030   0.267196   0.000993  -0.000089
    13  C   -0.070705   0.005972   0.008838   0.379031   0.000471  -0.000229
    14  H   -0.022855   0.010885  -0.000958   0.013981   0.000896   0.000108
    15  H   -0.006569   0.000111   0.004576  -0.011733   0.000026   0.000011
    16  H    0.012291   0.000228   0.000425  -0.033831  -0.002414   0.000079
    17  C    0.409086  -0.045780   0.000216  -0.041257  -0.000025  -0.000010
    18  H   -0.017435   0.006046  -0.000176  -0.019019  -0.000131   0.000024
    19  H   -0.038328   0.004617   0.002446  -0.006418   0.000023  -0.000002
    20  H   -0.027947  -0.011155  -0.000504   0.007735  -0.000119   0.000019
    21  C   -0.141383   0.364641  -0.080179  -0.015296  -0.001761   0.000067
    22  H    0.006666  -0.001841   0.001654   0.000198   0.000071  -0.000004
    23  H    0.006637  -0.004149   0.001448   0.000895  -0.000186   0.000014
    24  H    0.005455  -0.015127   0.003909   0.000140  -0.000520   0.000032
               7          8          9         10         11         12
     1  C    0.003834   0.000032  -0.152383  -0.001270   0.006702  -0.090572
     2  C    0.001009  -0.000234  -0.010565  -0.000757   0.000126   0.002016
     3  O    0.000000  -0.000006  -0.000035   0.000010  -0.000000  -0.000030
     4  C    0.000716  -0.003683  -0.067467   0.003594  -0.003495   0.267196
     5  C    0.403640   0.403463   0.304668  -0.023392  -0.019989   0.000993
     6  H   -0.025886  -0.022553  -0.013345  -0.009427  -0.011442  -0.000089
     7  H    0.602883  -0.017816  -0.032726  -0.005385   0.008239  -0.000037
     8  H   -0.017816   0.592987  -0.024418   0.007560  -0.005234   0.000045
     9  N   -0.032726  -0.024418   6.627177   0.326660   0.308948  -0.054757
    10  H   -0.005385   0.007560   0.326660   0.557069  -0.011009   0.004785
    11  H    0.008239  -0.005234   0.308948  -0.011009   0.567993   0.015107
    12  Cl  -0.000037   0.000045  -0.054757   0.004785   0.015107  17.028516
    13  C   -0.000348   0.004925  -0.044196   0.004184  -0.002263  -0.054806
    14  H   -0.000372   0.001541  -0.000166   0.000013  -0.000459   0.003774
    15  H   -0.000007  -0.000230   0.004007  -0.000227  -0.000338   0.001394
    16  H   -0.000087   0.000681   0.006826  -0.000309   0.001999   0.000935
    17  C    0.000068  -0.000002  -0.000335   0.001890   0.000121  -0.004053
    18  H   -0.000062  -0.000001   0.002475   0.001003  -0.000345   0.013102
    19  H    0.000016   0.000000  -0.000699   0.000108   0.000023   0.002829
    20  H   -0.000137   0.000000   0.001822  -0.000628  -0.000058   0.000119
    21  C    0.001072   0.000093   0.003658   0.000070  -0.000033  -0.000192
    22  H    0.000030  -0.000001  -0.000120   0.000014   0.000002   0.000005
    23  H    0.000778   0.000018   0.000027  -0.000001  -0.000006   0.000005
    24  H    0.002962  -0.000053   0.000880   0.000062  -0.000027  -0.000009
              13         14         15         16         17         18
     1  C   -0.070705  -0.022855  -0.006569   0.012291   0.409086  -0.017435
     2  C    0.005972   0.010885   0.000111   0.000228  -0.045780   0.006046
     3  O    0.008838  -0.000958   0.004576   0.000425   0.000216  -0.000176
     4  C    0.379031   0.013981  -0.011733  -0.033831  -0.041257  -0.019019
     5  C    0.000471   0.000896   0.000026  -0.002414  -0.000025  -0.000131
     6  H   -0.000229   0.000108   0.000011   0.000079  -0.000010   0.000024
     7  H   -0.000348  -0.000372  -0.000007  -0.000087   0.000068  -0.000062
     8  H    0.004925   0.001541  -0.000230   0.000681  -0.000002  -0.000001
     9  N   -0.044196  -0.000166   0.004007   0.006826  -0.000335   0.002475
    10  H    0.004184   0.000013  -0.000227  -0.000309   0.001890   0.001003
    11  H   -0.002263  -0.000459  -0.000338   0.001999   0.000121  -0.000345
    12  Cl  -0.054806   0.003774   0.001394   0.000935  -0.004053   0.013102
    13  C    4.522742   0.368554   0.394705   0.377328   0.005843   0.000246
    14  H    0.368554   0.613163  -0.013074  -0.023104  -0.000136  -0.000035
    15  H    0.394705  -0.013074   0.577112  -0.018798  -0.000022  -0.000022
    16  H    0.377328  -0.023104  -0.018798   0.656806  -0.000268   0.000018
    17  C    0.005843  -0.000136  -0.000022  -0.000268   4.459794   0.386421
    18  H    0.000246  -0.000035  -0.000022   0.000018   0.386421   0.662354
    19  H    0.000104  -0.000030   0.000055  -0.000025   0.398322  -0.028929
    20  H   -0.000259   0.000006  -0.000001   0.000019   0.377025  -0.017890
    21  C    0.003913  -0.001560   0.000471   0.000108  -0.000214  -0.000100
    22  H   -0.000035   0.000009  -0.000005  -0.000002   0.000144  -0.000023
    23  H   -0.000510   0.000364  -0.000021  -0.000018   0.000325   0.000006
    24  H   -0.000130   0.000102  -0.000040  -0.000013  -0.003482  -0.000008
              19         20         21         22         23         24
     1  C   -0.038328  -0.027947  -0.141383   0.006666   0.006637   0.005455
     2  C    0.004617  -0.011155   0.364641  -0.001841  -0.004149  -0.015127
     3  O    0.002446  -0.000504  -0.080179   0.001654   0.001448   0.003909
     4  C   -0.006418   0.007735  -0.015296   0.000198   0.000895   0.000140
     5  C    0.000023  -0.000119  -0.001761   0.000071  -0.000186  -0.000520
     6  H   -0.000002   0.000019   0.000067  -0.000004   0.000014   0.000032
     7  H    0.000016  -0.000137   0.001072   0.000030   0.000778   0.002962
     8  H    0.000000   0.000000   0.000093  -0.000001   0.000018  -0.000053
     9  N   -0.000699   0.001822   0.003658  -0.000120   0.000027   0.000880
    10  H    0.000108  -0.000628   0.000070   0.000014  -0.000001   0.000062
    11  H    0.000023  -0.000058  -0.000033   0.000002  -0.000006  -0.000027
    12  Cl   0.002829   0.000119  -0.000192   0.000005   0.000005  -0.000009
    13  C    0.000104  -0.000259   0.003913  -0.000035  -0.000510  -0.000130
    14  H   -0.000030   0.000006  -0.001560   0.000009   0.000364   0.000102
    15  H    0.000055  -0.000001   0.000471  -0.000005  -0.000021  -0.000040
    16  H   -0.000025   0.000019   0.000108  -0.000002  -0.000018  -0.000013
    17  C    0.398322   0.377025  -0.000214   0.000144   0.000325  -0.003482
    18  H   -0.028929  -0.017890  -0.000100  -0.000023   0.000006  -0.000008
    19  H    0.657071  -0.031344  -0.001213   0.000433  -0.000056  -0.000056
    20  H   -0.031344   0.681538   0.010206  -0.002281   0.000095   0.002296
    21  C   -0.001213   0.010206   4.766609   0.364527   0.373176   0.364428
    22  H    0.000433  -0.002281   0.364527   0.584895  -0.004334  -0.017676
    23  H   -0.000056   0.000095   0.373176  -0.004334   0.587436  -0.021573
    24  H   -0.000056   0.002296   0.364428  -0.017676  -0.021573   0.647168
 Mulliken charges:
               1
     1  C   -0.175445
     2  C    0.009212
     3  O   -0.294445
     4  C   -0.207138
     5  C    0.017027
     6  H    0.057177
     7  H    0.057619
     8  H    0.062882
     9  N   -0.185935
    10  H    0.145386
    11  H    0.145439
    12  Cl  -0.136276
    13  C    0.096624
    14  H    0.049351
    15  H    0.068620
    16  H    0.021125
    17  C    0.056329
    18  H    0.012479
    19  H    0.041053
    20  H    0.011441
    21  C   -0.011108
    22  H    0.067677
    23  H    0.059628
    24  H    0.031279
 Sum of Mulliken charges =  -0.00000
 Mulliken charges with hydrogens summed into heavy atoms:
               1
     1  C   -0.175445
     2  C    0.009212
     3  O   -0.294445
     4  C   -0.207138
     5  C    0.194704
     9  N    0.104889
    12  Cl  -0.136276
    13  C    0.235719
    17  C    0.121303
    21  C    0.147477
 Electronic spatial extent (au):  <R**2>=           1862.3241
 Charge=             -0.0000 electrons
 Dipole moment (field-independent basis, Debye):
    X=              2.3622    Y=              6.1357    Z=             -3.0011  Tot=              7.2273
 Quadrupole moment (field-independent basis, Debye-Ang):
   XX=            -72.0826   YY=            -64.3460   ZZ=            -69.2869
   XY=              1.2624   XZ=              5.0169   YZ=              0.9569
 Traceless Quadrupole moment (field-independent basis, Debye-Ang):
   XX=             -3.5108   YY=              4.2259   ZZ=             -0.7151
   XY=              1.2624   XZ=              5.0169   YZ=              0.9569
 Octapole moment (field-independent basis, Debye-Ang**2):
  XXX=             13.1063  YYY=             22.0886  ZZZ=             -1.7663  XYY=              9.9260
  XXY=             16.3675  XXZ=            -15.9898  XZZ=             13.8602  YZZ=              8.5185
  YYZ=             -4.0436  XYZ=             -8.8515
 Hexadecapole moment (field-independent basis, Debye-Ang**3):
 XXXX=          -1146.0162 YYYY=           -741.4884 ZZZZ=           -474.1926 XXXY=             -1.8283
 XXXZ=             20.0546 YYYX=             12.7028 YYYZ=            -12.9463 ZZZX=             -3.1622
 ZZZY=            -12.4878 XXYY=           -314.5185 XXZZ=           -287.4714 YYZZ=           -208.0811
 XXYZ=             12.7312 YYXZ=             -4.6917 ZZXY=             -5.1014
 N-N= 6.650385212876D+02 E-N=-3.364281417858D+03  KE= 8.595338141121D+02
   1 Symmetry operations used in ECPInt.
 ECPInt:  NShTT=    5460 NPrTT=   19488 LenC2=    5399 LenP2D=   15048.
 LDataN:  DoStor=T MaxTD1= 5 Len=  102
 D1PCM: PCM CHGder 1st derivatives, ID1Alg=3 FixD1E=F DoIter=F DoCFld=F I1PDM=0.
 Calling FoFJK, ICntrl=      2127 FMM=F ISym2X=0 I1Cent= 0 IOpClX= 0 NMat=1 NMatS=1 NMatT=0.
 ***** Axes restored to original set *****
 -------------------------------------------------------------------
 Center     Atomic                   Forces (Hartrees/Bohr)
 Number     Number              X              Y              Z
 -------------------------------------------------------------------
      1        6          -0.005742082   -0.010567440    0.010896555
      2        6           0.010576639   -0.023228519    0.018989809
      3        8          -0.002409686    0.017815886   -0.011563550
      4        6          -0.035918102   -0.036844461    0.029466750
      5        6          -0.004322841   -0.005808292    0.005283972
      6        1           0.000390945    0.005563798   -0.002153303
      7        1          -0.004212110   -0.000387841   -0.000296662
      8        1           0.000016585    0.000442156    0.003299286
      9        7           0.053969291    0.048893602   -0.024647872
     10        1          -0.003912257   -0.007154543    0.005026096
     11        1          -0.003591882    0.001594030   -0.002888453
     12       17          -0.000961493    0.009957913   -0.002904545
     13        6           0.007291753   -0.001636202   -0.011149117
     14        1          -0.003676031   -0.000502048   -0.001878143
     15        1          -0.001952978   -0.001724642   -0.000870984
     16        1           0.003088881    0.001433492   -0.000929903
     17        6           0.003994437    0.008193343   -0.000624362
     18        1           0.004696223   -0.001327713   -0.001470177
     19        1          -0.001341060   -0.006709234   -0.002618256
     20        1          -0.005789380   -0.000011315   -0.004413079
     21        6           0.000933879   -0.000604605   -0.003562678
     22        1          -0.007018262    0.000736001   -0.000369454
     23        1          -0.004800127    0.001089004    0.003351748
     24        1           0.000689657    0.000787632   -0.003973679
 -------------------------------------------------------------------
 Cartesian Forces:  Max     0.053969291 RMS     0.012951853

 GradGradGradGradGradGradGradGradGradGradGradGradGradGradGradGradGradGrad
 Berny optimization.
 FormGI is forming the generalized inverse of G from B-inverse, IUseBI=4.
 Internal  Forces:  Max     0.052145196 RMS     0.007731356
 Search for a saddle point.
 Step number   1 out of a maximum of   50
 All quantities printed in internal units (Hartrees-Bohrs-Radians)
 Swapping is turned off.
 Second derivative matrix not updated -- first step.
 ITU=  0
     Eigenvalues ---   -0.08294  -0.00246  -0.00065  -0.00028   0.00133
     Eigenvalues ---    0.00171   0.00367   0.00824   0.01294   0.01512
     Eigenvalues ---    0.04202   0.04420   0.05214   0.05418   0.05709
     Eigenvalues ---    0.05729   0.06364   0.06593   0.06682   0.06988
     Eigenvalues ---    0.07154   0.07320   0.08775   0.10632   0.11089
     Eigenvalues ---    0.11796   0.14191   0.14559   0.14743   0.14760
     Eigenvalues ---    0.15349   0.15512   0.16077   0.16691   0.17392
     Eigenvalues ---    0.17580   0.18288   0.20094   0.20568   0.20605
     Eigenvalues ---    0.21373   0.23658   0.25228   0.25400   0.28599
     Eigenvalues ---    0.31415   0.34323   0.34810   0.35037   0.35095
     Eigenvalues ---    0.35366   0.35502   0.35729   0.35753   0.36011
     Eigenvalues ---    0.36257   0.36328   0.36636   0.36755   0.37902
     Eigenvalues ---    0.39282   0.40253   0.42352   0.43510   0.58662
     Eigenvalues ---    0.82575
 Eigenvectors required to have negative eigenvalues:
                          R6        A19       A21       R2        D1
   1                   -0.76526  -0.31602   0.18816   0.15572   0.14325
                          D6        D2        D5        A20       D3
   1                   -0.13247   0.13094  -0.12474   0.11329   0.11232
 RFO step:  Lambda0=5.477125720D-03 Lambda=-3.95396633D-02.
 Linear search not attempted -- option 19 set.
 Maximum step size (   0.100) exceeded in Quadratic search.
    -- Step size scaled by   0.216
 Iteration  1 RMS(Cart)=  0.06060789 RMS(Int)=  0.00180707
 Iteration  2 RMS(Cart)=  0.00285612 RMS(Int)=  0.00009863
 Iteration  3 RMS(Cart)=  0.00000491 RMS(Int)=  0.00009859
 Iteration  4 RMS(Cart)=  0.00000000 RMS(Int)=  0.00009859
 Variable       Old X    -DE/DX   Delta X   Delta X   Delta X     New X
                                 (Linear)    (Quad)   (Total)
    R1        2.81560   0.00219   0.00000  -0.01000  -0.01000   2.80560
    R2        2.58395   0.00770   0.00000   0.00543   0.00543   2.58938
    R3        2.83024   0.00761   0.00000   0.00533   0.00533   2.83557
    R4        2.32382  -0.01664   0.00000  -0.00200  -0.00200   2.32182
    R5        2.84470   0.00962   0.00000   0.00708   0.00708   2.85178
    R6        3.54323   0.05215   0.00000   0.04456   0.04456   3.58779
    R7        3.42472  -0.00487   0.00000  -0.00460  -0.00460   3.42012
    R8        2.90432  -0.01499   0.00000  -0.00982  -0.00982   2.89451
    R9        2.06692   0.00490   0.00000   0.00270   0.00270   2.06962
   R10        2.06502   0.00411   0.00000   0.00308   0.00308   2.06810
   R11        2.06631   0.00327   0.00000   0.00142   0.00142   2.06773
   R12        2.77500   0.00315   0.00000  -0.00638  -0.00638   2.76863
   R13        1.94026  -0.00341   0.00000  -0.00174  -0.00174   1.93852
   R14        1.94604  -0.00402   0.00000  -0.00255  -0.00255   1.94349
   R15        2.06908   0.00211   0.00000  -0.00055  -0.00055   2.06852
   R16        2.07031   0.00104   0.00000   0.00016   0.00016   2.07046
   R17        2.07170   0.00305   0.00000   0.00122   0.00122   2.07291
   R18        2.06673   0.00474   0.00000   0.00241   0.00241   2.06914
   R19        2.06883   0.00617   0.00000   0.00305   0.00305   2.07188
   R20        2.06913   0.00682   0.00000   0.00188   0.00188   2.07101
   R21        2.06544   0.00530   0.00000   0.00315   0.00315   2.06859
   R22        2.06607   0.00428   0.00000   0.00188   0.00188   2.06795
   R23        2.06572   0.00373   0.00000   0.00249   0.00249   2.06821
    A1        2.05881   0.00400   0.00000   0.00214   0.00212   2.06093
    A2        2.00748   0.00241   0.00000   0.01269   0.01267   2.02014
    A3        2.21645  -0.00643   0.00000  -0.01517  -0.01519   2.20127
    A4        2.10545   0.01350   0.00000   0.01408   0.01405   2.11950
    A5        2.05519  -0.00003   0.00000  -0.00197  -0.00200   2.05319
    A6        2.12216  -0.01344   0.00000  -0.01174  -0.01177   2.11039
    A7        1.82512   0.02285   0.00000   0.00654   0.00655   1.83167
    A8        2.03143  -0.00188   0.00000   0.00176   0.00175   2.03318
    A9        2.12829  -0.00239   0.00000   0.00906   0.00904   2.13733
   A10        1.73583  -0.01236   0.00000  -0.01980  -0.01981   1.71602
   A11        1.72808  -0.01216   0.00000  -0.00472  -0.00477   1.72332
   A12        1.93225   0.00400   0.00000  -0.00074  -0.00086   1.93139
   A13        1.89846  -0.00147   0.00000  -0.00136  -0.00136   1.89710
   A14        1.89780  -0.00131   0.00000  -0.00080  -0.00080   1.89700
   A15        1.92465   0.00558   0.00000   0.00719   0.00719   1.93184
   A16        1.89637   0.00015   0.00000  -0.00085  -0.00085   1.89552
   A17        1.92329  -0.00150   0.00000  -0.00283  -0.00283   1.92047
   A18        1.92270  -0.00152   0.00000  -0.00144  -0.00145   1.92125
   A19        2.37870  -0.02134   0.00000  -0.06163  -0.06168   2.31703
   A20        1.81701  -0.00004   0.00000   0.01170   0.01130   1.82831
   A21        1.70149   0.00961   0.00000   0.02633   0.02664   1.72813
   A22        1.85410   0.01342   0.00000   0.01921   0.01869   1.87280
   A23        1.84858   0.00346   0.00000   0.01554   0.01593   1.86451
   A24        1.78344  -0.00179   0.00000   0.00364   0.00325   1.78670
   A25        1.95770  -0.00363   0.00000  -0.00082  -0.00082   1.95688
   A26        1.91983  -0.00170   0.00000  -0.00188  -0.00189   1.91794
   A27        1.93788  -0.00087   0.00000  -0.00249  -0.00249   1.93539
   A28        1.89738   0.00135   0.00000  -0.00289  -0.00290   1.89448
   A29        1.87215   0.00291   0.00000   0.00615   0.00615   1.87830
   A30        1.87628   0.00233   0.00000   0.00221   0.00220   1.87849
   A31        1.96752  -0.00114   0.00000   0.00136   0.00136   1.96888
   A32        1.92033   0.00485   0.00000   0.00326   0.00325   1.92358
   A33        1.94078   0.00158   0.00000   0.00166   0.00166   1.94243
   A34        1.89020  -0.00263   0.00000  -0.00411  -0.00411   1.88609
   A35        1.85656   0.00047   0.00000   0.00107   0.00107   1.85762
   A36        1.88533  -0.00354   0.00000  -0.00370  -0.00371   1.88162
   A37        1.90681   0.00370   0.00000   0.00531   0.00529   1.91210
   A38        1.90375  -0.00071   0.00000  -0.00648  -0.00648   1.89727
   A39        1.94308   0.00158   0.00000   0.00610   0.00609   1.94917
   A40        1.92230  -0.00451   0.00000  -0.00691  -0.00691   1.91539
   A41        1.89989  -0.00144   0.00000  -0.00124  -0.00127   1.89862
   A42        1.88803   0.00125   0.00000   0.00305   0.00306   1.89109
    D1       -1.22698   0.00578   0.00000   0.11112   0.11111  -1.11586
    D2        1.94404   0.00489   0.00000   0.09766   0.09753   2.04157
    D3        1.94433   0.00666   0.00000   0.12275   0.12288   2.06721
    D4       -1.16784   0.00577   0.00000   0.10930   0.10930  -1.05854
    D5       -1.59935  -0.00050   0.00000   0.00031   0.00026  -1.59910
    D6        2.78890   0.00121   0.00000   0.01930   0.01927   2.80817
    D7        0.33200   0.00011   0.00000   0.00390   0.00387   0.33587
    D8        1.50853  -0.00129   0.00000  -0.01231  -0.01229   1.49624
    D9       -0.38640   0.00041   0.00000   0.00668   0.00672  -0.37967
   D10       -2.84330  -0.00068   0.00000  -0.00872  -0.00868  -2.85197
   D11        2.83489   0.00021   0.00000  -0.03680  -0.03679   2.79810
   D12       -1.33643  -0.00049   0.00000  -0.03882  -0.03882  -1.37525
   D13        0.75168  -0.00073   0.00000  -0.04026  -0.04026   0.71142
   D14       -0.27385   0.00095   0.00000  -0.02434  -0.02434  -0.29819
   D15        1.83802   0.00026   0.00000  -0.02636  -0.02637   1.81165
   D16       -2.35706   0.00002   0.00000  -0.02780  -0.02780  -2.38486
   D17        1.94997   0.00271   0.00000  -0.02481  -0.02484   1.92513
   D18       -2.23109  -0.00098   0.00000  -0.03397  -0.03401  -2.26510
   D19       -0.14891   0.00108   0.00000  -0.03060  -0.03066  -0.17957
   D20       -1.16190   0.00132   0.00000  -0.03887  -0.03881  -1.20071
   D21        0.94023  -0.00237   0.00000  -0.04803  -0.04798   0.89224
   D22        3.02241  -0.00031   0.00000  -0.04466  -0.04463   2.97777
   D23        1.43741  -0.00049   0.00000  -0.02409  -0.02391   1.41349
   D24       -0.88115   0.00137   0.00000  -0.00014  -0.00017  -0.88131
   D25       -2.70722   0.00043   0.00000  -0.01407  -0.01422  -2.72144
   D26       -2.74106   0.00044   0.00000  -0.02783  -0.02769  -2.76875
   D27        1.22357   0.00231   0.00000  -0.00388  -0.00394   1.21963
   D28       -0.60250   0.00137   0.00000  -0.01780  -0.01799  -0.62049
   D29       -0.77029  -0.00140   0.00000  -0.03457  -0.03436  -0.80464
   D30       -3.08884   0.00046   0.00000  -0.01062  -0.01061  -3.09945
   D31        1.36827  -0.00047   0.00000  -0.02454  -0.02466   1.34361
   D32       -0.87411  -0.00550   0.00000   0.00835   0.00836  -0.86575
   D33        1.23994  -0.00741   0.00000   0.00282   0.00283   1.24277
   D34       -2.96856  -0.00615   0.00000   0.00279   0.00280  -2.96576
   D35        1.10719   0.01311   0.00000   0.01709   0.01708   1.12427
   D36       -3.06195   0.01121   0.00000   0.01155   0.01155  -3.05040
   D37       -0.98726   0.01246   0.00000   0.01152   0.01152  -0.97574
   D38        2.91807  -0.00466   0.00000  -0.00689  -0.00689   2.91118
   D39       -1.25107  -0.00657   0.00000  -0.01242  -0.01242  -1.26349
   D40        0.82362  -0.00531   0.00000  -0.01245  -0.01245   0.81117
   D41        3.04041   0.00285   0.00000   0.01462   0.01462   3.05502
   D42       -0.93519  -0.00338   0.00000  -0.01278  -0.01284  -0.94803
   D43        0.95247   0.00132   0.00000   0.00509   0.00516   0.95763
   D44       -1.14670   0.00363   0.00000   0.01572   0.01571  -1.13100
   D45        1.16088  -0.00259   0.00000  -0.01169  -0.01175   1.14913
   D46        3.04855   0.00210   0.00000   0.00619   0.00625   3.05480
   D47        0.94553   0.00190   0.00000   0.01196   0.01195   0.95748
   D48       -3.03006  -0.00433   0.00000  -0.01545  -0.01551  -3.04557
   D49       -1.14240   0.00037   0.00000   0.00243   0.00250  -1.13991
         Item               Value     Threshold  Converged?
 Maximum Force            0.052145     0.000450     NO 
 RMS     Force            0.007731     0.000300     NO 
 Maximum Displacement     0.302023     0.001800     NO 
 RMS     Displacement     0.060297     0.001200     NO 
 Predicted change in Energy=-8.901267D-03
 GradGradGradGradGradGradGradGradGradGradGradGradGradGradGradGradGradGrad

                          Input orientation:                          
 ---------------------------------------------------------------------
 Center     Atomic      Atomic             Coordinates (Angstroms)
 Number     Number       Type             X           Y           Z
 ---------------------------------------------------------------------
      1          6           0       -0.485904   -0.686084   -0.303663
      2          6           0       -1.806722   -0.333648    0.275515
      3          8           0       -2.144885   -0.729986    1.388241
      4          6           0        0.639290   -0.228289    0.330309
      5          6           0        0.491925    2.784885   -0.323032
      6          1           0        1.042405    3.504153   -0.938727
      7          1           0       -0.563243    2.810722   -0.612246
      8          1           0        0.573917    3.085983    0.725722
      9          7           0        1.028391    1.433305   -0.501733
     10          1           0        1.016890    1.230961   -1.507332
     11          1           0        2.035332    1.483365   -0.298572
     12         17           0        2.187347   -1.083028   -0.055052
     13          6           0        0.628484    0.238790    1.789023
     14          1           0       -0.179027    0.950500    1.987967
     15          1           0        0.506029   -0.622354    2.455256
     16          1           0        1.574635    0.728729    2.049858
     17          6           0       -0.523214   -1.476724   -1.578438
     18          1           0        0.414826   -1.420461   -2.140409
     19          1           0       -0.728135   -2.532175   -1.363726
     20          1           0       -1.309163   -1.112515   -2.249778
     21          6           0       -2.733771    0.514574   -0.560228
     22          1           0       -3.586155   -0.088668   -0.888565
     23          1           0       -3.086678    1.352834    0.048295
     24          1           0       -2.227195    0.918370   -1.442355
 ---------------------------------------------------------------------
                    Distance matrix (angstroms):
                    1          2          3          4          5
     1  C    0.000000
     2  C    1.484661   0.000000
     3  O    2.369954   1.228656   0.000000
     4  C    1.370240   2.448894   3.020356   0.000000
     5  C    3.606127   3.920113   4.715458   3.086712   0.000000
     6  H    4.505232   4.931595   5.788051   3.962837   1.095197
     7  H    3.511247   3.495915   4.363502   3.401482   1.094391
     8  H    4.051091   4.190943   4.732064   3.338416   1.094197
     9  N    2.612303   3.429884   4.280363   1.898575   1.465094
    10  H    2.717033   3.687727   4.714496   2.376745   2.023076
    11  H    3.326133   4.288647   5.021799   2.296559   2.019073
    12  Cl   2.713972   4.077185   4.579953   1.809852   4.231669
    13  C    2.544914   2.923803   2.964917   1.531706   3.310894
    14  H    2.832692   2.689037   2.654864   2.192490   3.025866
    15  H    2.932512   3.191150   2.859624   2.165281   4.396403
    16  H    3.433158   3.963649   4.049742   2.178899   3.321242
    17  C    1.500519   2.528074   3.462458   2.559946   4.557177
    18  H    2.173537   3.457330   4.413643   2.752473   4.581893
    19  H    2.142536   2.946860   3.581673   3.169779   5.553622
    20  H    2.155682   2.689109   3.752325   3.351892   4.705953
    21  C    2.561311   1.509095   2.385844   3.566854   3.951669
    22  H    3.211008   2.140439   2.769908   4.399947   5.020745
    23  H    3.323415   2.129351   2.649636   4.057379   3.872345
    24  H    2.627353   2.166892   3.276602   3.560043   3.482869
                    6          7          8          9         10
     6  H    0.000000
     7  H    1.779197   0.000000
     8  H    1.778972   1.777375   0.000000
     9  N    2.116501   2.107793   2.108207   0.000000
    10  H    2.343366   2.406999   2.936642   1.025820   0.000000
    11  H    2.340788   2.934767   2.398603   1.028450   1.600635
    12  Cl   4.809783   4.799740   4.537997   2.806178   2.972143
    13  C    4.274874   3.714988   3.039752   2.614259   3.464277
    14  H    4.071681   3.220117   2.592388   2.808836   3.704860
    15  H    5.369812   4.726407   4.092390   3.639007   4.404300
    16  H    4.113137   3.999002   2.882953   2.702855   3.635508
    17  C    5.260184   4.395147   5.227920   3.469156   3.115852
    18  H    5.107810   4.603782   5.343038   3.347492   2.791649
    19  H    6.304974   5.398005   6.133908   4.421928   4.150533
    20  H    5.344376   4.316213   5.479688   3.873115   3.384321
    21  C    4.831185   3.160094   4.382535   3.873158   3.934167
    22  H    5.859561   4.197715   5.476361   4.874431   4.828283
    23  H    4.759381   2.988223   4.106418   4.152445   4.390227
    24  H    4.198833   2.653076   4.152750   3.427648   3.259758
                   11         12         13         14         15
    11  H    0.000000
    12  Cl   2.582399   0.000000
    13  C    2.808244   2.752793   0.000000
    14  H    3.227319   3.729462   1.094615   0.000000
    15  H    3.788982   3.056255   1.095642   1.778069   0.000000
    16  H    2.509351   2.844034   1.096939   1.768712   1.769658
    17  C    4.116594   3.134142   3.950847   4.327715   4.249703
    18  H    3.801396   2.757610   4.270738   4.797666   4.665344
    19  H    4.989575   3.508945   4.411178   4.864605   4.444682
    20  H    4.661700   4.128351   4.678933   4.846826   5.066806
    21  C    4.873537   5.198552   4.110937   3.634563   4.569689
    22  H    5.866898   5.917502   5.003987   4.578518   5.311490
    23  H    5.135400   5.810288   4.251312   3.518328   4.754195
    24  H    4.449336   5.041665   4.365608   3.995389   5.003570
                   16         17         18         19         20
    16  H    0.000000
    17  C    4.735982   0.000000
    18  H    4.850002   1.094941   0.000000
    19  H    5.252504   1.096389   1.773557   0.000000
    20  H    5.494847   1.095930   1.754688   1.771473   0.000000
    21  C    5.041902   3.144611   4.019327   3.735085   2.744359
    22  H    5.994683   3.432816   4.398708   3.790089   2.843564
    23  H    5.111125   4.150181   4.974145   4.759182   3.810334
    24  H    5.165794   2.942540   3.596899   3.762927   2.370487
                   21         22         23         24
    21  C    0.000000
    22  H    1.094653   0.000000
    23  H    1.094314   1.790283   0.000000
    24  H    1.094448   1.779770   1.774685   0.000000
 Stoichiometry    C7H14ClNO
 Framework group  C1[X(C7H14ClNO)]
 Deg. of freedom    66
 Full point group                 C1      NOp   1
 Largest Abelian subgroup         C1      NOp   1
 Largest concise Abelian subgroup C1      NOp   1
                         Standard orientation:                         
 ---------------------------------------------------------------------
 Center     Atomic      Atomic             Coordinates (Angstroms)
 Number     Number       Type             X           Y           Z
 ---------------------------------------------------------------------
      1          6           0       -0.472535   -0.716608   -0.280430
      2          6           0       -1.797807   -0.371494    0.292954
      3          8           0       -2.123111   -0.736545    1.420124
      4          6           0        0.645758   -0.214851    0.332121
      5          6           0        0.434213    2.770776   -0.422248
      6          1           0        0.967303    3.479695   -1.064670
      7          1           0       -0.622475    2.765407   -0.706982
      8          1           0        0.514479    3.108943    0.615281
      9          7           0        0.997372    1.425036   -0.557668
     10          1           0        0.985749    1.188439   -1.555762
     11          1           0        2.003931    1.502342   -0.361273
     12         17           0        2.209282   -1.050689   -0.031652
     13          6           0        0.631593    0.301225    1.774199
     14          1           0       -0.189417    1.002796    1.952872
     15          1           0        0.529542   -0.539079    2.469833
     16          1           0        1.568649    0.818794    2.013623
     17          6           0       -0.499101   -1.550713   -1.527474
     18          1           0        0.435213   -1.494610   -2.095635
     19          1           0       -0.681545   -2.602187   -1.276105
     20          1           0       -1.295144   -1.225514   -2.206902
     21          6           0       -2.745485    0.428896   -0.566493
     22          1           0       -3.586770   -0.202286   -0.869999
     23          1           0       -3.112839    1.280041    0.014994
     24          1           0       -2.250982    0.812645   -1.464279
 ---------------------------------------------------------------------
 Rotational constants (GHZ):           1.2653589           0.8605233           0.7225088
 Standard basis: def2SVP (5D, 7F)
 There are   224 symmetry adapted cartesian basis functions of A   symmetry.
 There are   214 symmetry adapted basis functions of A   symmetry.
   214 basis functions,   360 primitive gaussians,   224 cartesian basis functions
    44 alpha electrons       44 beta electrons
       nuclear repulsion energy       665.0945498781 Hartrees.
 NAtoms=   24 NActive=   24 NUniq=   24 SFac= 1.00D+00 NAtFMM=   60 NAOKFM=F Big=F
 Integral buffers will be    131072 words long.
 Raffenetti 2 integral format.
 Two-electron integral symmetry is turned on.
 Nuclear repulsion after empirical dispersion term =      665.0769498483 Hartrees.
 ------------------------------------------------------------------------------
 Polarizable Continuum Model (PCM)
 =================================
 Model                : PCM.
 Atomic radii         : UFF (Universal Force Field).
 Polarization charges : Total charges.
 Charge compensation  : None.
 Solution method      : On-the-fly selection.
 Cavity type          : Scaled VdW (van der Waals Surface) (Alpha=1.100).
 Cavity algorithm     : GePol (No added spheres)
                        Default sphere list used, NSphG=   24.
                        Lebedev-Laikov grids with approx.  5.0 points / Ang**2.
                        Smoothing algorithm: York/Karplus (Gamma=1.0000).
                        Polarization charges: spherical gaussians, with
                                              point-specific exponents (IZeta= 3).
                        Self-potential: point-specific (ISelfS= 7).
                        Self-field    : sphere-specific E.n sum rule (ISelfD= 2).
 1st derivatives      : Analytical E(r).r(x)/FMM algorithm (CHGder, D1EAlg=3).
                        Cavity 1st derivative terms included.
 Solvent              : Toluene, Eps=   2.374100 Eps(inf)=   2.238315
 ------------------------------------------------------------------------------
 One-electron integrals computed using PRISM.
   1 Symmetry operations used in ECPInt.
 ECPInt:  NShTT=    5460 NPrTT=   19488 LenC2=    5398 LenP2D=   15035.
 LDataN:  DoStor=T MaxTD1= 4 Len=   56
 NBasis=   214 RedAO= T EigKep=  1.03D-03  NBF=   214
 NBsUse=   214 1.00D-06 EigRej= -1.00D+00 NBFU=   214
 Initial guess from the checkpoint file:  "TS-898_hf.chk"
 B after Tr=     0.000000   -0.000000    0.000000
         Rot=    0.999778    0.019909   -0.004430   -0.005254 Ang=   2.41 deg.
 ExpMin= 1.22D-01 ExpMax= 1.04D+04 ExpMxC= 1.57D+03 IAcc=3 IRadAn=         5 AccDes= 0.00D+00
 Harris functional with IExCor= 4639 and IRadAn=       5 diagonalized for initial guess.
 HarFok:  IExCor= 4639 AccDes= 0.00D+00 IRadAn=         5 IDoV= 1 UseB2=F ITyADJ=14
 ICtDFT=  3500011 ScaDFX=  1.000000  1.000000  1.000000  1.000000
 FoFCou: FMM=F IPFlag=           0 FMFlag=      100000 FMFlg1=           0
         NFxFlg=           0 DoJE=T BraDBF=F KetDBF=T FulRan=T
         wScrn=  0.000000 ICntrl=       500 IOpCl=  0 I1Cent=   200000004 NGrid=           0
         NMat0=    1 NMatS0=      1 NMatT0=    0 NMatD0=    1 NMtDS0=    0 NMtDT0=    0
 Petite list used in FoFCou.
 Requested convergence on RMS density matrix=1.00D-08 within 128 cycles.
 Requested convergence on MAX density matrix=1.00D-06.
 Requested convergence on             energy=1.00D-06.
 No special actions if energy rises.
 Inv3:  Mode=1 IEnd=     9145548.
 Iteration    1 A*A^-1 deviation from unit magnitude is 3.55D-15 for    626.
 Iteration    1 A*A^-1 deviation from orthogonality  is 2.03D-15 for   1360    684.
 Iteration    1 A^-1*A deviation from unit magnitude is 3.55D-15 for    626.
 Iteration    1 A^-1*A deviation from orthogonality  is 1.55D-15 for   1445    313.
 Error on total polarization charges =  0.00634
 SCF Done:  E(RwB97XD) =  -864.702362649     A.U. after   14 cycles
            NFock= 14  Conv=0.81D-08     -V/T= 2.0061
   1 Symmetry operations used in ECPInt.
 ECPInt:  NShTT=    5460 NPrTT=   19488 LenC2=    5398 LenP2D=   15035.
 LDataN:  DoStor=T MaxTD1= 5 Len=  102
 D1PCM: PCM CHGder 1st derivatives, ID1Alg=3 FixD1E=F DoIter=F DoCFld=F I1PDM=0.
 Calling FoFJK, ICntrl=      2127 FMM=F ISym2X=0 I1Cent= 0 IOpClX= 0 NMat=1 NMatS=1 NMatT=0.
 ***** Axes restored to original set *****
 -------------------------------------------------------------------
 Center     Atomic                   Forces (Hartrees/Bohr)
 Number     Number              X              Y              Z
 -------------------------------------------------------------------
      1        6          -0.005463875   -0.008804109    0.008914157
      2        6           0.009384369   -0.017566117    0.016117493
      3        8          -0.002021209    0.014473042   -0.009289581
      4        6          -0.032092501   -0.032041195    0.025984524
      5        6          -0.004484583   -0.005671268    0.003765909
      6        1          -0.000020102    0.004603158   -0.001656715
      7        1          -0.003391366   -0.000563991   -0.000016178
      8        1           0.000073671    0.000241241    0.002791631
      9        7           0.049095701    0.041760396   -0.021239370
     10        1          -0.004161569   -0.006253536    0.004195118
     11        1          -0.003050284    0.001500207   -0.001876265
     12       17          -0.000663884    0.008366766   -0.002600929
     13        6           0.006805307   -0.001260693   -0.009696863
     14        1          -0.003413736   -0.000502222   -0.001438984
     15        1          -0.001770602   -0.001422770   -0.000683985
     16        1           0.002524855    0.001122807   -0.000935155
     17        6           0.003616321    0.008067915   -0.001203187
     18        1           0.003855032   -0.001103410   -0.001184093
     19        1          -0.000892745   -0.005373584   -0.002227519
     20        1          -0.004857593   -0.000274169   -0.003480786
     21        6           0.000663361   -0.001111594   -0.003582036
     22        1          -0.005803560    0.000584308   -0.000231036
     23        1          -0.004192716    0.000744024    0.002791396
     24        1           0.000261708    0.000484795   -0.003217545
 -------------------------------------------------------------------
 Cartesian Forces:  Max     0.049095701 RMS     0.011291209

 GradGradGradGradGradGradGradGradGradGradGradGradGradGradGradGradGradGrad
 Berny optimization.
 FormGI is forming the generalized inverse of G from B-inverse, IUseBI=4.
 Internal  Forces:  Max     0.044303641 RMS     0.006576978
 Search for a saddle point.
 Step number   2 out of a maximum of   50
 All quantities printed in internal units (Hartrees-Bohrs-Radians)
 Swapping is turned off.
 Update second derivatives using D2CorX and points    1    2
 ITU=  0  0
     Eigenvalues ---   -0.08301  -0.00140  -0.00054  -0.00020   0.00169
     Eigenvalues ---    0.00178   0.00367   0.00817   0.01315   0.01517
     Eigenvalues ---    0.04153   0.04417   0.05212   0.05417   0.05709
     Eigenvalues ---    0.05729   0.06354   0.06591   0.06681   0.06982
     Eigenvalues ---    0.07154   0.07322   0.08712   0.10614   0.11076
     Eigenvalues ---    0.11759   0.14191   0.14561   0.14743   0.14759
     Eigenvalues ---    0.15348   0.15506   0.16077   0.16678   0.17390
     Eigenvalues ---    0.17577   0.18286   0.20094   0.20567   0.20600
     Eigenvalues ---    0.21374   0.23652   0.25191   0.25378   0.28586
     Eigenvalues ---    0.31390   0.34323   0.34809   0.35037   0.35095
     Eigenvalues ---    0.35366   0.35501   0.35729   0.35752   0.36009
     Eigenvalues ---    0.36257   0.36327   0.36637   0.36749   0.37892
     Eigenvalues ---    0.39280   0.40252   0.42352   0.43510   0.58654
     Eigenvalues ---    0.82574
 Eigenvectors required to have negative eigenvalues:
                          R6        A19       A21       R2        D1
   1                   -0.76300  -0.31949   0.19087   0.15593   0.14326
                          D6        D2        D5        D3        A11
   1                   -0.13309   0.13081  -0.12456   0.11179   0.11123
 RFO step:  Lambda0=3.432027285D-03 Lambda=-3.46964607D-02.
 Linear search not attempted -- option 19 set.
 Maximum step size (   0.100) exceeded in Quadratic search.
    -- Step size scaled by   0.219
 Iteration  1 RMS(Cart)=  0.05279647 RMS(Int)=  0.00127791
 Iteration  2 RMS(Cart)=  0.00222483 RMS(Int)=  0.00010647
 Iteration  3 RMS(Cart)=  0.00000306 RMS(Int)=  0.00010646
 Iteration  4 RMS(Cart)=  0.00000000 RMS(Int)=  0.00010646
 Variable       Old X    -DE/DX   Delta X   Delta X   Delta X     New X
                                 (Linear)    (Quad)   (Total)
    R1        2.80560   0.00195   0.00000  -0.00718  -0.00718   2.79842
    R2        2.58938   0.00620   0.00000   0.00391   0.00391   2.59329
    R3        2.83557   0.00615   0.00000   0.00441   0.00441   2.83998
    R4        2.32182  -0.01253   0.00000  -0.00091  -0.00091   2.32091
    R5        2.85178   0.00831   0.00000   0.00694   0.00694   2.85871
    R6        3.58779   0.04430   0.00000   0.04524   0.04524   3.63303
    R7        3.42012  -0.00396   0.00000  -0.00347  -0.00347   3.41665
    R8        2.89451  -0.01281   0.00000  -0.01045  -0.01045   2.88406
    R9        2.06962   0.00394   0.00000   0.00227   0.00227   2.07189
   R10        2.06810   0.00326   0.00000   0.00238   0.00238   2.07048
   R11        2.06773   0.00275   0.00000   0.00147   0.00147   2.06921
   R12        2.76863   0.00219   0.00000  -0.00683  -0.00683   2.76180
   R13        1.93852  -0.00283   0.00000  -0.00186  -0.00186   1.93666
   R14        1.94349  -0.00329   0.00000  -0.00242  -0.00242   1.94107
   R15        2.06852   0.00193   0.00000   0.00037   0.00037   2.06889
   R16        2.07046   0.00090   0.00000   0.00037   0.00037   2.07083
   R17        2.07291   0.00246   0.00000   0.00093   0.00093   2.07384
   R18        2.06914   0.00386   0.00000   0.00166   0.00166   2.07080
   R19        2.07188   0.00490   0.00000   0.00242   0.00242   2.07430
   R20        2.07101   0.00552   0.00000   0.00200   0.00200   2.07301
   R21        2.06859   0.00427   0.00000   0.00290   0.00290   2.07149
   R22        2.06795   0.00347   0.00000   0.00126   0.00126   2.06921
   R23        2.06821   0.00289   0.00000   0.00175   0.00175   2.06996
    A1        2.06093   0.00352   0.00000   0.00321   0.00321   2.06413
    A2        2.02014   0.00241   0.00000   0.01054   0.01053   2.03068
    A3        2.20127  -0.00595   0.00000  -0.01400  -0.01400   2.18726
    A4        2.11950   0.01085   0.00000   0.01085   0.01085   2.13034
    A5        2.05319   0.00044   0.00000   0.00022   0.00021   2.05340
    A6        2.11039  -0.01128   0.00000  -0.01099  -0.01099   2.09940
    A7        1.83167   0.01889   0.00000   0.00762   0.00762   1.83929
    A8        2.03318  -0.00139   0.00000   0.00175   0.00177   2.03495
    A9        2.13733  -0.00171   0.00000   0.00736   0.00735   2.14468
   A10        1.71602  -0.01046   0.00000  -0.01741  -0.01743   1.69859
   A11        1.72332  -0.01022   0.00000  -0.00462  -0.00467   1.71865
   A12        1.93139   0.00306   0.00000  -0.00154  -0.00164   1.92974
   A13        1.89710  -0.00117   0.00000  -0.00103  -0.00103   1.89608
   A14        1.89700  -0.00105   0.00000  -0.00060  -0.00060   1.89640
   A15        1.93184   0.00476   0.00000   0.00717   0.00717   1.93901
   A16        1.89552   0.00015   0.00000  -0.00082  -0.00083   1.89469
   A17        1.92047  -0.00140   0.00000  -0.00295  -0.00296   1.91751
   A18        1.92125  -0.00136   0.00000  -0.00187  -0.00188   1.91937
   A19        2.31703  -0.01936   0.00000  -0.06425  -0.06433   2.25270
   A20        1.82831   0.00015   0.00000   0.01051   0.01005   1.83836
   A21        1.72813   0.00887   0.00000   0.02793   0.02825   1.75638
   A22        1.87280   0.01128   0.00000   0.01869   0.01808   1.89087
   A23        1.86451   0.00348   0.00000   0.01629   0.01668   1.88119
   A24        1.78670  -0.00144   0.00000   0.00593   0.00552   1.79221
   A25        1.95688  -0.00307   0.00000  -0.00129  -0.00129   1.95558
   A26        1.91794  -0.00145   0.00000  -0.00201  -0.00201   1.91593
   A27        1.93539  -0.00078   0.00000  -0.00176  -0.00176   1.93363
   A28        1.89448   0.00102   0.00000  -0.00322  -0.00323   1.89126
   A29        1.87830   0.00256   0.00000   0.00583   0.00583   1.88413
   A30        1.87849   0.00203   0.00000   0.00270   0.00270   1.88119
   A31        1.96888  -0.00095   0.00000  -0.00013  -0.00013   1.96875
   A32        1.92358   0.00394   0.00000   0.00229   0.00229   1.92587
   A33        1.94243   0.00142   0.00000   0.00318   0.00317   1.94561
   A34        1.88609  -0.00223   0.00000  -0.00381  -0.00381   1.88229
   A35        1.85762   0.00046   0.00000   0.00158   0.00158   1.85920
   A36        1.88162  -0.00299   0.00000  -0.00352  -0.00352   1.87810
   A37        1.91210   0.00307   0.00000   0.00190   0.00189   1.91398
   A38        1.89727  -0.00068   0.00000  -0.00282  -0.00282   1.89445
   A39        1.94917   0.00166   0.00000   0.00644   0.00643   1.95560
   A40        1.91539  -0.00391   0.00000  -0.00695  -0.00695   1.90843
   A41        1.89862  -0.00132   0.00000  -0.00371  -0.00372   1.89490
   A42        1.89109   0.00103   0.00000   0.00494   0.00493   1.89602
    D1       -1.11586   0.00610   0.00000   0.08949   0.08948  -1.02638
    D2        2.04157   0.00515   0.00000   0.08382   0.08377   2.12534
    D3        2.06721   0.00694   0.00000   0.09589   0.09595   2.16316
    D4       -1.05854   0.00598   0.00000   0.09023   0.09024  -0.96831
    D5       -1.59910  -0.00066   0.00000  -0.00277  -0.00280  -1.60190
    D6        2.80817   0.00103   0.00000   0.01273   0.01272   2.82089
    D7        0.33587  -0.00004   0.00000   0.00108   0.00108   0.33695
    D8        1.49624  -0.00134   0.00000  -0.00921  -0.00921   1.48703
[...]
    19  H    5.436754   1.102050   1.756263   0.000000
    20  H    5.330368   1.106161   1.775872   1.767348   0.000000
    21  C    5.566813   2.864584   3.949736   2.733073   2.948257
    22  H    5.991490   2.852504   3.859810   2.307997   3.138646
    23  H    6.094604   3.950849   5.031671   3.803972   3.984358
    24  H    6.029465   2.753908   3.836539   2.743086   2.420407
                   21         22         23         24
    21  C    0.000000
    22  H    1.101265   0.000000
    23  H    1.097092   1.790907   0.000000
    24  H    1.101085   1.769774   1.792755   0.000000
 Stoichiometry    C7H14ClNO
 Framework group  C1[X(C7H14ClNO)]
 Deg. of freedom    66
 Full point group                 C1      NOp   1
 Largest Abelian subgroup         C1      NOp   1
 Largest concise Abelian subgroup C1      NOp   1
                         Standard orientation:                         
 ---------------------------------------------------------------------
 Center     Atomic      Atomic             Coordinates (Angstroms)
 Number     Number       Type             X           Y           Z
 ---------------------------------------------------------------------
      1          6           0       -0.589043   -0.475312   -0.152441
      2          6           0       -1.831657    0.042107    0.367248
      3          8           0       -1.958452    0.881046    1.266832
      4          6           0        0.650941   -0.022985    0.353108
      5          6           0        0.683904    2.142636   -1.283047
      6          1           0        1.013146    2.550533   -2.247646
      7          1           0       -0.366402    1.821989   -1.352394
      8          1           0        0.770250    2.914968   -0.510152
      9          7           0        1.474733    0.976018   -0.899937
     10          1           0        1.585458    0.327604   -1.681512
     11          1           0        2.415068    1.217819   -0.580666
     12         17           0        1.998774   -1.302948    0.429491
     13          6           0        0.763401    0.838462    1.584174
     14          1           0        0.127940    1.725380    1.491543
     15          1           0        0.382900    0.275824    2.446369
     16          1           0        1.811381    1.110845    1.772628
     17          6           0       -0.610658   -1.439084   -1.321303
     18          1           0        0.393558   -1.834038   -1.530229
     19          1           0       -1.247002   -2.318884   -1.132805
     20          1           0       -0.983943   -0.979782   -2.255804
     21          6           0       -3.107626   -0.515177   -0.264239
     22          1           0       -3.187852   -1.602581   -0.109642
     23          1           0       -3.968082   -0.021410    0.204185
     24          1           0       -3.136659   -0.342532   -1.351318
 ---------------------------------------------------------------------
 Rotational constants (GHZ):           1.3850428           0.8171180           0.7405958

 **********************************************************************

            Population analysis using the SCF Density.

 **********************************************************************

 Orbital symmetries:
       Occupied  (A) (A) (A) (A) (A) (A) (A) (A) (A) (A) (A) (A)
                 (A) (A) (A) (A) (A) (A) (A) (A) (A) (A) (A) (A)
                 (A) (A) (A) (A) (A) (A) (A) (A) (A) (A) (A) (A)
                 (A) (A) (A) (A) (A) (A) (A) (A)
       Virtual   (A) (A) (A) (A) (A) (A) (A) (A) (A) (A) (A) (A)
                 (A) (A) (A) (A) (A) (A) (A) (A) (A) (A) (A) (A)
                 (A) (A) (A) (A) (A) (A) (A) (A) (A) (A) (A) (A)
                 (A) (A) (A) (A) (A) (A) (A) (A) (A) (A) (A) (A)
                 (A) (A) (A) (A) (A) (A) (A) (A) (A) (A) (A) (A)
                 (A) (A) (A) (A) (A) (A) (A) (A) (A) (A) (A) (A)
                 (A) (A) (A) (A) (A) (A) (A) (A) (A) (A) (A) (A)
                 (A) (A) (A) (A) (A) (A) (A) (A) (A) (A) (A) (A)
                 (A) (A) (A) (A) (A) (A) (A) (A) (A) (A) (A) (A)
                 (A) (A) (A) (A) (A) (A) (A) (A) (A) (A) (A) (A)
                 (A) (A) (A) (A) (A) (A) (A) (A) (A) (A) (A) (A)
                 (A) (A) (A) (A) (A) (A) (A) (A) (A) (A) (A) (A)
                 (A) (A) (A) (A) (A) (A) (A) (A) (A) (A) (A) (A)
                 (A) (A) (A) (A) (A) (A) (A) (A) (A) (A) (A) (A)
                 (A) (A)
 The electronic state is 1-A.
 Alpha  occ. eigenvalues -- -101.66007 -19.18330 -14.53295 -10.40654 -10.35277
 Alpha  occ. eigenvalues --  -10.34213 -10.29622 -10.28403 -10.27307 -10.25549
 Alpha  occ. eigenvalues --   -9.56777  -7.32096  -7.31231  -7.31200  -1.07209
 Alpha  occ. eigenvalues --   -1.06384  -0.94769  -0.86176  -0.83060  -0.80246
 Alpha  occ. eigenvalues --   -0.78770  -0.73327  -0.67036  -0.65296  -0.60127
 Alpha  occ. eigenvalues --   -0.58360  -0.56003  -0.53705  -0.51968  -0.50907
 Alpha  occ. eigenvalues --   -0.49767  -0.49438  -0.47963  -0.46957  -0.46330
 Alpha  occ. eigenvalues --   -0.44968  -0.44101  -0.44047  -0.42679  -0.40558
 Alpha  occ. eigenvalues --   -0.38425  -0.37841  -0.28808  -0.25256
 Alpha virt. eigenvalues --    0.08287   0.08752   0.11082   0.14210   0.15418
 Alpha virt. eigenvalues --    0.16556   0.17186   0.19226   0.19765   0.20876
 Alpha virt. eigenvalues --    0.21499   0.22706   0.22946   0.24416   0.24953
 Alpha virt. eigenvalues --    0.25225   0.26993   0.28822   0.31106   0.31893
 Alpha virt. eigenvalues --    0.35491   0.37953   0.40831   0.46043   0.46440
 Alpha virt. eigenvalues --    0.48990   0.50539   0.50948   0.53232   0.53787
 Alpha virt. eigenvalues --    0.56648   0.57281   0.59137   0.60967   0.61519
 Alpha virt. eigenvalues --    0.63595   0.66737   0.68618   0.69394   0.71012
 Alpha virt. eigenvalues --    0.72545   0.72765   0.73262   0.73588   0.73874
 Alpha virt. eigenvalues --    0.74640   0.74983   0.75400   0.75878   0.77185
 Alpha virt. eigenvalues --    0.77317   0.77999   0.78748   0.79441   0.80099
 Alpha virt. eigenvalues --    0.81318   0.81626   0.83760   0.84152   0.85307
 Alpha virt. eigenvalues --    0.85595   0.86894   0.89580   0.91548   0.93143
 Alpha virt. eigenvalues --    0.93921   0.95032   0.96688   1.01588   1.03740
 Alpha virt. eigenvalues --    1.04860   1.08380   1.10879   1.13211   1.16704
 Alpha virt. eigenvalues --    1.18845   1.20400   1.25531   1.26006   1.27011
 Alpha virt. eigenvalues --    1.32464   1.35626   1.38185   1.41422   1.42611
 Alpha virt. eigenvalues --    1.43106   1.46311   1.46607   1.54664   1.56765
 Alpha virt. eigenvalues --    1.58529   1.61030   1.62210   1.63871   1.66690
 Alpha virt. eigenvalues --    1.67837   1.69130   1.72530   1.72841   1.77245
 Alpha virt. eigenvalues --    1.78789   1.82345   1.83638   1.84366   1.85091
 Alpha virt. eigenvalues --    1.86671   1.87586   1.89114   1.89812   1.91304
 Alpha virt. eigenvalues --    1.92288   1.92514   1.94161   1.95039   1.96610
 Alpha virt. eigenvalues --    1.99863   2.00736   2.03821   2.05963   2.06580
 Alpha virt. eigenvalues --    2.08303   2.09255   2.11995   2.13592   2.14830
 Alpha virt. eigenvalues --    2.18616   2.20154   2.21865   2.23096   2.30267
 Alpha virt. eigenvalues --    2.31719   2.35810   2.40369   2.40654   2.45561
 Alpha virt. eigenvalues --    2.45653   2.46763   2.50138   2.52336   2.55625
 Alpha virt. eigenvalues --    2.57639   2.58104   2.59101   2.65178   2.66877
 Alpha virt. eigenvalues --    2.69832   2.72769   2.75033   2.80141   2.81535
 Alpha virt. eigenvalues --    2.82648   2.84868   2.86573   2.91948   2.93890
 Alpha virt. eigenvalues --    3.00905   3.02349   3.02557   3.03357   3.05198
 Alpha virt. eigenvalues --    3.05561   3.06759   3.09737   3.12056   3.20317
 Alpha virt. eigenvalues --    3.24211   3.27618   3.47913   3.53588   3.76278
          Condensed to atoms (all electrons):
               1          2          3          4          5          6
     1  C    5.854137   0.222973  -0.123389   0.391029  -0.011285  -0.000783
     2  C    0.222973   4.721876   0.705930  -0.048128  -0.000322  -0.000025
     3  O   -0.123389   0.705930   7.829275  -0.019423   0.000110   0.000012
     4  C    0.391029  -0.048128  -0.019423   5.328226  -0.029596   0.003316
     5  C   -0.011285  -0.000322   0.000110  -0.029596   4.528216   0.403873
     6  H   -0.000783  -0.000025   0.000012   0.003316   0.403873   0.583796
     7  H    0.021704   0.006532   0.000462  -0.005190   0.402531  -0.018765
     8  H   -0.001230  -0.000256  -0.000370  -0.002360   0.406022  -0.019212
     9  N   -0.112450  -0.002237   0.000170   0.101720   0.311945  -0.015818
    10  H   -0.005574   0.000059  -0.000024  -0.004757  -0.016305  -0.009021
    11  H    0.008566  -0.000002  -0.000007  -0.006602  -0.016390  -0.002975
    12  Cl  -0.079871  -0.001155  -0.000008   0.259706   0.002924  -0.000164
    13  C   -0.054261   0.001219  -0.004314   0.375042   0.000479  -0.000076
    14  H   -0.027719   0.003576   0.026551   0.012419   0.003336   0.000025
    15  H   -0.011756   0.000179   0.003205  -0.003202  -0.000132   0.000007
    16  H    0.011724   0.001208   0.001861  -0.031722  -0.001397  -0.000020
    17  C    0.328092  -0.009424   0.004041  -0.069871  -0.000587   0.000096
    18  H   -0.023753   0.007745  -0.000073  -0.017136  -0.000079  -0.000012
    19  H   -0.001140  -0.018800   0.000006   0.005735  -0.000052  -0.000002
    20  H   -0.023847  -0.012457   0.000042   0.000120   0.000972   0.000038
    21  C   -0.196860   0.425959  -0.087761   0.007544  -0.000095  -0.000000
    22  H    0.000920  -0.007595   0.001901   0.000642  -0.000002   0.000000
    23  H    0.018865  -0.014932   0.013050  -0.000242  -0.000003   0.000000
    24  H   -0.006072   0.002474   0.002432  -0.000291   0.000141  -0.000001
               7          8          9         10         11         12
     1  C    0.021704  -0.001230  -0.112450  -0.005574   0.008566  -0.079871
     2  C    0.006532  -0.000256  -0.002237   0.000059  -0.000002  -0.001155
     3  O    0.000462  -0.000370   0.000170  -0.000024  -0.000007  -0.000008
     4  C   -0.005190  -0.002360   0.101720  -0.004757  -0.006602   0.259706
     5  C    0.402531   0.406022   0.311945  -0.016305  -0.016390   0.002924
     6  H   -0.018765  -0.019212  -0.015818  -0.009021  -0.002975  -0.000164
     7  H    0.545243  -0.014947  -0.028505  -0.001913   0.006373   0.000391
     8  H   -0.014947   0.567765  -0.020960   0.005693  -0.008202   0.000020
     9  N   -0.028505  -0.020960   6.368429   0.338082   0.333021  -0.084339
    10  H   -0.001913   0.005693   0.338082   0.508938  -0.013061   0.009007
    11  H    0.006373  -0.008202   0.333021  -0.013061   0.514562   0.011190
    12  Cl   0.000391   0.000020  -0.084339   0.009007   0.011190  17.088768
    13  C   -0.002660   0.006040  -0.045273   0.004665  -0.004280  -0.062007
    14  H    0.000067   0.001880  -0.000252  -0.000132  -0.000646   0.002920
    15  H    0.000013  -0.000177   0.003598  -0.000232  -0.000095   0.002506
    16  H   -0.000022  -0.000116  -0.002428  -0.000051   0.004442   0.001376
    17  C   -0.002574   0.000065   0.003072   0.004793  -0.000488  -0.015585
    18  H    0.000025  -0.000015  -0.002699   0.004106  -0.000083   0.021672
    19  H    0.000130   0.000002  -0.000315  -0.000124   0.000017   0.001311
    20  H   -0.000667  -0.000009   0.002866  -0.000165  -0.000119   0.000010
    21  C    0.000130  -0.000036  -0.000100  -0.000027   0.000009  -0.000112
    22  H    0.000034   0.000001  -0.000010   0.000002   0.000000   0.000013
    23  H   -0.000058   0.000001   0.000004   0.000000  -0.000000   0.000002
    24  H   -0.000468   0.000007   0.000042  -0.000004  -0.000001  -0.000001
              13         14         15         16         17         18
     1  C   -0.054261  -0.027719  -0.011756   0.011724   0.328092  -0.023753
     2  C    0.001219   0.003576   0.000179   0.001208  -0.009424   0.007745
     3  O   -0.004314   0.026551   0.003205   0.001861   0.004041  -0.000073
     4  C    0.375042   0.012419  -0.003202  -0.031722  -0.069871  -0.017136
     5  C    0.000479   0.003336  -0.000132  -0.001397  -0.000587  -0.000079
     6  H   -0.000076   0.000025   0.000007  -0.000020   0.000096  -0.000012
     7  H   -0.002660   0.000067   0.000013  -0.000022  -0.002574   0.000025
     8  H    0.006040   0.001880  -0.000177  -0.000116   0.000065  -0.000015
     9  N   -0.045273  -0.000252   0.003598  -0.002428   0.003072  -0.002699
    10  H    0.004665  -0.000132  -0.000232  -0.000051   0.004793   0.004106
    11  H   -0.004280  -0.000646  -0.000095   0.004442  -0.000488  -0.000083
    12  Cl  -0.062007   0.002920   0.002506   0.001376  -0.015585   0.021672
    13  C    4.553982   0.362376   0.391270   0.368321   0.006868   0.001208
    14  H    0.362376   0.575925  -0.010847  -0.017804  -0.000124  -0.000106
    15  H    0.391270  -0.010847   0.573231  -0.020230   0.000023  -0.000014
    16  H    0.368321  -0.017804  -0.020230   0.660425  -0.000257  -0.000025
    17  C    0.006868  -0.000124   0.000023  -0.000257   4.564924   0.383417
    18  H    0.001208  -0.000106  -0.000014  -0.000025   0.383417   0.651754
    19  H   -0.000249  -0.000017   0.000033  -0.000001   0.372905  -0.017002
    20  H   -0.000227   0.000046  -0.000013   0.000013   0.385798  -0.027077
    21  C    0.000427   0.001120   0.000021   0.000063   0.010205  -0.000333
    22  H   -0.000051  -0.000019  -0.000021  -0.000003  -0.001015   0.000155
    23  H   -0.000058  -0.000024   0.000007  -0.000003  -0.000481  -0.000016
    24  H    0.000041  -0.000083   0.000002  -0.000002   0.006535   0.000311
              19         20         21         22         23         24
     1  C   -0.001140  -0.023847  -0.196860   0.000920   0.018865  -0.006072
     2  C   -0.018800  -0.012457   0.425959  -0.007595  -0.014932   0.002474
     3  O    0.000006   0.000042  -0.087761   0.001901   0.013050   0.002432
     4  C    0.005735   0.000120   0.007544   0.000642  -0.000242  -0.000291
     5  C   -0.000052   0.000972  -0.000095  -0.000002  -0.000003   0.000141
     6  H   -0.000002   0.000038  -0.000000   0.000000   0.000000  -0.000001
     7  H    0.000130  -0.000667   0.000130   0.000034  -0.000058  -0.000468
     8  H    0.000002  -0.000009  -0.000036   0.000001   0.000001   0.000007
     9  N   -0.000315   0.002866  -0.000100  -0.000010   0.000004   0.000042
    10  H   -0.000124  -0.000165  -0.000027   0.000002   0.000000  -0.000004
    11  H    0.000017  -0.000119   0.000009   0.000000  -0.000000  -0.000001
    12  Cl   0.001311   0.000010  -0.000112   0.000013   0.000002  -0.000001
    13  C   -0.000249  -0.000227   0.000427  -0.000051  -0.000058   0.000041
    14  H   -0.000017   0.000046   0.001120  -0.000019  -0.000024  -0.000083
    15  H    0.000033  -0.000013   0.000021  -0.000021   0.000007   0.000002
    16  H   -0.000001   0.000013   0.000063  -0.000003  -0.000003  -0.000002
    17  C    0.372905   0.385798   0.010205  -0.001015  -0.000481   0.006535
    18  H   -0.017002  -0.027077  -0.000333   0.000155  -0.000016   0.000311
    19  H    0.647469  -0.029249   0.010662   0.001459   0.000056  -0.003362
    20  H   -0.029249   0.682699   0.002826  -0.001342   0.000069   0.001500
    21  C    0.010662   0.002826   4.780224   0.366428   0.349238   0.351552
    22  H    0.001459  -0.001342   0.366428   0.621256  -0.013192  -0.016175
    23  H    0.000056   0.000069   0.349238  -0.013192   0.628612  -0.014961
    24  H   -0.003362   0.001500   0.351552  -0.016175  -0.014961   0.644146
 Mulliken charges:
               1
     1  C   -0.178021
     2  C    0.015602
     3  O   -0.353680
     4  C   -0.246976
     5  C    0.015699
     6  H    0.075711
     7  H    0.092134
     8  H    0.080394
     9  N   -0.147560
    10  H    0.176043
    11  H    0.174771
    12  Cl  -0.158578
    13  C    0.101518
    14  H    0.067531
    15  H    0.072624
    16  H    0.024648
    17  C    0.029572
    18  H    0.018027
    19  H    0.030529
    20  H    0.018176
    21  C   -0.021085
    22  H    0.046613
    23  H    0.034067
    24  H    0.032240
 Sum of Mulliken charges =  -0.00000
 Mulliken charges with hydrogens summed into heavy atoms:
               1
     1  C   -0.178021
     2  C    0.015602
     3  O   -0.353680
     4  C   -0.246976
     5  C    0.263938
     9  N    0.203254
    12  Cl  -0.158578
    13  C    0.266321
    17  C    0.096305
    21  C    0.091835
 Electronic spatial extent (au):  <R**2>=           1844.8454
 Charge=             -0.0000 electrons
 Dipole moment (field-independent basis, Debye):
    X=              4.9613    Y=              2.7828    Z=             -4.8833  Tot=              7.4970
 Quadrupole moment (field-independent basis, Debye-Ang):
   XX=            -70.4230   YY=            -66.8935   ZZ=            -67.6879
   XY=             10.8643   XZ=              1.0722   YZ=             -4.9397
 Traceless Quadrupole moment (field-independent basis, Debye-Ang):
   XX=             -2.0882   YY=              1.4413   ZZ=              0.6469
   XY=             10.8643   XZ=              1.0722   YZ=             -4.9397
 Octapole moment (field-independent basis, Debye-Ang**2):
  XXX=             31.3956  YYY=             16.7820  ZZZ=             -8.0312  XYY=             11.3733
  XXY=              4.1634  XXZ=            -18.2753  XZZ=             17.7818  YZZ=              4.3541
  YYZ=             -7.7304  XYZ=              4.0585
 Hexadecapole moment (field-independent basis, Debye-Ang**3):
 XXXX=          -1251.2274 YYYY=           -615.3190 ZZZZ=           -475.1988 XXXY=             29.5929
 XXXZ=             -8.1939 YYYX=              9.1831 YYYZ=            -19.3673 ZZZX=            -10.9404
 ZZZY=            -23.4344 XXYY=           -313.2733 XXZZ=           -300.0715 YYZZ=           -186.6034
 XXYZ=            -18.5857 YYXZ=             -4.1076 ZZXY=              9.5541
 N-N= 6.706475534788D+02 E-N=-3.375340397893D+03  KE= 8.592686602244D+02
 Unable to Open any file for archive entry.
 1\1\GINC-NODE-008\FTS\RwB97XD\def2SVP\C7H14Cl1N1O1\JP2658\19-Dec-2023\
 0\\# wb97xd def2svp geom=allchk scrf=(iefpcm,solvent=toluene) opt=(rea
 dfc,ts,noeigen,maxcycles=50,maxstep=10)\\TS-898.out\\0,1\C,-0.62376674
 95,-0.266932082,-0.2896006163\C,-1.8820192568,0.09363553,0.3175905503\
 O,-2.0405053189,0.5880458657,1.4399040518\C,0.5957743346,-0.0565487927
 ,0.3931848772\C,0.7626801237,2.5283345661,-0.4183113951\H,1.1524802575
 ,3.222287547,-1.1744302897\H,-0.2886398888,2.2891110503,-0.6380002047\
 H,0.8225252846,2.9942952315,0.5719507484\N,1.5072105899,1.2718164218,-
 0.4139651607\H,1.6471252024,0.918031409,-1.3620263843\H,2.4334650438,1
 .3574457164,0.0095359993\Cl,1.9107918566,-1.3383602595,0.0957260336\C,
 0.6584782203,0.3393126891,1.84563927\H,0.0474168292,1.2295194854,2.027
 7116063\H,0.2199201748,-0.4642375247,2.4511934967\H,1.699972705,0.4933
 830796,2.1611081221\C,-0.6012865379,-0.7833672836,-1.7138030585\H,0.40
 45079101,-1.1234129562,-1.9981183732\H,-1.2649528431,-1.6509415747,-1.
 8600091485\H,-0.9134016539,-0.0245666055,-2.4556905992\C,-3.1327602254
 ,-0.1721725981,-0.5205211747\H,-3.2436760816,-1.2449130676,-0.74347648
 2\H,-4.0071902958,0.1688348879,0.0475423175\H,-3.0987696807,0.35463926
 49,-1.4868041864\\Version=ES64L-G16RevC.01\State=1-A\HF=-864.737844\RM
 SD=8.627e-09\RMSF=4.418e-06\Dipole=2.0761327,1.5992937,-1.3534185\Quad
 rupole=-1.2922029,2.7591162,-1.4669133,7.6261786,3.3695975,-2.4560131\
 PG=C01 [X(C7H14Cl1N1O1)]\\@
 The archive entry for this job was punched.


 THE ONLY TROUBLE WITH A SURE THING IS THE UNCERTAINTY.
     -- FROM A TEABAG (BELONGING TO W.H.?)
 Job cpu time:       0 days  3 hours 11 minutes 47.1 seconds.
 Elapsed time:       0 days  0 hours 16 minutes 32.0 seconds.
 File lengths (MBytes):  RWF=     89 Int=      0 D2E=      0 Chk=     10 Scr=      1
 Normal termination of Gaussian 16 at Tue Dec 19 13:55:36 2023.
