Unloading slurm/anatra/current
  ERROR: No such file or directory on
    '/cm/local/modulefiles/slurm/anatra/current'
environment: line 0: unalias: gv: not found
environment: line 0: unalias: sl: not found
 Entering Gaussian System, Link 0=g16
 Initial command:
 /apps/gaussian/g16/C.01/g16/l1.exe "/local/jobs/1157679/Gau-2121682.inp" -scrdir="/local/jobs/1157679/"
 Entering Link 1 = /apps/gaussian/g16/C.01/g16/l1.exe PID=   2121684.
  
 Copyright (c) 1988-2019, Gaussian, Inc.  All Rights Reserved.
  
 This is part of the Gaussian(R) 16 program.  It is based on
 the Gaussian(R) 09 system (copyright 2009, Gaussian, Inc.),
 the Gaussian(R) 03 system (copyright 2003, Gaussian, Inc.),
 the Gaussian(R) 98 system (copyright 1998, Gaussian, Inc.),
 the Gaussian(R) 94 system (copyright 1995, Gaussian, Inc.),
 the Gaussian 92(TM) system (copyright 1992, Gaussian, Inc.),
 the Gaussian 90(TM) system (copyright 1990, Gaussian, Inc.),
 the Gaussian 88(TM) system (copyright 1988, Gaussian, Inc.),
 the Gaussian 86(TM) system (copyright 1986, Carnegie Mellon
 University), and the Gaussian 82(TM) system (copyright 1983,
 Carnegie Mellon University). Gaussian is a federally registered
 trademark of Gaussian, Inc.
  
 This software contains proprietary and confidential information,
 including trade secrets, belonging to Gaussian, Inc.
  
 This software is provided under written license and may be
 used, copied, transmitted, or stored only in accord with that
 written license.
  
 The following legend is applicable only to US Government
 contracts under FAR:
  
                    RESTRICTED RIGHTS LEGEND
  
 Use, reproduction and disclosure by the US Government is
 subject to restrictions as set forth in subparagraphs (a)
 and (c) of the Commercial Computer Software - Restricted
 Rights clause in FAR 52.227-19.
  
 Gaussian, Inc.
 340 Quinnipiac St., Bldg. 40, Wallingford CT 06492
  
  
 ---------------------------------------------------------------
 Warning -- This program may not be used in any manner that
 competes with the business of Gaussian, Inc. or will provide
 assistance to any competitor of Gaussian, Inc.  The licensee
 of this program is prohibited from giving any competitor of
 Gaussian, Inc. access to this program.  By using this program,
 the user acknowledges that Gaussian, Inc. is engaged in the
 business of creating and licensing software in the field of
 computational chemistry and represents and warrants to the
 licensee that it is not a competitor of Gaussian, Inc. and that
 it will not use this program in any manner prohibited above.
 ---------------------------------------------------------------
  

 Cite this work as:
 Gaussian 16, Revision C.01,
 M. J. Frisch, G. W. Trucks, H. B. Schlegel, G. E. Scuseria, 
 M. A. Robb, J. R. Cheeseman, G. Scalmani, V. Barone, 
 G. A. Petersson, H. Nakatsuji, X. Li, M. Caricato, A. V. Marenich, 
 J. Bloino, B. G. Janesko, R. Gomperts, B. Mennucci, H. P. Hratchian, 
 J. V. Ortiz, A. F. Izmaylov, J. L. Sonnenberg, D. Williams-Young, 
 F. Ding, F. Lipparini, F. Egidi, J. Goings, B. Peng, A. Petrone, 
 T. Henderson, D. Ranasinghe, V. G. Zakrzewski, J. Gao, N. Rega, 
 G. Zheng, W. Liang, M. Hada, M. Ehara, K. Toyota, R. Fukuda, 
 J. Hasegawa, M. Ishida, T. Nakajima, Y. Honda, O. Kitao, H. Nakai, 
 T. Vreven, K. Throssell, J. A. Montgomery, Jr., J. E. Peralta, 
 F. Ogliaro, M. J. Bearpark, J. J. Heyd, E. N. Brothers, K. N. Kudin, 
 V. N. Staroverov, T. A. Keith, R. Kobayashi, J. Normand, 
 K. Raghavachari, A. P. Rendell, J. C. Burant, S. S. Iyengar, 
 J. Tomasi, M. Cossi, J. M. Millam, M. Klene, C. Adamo, R. Cammi, 
 J. W. Ochterski, R. L. Martin, K. Morokuma, O. Farkas, 
 J. B. Foresman, and D. J. Fox, Gaussian, Inc., Wallingford CT, 2019.
 
 ******************************************
 Gaussian 16:  ES64L-G16RevC.01  3-Jul-2019
                17-Jan-2024 
 ******************************************
 %nprocshared=12
 Will use up to   12 processors via shared memory.
 %mem=48GB
 ----------------------------------------------------------------------
 # external="~/scripts/MiMe -H 'hf def2svp' -EF 'wb97xd def2svp' -c 12 
 -m 48GB" opt=(calcall,ts,noeigen,maxcycles=50,maxstep=10,nomicro)
 ----------------------------------------------------------------------
 1/5=1,6=50,8=10,10=4,11=1,18=20,26=1,38=1/1,3;
 2/9=110,12=2,17=6,18=5,40=1/2;
 3/11=9,25=1,30=1,41=9900000,43=2,71=2,140=1/1;
 4/20=17,22=2,24=3,113=1,114=1/2;
 6/7=2,8=2,9=2,10=2,18=1/1;
 7/25=1,44=-1/16;
 1/5=1,6=50,8=10,10=4,11=1,18=20,26=1/3(3);
 2/9=110/2;
 7/8=1,9=1,25=1,44=-1/16;
 99//99;
 2/9=110/2;
 3/11=9,25=1,30=1,41=9900000,43=2,71=2,140=1/1;
 4/16=2,20=17,22=2,24=3,113=1,114=1/2;
 7/25=1,44=-1/16;
 1/5=1,6=50,8=10,10=4,11=1,18=20,26=1/3(-4);
 2/9=110/2;
 6/7=2,8=2,9=2,10=2,18=1/1;
 7/8=1,9=1,25=1,44=-1/16;
 99//99;
 ----------
 TS-249.out
 ----------
 Symbolic Z-matrix:
 Charge =  0 Multiplicity = 1
 C                    -0.98025   0.69195  -0.20894 
 C                    -1.92168  -0.31      0.32291 
 O                    -3.01226  -0.50219  -0.2006 
 C                     0.22829   0.86754   0.36619 
 C                     2.98171  -0.36432   0.09422 
 H                     3.0227   -0.73989   1.12039 
 H                     3.50996  -1.0641   -0.55969 
 H                     3.48667   0.6048    0.05611 
 N                     1.58522  -0.22082  -0.33301 
 H                     1.18839  -1.16551  -0.35932 
 H                     1.60848   0.04987  -1.32227 
 H                     0.80126   1.75285   0.06792 
 H                     0.42254   0.43147   1.35258 
 H                    -1.29964   1.25724  -1.0751 
 H                    -1.5872   -0.87442   1.20893 
 
 Add virtual bond connecting atoms N9         and C4         Dist= 3.54D+00.

 GradGradGradGradGradGradGradGradGradGradGradGradGradGradGradGradGradGrad
 Berny optimization.
 Initialization pass.
                           ----------------------------
                           !    Initial Parameters    !
                           ! (Angstroms and Degrees)  !
 --------------------------                            --------------------------
 ! Name  Definition              Value          Derivative Info.                !
 --------------------------------------------------------------------------------
 ! R1    R(1,2)                  1.4741         calculate D2E/DX2 analytically  !
 ! R2    R(1,4)                  1.3499         calculate D2E/DX2 analytically  !
 ! R3    R(1,14)                 1.0825         calculate D2E/DX2 analytically  !
 ! R4    R(2,3)                  1.2249         calculate D2E/DX2 analytically  !
 ! R5    R(2,15)                 1.1025         calculate D2E/DX2 analytically  !
 ! R6    R(4,9)                  1.8747         calculate D2E/DX2 analytically  !
 ! R7    R(4,12)                 1.0959         calculate D2E/DX2 analytically  !
 ! R8    R(4,13)                 1.0958         calculate D2E/DX2 analytically  !
 ! R9    R(5,6)                  1.0935         calculate D2E/DX2 analytically  !
 ! R10   R(5,7)                  1.0938         calculate D2E/DX2 analytically  !
 ! R11   R(5,8)                  1.0934         calculate D2E/DX2 analytically  !
 ! R12   R(5,9)                  1.4674         calculate D2E/DX2 analytically  !
 ! R13   R(9,10)                 1.025          calculate D2E/DX2 analytically  !
 ! R14   R(9,11)                 1.0259         calculate D2E/DX2 analytically  !
 ! A1    A(2,1,4)              120.4284         calculate D2E/DX2 analytically  !
 ! A2    A(2,1,14)             117.0776         calculate D2E/DX2 analytically  !
 ! A3    A(4,1,14)             122.4892         calculate D2E/DX2 analytically  !
 ! A4    A(1,2,3)              121.4029         calculate D2E/DX2 analytically  !
 ! A5    A(1,2,15)             116.3699         calculate D2E/DX2 analytically  !
 ! A6    A(3,2,15)             122.2266         calculate D2E/DX2 analytically  !
 ! A7    A(1,4,9)              114.4307         calculate D2E/DX2 analytically  !
 ! A8    A(1,4,12)             117.2067         calculate D2E/DX2 analytically  !
 ! A9    A(1,4,13)             119.37           calculate D2E/DX2 analytically  !
 ! A10   A(9,4,12)              89.3727         calculate D2E/DX2 analytically  !
 ! A11   A(9,4,13)              88.6472         calculate D2E/DX2 analytically  !
 ! A12   A(12,4,13)            118.2791         calculate D2E/DX2 analytically  !
 ! A13   A(6,5,7)              108.8561         calculate D2E/DX2 analytically  !
 ! A14   A(6,5,8)              108.6508         calculate D2E/DX2 analytically  !
 ! A15   A(6,5,9)              110.0278         calculate D2E/DX2 analytically  !
 ! A16   A(7,5,8)              108.8547         calculate D2E/DX2 analytically  !
 ! A17   A(7,5,9)              110.3726         calculate D2E/DX2 analytically  !
 ! A18   A(8,5,9)              110.0394         calculate D2E/DX2 analytically  !
 ! A19   A(4,9,5)              129.5684         calculate D2E/DX2 analytically  !
 ! A20   A(4,9,10)             105.3319         calculate D2E/DX2 analytically  !
 ! A21   A(4,9,11)             102.8777         calculate D2E/DX2 analytically  !
 ! A22   A(5,9,10)             106.6058         calculate D2E/DX2 analytically  !
 ! A23   A(5,9,11)             106.5574         calculate D2E/DX2 analytically  !
 ! A24   A(10,9,11)            103.1331         calculate D2E/DX2 analytically  !
 ! D1    D(4,1,2,3)           -178.5729         calculate D2E/DX2 analytically  !
 ! D2    D(4,1,2,15)             1.151          calculate D2E/DX2 analytically  !
 ! D3    D(14,1,2,3)             0.6526         calculate D2E/DX2 analytically  !
 ! D4    D(14,1,2,15)         -179.6235         calculate D2E/DX2 analytically  !
 ! D5    D(2,1,4,9)             89.4706         calculate D2E/DX2 analytically  !
 ! D6    D(2,1,4,12)          -167.82           calculate D2E/DX2 analytically  !
 ! D7    D(2,1,4,13)           -13.5851         calculate D2E/DX2 analytically  !
 ! D8    D(14,1,4,9)           -89.7119         calculate D2E/DX2 analytically  !
 ! D9    D(14,1,4,12)           12.9975         calculate D2E/DX2 analytically  !
 ! D10   D(14,1,4,13)          167.2324         calculate D2E/DX2 analytically  !
 ! D11   D(1,4,9,5)           -175.7245         calculate D2E/DX2 analytically  !
 ! D12   D(1,4,9,10)           -48.0647         calculate D2E/DX2 analytically  !
 ! D13   D(1,4,9,11)            59.6548         calculate D2E/DX2 analytically  !
 ! D14   D(12,4,9,5)            64.4592         calculate D2E/DX2 analytically  !
 ! D15   D(12,4,9,10)         -167.881          calculate D2E/DX2 analytically  !
 ! D16   D(12,4,9,11)          -60.1615         calculate D2E/DX2 analytically  !
 ! D17   D(13,4,9,5)           -53.8472         calculate D2E/DX2 analytically  !
 ! D18   D(13,4,9,10)           73.8126         calculate D2E/DX2 analytically  !
 ! D19   D(13,4,9,11)         -178.4679         calculate D2E/DX2 analytically  !
 ! D20   D(6,5,9,4)             61.8552         calculate D2E/DX2 analytically  !
 ! D21   D(6,5,9,10)           -65.3281         calculate D2E/DX2 analytically  !
 ! D22   D(6,5,9,11)          -174.9628         calculate D2E/DX2 analytically  !
 ! D23   D(7,5,9,4)           -177.9916         calculate D2E/DX2 analytically  !
 ! D24   D(7,5,9,10)            54.8251         calculate D2E/DX2 analytically  !
 ! D25   D(7,5,9,11)           -54.8096         calculate D2E/DX2 analytically  !
 ! D26   D(8,5,9,4)            -57.8328         calculate D2E/DX2 analytically  !
 ! D27   D(8,5,9,10)           174.9839         calculate D2E/DX2 analytically  !
 ! D28   D(8,5,9,11)            65.3492         calculate D2E/DX2 analytically  !
 --------------------------------------------------------------------------------
 Trust Radius=1.00D-01 FncErr=1.00D-07 GrdErr=1.00D-07 EigMax=2.50D+02 EigMin=1.00D-04
 Number of steps in this run=     50 maximum allowed number of steps=    100.
 Search for a saddle point of order  1.
 GradGradGradGradGradGradGradGradGradGradGradGradGradGradGradGradGradGrad

                          Input orientation:                          
 ---------------------------------------------------------------------
 Center     Atomic      Atomic             Coordinates (Angstroms)
 Number     Number       Type             X           Y           Z
 ---------------------------------------------------------------------
      1          6           0       -0.980250    0.691950   -0.208940
      2          6           0       -1.921680   -0.310000    0.322910
      3          8           0       -3.012260   -0.502190   -0.200600
      4          6           0        0.228290    0.867540    0.366190
      5          6           0        2.981710   -0.364320    0.094220
      6          1           0        3.022700   -0.739890    1.120390
      7          1           0        3.509960   -1.064100   -0.559690
      8          1           0        3.486670    0.604800    0.056110
      9          7           0        1.585220   -0.220820   -0.333010
     10          1           0        1.188390   -1.165510   -0.359320
     11          1           0        1.608480    0.049870   -1.322270
     12          1           0        0.801260    1.752850    0.067920
     13          1           0        0.422540    0.431470    1.352580
     14          1           0       -1.299640    1.257240   -1.075100
     15          1           0       -1.587200   -0.874420    1.208930
 ---------------------------------------------------------------------
                    Distance matrix (angstroms):
                    1          2          3          4          5
     1  C    0.000000
     2  C    1.474130   0.000000
     3  O    2.356927   1.224894   0.000000
     4  C    1.349880   2.451702   3.563506   0.000000
     5  C    4.111537   4.909021   6.002800   3.028658   0.000000
     6  H    4.454312   5.026696   6.182415   3.310797   1.093507
     7  H    4.834121   5.554310   6.556222   3.918909   1.093773
     8  H    4.475625   5.491656   6.597531   3.283629   1.093449
     9  N    2.725835   3.568828   4.607985   1.874745   1.467413
    10  H    2.859331   3.296949   4.255660   2.362509   2.015837
    11  H    2.890206   3.911285   4.786873   2.329035   2.015876
    12  H    2.091874   3.425605   4.438496   1.095917   3.039319
    13  H    2.115187   2.665589   3.883547   1.095835   2.960760
    14  H    1.082495   2.190344   2.606417   2.136294   4.725116
    15  H    2.198240   1.102487   2.038658   2.653420   4.730509
                    6          7          8          9         10
     6  H    0.000000
     7  H    1.779102   0.000000
     8  H    1.776556   1.779039   0.000000
     9  N    2.109065   2.113558   2.109164   0.000000
    10  H    2.394867   2.332406   2.930643   1.024990   0.000000
    11  H    2.930926   2.331970   2.394885   1.025890   1.606517
    12  H    3.500892   3.958050   2.920545   2.161183   2.974765
    13  H    2.861263   3.927552   3.331632   2.149074   2.463224
    14  H    5.243217   5.365307   4.961258   3.325323   3.545751
    15  H    4.612712   5.398614   5.409366   3.587342   3.201256
                   11         12         13         14         15
    11  H    0.000000
    12  H    2.341874   0.000000
    13  H    2.950745   1.881442   0.000000
    14  H    3.158480   2.442520   3.088921   0.000000
    15  H    4.180150   3.729503   2.401050   3.137429   0.000000
 Stoichiometry    C4H9NO
 Framework group  C1[X(C4H9NO)]
 Deg. of freedom    39
 Full point group                 C1      NOp   1
 Largest Abelian subgroup         C1      NOp   1
 Largest concise Abelian subgroup C1      NOp   1
                         Standard orientation:                         
 ---------------------------------------------------------------------
 Center     Atomic      Atomic             Coordinates (Angstroms)
 Number     Number       Type             X           Y           Z
 ---------------------------------------------------------------------
      1          6           0       -0.980252    0.691948   -0.208939
      2          6           0       -1.921681   -0.310003    0.322911
      3          8           0       -3.012260   -0.502195   -0.200599
      4          6           0        0.228288    0.867539    0.366191
      5          6           0        2.981710   -0.364318    0.094221
      6          1           0        3.022700   -0.739888    1.120391
      7          1           0        3.509960   -1.064098   -0.559689
      8          1           0        3.486669    0.604802    0.056111
      9          7           0        1.585219   -0.220820   -0.333009
     10          1           0        1.188390   -1.165510   -0.359319
     11          1           0        1.608479    0.049870   -1.322269
     12          1           0        0.801257    1.752849    0.067921
     13          1           0        0.422539    0.431469    1.352581
     14          1           0       -1.299642    1.257237   -1.075099
     15          1           0       -1.587200   -0.874423    1.208931
 ---------------------------------------------------------------------
 Rotational constants (GHZ):          11.2493120           1.2678582           1.2133754
 Standard basis: STO-3G (5D, 7F)
 There are    39 symmetry adapted cartesian basis functions of A   symmetry.
 There are    39 symmetry adapted basis functions of A   symmetry.
    39 basis functions,   117 primitive gaussians,    39 cartesian basis functions
    24 alpha electrons       24 beta electrons
       nuclear repulsion energy       225.5433525727 Hartrees.
 NAtoms=   15 NActive=   15 NUniq=   15 SFac= 1.00D+00 NAtFMM=   60 NAOKFM=F Big=F
 Integral buffers will be    131072 words long.
 Raffenetti 1 integral format.
 Two-electron integral symmetry is turned on.
 External calculation of energy, first and second derivatives.
 Running external command "~/scripts/MiMe -H 'hf def2svp' -EF 'wb97xd def2svp' -c 12 -m 48GB R"
         input file       "/local/jobs/1157679/Gau-2121684.EIn"
         output file      "/local/jobs/1157679/Gau-2121684.EOu"
         message file     "/local/jobs/1157679/Gau-2121684.EMs"
         fchk file        "/local/jobs/1157679/Gau-2121684.EFC"
         mat. el file     "/local/jobs/1157679/Gau-2121684.EUF"
 Read checkpoint file Gau-2121684_H.chk type G16
 Write formatted file Gau-2121684_H.fchk

deriv: 2

spelevel: wb97xd def2svp
gradlevel: wb97xd def2svp
hesslevel: hf def2svp

runspe: False
runforce: True
runfreq: True

Running Gaussian ...

Parsing files ...
SPE file: Gau-2121684_F.out
FORCE file: Gau-2121684_F.out
HESS file: Gau-2121684_H.out

 ExternalExternalExternalExternalExternalExternalExternalExternalExternalExternal
 Output from external command:
 "~/scripts/MiMe -H 'hf def2svp' -EF 'wb97xd def2svp' -c 12 -m 48GB R /local/jobs/1157679/Gau-2121684.EIn /local/jobs/1157679/Gau-2121684.EOu /local/jobs/1157679/Gau-2121684.EMs /local/jobs/1157679/Gau-2121684.EFC /local/jobs/1157679/Gau-2121684.EUF"
  
 --------------------------------------------------
 Force calculation at wb97xd def2svp
 Hessian calculation at hf def2svp
 ExternalExternalExternalExternalExternalExternalExternalExternalExternalExternal

 Recovered energy= -287.426760468     dipole=      8.415600000000     -0.577200000000     -0.120000000000
 Energy=    -287.426760     NIter=   0.
 Dipole moment=       8.415600      -0.577200      -0.120000
 ***** Axes restored to original set *****
 -------------------------------------------------------------------
 Center     Atomic                   Forces (Hartrees/Bohr)
 Number     Number              X              Y              Z
 -------------------------------------------------------------------
      1        6          -0.029535983   -0.026595630    0.010298304
      2        6          -0.009035727    0.028900797   -0.043154025
      3        8           0.008860569   -0.007357827    0.015452622
      4        6           0.011655787    0.021171765    0.018317996
      5        6          -0.003867037    0.003316247    0.002181510
      6        1          -0.000045462   -0.000595644    0.003631452
      7        1           0.006034692   -0.002672707   -0.000695759
      8        1           0.001406577    0.003444236    0.000465617
      9        7           0.029103802   -0.031928544   -0.030626883
     10        1          -0.006355600    0.003774919    0.001432871
     11        1          -0.005256800    0.000904813    0.002447337
     12        1          -0.000803377    0.003067415    0.010436860
     13        1          -0.002982058    0.008275508    0.004241660
     14        1          -0.002349430    0.002750514   -0.005852073
     15        1           0.003170046   -0.006455863    0.011422512
 -------------------------------------------------------------------
 Cartesian Forces:  Max     0.043154025 RMS     0.014296742
 FormGI is forming the generalized inverse of G from B-inverse, IUseBI=4.

 GradGradGradGradGradGradGradGradGradGradGradGradGradGradGradGradGradGrad
 Berny optimization.
 Internal  Forces:  Max     0.036899791 RMS     0.008491535
 Search for a saddle point.
 Step number   1 out of a maximum of   50
 All quantities printed in internal units (Hartrees-Bohrs-Radians)
 Swapping is turned off.
 Second derivative matrix not updated -- analytic derivatives used.
 ITU=  0
     Eigenvalues ---   -0.03612   0.00404   0.00703   0.01498   0.01697
     Eigenvalues ---    0.01948   0.03066   0.04218   0.05533   0.05830
     Eigenvalues ---    0.05865   0.06523   0.06772   0.10935   0.11213
     Eigenvalues ---    0.11812   0.12607   0.12718   0.13548   0.15941
     Eigenvalues ---    0.16800   0.20449   0.20990   0.23082   0.24726
     Eigenvalues ---    0.29025   0.34148   0.35633   0.36101   0.36228
     Eigenvalues ---    0.36272   0.36676   0.36748   0.39094   0.39670
     Eigenvalues ---    0.44520   0.44819   0.64082   0.83934
 Eigenvectors required to have negative eigenvalues:
                          R6        A19       A11       A10       D6
   1                    0.83506   0.21489  -0.19231  -0.17846  -0.17503
                          D9        D10       D7        R2        A21
   1                   -0.16654   0.16503   0.15653  -0.12720  -0.09923
 RFO step:  Lambda0=5.169003918D-03 Lambda=-1.83448647D-02.
 Linear search not attempted -- option 19 set.
 Maximum step size (   0.100) exceeded in Quadratic search.
    -- Step size scaled by   0.250
 Iteration  1 RMS(Cart)=  0.02728604 RMS(Int)=  0.00038864
 Iteration  2 RMS(Cart)=  0.00049531 RMS(Int)=  0.00017318
 Iteration  3 RMS(Cart)=  0.00000022 RMS(Int)=  0.00017318
 Variable       Old X    -DE/DX   Delta X   Delta X   Delta X     New X
                                 (Linear)    (Quad)   (Total)
    R1        2.78570  -0.01804   0.00000  -0.02320  -0.02320   2.76250
    R2        2.55090   0.03205   0.00000   0.02274   0.02274   2.57364
    R3        2.04562   0.00681   0.00000   0.00466   0.00466   2.05028
    R4        2.31471  -0.01334   0.00000  -0.00154  -0.00154   2.31318
    R5        2.08340   0.01345   0.00000   0.01215   0.01215   2.09555
    R6        3.54275   0.03690   0.00000  -0.03769  -0.03769   3.50506
    R7        2.07098  -0.00078   0.00000   0.00135   0.00135   2.07233
    R8        2.07083  -0.00000   0.00000   0.00254   0.00254   2.07336
    R9        2.06643   0.00361   0.00000   0.00203   0.00203   2.06846
   R10        2.06693   0.00504   0.00000   0.00257   0.00257   2.06950
   R11        2.06632   0.00369   0.00000   0.00216   0.00216   2.06848
   R12        2.77301   0.00464   0.00000  -0.00246  -0.00246   2.77054
   R13        1.93695  -0.00106   0.00000  -0.00105  -0.00105   1.93590
   R14        1.93865  -0.00224   0.00000  -0.00153  -0.00153   1.93712
    A1        2.10187   0.00351   0.00000   0.00391   0.00390   2.10578
    A2        2.04339  -0.00246   0.00000   0.00344   0.00344   2.04683
    A3        2.13784  -0.00106   0.00000  -0.00739  -0.00739   2.13045
    A4        2.11888   0.02106   0.00000   0.02193   0.02193   2.14081
    A5        2.03104  -0.00993   0.00000  -0.01110  -0.01110   2.01994
    A6        2.13326  -0.01112   0.00000  -0.01082  -0.01082   2.12243
    A7        1.99719  -0.01324   0.00000  -0.01532  -0.01525   1.98194
    A8        2.04564   0.00289   0.00000   0.00135   0.00128   2.04692
    A9        2.08340  -0.00158   0.00000  -0.00583  -0.00590   2.07750
   A10        1.55985   0.00746   0.00000   0.02736   0.02740   1.58725
   A11        1.54719   0.01067   0.00000   0.03226   0.03229   1.57948
   A12        2.06436  -0.00372   0.00000  -0.01647  -0.01741   2.04696
   A13        1.89990  -0.00201   0.00000  -0.00009  -0.00009   1.89981
   A14        1.89631  -0.00011   0.00000  -0.00002  -0.00002   1.89629
   A15        1.92035  -0.00145   0.00000  -0.00218  -0.00218   1.91816
   A16        1.89987  -0.00202   0.00000  -0.00015  -0.00015   1.89972
   A17        1.92637   0.00685   0.00000   0.00525   0.00525   1.93161
   A18        1.92055  -0.00138   0.00000  -0.00283  -0.00284   1.91771
   A19        2.26139  -0.01272   0.00000  -0.05459  -0.05460   2.20679
   A20        1.83839  -0.00158   0.00000   0.00384   0.00381   1.84220
   A21        1.79556   0.00053   0.00000   0.01404   0.01423   1.80979
   A22        1.86062   0.00939   0.00000   0.02237   0.02194   1.88256
   A23        1.85978   0.00737   0.00000   0.01906   0.01900   1.87877
   A24        1.80001  -0.00158   0.00000   0.00607   0.00572   1.80573
    D1       -3.11669  -0.00031   0.00000   0.00892   0.00893  -3.10776
    D2        0.02009   0.00111   0.00000   0.01041   0.01041   0.03050
    D3        0.01139  -0.00056   0.00000   0.00588   0.00587   0.01727
    D4       -3.13502   0.00086   0.00000   0.00736   0.00736  -3.12766
    D5        1.56156   0.00055   0.00000   0.00220   0.00221   1.56376
    D6       -2.92901   0.00333   0.00000   0.02798   0.02794  -2.90108
    D7       -0.23710  -0.00327   0.00000  -0.02558  -0.02553  -0.26263
    D8       -1.56577   0.00082   0.00000   0.00532   0.00532  -1.56045
    D9        0.22685   0.00360   0.00000   0.03110   0.03105   0.25790
   D10        2.91876  -0.00300   0.00000  -0.02246  -0.02241   2.89634
   D11       -3.06697   0.00113   0.00000   0.00100   0.00090  -3.06607
   D12       -0.83889   0.00192   0.00000  -0.01148  -0.01135  -0.85024
   D13        1.04117  -0.00012   0.00000   0.00144   0.00141   1.04259
   D14        1.12502  -0.00270   0.00000  -0.01087  -0.01070   1.11433
   D15       -2.93008  -0.00191   0.00000  -0.02335  -0.02295  -2.95302
   D16       -1.05002  -0.00396   0.00000  -0.01043  -0.01018  -1.06020
   D17       -0.93981   0.00153   0.00000   0.00731   0.00694  -0.93288
   D18        1.28827   0.00232   0.00000  -0.00517  -0.00531   1.28296
   D19       -3.11485   0.00028   0.00000   0.00775   0.00745  -3.10740
   D20        1.07958  -0.00150   0.00000  -0.00779  -0.00781   1.07177
   D21       -1.14019   0.00196   0.00000   0.01231   0.01250  -1.12769
   D22       -3.05368  -0.00334   0.00000  -0.01201  -0.01217  -3.06585
   D23       -3.10654  -0.00056   0.00000  -0.00595  -0.00598  -3.11252
   D24        0.95688   0.00290   0.00000   0.01415   0.01433   0.97121
   D25       -0.95661  -0.00241   0.00000  -0.01018  -0.01034  -0.96695
   D26       -1.00937   0.00041   0.00000  -0.00462  -0.00465  -1.01402
   D27        3.05405   0.00387   0.00000   0.01548   0.01567   3.06971
   D28        1.14056  -0.00143   0.00000  -0.00884  -0.00901   1.13155
         Item               Value     Threshold  Converged?
 Maximum Force            0.036900     0.000450     NO 
 RMS     Force            0.008492     0.000300     NO 
 Maximum Displacement     0.081294     0.001800     NO 
 RMS     Displacement     0.027480     0.001200     NO 
 Predicted change in Energy=-2.925771D-03
 GradGradGradGradGradGradGradGradGradGradGradGradGradGradGradGradGradGrad

                          Input orientation:                          
 ---------------------------------------------------------------------
 Center     Atomic      Atomic             Coordinates (Angstroms)
 Number     Number       Type             X           Y           Z
 ---------------------------------------------------------------------
      1          6           0       -0.966414    0.685972   -0.207406
      2          6           0       -1.906626   -0.303155    0.316659
      3          8           0       -3.001838   -0.507120   -0.190572
      4          6           0        0.257862    0.852027    0.365638
      5          6           0        2.958140   -0.354959    0.097513
      6          1           0        2.979681   -0.719785    1.129280
      7          1           0        3.517485   -1.051573   -0.535869
      8          1           0        3.445713    0.624410    0.062299
      9          7           0        1.570703   -0.237861   -0.361598
     10          1           0        1.166099   -1.178782   -0.382323
     11          1           0        1.592272    0.034422   -1.349617
     12          1           0        0.824480    1.749442    0.089603
     13          1           0        0.442349    0.426886    1.360131
     14          1           0       -1.280555    1.261348   -1.071929
     15          1           0       -1.565159   -0.866803    1.208512
 ---------------------------------------------------------------------
                    Distance matrix (angstroms):
                    1          2          3          4          5
     1  C    0.000000
     2  C    1.461854   0.000000
     3  O    2.359386   1.224081   0.000000
     4  C    1.361912   2.453947   3.575233   0.000000
     5  C    4.071687   4.869975   5.968876   2.969883   0.000000
     6  H    4.397106   4.970908   6.129095   3.234508   1.094580
     7  H    4.819989   5.541472   6.551124   3.880921   1.095131
     8  H    4.420791   5.438070   6.550970   3.210330   1.094591
     9  N    2.704479   3.543461   4.583653   1.854799   1.466109
    10  H    2.838224   3.270617   4.226061   2.347025   2.029862
    11  H    2.876810   3.890080   4.768909   2.321901   2.027658
    12  H    2.103920   3.423981   4.450985   1.096632   2.996843
    13  H    2.123419   2.671980   3.890947   1.097177   2.921419
    14  H    1.084961   2.183532   2.620512   2.144963   4.684717
    15  H    2.185047   1.108918   2.037364   2.643524   4.685781
                    6          7          8          9         10
     6  H    0.000000
     7  H    1.781021   0.000000
     8  H    1.778340   1.780976   0.000000
     9  N    2.107175   2.117181   2.106861   0.000000
    10  H    2.405141   2.359825   2.940379   1.024434   0.000000
    11  H    2.939160   2.355423   2.403505   1.025078   1.609082
    12  H    3.438444   3.935629   2.852596   2.170208   2.985617
    13  H    2.793958   3.903475   3.277740   2.163197   2.477525
    14  H    5.188431   5.353330   4.902017   3.298768   3.523621
    15  H    4.547908   5.376827   5.352229   3.562926   3.176139
                   11         12         13         14         15
    11  H    0.000000
    12  H    2.366886   0.000000
    13  H    2.969694   1.873344   0.000000
    14  H    3.136174   2.453276   3.095099   0.000000
    15  H    4.162403   3.715786   2.393054   3.132161   0.000000
 Stoichiometry    C4H9NO
 Framework group  C1[X(C4H9NO)]
 Deg. of freedom    39
 Full point group                 C1      NOp   1
 Largest Abelian subgroup         C1      NOp   1
 Largest concise Abelian subgroup C1      NOp   1
                         Standard orientation:                         
 ---------------------------------------------------------------------
 Center     Atomic      Atomic             Coordinates (Angstroms)
 Number     Number       Type             X           Y           Z
 ---------------------------------------------------------------------
      1          6           0       -0.967924    0.688293   -0.217008
      2          6           0       -1.911059   -0.290530    0.320969
      3          8           0       -3.006056   -0.499842   -0.184543
      4          6           0        0.255965    0.860426    0.355068
      5          6           0        2.953864   -0.356587    0.109248
      6          1           0        2.973217   -0.705507    1.146545
      7          1           0        3.512471   -1.064136   -0.512559
      8          1           0        3.443692    0.621029    0.059601
      9          7           0        1.567303   -0.243481   -0.353496
     10          1           0        1.160603   -1.183702   -0.360260
     11          1           0        1.590792    0.013485   -1.345565
     12          1           0        0.824971    1.752208    0.065999
     13          1           0        0.438176    0.450260    1.356247
     14          1           0       -1.279622    1.250970   -1.090724
     15          1           0       -1.572044   -0.841120    1.221868
 ---------------------------------------------------------------------
 Rotational constants (GHZ):          11.2841032           1.2823593           1.2283757
 Standard basis: STO-3G (5D, 7F)
 There are    39 symmetry adapted cartesian basis functions of A   symmetry.
 There are    39 symmetry adapted basis functions of A   symmetry.
    39 basis functions,   117 primitive gaussians,    39 cartesian basis functions
    24 alpha electrons       24 beta electrons
       nuclear repulsion energy       226.1358986328 Hartrees.
 NAtoms=   15 NActive=   15 NUniq=   15 SFac= 1.00D+00 NAtFMM=   60 NAOKFM=F Big=F
 Integral buffers will be    131072 words long.
 Raffenetti 1 integral format.
 Two-electron integral symmetry is turned on.
 External calculation of energy, first and second derivatives.
 Running external command "~/scripts/MiMe -H 'hf def2svp' -EF 'wb97xd def2svp' -c 12 -m 48GB R"
         input file       "/local/jobs/1157679/Gau-2121684.EIn"
         output file      "/local/jobs/1157679/Gau-2121684.EOu"
         message file     "/local/jobs/1157679/Gau-2121684.EMs"
         fchk file        "/local/jobs/1157679/Gau-2121684.EFC"
         mat. el file     "/local/jobs/1157679/Gau-2121684.EUF"
 Read checkpoint file Gau-2121684_H.chk type G16
 Write formatted file Gau-2121684_H.fchk

deriv: 2

spelevel: wb97xd def2svp
gradlevel: wb97xd def2svp
hesslevel: hf def2svp

runspe: False
runforce: True
runfreq: True

Running Gaussian ...

Parsing files ...
SPE file: Gau-2121684_F.out
FORCE file: Gau-2121684_F.out
HESS file: Gau-2121684_H.out

 ExternalExternalExternalExternalExternalExternalExternalExternalExternalExternal
 Output from external command:
 "~/scripts/MiMe -H 'hf def2svp' -EF 'wb97xd def2svp' -c 12 -m 48GB R /local/jobs/1157679/Gau-2121684.EIn /local/jobs/1157679/Gau-2121684.EOu /local/jobs/1157679/Gau-2121684.EMs /local/jobs/1157679/Gau-2121684.EFC /local/jobs/1157679/Gau-2121684.EUF"
  
 --------------------------------------------------
 Force calculation at wb97xd def2svp
 Hessian calculation at hf def2svp
 ExternalExternalExternalExternalExternalExternalExternalExternalExternalExternal

 Recovered energy= -287.429662847     dipole=      8.790200000000     -0.572500000000     -0.167300000000
 Energy=    -287.429663     NIter=   0.
 Dipole moment=       8.790200      -0.572500      -0.167300
 ***** Axes restored to original set *****
 -------------------------------------------------------------------
 Center     Atomic                   Forces (Hartrees/Bohr)
 Number     Number              X              Y              Z
 -------------------------------------------------------------------
      1        6          -0.021617423   -0.019521154    0.009000480
      2        6          -0.007900679    0.022095489   -0.034067141
      3        8           0.007217852   -0.005844323    0.012504884
      4        6           0.006477037    0.016892111    0.013740639
      5        6          -0.003271134    0.002388186    0.001353625
      6        1          -0.000251438   -0.000345120    0.002868399
      7        1           0.004961156   -0.001959919   -0.000232635
      8        1           0.000899265    0.002754104    0.000422897
      9        7           0.025191473   -0.026878095   -0.025866527
     10        1          -0.005402528    0.003141299    0.001750188
     11        1          -0.004418786    0.001141352    0.002015011
     12        1          -0.000494433    0.002167226    0.008818161
     13        1          -0.002303157    0.006679300    0.003189223
     14        1          -0.001669855    0.002215906   -0.004486156
     15        1           0.002582649   -0.004926364    0.008988953
 -------------------------------------------------------------------
 Cartesian Forces:  Max     0.034067141 RMS     0.011390574
 FormGI is forming the generalized inverse of G from B-inverse, IUseBI=4.

 GradGradGradGradGradGradGradGradGradGradGradGradGradGradGradGradGradGrad
 Berny optimization.
 Internal  Forces:  Max     0.031080050 RMS     0.006723503
 Search for a saddle point.
 Step number   2 out of a maximum of   50
 All quantities printed in internal units (Hartrees-Bohrs-Radians)
 Swapping is turned off.
 Second derivative matrix not updated -- analytic derivatives used.
 ITU=  0  0
     Eigenvalues ---   -0.04154   0.00420   0.00690   0.01436   0.01747
     Eigenvalues ---    0.02065   0.03092   0.04268   0.05579   0.05827
     Eigenvalues ---    0.05834   0.06499   0.06991   0.10883   0.11191
     Eigenvalues ---    0.11698   0.12604   0.12699   0.13573   0.15917
     Eigenvalues ---    0.17107   0.20402   0.20982   0.23063   0.25264
     Eigenvalues ---    0.28801   0.34121   0.35602   0.35992   0.36025
     Eigenvalues ---    0.36433   0.36546   0.36566   0.38977   0.39128
     Eigenvalues ---    0.44816   0.45038   0.60662   0.84247
 Eigenvectors required to have negative eigenvalues:
                          R6        A11       D6        A10       D10
   1                    0.86098  -0.18178  -0.17371  -0.17242   0.16084
                          A19       D9        D7        R2        R1
   1                    0.16068  -0.15906   0.14619  -0.14180   0.08717
 RFO step:  Lambda0=4.788007859D-03 Lambda=-1.22094785D-02.
 Linear search not attempted -- option 19 set.
 Maximum step size (   0.100) exceeded in Quadratic search.
    -- Step size scaled by   0.288
 Iteration  1 RMS(Cart)=  0.02577758 RMS(Int)=  0.00034736
 Iteration  2 RMS(Cart)=  0.00039357 RMS(Int)=  0.00017859
 Iteration  3 RMS(Cart)=  0.00000022 RMS(Int)=  0.00017859
 Variable       Old X    -DE/DX   Delta X   Delta X   Delta X     New X
                                 (Linear)    (Quad)   (Total)
    R1        2.76250  -0.01339   0.00000  -0.02111  -0.02111   2.74139
    R2        2.57364   0.02335   0.00000   0.02365   0.02365   2.59729
    R3        2.05028   0.00523   0.00000   0.00432   0.00432   2.05460
    R4        2.31318  -0.01067   0.00000  -0.00099  -0.00099   2.31218
    R5        2.09555   0.01053   0.00000   0.01216   0.01216   2.10771
    R6        3.50506   0.03108   0.00000  -0.04769  -0.04769   3.45737
    R7        2.07233  -0.00070   0.00000   0.00152   0.00152   2.07385
    R8        2.07336  -0.00008   0.00000   0.00244   0.00244   2.07580
    R9        2.06846   0.00281   0.00000   0.00171   0.00171   2.07017
   R10        2.06950   0.00392   0.00000   0.00215   0.00215   2.07165
   R11        2.06848   0.00285   0.00000   0.00183   0.00183   2.07031
   R12        2.77054   0.00337   0.00000  -0.00177  -0.00177   2.76878
   R13        1.93590  -0.00079   0.00000  -0.00094  -0.00094   1.93496
   R14        1.93712  -0.00173   0.00000  -0.00141  -0.00141   1.93570
    A1        2.10578   0.00210   0.00000   0.00276   0.00276   2.10854
    A2        2.04683  -0.00146   0.00000   0.00435   0.00435   2.05118
    A3        2.13045  -0.00064   0.00000  -0.00715  -0.00715   2.12330
    A4        2.14081   0.01725   0.00000   0.02167   0.02167   2.16248
    A5        2.01994  -0.00824   0.00000  -0.01131  -0.01131   2.00863
    A6        2.12243  -0.00900   0.00000  -0.01036  -0.01036   2.11208
    A7        1.98194  -0.00918   0.00000  -0.01152  -0.01144   1.97050
    A8        2.04692   0.00250   0.00000   0.00090   0.00075   2.04767
    A9        2.07750  -0.00136   0.00000  -0.00751  -0.00766   2.06983
   A10        1.58725   0.00555   0.00000   0.02848   0.02849   1.61574
   A11        1.57948   0.00796   0.00000   0.03248   0.03251   1.61199
   A12        2.04696  -0.00342   0.00000  -0.01896  -0.01993   2.02703
   A13        1.89981  -0.00161   0.00000   0.00046   0.00047   1.90027
   A14        1.89629   0.00000   0.00000   0.00009   0.00008   1.89637
   A15        1.91816  -0.00143   0.00000  -0.00273  -0.00273   1.91543
   A16        1.89972  -0.00162   0.00000   0.00038   0.00039   1.90011
   A17        1.93161   0.00585   0.00000   0.00494   0.00494   1.93656
   A18        1.91771  -0.00130   0.00000  -0.00317  -0.00318   1.91454
   A19        2.20679  -0.01018   0.00000  -0.04748  -0.04749   2.15930
   A20        1.84220  -0.00147   0.00000  -0.00157  -0.00156   1.84064
   A21        1.80979   0.00038   0.00000   0.01032   0.01053   1.82031
   A22        1.88256   0.00747   0.00000   0.02133   0.02085   1.90341
   A23        1.87877   0.00597   0.00000   0.01880   0.01869   1.89746
   A24        1.80573  -0.00118   0.00000   0.00729   0.00698   1.81271
    D1       -3.10776  -0.00032   0.00000   0.00902   0.00902  -3.09873
    D2        0.03050   0.00093   0.00000   0.01065   0.01066   0.04116
    D3        0.01727  -0.00050   0.00000   0.00649   0.00649   0.02375
    D4       -3.12766   0.00074   0.00000   0.00813   0.00813  -3.11954
    D5        1.56376   0.00036   0.00000   0.00294   0.00294   1.56670
    D6       -2.90108   0.00294   0.00000   0.03212   0.03205  -2.86902
    D7       -0.26263  -0.00278   0.00000  -0.02656  -0.02647  -0.28910
    D8       -1.56045   0.00056   0.00000   0.00547   0.00546  -1.55499
    D9        0.25790   0.00314   0.00000   0.03465   0.03457   0.29247
   D10        2.89634  -0.00258   0.00000  -0.02403  -0.02395   2.87239
   D11       -3.06607   0.00103   0.00000   0.00000  -0.00010  -3.06618
   D12       -0.85024   0.00165   0.00000  -0.01190  -0.01175  -0.86199
   D13        1.04259  -0.00002   0.00000  -0.00060  -0.00066   1.04192
   D14        1.11433  -0.00211   0.00000  -0.01252  -0.01237   1.10196
   D15       -2.95302  -0.00150   0.00000  -0.02443  -0.02402  -2.97704
   D16       -1.06020  -0.00316   0.00000  -0.01313  -0.01293  -1.07313
   D17       -0.93288   0.00102   0.00000   0.00518   0.00482  -0.92805
   D18        1.28296   0.00164   0.00000  -0.00673  -0.00682   1.27614
   D19       -3.10740  -0.00002   0.00000   0.00457   0.00426  -3.10314
   D20        1.07177  -0.00137   0.00000  -0.00848  -0.00850   1.06327
   D21       -1.12769   0.00187   0.00000   0.01390   0.01411  -1.11358
   D22       -3.06585  -0.00304   0.00000  -0.01318  -0.01335  -3.07920
   D23       -3.11252  -0.00055   0.00000  -0.00651  -0.00653  -3.11905
   D24        0.97121   0.00268   0.00000   0.01587   0.01607   0.98728
   D25       -0.96695  -0.00222   0.00000  -0.01121  -0.01139  -0.97834
   D26       -1.01402   0.00032   0.00000  -0.00493  -0.00496  -1.01898
   D27        3.06971   0.00356   0.00000   0.01745   0.01765   3.08736
   D28        1.13155  -0.00135   0.00000  -0.00964  -0.00981   1.12174
         Item               Value     Threshold  Converged?
 Maximum Force            0.031080     0.000450     NO 
 RMS     Force            0.006724     0.000300     NO 
 Maximum Displacement     0.076636     0.001800     NO 
 RMS     Displacement     0.025899     0.001200     NO 
 Predicted change in Energy=-1.853246D-03
 GradGradGradGradGradGradGradGradGradGradGradGradGradGradGradGradGradGrad

                          Input orientation:                          
 ---------------------------------------------------------------------
 Center     Atomic      Atomic             Coordinates (Angstroms)
 Number     Number       Type             X           Y           Z
 ---------------------------------------------------------------------
      1          6           0       -0.952384    0.679062   -0.208307
      2          6           0       -1.892001   -0.297172    0.309929
      3          8           0       -2.992284   -0.512412   -0.180105
      4          6           0        0.288276    0.834047    0.362474
      5          6           0        2.935758   -0.345899    0.100356
      6          1           0        2.939127   -0.700451    1.136874
      7          1           0        3.521344   -1.039933   -0.513824
      8          1           0        3.407899    0.642121    0.066430
      9          7           0        1.556890   -0.251208   -0.385949
     10          1           0        1.142009   -1.187236   -0.399163
     11          1           0        1.574471    0.023369   -1.372635
     12          1           0        0.847914    1.744192    0.111863
     13          1           0        0.460928    0.420501    1.365371
     14          1           0       -1.260907    1.264803   -1.070759
     15          1           0       -1.542853   -0.859314    1.207764
 ---------------------------------------------------------------------
                    Distance matrix (angstroms):
                    1          2          3          4          5
     1  C    0.000000
     2  C    1.450683   0.000000
     3  O    2.362541   1.223554   0.000000
     4  C    1.374426   2.456832   3.587398   0.000000
     5  C    4.032799   4.832551   5.937009   2.910351   0.000000
     6  H    4.342398   4.917953   6.078769   3.159334   1.095485
     7  H    4.802345   5.525808   6.543469   3.838284   1.096271
     8  H    4.369086   5.387996   6.508155   3.139511   1.095560
     9  N    2.682054   3.518694   4.561314   1.829562   1.465175
    10  H    2.811756   3.240407   4.194729   2.322614   2.043258
    11  H    2.858424   3.866548   4.750204   2.306968   2.039403
    12  H    2.116149   3.422504   4.463702   1.097435   2.954269
    13  H    2.130907   2.676805   3.896600   1.098468   2.883126
    14  H    1.087246   2.178152   2.636177   2.153990   4.645199
    15  H    2.172673   1.115355   2.036510   2.633443   4.641972
                    6          7          8          9         10
     6  H    0.000000
     7  H    1.782983   0.000000
     8  H    1.779914   1.782938   0.000000
     9  N    2.105086   2.120735   2.104500   0.000000
    10  H    2.413711   2.386645   2.949166   1.023938   0.000000
    11  H    2.946835   2.378756   2.411477   1.024329   1.612524
    12  H    3.376403   3.910251   2.787499   2.175336   2.990135
    13  H    2.729508   3.876904   3.228158   2.172429   2.482391
    14  H    5.135772   5.337781   4.845481   3.272191   3.498220
    15  H    4.485354   5.351875   5.297820   3.538096   3.146146
                   11         12         13         14         15
    11  H    0.000000
    12  H    2.385969   0.000000
    13  H    2.982342   1.863652   0.000000
    14  H    3.109928   2.464860   3.100369   0.000000
    15  H    4.141895   3.700677   2.382835   3.127784   0.000000
 Stoichiometry    C4H9NO
 Framework group  C1[X(C4H9NO)]
 Deg. of freedom    39
 Full point group                 C1      NOp   1
 Largest Abelian subgroup         C1      NOp   1
 Largest concise Abelian subgroup C1      NOp   1
                         Standard orientation:                         
 ---------------------------------------------------------------------
 Center     Atomic      Atomic             Coordinates (Angstroms)
 Number     Number       Type             X           Y           Z
 ---------------------------------------------------------------------
      1          6           0       -0.955360    0.685076   -0.223634
      2          6           0       -1.900972   -0.272952    0.317182
      3          8           0       -3.001120   -0.495424   -0.169918
      4          6           0        0.284675    0.848715    0.346089
      5          6           0        2.926978   -0.350343    0.121072
      6          1           0        2.926138   -0.678111    1.166373
      7          1           0        3.510631   -1.062772   -0.473575
      8          1           0        3.404022    0.634187    0.062926
      9          7           0        1.549755   -0.261550   -0.370975
     10          1           0        1.130338   -1.195596   -0.361146
     11          1           0        1.571035   -0.012548   -1.364350
     12          1           0        0.849351    1.749398    0.073553
     13          1           0        0.452907    0.460291    1.359723
     14          1           0       -1.258955    1.249906   -1.101643
     15          1           0       -1.556721   -0.813476    1.230057
 ---------------------------------------------------------------------
 Rotational constants (GHZ):          11.3547284           1.2963671           1.2431594
 Standard basis: STO-3G (5D, 7F)
 There are    39 symmetry adapted cartesian basis functions of A   symmetry.
 There are    39 symmetry adapted basis functions of A   symmetry.
    39 basis functions,   117 primitive gaussians,    39 cartesian basis functions
    24 alpha electrons       24 beta electrons
       nuclear repulsion energy       226.7787247969 Hartrees.
 NAtoms=   15 NActive=   15 NUniq=   15 SFac= 1.00D+00 NAtFMM=   60 NAOKFM=F Big=F
 Integral buffers will be    131072 words long.
 Raffenetti 1 integral format.
 Two-electron integral symmetry is turned on.
 External calculation of energy, first and second derivatives.
 Running external command "~/scripts/MiMe -H 'hf def2svp' -EF 'wb97xd def2svp' -c 12 -m 48GB R"
         input file       "/local/jobs/1157679/Gau-2121684.EIn"
         output file      "/local/jobs/1157679/Gau-2121684.EOu"
         message file     "/local/jobs/1157679/Gau-2121684.EMs"
         fchk file        "/local/jobs/1157679/Gau-2121684.EFC"
         mat. el file     "/local/jobs/1157679/Gau-2121684.EUF"
 Read checkpoint file Gau-2121684_H.chk type G16
 Write formatted file Gau-2121684_H.fchk

deriv: 2

spelevel: wb97xd def2svp
gradlevel: wb97xd def2svp
hesslevel: hf def2svp

runspe: False
runforce: True
runfreq: True

Running Gaussian ...

Parsing files ...
SPE file: Gau-2121684_F.out
FORCE file: Gau-2121684_F.out
HESS file: Gau-2121684_H.out

 ExternalExternalExternalExternalExternalExternalExternalExternalExternalExternal
 Output from external command:
 "~/scripts/MiMe -H 'hf def2svp' -EF 'wb97xd def2svp' -c 12 -m 48GB R /local/jobs/1157679/Gau-2121684.EIn /local/jobs/1157679/Gau-2121684.EOu /local/jobs/1157679/Gau-2121684.EMs /local/jobs/1157679/Gau-2121684.EFC /local/jobs/1157679/Gau-2121684.EUF"
  
 --------------------------------------------------
 Force calculation at wb97xd def2svp
 Hessian calculation at hf def2svp
 ExternalExternalExternalExternalExternalExternalExternalExternalExternalExternal

 Recovered energy= -287.431472669     dipole=      9.191700000000     -0.577300000000     -0.221400000000
 Energy=    -287.431473     NIter=   0.
 Dipole moment=       9.191700      -0.577300      -0.221400
 ***** Axes restored to original set *****
 -------------------------------------------------------------------
 Center     Atomic                   Forces (Hartrees/Bohr)
 Number     Number              X              Y              Z
 -------------------------------------------------------------------
      1        6          -0.014303136   -0.013229514    0.007487160
      2        6          -0.006962013    0.015774401   -0.025695610
      3        8           0.005811505   -0.004399137    0.009831311
      4        6           0.001818103    0.013253389    0.009774093
      5        6          -0.002541316    0.001545714    0.000638268
      6        1          -0.000375232   -0.000161672    0.002171858
      7        1           0.003879893   -0.001353100    0.000084578
      8        1           0.000508930    0.002111333    0.000366962
      9        7           0.021255199   -0.021840326   -0.020890310
     10        1          -0.004425904    0.002505457    0.001833405
     11        1          -0.003598761    0.001202297    0.001569457
     12        1          -0.000265281    0.001376759    0.007117916
     13        1          -0.001736960    0.005076907    0.002235395
     14        1          -0.001093775    0.001696896   -0.003256483
     15        1           0.002028747   -0.003559405    0.006731999
 -------------------------------------------------------------------
 Cartesian Forces:  Max     0.025695610 RMS     0.008727806
 FormGI is forming the generalized inverse of G from B-inverse, IUseBI=4.

 GradGradGradGradGradGradGradGradGradGradGradGradGradGradGradGradGradGrad
 Berny optimization.
 Internal  Forces:  Max     0.025499595 RMS     0.005121391
 Search for a saddle point.
 Step number   3 out of a maximum of   50
 All quantities printed in internal units (Hartrees-Bohrs-Radians)
 Swapping is turned off.
 Second derivative matrix not updated -- analytic derivatives used.
 ITU=  0  0  0
     Eigenvalues ---   -0.04657   0.00436   0.00679   0.01371   0.01727
     Eigenvalues ---    0.02273   0.03150   0.04322   0.05597   0.05804
     Eigenvalues ---    0.05829   0.06458   0.07278   0.10942   0.11209
     Eigenvalues ---    0.11640   0.12654   0.12833   0.13663   0.15907
     Eigenvalues ---    0.17394   0.20376   0.20989   0.23058   0.25808
     Eigenvalues ---    0.28318   0.33266   0.35575   0.35839   0.35871
     Eigenvalues ---    0.36351   0.36387   0.37712   0.38653   0.38890
     Eigenvalues ---    0.45090   0.45233   0.57503   0.84399
 Eigenvectors required to have negative eigenvalues:
                          R6        A11       D6        A10       R2
   1                    0.87746  -0.17319  -0.17019  -0.16796  -0.15589
                          D10       D9        D7        A19       R1
   1                    0.15528  -0.15062   0.13571   0.11668   0.08646
 RFO step:  Lambda0=4.024718604D-03 Lambda=-7.45157355D-03.
 Linear search not attempted -- option 19 set.
 Maximum step size (   0.100) exceeded in Quadratic search.
    -- Step size scaled by   0.340
 Iteration  1 RMS(Cart)=  0.02376110 RMS(Int)=  0.00030571
 Iteration  2 RMS(Cart)=  0.00031877 RMS(Int)=  0.00017504
 Iteration  3 RMS(Cart)=  0.00000019 RMS(Int)=  0.00017504
 Variable       Old X    -DE/DX   Delta X   Delta X   Delta X     New X
                                 (Linear)    (Quad)   (Total)
    R1        2.74139  -0.00909   0.00000  -0.01863  -0.01863   2.72276
    R2        2.59729   0.01556   0.00000   0.02408   0.02408   2.62137
    R3        2.05460   0.00381   0.00000   0.00389   0.00389   2.05848
    R4        2.31218  -0.00839   0.00000  -0.00060  -0.00060   2.31158
    R5        2.10771   0.00785   0.00000   0.01197   0.01197   2.11969
    R6        3.45737   0.02550   0.00000  -0.05648  -0.05648   3.40089
    R7        2.07385  -0.00062   0.00000   0.00167   0.00167   2.07552
    R8        2.07580  -0.00014   0.00000   0.00230   0.00230   2.07810
    R9        2.07017   0.00211   0.00000   0.00137   0.00137   2.07154
   R10        2.07165   0.00288   0.00000   0.00169   0.00169   2.07334
   R11        2.07031   0.00211   0.00000   0.00147   0.00147   2.07178
   R12        2.76878   0.00233   0.00000  -0.00084  -0.00084   2.76794
   R13        1.93496  -0.00052   0.00000  -0.00070  -0.00070   1.93427
   R14        1.93570  -0.00125   0.00000  -0.00118  -0.00118   1.93452
    A1        2.10854   0.00087   0.00000   0.00134   0.00134   2.10988
    A2        2.05118  -0.00061   0.00000   0.00523   0.00522   2.05641
    A3        2.12330  -0.00025   0.00000  -0.00659  -0.00659   2.11671
    A4        2.16248   0.01360   0.00000   0.02113   0.02113   2.18361
    A5        2.00863  -0.00661   0.00000  -0.01143  -0.01143   1.99720
    A6        2.11208  -0.00698   0.00000  -0.00970  -0.00970   2.10237
    A7        1.97050  -0.00582   0.00000  -0.00849  -0.00841   1.96208
    A8        2.04767   0.00204   0.00000   0.00049   0.00027   2.04794
    A9        2.06983  -0.00120   0.00000  -0.00938  -0.00959   2.06024
   A10        1.61574   0.00388   0.00000   0.02934   0.02932   1.64506
   A11        1.61199   0.00555   0.00000   0.03211   0.03213   1.64412
   A12        2.02703  -0.00289   0.00000  -0.02103  -0.02200   2.00503
   A13        1.90027  -0.00122   0.00000   0.00106   0.00106   1.90134
   A14        1.89637   0.00007   0.00000   0.00019   0.00017   1.89654
   A15        1.91543  -0.00134   0.00000  -0.00328  -0.00329   1.91214
   A16        1.90011  -0.00125   0.00000   0.00098   0.00098   1.90109
   A17        1.93656   0.00480   0.00000   0.00445   0.00446   1.94101
   A18        1.91454  -0.00116   0.00000  -0.00341  -0.00341   1.91113
   A19        2.15930  -0.00763   0.00000  -0.03883  -0.03884   2.12046
   A20        1.84064  -0.00136   0.00000  -0.00637  -0.00632   1.83431
   A21        1.82031   0.00018   0.00000   0.00607   0.00628   1.82659
   A22        1.90341   0.00564   0.00000   0.01960   0.01914   1.92255
   A23        1.89746   0.00460   0.00000   0.01801   0.01786   1.91532
   A24        1.81271  -0.00084   0.00000   0.00770   0.00743   1.82015
    D1       -3.09873  -0.00034   0.00000   0.00808   0.00808  -3.09065
    D2        0.04116   0.00073   0.00000   0.00982   0.00982   0.05097
    D3        0.02375  -0.00046   0.00000   0.00680   0.00680   0.03055
    D4       -3.11954   0.00061   0.00000   0.00854   0.00853  -3.11101
    D5        1.56670   0.00017   0.00000   0.00393   0.00392   1.57062
    D6       -2.86902   0.00246   0.00000   0.03586   0.03576  -2.83326
    D7       -0.28910  -0.00223   0.00000  -0.02591  -0.02579  -0.31489
    D8       -1.55499   0.00031   0.00000   0.00513   0.00511  -1.54988
    D9        0.29247   0.00259   0.00000   0.03706   0.03696   0.32943
   D10        2.87239  -0.00210   0.00000  -0.02471  -0.02460   2.84780
   D11       -3.06618   0.00091   0.00000  -0.00211  -0.00220  -3.06838
   D12       -0.86199   0.00139   0.00000  -0.01236  -0.01220  -0.87419
   D13        1.04192   0.00004   0.00000  -0.00390  -0.00397   1.03795
   D14        1.10196  -0.00162   0.00000  -0.01533  -0.01520   1.08675
   D15       -2.97704  -0.00114   0.00000  -0.02558  -0.02520  -3.00224
   D16       -1.07313  -0.00248   0.00000  -0.01712  -0.01697  -1.09011
   D17       -0.92805   0.00063   0.00000   0.00151   0.00120  -0.92685
   D18        1.27614   0.00111   0.00000  -0.00874  -0.00880   1.26734
   D19       -3.10314  -0.00024   0.00000  -0.00029  -0.00057  -3.10371
   D20        1.06327  -0.00119   0.00000  -0.00844  -0.00846   1.05480
   D21       -1.11358   0.00166   0.00000   0.01473   0.01493  -1.09865
   D22       -3.07920  -0.00261   0.00000  -0.01361  -0.01378  -3.09298
   D23       -3.11905  -0.00051   0.00000  -0.00642  -0.00644  -3.12550
   D24        0.98728   0.00233   0.00000   0.01676   0.01695   1.00423
   D25       -0.97834  -0.00194   0.00000  -0.01159  -0.01176  -0.99009
   D26       -1.01898   0.00025   0.00000  -0.00457  -0.00460  -1.02358
   D27        3.08736   0.00309   0.00000   0.01860   0.01879   3.10615
   D28        1.12174  -0.00118   0.00000  -0.00975  -0.00992   1.11182
         Item               Value     Threshold  Converged?
 Maximum Force            0.025500     0.000450     NO 
 RMS     Force            0.005121     0.000300     NO 
 Maximum Displacement     0.067163     0.001800     NO 
 RMS     Displacement     0.023805     0.001200     NO 
 Predicted change in Energy=-9.777013D-04
 GradGradGradGradGradGradGradGradGradGradGradGradGradGradGradGradGradGrad

                          Input orientation:                          
 ---------------------------------------------------------------------
 Center     Atomic      Atomic             Coordinates (Angstroms)
 Number     Number       Type             X           Y           Z
 ---------------------------------------------------------------------
      1          6           0       -0.938433    0.671454   -0.212006
      2          6           0       -1.878108   -0.292110    0.302321
      3          8           0       -2.983652   -0.518097   -0.169914
      4          6           0        0.318352    0.814583    0.357416
      5          6           0        2.915702   -0.337422    0.102377
      6          1           0        2.903586   -0.682230    1.142876
      7          1           0        3.521710   -1.029843   -0.495180
      8          1           0        3.374762    0.657581    0.067821
      9          7           0        1.543714   -0.260766   -0.404778
     10          1           0        1.116626   -1.190968   -0.408540
     11          1           0        1.554332    0.016324   -1.390210
     12          1           0        0.870575    1.737636    0.135331
     13          1           0        0.476519    0.412791    1.368776
     14          1           0       -1.240814    1.267446   -1.072204
     15          1           0       -1.520682   -0.851909    1.206234
 ---------------------------------------------------------------------
                    Distance matrix (angstroms):
                    1          2          3          4          5
     1  C    0.000000
     2  C    1.440825   0.000000
     3  O    2.366374   1.223235   0.000000
     4  C    1.387168   2.460130   3.599631   0.000000
     5  C    3.996376   4.798192   5.908397   2.852786   0.000000
     6  H    4.292933   4.870659   6.034064   3.088823   1.096210
     7  H    4.781996   5.508021   6.533561   3.793459   1.097164
     8  H    4.322285   5.343177   6.470561   3.074111   1.096339
     9  N    2.658430   3.494258   4.540752   1.799674   1.464729
    10  H    2.780379   3.206509   4.161968   2.290450   2.055785
    11  H    2.833944   3.839458   4.729484   2.284526   2.050922
    12  H    2.128356   3.420967   4.476223   1.098317   2.913674
    13  H    2.137257   2.679269   3.899603   1.099683   2.848894
    14  H    1.089303   2.174322   2.653258   2.163307   4.607805
    15  H    2.161263   1.121690   2.036049   2.622925   4.600510
                    6          7          8          9         10
     6  H    0.000000
     7  H    1.784976   0.000000
     8  H    1.781247   1.784927   0.000000
     9  N    2.102882   2.124175   2.102248   0.000000
    10  H    2.420523   2.412032   2.956895   1.023570   0.000000
    11  H    2.953809   2.401275   2.418891   1.023703   1.616421
    12  H    3.317233   3.883942   2.728008   2.176797   2.988822
    13  H    2.672219   3.850807   3.186254   2.176712   2.478029
    14  H    5.087619   5.319035   4.793238   3.245687   3.470126
    15  H    4.427973   5.324677   5.247848   3.512169   3.110924
                   11         12         13         14         15
    11  H    0.000000
    12  H    2.399524   0.000000
    13  H    2.988456   1.852534   0.000000
    14  H    3.078843   2.477334   3.104521   0.000000
    15  H    4.117166   3.683842   2.369535   3.124304   0.000000
 Stoichiometry    C4H9NO
 Framework group  C1[X(C4H9NO)]
 Deg. of freedom    39
 Full point group                 C1      NOp   1
 Largest Abelian subgroup         C1      NOp   1
 Largest concise Abelian subgroup C1      NOp   1
                         Standard orientation:                         
 ---------------------------------------------------------------------
 Center     Atomic      Atomic             Coordinates (Angstroms)
 Number     Number       Type             X           Y           Z
 ---------------------------------------------------------------------
      1          6           0       -0.942855    0.682410   -0.228909
      2          6           0       -1.891567   -0.257685    0.311596
      3          8           0       -2.997381   -0.489554   -0.157142
      4          6           0        0.313252    0.833280    0.340009
      5          6           0        2.902336   -0.345912    0.128972
      6          1           0        2.884349   -0.658546    1.179503
      7          1           0        3.504773   -1.060966   -0.445081
      8          1           0        3.369223    0.644009    0.065460
      9          7           0        1.532548   -0.274314   -0.384823
     10          1           0        1.098253   -1.200887   -0.361490
     11          1           0        1.548342   -0.027665   -1.378243
     12          1           0        0.873315    1.744821    0.091569
     13          1           0        0.465188    0.461490    1.363723
     14          1           0       -1.237953    1.254045   -1.107960
     15          1           0       -1.541278   -0.792229    1.233414
 ---------------------------------------------------------------------
 Rotational constants (GHZ):          11.4597104           1.3095050           1.2572817
 Standard basis: STO-3G (5D, 7F)
 There are    39 symmetry adapted cartesian basis functions of A   symmetry.
 There are    39 symmetry adapted basis functions of A   symmetry.
    39 basis functions,   117 primitive gaussians,    39 cartesian basis functions
    24 alpha electrons       24 beta electrons
       nuclear repulsion energy       227.4579630544 Hartrees.
 NAtoms=   15 NActive=   15 NUniq=   15 SFac= 1.00D+00 NAtFMM=   60 NAOKFM=F Big=F
 Integral buffers will be    131072 words long.
 Raffenetti 1 integral format.
 Two-electron integral symmetry is turned on.
 External calculation of energy, first and second derivatives.
 Running external command "~/scripts/MiMe -H 'hf def2svp' -EF 'wb97xd def2svp' -c 12 -m 48GB R"
         input file       "/local/jobs/1157679/Gau-2121684.EIn"
         output file      "/local/jobs/1157679/Gau-2121684.EOu"
         message file     "/local/jobs/1157679/Gau-2121684.EMs"
         fchk file        "/local/jobs/1157679/Gau-2121684.EFC"
         mat. el file     "/local/jobs/1157679/Gau-2121684.EUF"
 Read checkpoint file Gau-2121684_H.chk type G16
 Write formatted file Gau-2121684_H.fchk

deriv: 2

spelevel: wb97xd def2svp
gradlevel: wb97xd def2svp
hesslevel: hf def2svp

runspe: False
runforce: True
runfreq: True

Running Gaussian ...

Parsing files ...
SPE file: Gau-2121684_F.out
FORCE file: Gau-2121684_F.out
HESS file: Gau-2121684_H.out

 ExternalExternalExternalExternalExternalExternalExternalExternalExternalExternal
 Output from external command:
 "~/scripts/MiMe -H 'hf def2svp' -EF 'wb97xd def2svp' -c 12 -m 48GB R /local/jobs/1157679/Gau-2121684.EIn /local/jobs/1157679/Gau-2121684.EOu /local/jobs/1157679/Gau-2121684.EMs /local/jobs/1157679/Gau-2121684.EFC /local/jobs/1157679/Gau-2121684.EUF"
  
 --------------------------------------------------
 Force calculation at wb97xd def2svp
 Hessian calculation at hf def2svp
 ExternalExternalExternalExternalExternalExternalExternalExternalExternalExternal

 Recovered energy= -287.432382105     dipole=      9.609800000000     -0.589200000000     -0.279000000000
 Energy=    -287.432382     NIter=   0.
 Dipole moment=       9.609800      -0.589200      -0.279000
 ***** Axes restored to original set *****
 -------------------------------------------------------------------
 Center     Atomic                   Forces (Hartrees/Bohr)
 Number     Number              X              Y              Z
 -------------------------------------------------------------------
      1        6          -0.007871215   -0.007919090    0.005797180
      2        6          -0.006100365    0.010137985   -0.018157987
      3        8           0.004594116   -0.003059825    0.007421556
      4        6          -0.002140768    0.010332839    0.006570752
      5        6          -0.001758305    0.000825192    0.000070332
      6        1          -0.000412115   -0.000040119    0.001552979
      7        1           0.002834236   -0.000857952    0.000260718
      8        1           0.000232356    0.001526467    0.000300155
      9        7           0.017326804   -0.016963741   -0.015891076
     10        1          -0.003427150    0.001867028    0.001679383
     11        1          -0.002798954    0.001087271    0.001118916
     12        1          -0.000100820    0.000707825    0.005372043
     13        1          -0.001268471    0.003521198    0.001396133
     14        1          -0.000621777    0.001212189   -0.002178289
     15        1           0.001512429   -0.002377266    0.004687203
 -------------------------------------------------------------------
 Cartesian Forces:  Max     0.018157987 RMS     0.006388176
 FormGI is forming the generalized inverse of G from B-inverse, IUseBI=4.

 GradGradGradGradGradGradGradGradGradGradGradGradGradGradGradGradGradGrad
 Berny optimization.
 Internal  Forces:  Max     0.020290563 RMS     0.003725404
 Search for a saddle point.
 Step number   4 out of a maximum of   50
 All quantities printed in internal units (Hartrees-Bohrs-Radians)
 Swapping is turned off.
 Second derivative matrix not updated -- analytic derivatives used.
 ITU=  0  0  0  0
     Eigenvalues ---   -0.04906   0.00453   0.00670   0.01306   0.01673
     Eigenvalues ---    0.02524   0.03229   0.04376   0.05598   0.05775
     Eigenvalues ---    0.05835   0.06409   0.07561   0.11022   0.11293
     Eigenvalues ---    0.11670   0.12721   0.13264   0.13815   0.15907
     Eigenvalues ---    0.17656   0.20371   0.21012   0.23091   0.26260
     Eigenvalues ---    0.27735   0.32451   0.35405   0.35668   0.35766
     Eigenvalues ---    0.36239   0.36274   0.38106   0.38589   0.39393
     Eigenvalues ---    0.45320   0.45383   0.54705   0.84433
 Eigenvectors required to have negative eigenvalues:
                          R6        R2        A11       D6        A10
   1                    0.88558  -0.16838  -0.16795  -0.16748  -0.16616
                          D10       D9        D7        R1        A19
   1                    0.15078  -0.14379   0.12708   0.08473   0.08384
 RFO step:  Lambda0=3.243069075D-03 Lambda=-4.06630442D-03.
 Linear search not attempted -- option 19 set.
 Maximum step size (   0.100) exceeded in Quadratic search.
    -- Step size scaled by   0.402
 Iteration  1 RMS(Cart)=  0.02168106 RMS(Int)=  0.00026643
 Iteration  2 RMS(Cart)=  0.00028355 RMS(Int)=  0.00015700
 Iteration  3 RMS(Cart)=  0.00000015 RMS(Int)=  0.00015700
 Variable       Old X    -DE/DX   Delta X   Delta X   Delta X     New X
                                 (Linear)    (Quad)   (Total)
    R1        2.72276  -0.00531   0.00000  -0.01555  -0.01555   2.70721
    R2        2.62137   0.00889   0.00000   0.02365   0.02365   2.64502
    R3        2.05848   0.00256   0.00000   0.00323   0.00323   2.06171
    R4        2.31158  -0.00645   0.00000  -0.00021  -0.00021   2.31136
    R5        2.11969   0.00545   0.00000   0.01114   0.01114   2.13082
    R6        3.40089   0.02029   0.00000  -0.06556  -0.06556   3.33533
    R7        2.07552  -0.00054   0.00000   0.00183   0.00183   2.07735
    R8        2.07810  -0.00019   0.00000   0.00215   0.00215   2.08025
    R9        2.07154   0.00149   0.00000   0.00096   0.00096   2.07250
   R10        2.07334   0.00196   0.00000   0.00108   0.00108   2.07442
   R11        2.07178   0.00147   0.00000   0.00103   0.00103   2.07281
   R12        2.76794   0.00152   0.00000   0.00031   0.00031   2.76825
   R13        1.93427  -0.00027   0.00000  -0.00026  -0.00026   1.93401
   R14        1.93452  -0.00081   0.00000  -0.00075  -0.00075   1.93377
    A1        2.10988  -0.00014   0.00000  -0.00035  -0.00035   2.10953
    A2        2.05641   0.00006   0.00000   0.00600   0.00600   2.06240
    A3        2.11671   0.00007   0.00000  -0.00562  -0.00562   2.11109
    A4        2.18361   0.01017   0.00000   0.01972   0.01972   2.20333
    A5        1.99720  -0.00506   0.00000  -0.01108  -0.01109   1.98612
    A6        2.10237  -0.00512   0.00000  -0.00863  -0.00863   2.09374
    A7        1.96208  -0.00323   0.00000  -0.00618  -0.00610   1.95599
    A8        2.04794   0.00155   0.00000  -0.00025  -0.00051   2.04743
    A9        2.06024  -0.00104   0.00000  -0.01130  -0.01153   2.04871
   A10        1.64506   0.00246   0.00000   0.02962   0.02959   1.67465
   A11        1.64412   0.00351   0.00000   0.03091   0.03092   1.67504
   A12        2.00503  -0.00221   0.00000  -0.02181  -0.02272   1.98231
   A13        1.90134  -0.00087   0.00000   0.00169   0.00169   1.90302
   A14        1.89654   0.00011   0.00000   0.00038   0.00037   1.89691
   A15        1.91214  -0.00116   0.00000  -0.00367  -0.00367   1.90847
   A16        1.90109  -0.00089   0.00000   0.00166   0.00166   1.90276
   A17        1.94101   0.00372   0.00000   0.00332   0.00332   1.94433
   A18        1.91113  -0.00097   0.00000  -0.00337  -0.00338   1.90775
   A19        2.12046  -0.00520   0.00000  -0.02912  -0.02911   2.09134
   A20        1.83431  -0.00123   0.00000  -0.00888  -0.00882   1.82549
   A21        1.82659  -0.00002   0.00000   0.00231   0.00247   1.82906
   A22        1.92255   0.00396   0.00000   0.01665   0.01630   1.93885
   A23        1.91532   0.00330   0.00000   0.01601   0.01587   1.93119
   A24        1.82015  -0.00055   0.00000   0.00658   0.00636   1.82651
    D1       -3.09065  -0.00037   0.00000   0.00606   0.00606  -3.08459
    D2        0.05097   0.00052   0.00000   0.00758   0.00758   0.05855
    D3        0.03055  -0.00043   0.00000   0.00727   0.00728   0.03783
    D4       -3.11101   0.00045   0.00000   0.00879   0.00880  -3.10221
    D5        1.57062   0.00001   0.00000   0.00528   0.00526   1.57588
    D6       -2.83326   0.00190   0.00000   0.03873   0.03861  -2.79465
    D7       -0.31489  -0.00163   0.00000  -0.02331  -0.02317  -0.33807
    D8       -1.54988   0.00008   0.00000   0.00388   0.00387  -1.54601
    D9        0.32943   0.00197   0.00000   0.03733   0.03722   0.36665
   D10        2.84780  -0.00156   0.00000  -0.02470  -0.02456   2.82323
   D11       -3.06838   0.00076   0.00000  -0.00550  -0.00557  -3.07394
   D12       -0.87419   0.00113   0.00000  -0.01304  -0.01292  -0.88710
   D13        1.03795   0.00006   0.00000  -0.00824  -0.00829   1.02966
   D14        1.08675  -0.00120   0.00000  -0.01887  -0.01875   1.06800
   D15       -3.00224  -0.00083   0.00000  -0.02641  -0.02610  -3.02834
   D16       -1.09011  -0.00190   0.00000  -0.02160  -0.02148  -1.11158
   D17       -0.92685   0.00033   0.00000  -0.00392  -0.00417  -0.93103
   D18        1.26734   0.00070   0.00000  -0.01146  -0.01152   1.25582
   D19       -3.10371  -0.00037   0.00000  -0.00666  -0.00690  -3.11061
   D20        1.05480  -0.00097   0.00000  -0.00714  -0.00715   1.04765
   D21       -1.09865   0.00134   0.00000   0.01400   0.01415  -1.08450
   D22       -3.09298  -0.00208   0.00000  -0.01226  -0.01238  -3.10536
   D23       -3.12550  -0.00044   0.00000  -0.00533  -0.00534  -3.13084
   D24        1.00423   0.00187   0.00000   0.01581   0.01596   1.02019
   D25       -0.99009  -0.00155   0.00000  -0.01045  -0.01058  -1.00067
   D26       -1.02358   0.00019   0.00000  -0.00335  -0.00338  -1.02696
   D27        3.10615   0.00249   0.00000   0.01778   0.01793   3.12407
   D28        1.11182  -0.00093   0.00000  -0.00848  -0.00861   1.10321
         Item               Value     Threshold  Converged?
 Maximum Force            0.020291     0.000450     NO 
 RMS     Force            0.003725     0.000300     NO 
 Maximum Displacement     0.054631     0.001800     NO 
 RMS     Displacement     0.021662     0.001200     NO 
 Predicted change in Energy=-2.629069D-04
 GradGradGradGradGradGradGradGradGradGradGradGradGradGradGradGradGradGrad

                          Input orientation:                          
 ---------------------------------------------------------------------
 Center     Atomic      Atomic             Coordinates (Angstroms)
 Number     Number       Type             X           Y           Z
 ---------------------------------------------------------------------
      1          6           0       -0.924423    0.663283   -0.218739
      2          6           0       -1.865091   -0.287926    0.293778
      3          8           0       -2.975938   -0.523344   -0.160780
      4          6           0        0.347262    0.794273    0.351158
      5          6           0        2.898554   -0.329323    0.103461
      6          1           0        2.875301   -0.665245    1.147209
      7          1           0        3.518225   -1.021218   -0.481611
      8          1           0        3.347005    0.671006    0.066163
      9          7           0        1.530576   -0.266511   -0.416738
     10          1           0        1.091156   -1.190781   -0.409739
     11          1           0        1.531358    0.012257   -1.401342
     12          1           0        0.891777    1.729847    0.159755
     13          1           0        0.487855    0.403653    1.370695
     14          1           0       -1.220189    1.269298   -1.076393
     15          1           0       -1.499239   -0.844798    1.203444
 ---------------------------------------------------------------------
                    Distance matrix (angstroms):
                    1          2          3          4          5
     1  C    0.000000
     2  C    1.432595   0.000000
     3  O    2.370688   1.223121   0.000000
     4  C    1.399686   2.463524   3.611350   0.000000
     5  C    3.962857   4.767625   5.883632   2.798735   0.000000
     6  H    4.250729   4.831359   5.997330   3.025702   1.096719
     7  H    4.758546   5.488081   6.521116   3.747602   1.097734
     8  H    4.280926   5.304461   6.438757   3.015772   1.096886
     9  N    2.632630   3.469272   4.521078   1.764982   1.464895
    10  H    2.745285   3.170091   4.129008   2.252284   2.066924
    11  H    2.802364   3.807809   4.705484   2.254969   2.061634
    12  H    2.139952   3.419019   4.487631   1.099286   2.875849
    13  H    2.142017   2.678505   3.899052   1.100821   2.820391
    14  H    1.091010   2.172145   2.671061   2.172659   4.572930
    15  H    2.151122   1.127584   2.035947   2.611994   4.562485
                    6          7          8          9         10
     6  H    0.000000
     7  H    1.786931   0.000000
     8  H    1.782339   1.786896   0.000000
     9  N    2.100763   2.127096   2.100368   0.000000
    10  H    2.425583   2.434046   2.963375   1.023433   0.000000
    11  H    2.959781   2.421078   2.425715   1.023307   1.619986
    12  H    3.262806   3.857193   2.675453   2.173903   2.982305
    13  H    2.625336   3.826805   3.154048   2.175156   2.464983
    14  H    5.045780   5.296489   4.745803   3.218783   3.440746
    15  H    4.378585   5.295798   5.203572   3.484134   3.071190
                   11         12         13         14         15
    11  H    0.000000
    12  H    2.407530   0.000000
    13  H    2.987688   1.840739   0.000000
    14  H    3.042491   2.490093   3.107249   0.000000
    15  H    4.087049   3.665384   2.352690   3.121686   0.000000
 Stoichiometry    C4H9NO
 Framework group  C1[X(C4H9NO)]
 Deg. of freedom    39
 Full point group                 C1      NOp   1
 Largest Abelian subgroup         C1      NOp   1
 Largest concise Abelian subgroup C1      NOp   1
                         Standard orientation:                         
 ---------------------------------------------------------------------
 Center     Atomic      Atomic             Coordinates (Angstroms)
 Number     Number       Type             X           Y           Z
 ---------------------------------------------------------------------
      1          6           0       -0.930303    0.680234   -0.232662
      2          6           0       -1.882810   -0.245264    0.304473
      3          8           0       -2.994670   -0.482169   -0.146824
      4          6           0        0.340889    0.814462    0.337580
      5          6           0        2.880697   -0.343175    0.132231
      6          1           0        2.850481   -0.647749    1.185376
[...]
 Red. masses --      1.3003                 1.3016                 1.1290
 Frc consts  --      1.5191                 1.6327                 1.4325
 IR Inten    --      0.0000                 0.0000                 0.0000
  Atom  AN      X      Y      Z        X      Y      Z        X      Y      Z
     1   6    -0.07  -0.02  -0.02    -0.06  -0.07   0.02     0.01  -0.02   0.00
     2   6    -0.00  -0.01   0.02     0.00   0.00  -0.02    -0.01   0.02  -0.02
     3   8     0.01   0.01  -0.01     0.00   0.01  -0.00     0.01  -0.00   0.01
     4   6     0.03   0.05  -0.02    -0.04   0.03   0.00    -0.05   0.04  -0.02
     5   6     0.02   0.05  -0.05     0.01  -0.03  -0.05    -0.02  -0.05   0.04
     6   1    -0.21  -0.10  -0.08    -0.09   0.10  -0.04     0.18   0.08   0.06
     7   1    -0.08  -0.11   0.14     0.19  -0.02   0.13     0.12   0.09  -0.05
     8   1     0.19   0.01   0.17    -0.04   0.05   0.12    -0.11  -0.03  -0.08
     9   7    -0.03  -0.07   0.06    -0.07   0.06   0.03     0.01   0.03   0.01
    10   1    -0.04  -0.08  -0.20     0.23  -0.10  -0.10     0.27  -0.10   0.09
    11   1     0.17   0.08   0.11     0.43  -0.27  -0.08    -0.47   0.22   0.08
    12   1    -0.33   0.27   0.29     0.56  -0.30  -0.03     0.21  -0.11  -0.09
    13   1     0.49  -0.28  -0.17     0.02   0.02  -0.00     0.50  -0.41  -0.24
    14   1     0.24   0.07  -0.06     0.25   0.11   0.08    -0.02  -0.06  -0.02
    15   1     0.17   0.07  -0.01     0.22   0.15  -0.01    -0.01   0.00  -0.04
                     22                     23                     24
                      A                      A                      A
 Frequencies --   1472.6926              1487.0111              1558.0199
 Red. masses --      1.2466                 1.2714                 1.5421
 Frc consts  --      1.5929                 1.6564                 2.2055
 IR Inten    --      0.0000                 0.0000                 0.0000
  Atom  AN      X      Y      Z        X      Y      Z        X      Y      Z
     1   6    -0.08  -0.04   0.01     0.08   0.06  -0.03     0.09   0.05  -0.01
     2   6     0.01  -0.01   0.02     0.01   0.00   0.01     0.05  -0.05   0.09
     3   8    -0.01   0.01  -0.02    -0.01  -0.01   0.01    -0.11  -0.00  -0.06
     4   6     0.06   0.02  -0.02     0.01  -0.01   0.02    -0.01  -0.01   0.03
     5   6    -0.02  -0.04   0.05     0.01  -0.05  -0.02    -0.01  -0.00  -0.01
     6   1     0.09   0.08   0.06     0.01   0.11   0.00     0.07   0.02  -0.00
     7   1     0.03   0.08  -0.14     0.15   0.00   0.05     0.03  -0.00   0.05
     8   1    -0.17  -0.02  -0.16    -0.12   0.04   0.05     0.04  -0.00   0.07
     9   7     0.02   0.00  -0.04    -0.08   0.05   0.01    -0.01   0.01   0.01
    10   1     0.42  -0.21  -0.02     0.56  -0.30  -0.18    -0.01   0.01  -0.00
    11   1    -0.29   0.04  -0.03     0.21  -0.24  -0.09     0.04  -0.03  -0.01
    12   1    -0.20   0.20   0.32    -0.35   0.20   0.03    -0.13   0.02  -0.34
    13   1    -0.26   0.24   0.08     0.07  -0.02   0.01    -0.10  -0.26  -0.07
    14   1     0.31   0.14   0.03    -0.23  -0.10  -0.06    -0.23  -0.10  -0.03
    15   1     0.34   0.18   0.01    -0.32  -0.20   0.01     0.76   0.30   0.03
                     25                     26                     27
                      A                      A                      A
 Frequencies --   1587.8468              1608.4722              1611.6758
 Red. masses --      1.1917                 1.2877                 1.0624
 Frc consts  --      1.7703                 1.9629                 1.6258
 IR Inten    --      0.0000                 0.0000                 0.0000
  Atom  AN      X      Y      Z        X      Y      Z        X      Y      Z
     1   6    -0.01  -0.00   0.00     0.08   0.02   0.01     0.02   0.00   0.01
     2   6    -0.00   0.00  -0.01     0.02  -0.00   0.02     0.00  -0.00   0.00
     3   8     0.01   0.00   0.00    -0.04  -0.01  -0.01    -0.01  -0.00  -0.00
     4   6     0.02  -0.01  -0.01    -0.09  -0.04  -0.07    -0.03  -0.01  -0.03
     5   6    -0.12   0.01  -0.04     0.01   0.03   0.01     0.01  -0.01  -0.04
     6   1     0.55  -0.07  -0.01    -0.08  -0.42  -0.04     0.41   0.24   0.01
     7   1     0.45   0.19   0.31     0.10  -0.02   0.22    -0.34  -0.31   0.15
     8   1     0.46  -0.25   0.20    -0.09  -0.02  -0.35    -0.24   0.28   0.54
     9   7    -0.00  -0.00  -0.01    -0.00   0.01   0.00     0.01  -0.01  -0.02
    10   1    -0.02   0.01   0.05     0.01   0.01   0.02    -0.02   0.01   0.03
    11   1     0.01   0.04   0.01    -0.00   0.00   0.00    -0.09   0.04  -0.00
    12   1    -0.05   0.03   0.08     0.09  -0.10   0.48     0.04  -0.03   0.20
    13   1    -0.05   0.09   0.03     0.35   0.42   0.10     0.10   0.19   0.05
    14   1     0.02   0.01   0.00    -0.13  -0.07   0.01    -0.03  -0.02   0.01
    15   1    -0.03  -0.01   0.00     0.13   0.06   0.00     0.03   0.02  -0.00
                     28                     29                     30
                      A                      A                      A
 Frequencies --   1616.5176              1786.5758              1824.9375
 Red. masses --      1.0893                 1.0971                 5.1736
 Frc consts  --      1.6771                 2.0633                10.1516
 IR Inten    --      0.0000                 0.0000                 0.0000
  Atom  AN      X      Y      Z        X      Y      Z        X      Y      Z
     1   6     0.04   0.01   0.01    -0.00  -0.00  -0.01    -0.12  -0.06  -0.00
     2   6     0.01  -0.00   0.01     0.02   0.00   0.01     0.48   0.15   0.09
     3   8    -0.02  -0.00  -0.01    -0.01  -0.00  -0.00    -0.25  -0.06  -0.07
     4   6    -0.04  -0.02  -0.03     0.01  -0.00   0.00    -0.02   0.02   0.00
     5   6    -0.01  -0.04   0.01     0.01  -0.01  -0.00    -0.01   0.00  -0.00
     6   1    -0.22   0.55   0.05    -0.04  -0.00  -0.01     0.02   0.00  -0.00
     7   1     0.06   0.27  -0.51     0.00  -0.02   0.00     0.01   0.01   0.01
     8   1     0.31  -0.16   0.19    -0.03   0.02  -0.01     0.01  -0.01   0.01
     9   7    -0.00  -0.02   0.01    -0.05  -0.02  -0.05     0.03  -0.01   0.01
    10   1    -0.09   0.03   0.01     0.16  -0.10   0.68    -0.08   0.05  -0.10
    11   1     0.06   0.01   0.02     0.41   0.55   0.14    -0.14  -0.06  -0.01
    12   1     0.02  -0.04   0.24    -0.01   0.01  -0.01     0.08  -0.05  -0.03
    13   1     0.19   0.20   0.05    -0.02  -0.00   0.00     0.02  -0.06  -0.05
    14   1    -0.07  -0.03   0.00     0.01   0.01   0.00     0.27   0.11   0.05
    15   1     0.05   0.02   0.00    -0.03  -0.02   0.01    -0.62  -0.33   0.05
                     31                     32                     33
                      A                      A                      A
 Frequencies --   2728.6669              3092.8970              3132.4640
 Red. masses --      1.0752                 1.0602                 1.0337
 Frc consts  --      4.7168                 5.9757                 5.9759
 IR Inten    --      0.0000                 0.0000                 0.0000
  Atom  AN      X      Y      Z        X      Y      Z        X      Y      Z
     1   6    -0.00   0.00  -0.00     0.00   0.00   0.00    -0.00  -0.00   0.00
     2   6    -0.01   0.05  -0.06     0.00   0.00  -0.00     0.00   0.00  -0.00
     3   8    -0.01  -0.00  -0.00    -0.00  -0.00  -0.00    -0.00  -0.00  -0.00
     4   6    -0.00   0.00   0.00    -0.03  -0.02  -0.06    -0.00  -0.00  -0.00
     5   6    -0.00  -0.00  -0.00     0.00  -0.00   0.00    -0.04   0.01  -0.02
     6   1     0.00   0.00  -0.00     0.01   0.00  -0.04    -0.03  -0.05   0.59
     7   1     0.00   0.00   0.00    -0.01   0.02   0.01     0.28  -0.47  -0.23
     8   1    -0.00  -0.00   0.00    -0.02  -0.03   0.01     0.26   0.46  -0.12
     9   7     0.00  -0.00   0.00     0.00  -0.00   0.00     0.00   0.00   0.00
    10   1    -0.00  -0.00  -0.01    -0.00  -0.00  -0.00    -0.00  -0.00  -0.00
    11   1    -0.00   0.00   0.00    -0.00   0.00  -0.01    -0.00  -0.00  -0.00
    12   1     0.00  -0.01   0.00     0.30   0.54  -0.04     0.01   0.03  -0.00
    13   1     0.01   0.01  -0.03     0.03  -0.29   0.72     0.00  -0.02   0.05
    14   1     0.01   0.00  -0.00     0.01  -0.02   0.02     0.00  -0.00   0.00
    15   1     0.30  -0.53   0.79     0.01  -0.02   0.02     0.00  -0.00   0.00
                     34                     35                     36
                      A                      A                      A
 Frequencies --   3162.2394              3230.1751              3236.8168
 Red. masses --      1.1130                 1.1098                 1.0908
 Frc consts  --      6.5572                 6.8223                 6.7335
 IR Inten    --      0.0000                 0.0000                 0.0000
  Atom  AN      X      Y      Z        X      Y      Z        X      Y      Z
     1   6    -0.00   0.01  -0.01     0.00  -0.00   0.00    -0.02   0.05  -0.06
     2   6    -0.00  -0.00   0.00     0.00   0.00  -0.00    -0.00  -0.00   0.00
     3   8     0.00   0.00  -0.00    -0.00  -0.00   0.00     0.00   0.00   0.00
     4   6    -0.03  -0.08   0.05    -0.00   0.00  -0.00     0.01   0.01  -0.00
     5   6     0.00   0.00  -0.00     0.03  -0.04  -0.08    -0.00  -0.01   0.00
     6   1    -0.00  -0.00   0.02    -0.04  -0.07   0.71     0.00   0.00  -0.02
     7   1     0.01  -0.01  -0.00    -0.33   0.55   0.27    -0.03   0.05   0.03
     8   1    -0.00  -0.01   0.00    -0.01  -0.02  -0.00     0.05   0.08  -0.02
     9   7     0.00   0.00  -0.00    -0.00   0.00   0.00     0.00   0.00  -0.00
    10   1    -0.01  -0.00   0.00    -0.00  -0.01   0.00     0.00  -0.00   0.00
    11   1     0.00  -0.01   0.00     0.01   0.00  -0.01    -0.00  -0.00   0.00
    12   1     0.38   0.68  -0.05     0.00   0.00  -0.00    -0.04  -0.07   0.00
    13   1    -0.03   0.23  -0.57    -0.00  -0.00   0.01     0.00  -0.01   0.04
    14   1     0.02  -0.06   0.07    -0.01   0.02  -0.03     0.24  -0.62   0.73
    15   1    -0.00   0.01  -0.01     0.00  -0.00   0.00     0.00   0.00   0.00
                     37                     38                     39
                      A                      A                      A
 Frequencies --   3238.3591              3525.4936              3591.9348
 Red. masses --      1.1095                 1.0573                 1.0969
 Frc consts  --      6.8552                 7.7423                 8.3379
 IR Inten    --      0.0000                 0.0000                 0.0000
  Atom  AN      X      Y      Z        X      Y      Z        X      Y      Z
     1   6     0.00  -0.01   0.01    -0.00  -0.00   0.00     0.00  -0.00   0.00
     2   6     0.00   0.00   0.00     0.00   0.00  -0.00     0.00  -0.00   0.00
     3   8    -0.00   0.00  -0.00    -0.00  -0.00  -0.00     0.00   0.00  -0.00
     4   6    -0.00  -0.00   0.00     0.00  -0.00  -0.00     0.00   0.00  -0.00
     5   6    -0.02  -0.09   0.03     0.00  -0.00   0.00     0.00   0.00  -0.00
     6   1     0.02   0.02  -0.36     0.00  -0.00   0.01     0.00  -0.00   0.01
     7   1    -0.19   0.30   0.16    -0.01   0.01   0.00     0.00  -0.00   0.00
     8   1     0.40   0.70  -0.19     0.01   0.01   0.00    -0.01  -0.01   0.00
     9   7     0.00   0.00  -0.00    -0.03  -0.03  -0.04     0.02   0.06  -0.06
    10   1    -0.00  -0.02   0.00     0.36   0.68  -0.03    -0.29  -0.56   0.01
    11   1    -0.00  -0.00   0.01     0.01  -0.21   0.60     0.01  -0.23   0.74
    12   1     0.01   0.02  -0.00    -0.00   0.01   0.00    -0.00  -0.01  -0.00
    13   1    -0.00   0.01  -0.02    -0.00   0.00   0.01    -0.00  -0.00   0.01
    14   1    -0.03   0.07  -0.08    -0.00   0.00  -0.00    -0.00   0.00  -0.00
    15   1    -0.00   0.00  -0.00     0.00  -0.00   0.00    -0.00   0.00  -0.00

 -------------------
 - Thermochemistry -
 -------------------
 Temperature   298.150 Kelvin.  Pressure   1.00000 Atm.
 Atom     1 has atomic number  6 and mass  12.00000
 Atom     2 has atomic number  6 and mass  12.00000
 Atom     3 has atomic number  8 and mass  15.99491
 Atom     4 has atomic number  6 and mass  12.00000
 Atom     5 has atomic number  6 and mass  12.00000
 Atom     6 has atomic number  1 and mass   1.00783
 Atom     7 has atomic number  1 and mass   1.00783
 Atom     8 has atomic number  1 and mass   1.00783
 Atom     9 has atomic number  7 and mass  14.00307
 Atom    10 has atomic number  1 and mass   1.00783
 Atom    11 has atomic number  1 and mass   1.00783
 Atom    12 has atomic number  1 and mass   1.00783
 Atom    13 has atomic number  1 and mass   1.00783
 Atom    14 has atomic number  1 and mass   1.00783
 Atom    15 has atomic number  1 and mass   1.00783
 Molecular mass:    87.06841 amu.
 Principal axes and moments of inertia in atomic units:
                           1         2         3
     Eigenvalues --   146.661671332.069791379.65878
           X            0.99996  -0.00881   0.00098
           Y            0.00887   0.99577  -0.09151
           Z           -0.00017   0.09151   0.99580
 This molecule is an asymmetric top.
 Rotational symmetry number  1.
 Rotational temperatures (Kelvin)      0.59057     0.06502     0.06278
 Rotational constants (GHZ):          12.30547     1.35484     1.30811
 Zero-point vibrational energy     364231.6 (Joules/Mol)
                                   87.05344 (Kcal/Mol)
 Warning -- explicit consideration of   8 degrees of freedom as
           vibrations may cause significant error
 Vibrational temperatures:    195.96   266.27   282.94   428.17   491.33
          (Kelvin)            517.39   599.12   790.10  1017.23  1115.26
                             1271.84  1456.01  1551.37  1656.33  1696.27
                             1785.25  1816.12  1863.87  2025.99  2099.30
                             2111.44  2118.88  2139.48  2241.64  2284.56
                             2314.23  2318.84  2325.81  2570.48  2625.68
                             3925.94  4449.99  4506.92  4549.76  4647.50
                             4657.06  4659.28  5072.40  5167.99
 
 Zero-point correction=                           0.138728 (Hartree/Particle)
 Thermal correction to Energy=                    0.145449
 Thermal correction to Enthalpy=                  0.146393
 Thermal correction to Gibbs Free Energy=         0.108363
 Sum of electronic and zero-point Energies=           -287.291784
 Sum of electronic and thermal Energies=              -287.285064
 Sum of electronic and thermal Enthalpies=            -287.284120
 Sum of electronic and thermal Free Energies=         -287.322150
 
                     E (Thermal)             CV                S
                      KCal/Mol        Cal/Mol-Kelvin    Cal/Mol-Kelvin
 Total                   91.271             23.388             80.042
 Electronic               0.000              0.000              0.000
 Translational            0.889              2.981             39.305
 Rotational               0.889              2.981             27.091
 Vibrational             89.493             17.426             13.646
 Vibration     1          0.614              1.917              2.857
 Vibration     2          0.631              1.860              2.277
 Vibration     3          0.636              1.845              2.164
 Vibration     4          0.691              1.678              1.430
 Vibration     5          0.721              1.593              1.205
 Vibration     6          0.734              1.555              1.124
 Vibration     7          0.780              1.435              0.904
 Vibration     8          0.904              1.142              0.546
                       Q            Log10(Q)             Ln(Q)
 Total Bot       0.143432D-49        -49.843354       -114.768564
 Total V=0       0.927401D+14         13.967267         32.160822
 Vib (Bot)       0.241684D-62        -62.616752       -144.180400
 Vib (Bot)    1  0.149445D+01          0.174481          0.401758
 Vib (Bot)    2  0.108337D+01          0.034775          0.080073
 Vib (Bot)    3  0.101522D+01          0.006560          0.015105
 Vib (Bot)    4  0.639916D+00         -0.193877         -0.446419
 Vib (Bot)    5  0.543240D+00         -0.265009         -0.610205
 Vib (Bot)    6  0.509836D+00         -0.292570         -0.673667
 Vib (Bot)    7  0.422830D+00         -0.373834         -0.860785
 Vib (Bot)    8  0.286007D+00         -0.543624         -1.251740
 Vib (V=0)       0.156268D+02          1.193869          2.748986
 Vib (V=0)    1  0.207587D+01          0.317201          0.730382
 Vib (V=0)    2  0.169318D+01          0.228703          0.526609
 Vib (V=0)    3  0.163167D+01          0.212632          0.489602
 Vib (V=0)    4  0.131209D+01          0.117964          0.271622
 Vib (V=0)    5  0.123832D+01          0.092831          0.213752
 Vib (V=0)    6  0.121410D+01          0.084253          0.193999
 Vib (V=0)    7  0.115482D+01          0.062513          0.143942
 Vib (V=0)    8  0.107602D+01          0.031821          0.073270
 Electronic      0.100000D+01          0.000000          0.000000
 Translational   0.319334D+08          7.504245         17.279162
 Rotational      0.185846D+06          5.269153         12.132674
 ***** Axes restored to original set *****
 -------------------------------------------------------------------
 Center     Atomic                   Forces (Hartrees/Bohr)
 Number     Number              X              Y              Z
 -------------------------------------------------------------------
      1        6           0.002087885    0.001271678    0.000008924
      2        6          -0.001533125   -0.001582810    0.000249669
      3        8           0.000906677    0.000437242    0.000296525
      4        6          -0.007543140    0.006107108    0.004013512
      5        6           0.000006551   -0.000320739   -0.000351738
      6        1           0.000098234   -0.000562767    0.000075927
      7        1           0.000349763    0.000315428   -0.000416665
      8        1          -0.000167392    0.000277121    0.000510075
      9        7           0.005415046   -0.003927782   -0.003523207
     10        1          -0.000080162   -0.000105241    0.000683436
     11        1           0.000030899   -0.000821568   -0.000365676
     12        1           0.000345234   -0.000486136   -0.000600106
     13        1           0.000082712   -0.000558211   -0.000401834
     14        1           0.000005357   -0.000041529   -0.000035870
     15        1          -0.000004539   -0.000001795   -0.000142975
 -------------------------------------------------------------------
 Cartesian Forces:  Max     0.007543140 RMS     0.002018225


 I WOULD TAKE COUNSEL OF MYSELF.
 I WOULD STOP AND LOOK WITHIN
 AND LOOKING WITHIN, LOOK BACK, ALSO
 THAT I MAY LOOK AHEAD WITH CLEARER UNDERSTANDING
 OF THE WAY I HAVE BEEN MOVING, AND IN WHAT DIRECTION.
 I NEED TO KNOW IF I AM GOING FORWARD OR RETREATING,
 WHETHER I HAVE BEEN WASTING, OR ENJOYING
 THE PRECIOUS MOMENTS OF LIFE.  THERE HAVE BEEN FRICTIONS,
 ANNOYANCES AND SOMETIMES WRATH,
 BUT WERE THEY BECAUSE I WAS RIGHT AND OTHERS WRONG.....
 HAVE I HAD MY THOUGHTS TOO SHARPLY FOCUSED
 ON THAT WHICH PLEASED ME, SERVED MY SELF-ESTEEM,
 UNDERGIRDED MY SECURITY,
 OF WHICH I DID NOT INQUIRE WHETHER IT SERVED OR HAMPERED OTHERS.....
 HAVE I BEEN TRYING TO STOP THE CLOCK
 TO HOLD THE WORLD
 IN PERPETUATION OF WHAT WAS AN IS ALREADY SLIPPING AWAY.....
 HAVE I BEEN CRITICAL OF OTHERS FOR WHAT REALLY NEEDED CHANGING IN ME...
 LET ME INDEED TAKE COUNSEL OF MYSELF
 AND SET MY DIRECTIONS STRAIGHT.

                          R.T. WESTON AS ADAPTED BY D. OSBORN 1967
 Error termination request processed by link 9999.
 Error termination via Lnk1e in /apps/gaussian/g16/C.01/g16/l9999.exe at Wed Jan 17 01:23:44 2024.
 Job cpu time:       0 days  4 hours  0 minutes 10.2 seconds.
 Elapsed time:       0 days  0 hours 37 minutes 31.0 seconds.
 File lengths (MBytes):  RWF=      6 Int=      0 D2E=      0 Chk=      1 Scr=      1
