Unloading slurm/anatra/current
  ERROR: No such file or directory on
    '/cm/local/modulefiles/slurm/anatra/current'
environment: line 0: unalias: gv: not found
environment: line 0: unalias: sl: not found
 Entering Gaussian System, Link 0=g16
 Initial command:
 /apps/gaussian/g16/C.01/g16/l1.exe "/local/jobs/1157681/Gau-681347.inp" -scrdir="/local/jobs/1157681/"
 Entering Link 1 = /apps/gaussian/g16/C.01/g16/l1.exe PID=    681350.
  
 Copyright (c) 1988-2019, Gaussian, Inc.  All Rights Reserved.
  
 This is part of the Gaussian(R) 16 program.  It is based on
 the Gaussian(R) 09 system (copyright 2009, Gaussian, Inc.),
 the Gaussian(R) 03 system (copyright 2003, Gaussian, Inc.),
 the Gaussian(R) 98 system (copyright 1998, Gaussian, Inc.),
 the Gaussian(R) 94 system (copyright 1995, Gaussian, Inc.),
 the Gaussian 92(TM) system (copyright 1992, Gaussian, Inc.),
 the Gaussian 90(TM) system (copyright 1990, Gaussian, Inc.),
 the Gaussian 88(TM) system (copyright 1988, Gaussian, Inc.),
 the Gaussian 86(TM) system (copyright 1986, Carnegie Mellon
 University), and the Gaussian 82(TM) system (copyright 1983,
 Carnegie Mellon University). Gaussian is a federally registered
 trademark of Gaussian, Inc.
  
 This software contains proprietary and confidential information,
 including trade secrets, belonging to Gaussian, Inc.
  
 This software is provided under written license and may be
 used, copied, transmitted, or stored only in accord with that
 written license.
  
 The following legend is applicable only to US Government
 contracts under FAR:
  
                    RESTRICTED RIGHTS LEGEND
  
 Use, reproduction and disclosure by the US Government is
 subject to restrictions as set forth in subparagraphs (a)
 and (c) of the Commercial Computer Software - Restricted
 Rights clause in FAR 52.227-19.
  
 Gaussian, Inc.
 340 Quinnipiac St., Bldg. 40, Wallingford CT 06492
  
  
 ---------------------------------------------------------------
 Warning -- This program may not be used in any manner that
 competes with the business of Gaussian, Inc. or will provide
 assistance to any competitor of Gaussian, Inc.  The licensee
 of this program is prohibited from giving any competitor of
 Gaussian, Inc. access to this program.  By using this program,
 the user acknowledges that Gaussian, Inc. is engaged in the
 business of creating and licensing software in the field of
 computational chemistry and represents and warrants to the
 licensee that it is not a competitor of Gaussian, Inc. and that
 it will not use this program in any manner prohibited above.
 ---------------------------------------------------------------
  

 Cite this work as:
 Gaussian 16, Revision C.01,
 M. J. Frisch, G. W. Trucks, H. B. Schlegel, G. E. Scuseria, 
 M. A. Robb, J. R. Cheeseman, G. Scalmani, V. Barone, 
 G. A. Petersson, H. Nakatsuji, X. Li, M. Caricato, A. V. Marenich, 
 J. Bloino, B. G. Janesko, R. Gomperts, B. Mennucci, H. P. Hratchian, 
 J. V. Ortiz, A. F. Izmaylov, J. L. Sonnenberg, D. Williams-Young, 
 F. Ding, F. Lipparini, F. Egidi, J. Goings, B. Peng, A. Petrone, 
 T. Henderson, D. Ranasinghe, V. G. Zakrzewski, J. Gao, N. Rega, 
 G. Zheng, W. Liang, M. Hada, M. Ehara, K. Toyota, R. Fukuda, 
 J. Hasegawa, M. Ishida, T. Nakajima, Y. Honda, O. Kitao, H. Nakai, 
 T. Vreven, K. Throssell, J. A. Montgomery, Jr., J. E. Peralta, 
 F. Ogliaro, M. J. Bearpark, J. J. Heyd, E. N. Brothers, K. N. Kudin, 
 V. N. Staroverov, T. A. Keith, R. Kobayashi, J. Normand, 
 K. Raghavachari, A. P. Rendell, J. C. Burant, S. S. Iyengar, 
 J. Tomasi, M. Cossi, J. M. Millam, M. Klene, C. Adamo, R. Cammi, 
 J. W. Ochterski, R. L. Martin, K. Morokuma, O. Farkas, 
 J. B. Foresman, and D. J. Fox, Gaussian, Inc., Wallingford CT, 2019.
 
 ******************************************
 Gaussian 16:  ES64L-G16RevC.01  3-Jul-2019
                17-Jan-2024 
 ******************************************
 %nprocshared=12
 Will use up to   12 processors via shared memory.
 %mem=48GB
 ----------------------------------------------------------------------
 # external="~/scripts/MiMe -H 'hf def2svp' -EF 'wb97xd def2svp' -c 12 
 -m 48GB" opt=(calcall,ts,noeigen,maxcycles=50,maxstep=10,nomicro)
 ----------------------------------------------------------------------
 1/5=1,6=50,8=10,10=4,11=1,18=20,26=1,38=1/1,3;
 2/9=110,12=2,17=6,18=5,40=1/2;
 3/11=9,25=1,30=1,41=9900000,43=2,71=2,140=1/1;
 4/20=17,22=2,24=3,113=1,114=1/2;
 6/7=2,8=2,9=2,10=2,18=1/1;
 7/25=1,44=-1/16;
 1/5=1,6=50,8=10,10=4,11=1,18=20,26=1/3(3);
 2/9=110/2;
 7/8=1,9=1,25=1,44=-1/16;
 99//99;
 2/9=110/2;
 3/11=9,25=1,30=1,41=9900000,43=2,71=2,140=1/1;
 4/16=2,20=17,22=2,24=3,113=1,114=1/2;
 7/25=1,44=-1/16;
 1/5=1,6=50,8=10,10=4,11=1,18=20,26=1/3(-4);
 2/9=110/2;
 6/7=2,8=2,9=2,10=2,18=1/1;
 7/8=1,9=1,25=1,44=-1/16;
 99//99;
 ---------
 TS-68.out
 ---------
 Symbolic Z-matrix:
 Charge =  0 Multiplicity = 1
 C                    -0.74249  -0.12132   0.22248 
 C                    -2.09729   0.30804   0.69467 
 O                    -2.30169   1.18952   1.52012 
 C                     0.23569   0.82708   0.28242 
 C                    -1.12249   3.02777  -1.33601 
 H                    -0.92798   3.59591  -2.25016 
 H                    -2.10314   2.55168  -1.41988 
 H                    -1.13854   3.71741  -0.4876 
 N                    -0.08065   2.0099   -1.1377 
 H                    -0.07122   1.43807  -1.98871 
 H                     0.8163    2.51011  -1.18421 
 C                     1.69287   0.45967   0.25094 
 C                     2.32299  -0.06152  -0.88807 
 C                     3.68719  -0.36217  -0.87152 
 C                     4.43783  -0.13667   0.28037 
 C                     3.82677   0.39194   1.41535 
 C                     2.46265   0.69229   1.39956 
 H                     1.75802  -0.23854  -1.79909 
 H                     4.16255  -0.77282  -1.75836 
 H                     5.49878  -0.37232   0.29348 
 H                     4.41054   0.57044   2.31459 
 H                     2.00288   1.1043    2.29536 
 H                     0.02255   1.70746   0.91213 
 Br                   -0.52741  -1.88792  -0.36586 
 O                    -3.07299  -0.40619   0.06938 
 C                    -4.39791  -0.05049   0.46209 
 H                    -5.09696  -0.68232  -0.09281 
 H                    -4.5431   -0.23106   1.53182 
 H                    -4.60411   0.99512   0.21281 
 
 Add virtual bond connecting atoms N9         and C4         Dist= 3.54D+00.

 GradGradGradGradGradGradGradGradGradGradGradGradGradGradGradGradGradGrad
 Berny optimization.
 Initialization pass.
                           ----------------------------
                           !    Initial Parameters    !
                           ! (Angstroms and Degrees)  !
 --------------------------                            --------------------------
 ! Name  Definition              Value          Derivative Info.                !
 --------------------------------------------------------------------------------
 ! R1    R(1,2)                  1.4976         calculate D2E/DX2 analytically  !
 ! R2    R(1,4)                  1.3638         calculate D2E/DX2 analytically  !
 ! R3    R(1,24)                 1.8744         calculate D2E/DX2 analytically  !
 ! R4    R(2,3)                  1.2248         calculate D2E/DX2 analytically  !
 ! R5    R(2,25)                 1.3613         calculate D2E/DX2 analytically  !
 ! R6    R(4,9)                  1.8751         calculate D2E/DX2 analytically  !
 ! R7    R(4,12)                 1.5031         calculate D2E/DX2 analytically  !
 ! R8    R(4,23)                 1.1032         calculate D2E/DX2 analytically  !
 ! R9    R(5,6)                  1.0937         calculate D2E/DX2 analytically  !
 ! R10   R(5,7)                  1.0933         calculate D2E/DX2 analytically  !
 ! R11   R(5,8)                  1.0935         calculate D2E/DX2 analytically  !
 ! R12   R(5,9)                  1.47           calculate D2E/DX2 analytically  !
 ! R13   R(9,10)                 1.0253         calculate D2E/DX2 analytically  !
 ! R14   R(9,11)                 1.0281         calculate D2E/DX2 analytically  !
 ! R15   R(12,13)                1.4022         calculate D2E/DX2 analytically  !
 ! R16   R(12,17)                1.4021         calculate D2E/DX2 analytically  !
 ! R17   R(13,14)                1.397          calculate D2E/DX2 analytically  !
 ! R18   R(13,18)                1.0865         calculate D2E/DX2 analytically  !
 ! R19   R(14,15)                1.3933         calculate D2E/DX2 analytically  !
 ! R20   R(14,19)                1.0868         calculate D2E/DX2 analytically  !
 ! R21   R(15,16)                1.3932         calculate D2E/DX2 analytically  !
 ! R22   R(15,20)                1.0869         calculate D2E/DX2 analytically  !
 ! R23   R(16,17)                1.3969         calculate D2E/DX2 analytically  !
 ! R24   R(16,21)                1.0869         calculate D2E/DX2 analytically  !
 ! R25   R(17,22)                1.0879         calculate D2E/DX2 analytically  !
 ! R26   R(25,26)                1.4269         calculate D2E/DX2 analytically  !
 ! R27   R(26,27)                1.0935         calculate D2E/DX2 analytically  !
 ! R28   R(26,28)                1.0945         calculate D2E/DX2 analytically  !
 ! R29   R(26,29)                1.0945         calculate D2E/DX2 analytically  !
 ! A1    A(2,1,4)              115.8255         calculate D2E/DX2 analytically  !
 ! A2    A(2,1,24)             118.2285         calculate D2E/DX2 analytically  !
 ! A3    A(4,1,24)             125.9393         calculate D2E/DX2 analytically  !
 ! A4    A(1,2,3)              124.7361         calculate D2E/DX2 analytically  !
 ! A5    A(1,2,25)             110.6804         calculate D2E/DX2 analytically  !
 ! A6    A(3,2,25)             124.5799         calculate D2E/DX2 analytically  !
 ! A7    A(1,4,9)              106.5222         calculate D2E/DX2 analytically  !
 ! A8    A(1,4,12)             121.6302         calculate D2E/DX2 analytically  !
 ! A9    A(1,4,23)             116.1982         calculate D2E/DX2 analytically  !
 ! A10   A(9,4,12)             107.5707         calculate D2E/DX2 analytically  !
 ! A11   A(9,4,23)              84.0482         calculate D2E/DX2 analytically  !
 ! A12   A(12,4,23)            113.2234         calculate D2E/DX2 analytically  !
 ! A13   A(6,5,7)              108.7589         calculate D2E/DX2 analytically  !
 ! A14   A(6,5,8)              108.874          calculate D2E/DX2 analytically  !
 ! A15   A(6,5,9)              110.2671         calculate D2E/DX2 analytically  !
 ! A16   A(7,5,8)              108.7228         calculate D2E/DX2 analytically  !
 ! A17   A(7,5,9)              110.1531         calculate D2E/DX2 analytically  !
 ! A18   A(8,5,9)              110.0261         calculate D2E/DX2 analytically  !
 ! A19   A(4,9,5)              131.1893         calculate D2E/DX2 analytically  !
 ! A20   A(4,9,10)             105.9768         calculate D2E/DX2 analytically  !
 ! A21   A(4,9,11)             101.1863         calculate D2E/DX2 analytically  !
 ! A22   A(5,9,10)             106.3035         calculate D2E/DX2 analytically  !
 ! A23   A(5,9,11)             105.9827         calculate D2E/DX2 analytically  !
 ! A24   A(10,9,11)            103.049          calculate D2E/DX2 analytically  !
 ! A25   A(4,12,13)            122.9243         calculate D2E/DX2 analytically  !
 ! A26   A(4,12,17)            118.3279         calculate D2E/DX2 analytically  !
 ! A27   A(13,12,17)           118.7115         calculate D2E/DX2 analytically  !
 ! A28   A(12,13,14)           120.6107         calculate D2E/DX2 analytically  !
 ! A29   A(12,13,18)           120.5314         calculate D2E/DX2 analytically  !
 ! A30   A(14,13,18)           118.8579         calculate D2E/DX2 analytically  !
 ! A31   A(13,14,15)           120.0706         calculate D2E/DX2 analytically  !
 ! A32   A(13,14,19)           119.9189         calculate D2E/DX2 analytically  !
 ! A33   A(15,14,19)           120.0105         calculate D2E/DX2 analytically  !
 ! A34   A(14,15,16)           119.9096         calculate D2E/DX2 analytically  !
 ! A35   A(14,15,20)           120.0524         calculate D2E/DX2 analytically  !
 ! A36   A(16,15,20)           120.038          calculate D2E/DX2 analytically  !
 ! A37   A(15,16,17)           120.0455         calculate D2E/DX2 analytically  !
 ! A38   A(15,16,21)           120.0501         calculate D2E/DX2 analytically  !
 ! A39   A(17,16,21)           119.9044         calculate D2E/DX2 analytically  !
 ! A40   A(12,17,16)           120.6448         calculate D2E/DX2 analytically  !
 ! A41   A(12,17,22)           120.3535         calculate D2E/DX2 analytically  !
 ! A42   A(16,17,22)           119.0005         calculate D2E/DX2 analytically  !
 ! A43   A(2,25,26)            114.0982         calculate D2E/DX2 analytically  !
 ! A44   A(25,26,27)           108.0518         calculate D2E/DX2 analytically  !
 ! A45   A(25,26,28)           110.5495         calculate D2E/DX2 analytically  !
 ! A46   A(25,26,29)           110.5106         calculate D2E/DX2 analytically  !
 ! A47   A(27,26,28)           108.4105         calculate D2E/DX2 analytically  !
 ! A48   A(27,26,29)           108.4194         calculate D2E/DX2 analytically  !
 ! A49   A(28,26,29)           110.806          calculate D2E/DX2 analytically  !
 ! D1    D(4,1,2,3)            -27.0774         calculate D2E/DX2 analytically  !
 ! D2    D(4,1,2,25)           152.2549         calculate D2E/DX2 analytically  !
 ! D3    D(24,1,2,3)           152.0325         calculate D2E/DX2 analytically  !
 ! D4    D(24,1,2,25)          -28.6351         calculate D2E/DX2 analytically  !
 ! D5    D(2,1,4,9)            -75.3285         calculate D2E/DX2 analytically  !
 ! D6    D(2,1,4,12)           161.1309         calculate D2E/DX2 analytically  !
 ! D7    D(2,1,4,23)            16.1275         calculate D2E/DX2 analytically  !
 ! D8    D(24,1,4,9)           105.64           calculate D2E/DX2 analytically  !
 ! D9    D(24,1,4,12)          -17.9006         calculate D2E/DX2 analytically  !
 ! D10   D(24,1,4,23)         -162.9039         calculate D2E/DX2 analytically  !
 ! D11   D(1,2,25,26)         -179.7276         calculate D2E/DX2 analytically  !
 ! D12   D(3,2,25,26)           -0.394          calculate D2E/DX2 analytically  !
 ! D13   D(1,4,9,5)             72.2434         calculate D2E/DX2 analytically  !
 ! D14   D(1,4,9,10)           -57.4423         calculate D2E/DX2 analytically  !
 ! D15   D(1,4,9,11)          -164.6612         calculate D2E/DX2 analytically  !
 ! D16   D(12,4,9,5)          -155.8651         calculate D2E/DX2 analytically  !
 ! D17   D(12,4,9,10)           74.4492         calculate D2E/DX2 analytically  !
 ! D18   D(12,4,9,11)          -32.7697         calculate D2E/DX2 analytically  !
 ! D19   D(23,4,9,5)           -43.3552         calculate D2E/DX2 analytically  !
 ! D20   D(23,4,9,10)         -173.0409         calculate D2E/DX2 analytically  !
 ! D21   D(23,4,9,11)           79.7403         calculate D2E/DX2 analytically  !
 ! D22   D(1,4,12,13)           68.9325         calculate D2E/DX2 analytically  !
 ! D23   D(1,4,12,17)         -113.2871         calculate D2E/DX2 analytically  !
 ! D24   D(9,4,12,13)          -54.1185         calculate D2E/DX2 analytically  !
 ! D25   D(9,4,12,17)          123.6619         calculate D2E/DX2 analytically  !
 ! D26   D(23,4,12,13)        -145.1222         calculate D2E/DX2 analytically  !
 ! D27   D(23,4,12,17)          32.6582         calculate D2E/DX2 analytically  !
 ! D28   D(6,5,9,4)            174.3827         calculate D2E/DX2 analytically  !
 ! D29   D(6,5,9,10)           -56.0457         calculate D2E/DX2 analytically  !
 ! D30   D(6,5,9,11)            53.1305         calculate D2E/DX2 analytically  !
 ! D31   D(7,5,9,4)            -65.572          calculate D2E/DX2 analytically  !
 ! D32   D(7,5,9,10)            63.9996         calculate D2E/DX2 analytically  !
 ! D33   D(7,5,9,11)           173.1758         calculate D2E/DX2 analytically  !
 ! D34   D(8,5,9,4)             54.2755         calculate D2E/DX2 analytically  !
 ! D35   D(8,5,9,10)          -176.1529         calculate D2E/DX2 analytically  !
 ! D36   D(8,5,9,11)           -66.9767         calculate D2E/DX2 analytically  !
 ! D37   D(4,12,13,14)         178.741          calculate D2E/DX2 analytically  !
 ! D38   D(4,12,13,18)          -1.2625         calculate D2E/DX2 analytically  !
 ! D39   D(17,12,13,14)          0.9687         calculate D2E/DX2 analytically  !
 ! D40   D(17,12,13,18)       -179.0348         calculate D2E/DX2 analytically  !
 ! D41   D(4,12,17,16)        -178.8208         calculate D2E/DX2 analytically  !
 ! D42   D(4,12,17,22)           1.582          calculate D2E/DX2 analytically  !
 ! D43   D(13,12,17,16)         -0.9451         calculate D2E/DX2 analytically  !
 ! D44   D(13,12,17,22)        179.4577         calculate D2E/DX2 analytically  !
 ! D45   D(12,13,14,15)         -0.4365         calculate D2E/DX2 analytically  !
 ! D46   D(12,13,14,19)        179.5331         calculate D2E/DX2 analytically  !
 ! D47   D(18,13,14,15)        179.5669         calculate D2E/DX2 analytically  !
 ! D48   D(18,13,14,19)         -0.4634         calculate D2E/DX2 analytically  !
 ! D49   D(13,14,15,16)         -0.1381         calculate D2E/DX2 analytically  !
 ! D50   D(13,14,15,20)        179.8921         calculate D2E/DX2 analytically  !
 ! D51   D(19,14,15,16)        179.8923         calculate D2E/DX2 analytically  !
 ! D52   D(19,14,15,20)         -0.0775         calculate D2E/DX2 analytically  !
 ! D53   D(14,15,16,17)          0.1618         calculate D2E/DX2 analytically  !
 ! D54   D(14,15,16,21)       -179.8899         calculate D2E/DX2 analytically  !
 ! D55   D(20,15,16,17)       -179.8684         calculate D2E/DX2 analytically  !
 ! D56   D(20,15,16,21)          0.0799         calculate D2E/DX2 analytically  !
 ! D57   D(15,16,17,12)          0.3887         calculate D2E/DX2 analytically  !
 ! D58   D(15,16,17,22)        179.9913         calculate D2E/DX2 analytically  !
 ! D59   D(21,16,17,12)       -179.5596         calculate D2E/DX2 analytically  !
 ! D60   D(21,16,17,22)          0.043          calculate D2E/DX2 analytically  !
 ! D61   D(2,25,26,27)        -179.7742         calculate D2E/DX2 analytically  !
 ! D62   D(2,25,26,28)         -61.2895         calculate D2E/DX2 analytically  !
 ! D63   D(2,25,26,29)          61.7526         calculate D2E/DX2 analytically  !
 --------------------------------------------------------------------------------
 Trust Radius=1.00D-01 FncErr=1.00D-07 GrdErr=1.00D-07 EigMax=2.50D+02 EigMin=1.00D-04
 Number of steps in this run=     50 maximum allowed number of steps=    174.
 Search for a saddle point of order  1.
 GradGradGradGradGradGradGradGradGradGradGradGradGradGradGradGradGradGrad

                          Input orientation:                          
 ---------------------------------------------------------------------
 Center     Atomic      Atomic             Coordinates (Angstroms)
 Number     Number       Type             X           Y           Z
 ---------------------------------------------------------------------
      1          6           0       -0.742490   -0.121320    0.222480
      2          6           0       -2.097290    0.308040    0.694670
      3          8           0       -2.301690    1.189520    1.520120
      4          6           0        0.235690    0.827080    0.282420
      5          6           0       -1.122490    3.027770   -1.336010
      6          1           0       -0.927980    3.595910   -2.250160
      7          1           0       -2.103140    2.551680   -1.419880
      8          1           0       -1.138540    3.717410   -0.487600
      9          7           0       -0.080650    2.009900   -1.137700
     10          1           0       -0.071220    1.438070   -1.988710
     11          1           0        0.816300    2.510110   -1.184210
     12          6           0        1.692870    0.459670    0.250940
     13          6           0        2.322990   -0.061520   -0.888070
     14          6           0        3.687190   -0.362170   -0.871520
     15          6           0        4.437830   -0.136670    0.280370
     16          6           0        3.826770    0.391940    1.415350
     17          6           0        2.462650    0.692290    1.399560
     18          1           0        1.758020   -0.238540   -1.799090
     19          1           0        4.162550   -0.772820   -1.758360
     20          1           0        5.498780   -0.372320    0.293480
     21          1           0        4.410540    0.570440    2.314590
     22          1           0        2.002880    1.104300    2.295360
     23          1           0        0.022550    1.707460    0.912130
     24         35           0       -0.527410   -1.887920   -0.365860
     25          8           0       -3.072990   -0.406190    0.069380
     26          6           0       -4.397910   -0.050490    0.462090
     27          1           0       -5.096960   -0.682320   -0.092810
     28          1           0       -4.543100   -0.231060    1.531820
     29          1           0       -4.604110    0.995120    0.212810
 ---------------------------------------------------------------------
                    Distance matrix (angstroms):
                    1          2          3          4          5
     1  C    0.000000
     2  C    1.497597   0.000000
     3  O    2.415218   1.224808   0.000000
     4  C    1.363778   2.425314   2.846324   0.000000
     5  C    3.534128   3.531406   3.595435   3.050738   0.000000
     6  H    4.468350   4.566114   4.678975   3.928678   1.093749
     7  H    3.419597   3.083063   3.246306   3.367818   1.093330
     8  H    3.923891   3.733734   3.431339   3.291724   1.093463
     9  N    2.613469   3.212592   3.559501   1.875067   1.469972
    10  H    2.787770   3.547176   4.165172   2.371821   2.014530
    11  H    3.366456   4.107105   4.333500   2.306665   2.012442
    12  C    2.503865   3.819058   4.254410   1.503115   4.127929
    13  C    3.260991   4.709619   5.362103   2.552739   4.649268
    14  C    4.569126   6.030120   6.632825   3.828674   5.902581
    15  C    5.180666   6.563323   6.979749   4.311241   6.598752
    16  C    4.750212   5.968325   6.181030   3.790611   6.246019
    17  C    3.510043   4.630072   4.791733   2.495099   5.078488
    18  H    3.217613   4.623960   5.434865   2.790290   4.379562
    19  H    5.329878   6.809641   7.509035   4.705815   6.523382
    20  H    6.246719   7.637023   8.049306   5.398037   7.619519
    21  H    5.604389   6.711546   6.787376   4.650264   7.069637
    22  H    3.651853   4.472989   4.374652   2.692905   5.162802
    23  H    2.098890   2.549389   2.457642   1.103192   2.847537
    24  Br   1.874374   2.900256   4.021893   2.893754   5.045723
    25  O    2.352833   1.361287   2.290380   3.537471   4.191856
    26  C    3.663949   2.339976   2.655408   4.719392   4.841201
    27  H    4.401765   3.255604   3.730799   5.554840   5.577340
    28  H    4.021324   2.640726   2.653696   5.051484   5.526753
    29  H    4.019781   2.643561   2.654805   4.843217   4.318818
                    6          7          8          9         10
     6  H    0.000000
     7  H    1.777859   0.000000
     8  H    1.779246   1.777224   0.000000
     9  N    2.114465   2.112727   2.111244   0.000000
    10  H    2.336379   2.385874   2.930511   1.025328   0.000000
    11  H    2.314676   2.929232   2.400883   1.028053   1.607539
    12  C    4.791697   4.645195   4.378949   2.734393   3.014185
    13  C    5.079458   5.167423   5.140319   3.182857   3.031900
    14  C    6.234328   6.505316   6.330722   4.460290   4.314467
    15  C    7.009112   7.273401   6.821995   5.199553   5.287727
    16  C    6.805074   6.918586   6.271704   4.940019   5.279805
    17  C    5.766094   5.679173   5.067671   3.826507   4.296168
    18  H    4.703304   4.778879   5.075392   2.978863   2.488593
    19  H    6.726155   7.101108   7.062475   5.112093   4.781831
    20  H    7.969956   8.323134   7.835177   6.233241   6.285762
    21  H    7.647889   7.765282   6.967638   5.844753   6.273543
    22  H    5.954814   5.723401   4.943858   4.116687   4.771430
    23  H    3.803923   3.266426   2.710585   2.074590   2.914830
    24  Br   5.812352   4.827415   5.639860   3.998541   3.728802
    25  O    5.098837   3.450724   4.588725   4.030959   4.080153
    26  C    5.717775   3.947033   5.071733   5.044132   5.190614
    27  H    6.351205   4.602481   5.931490   5.788196   5.774821
    28  H    6.482142   4.733876   5.591020   5.662305   5.931091
    29  H    5.132666   3.367997   4.462243   4.828597   5.058655
                   11         12         13         14         15
    11  H    0.000000
    12  C    2.651855   0.000000
    13  C    2.995179   1.402153   0.000000
    14  C    4.073055   2.431594   1.397035   0.000000
    15  C    4.718678   2.809145   2.417322   1.393256   0.000000
    16  C    4.506361   2.431865   2.787961   2.412040   1.393199
    17  C    3.562416   1.402142   2.412672   2.787326   2.416836
    18  H    2.969847   2.166648   1.086501   2.144147   3.393510
    19  H    4.722782   3.414035   2.155767   1.086778   2.153343
    20  H    5.693645   3.896019   3.402690   2.153877   1.086884
    21  H    5.377963   3.414184   3.874825   3.397689   2.153787
    22  H    3.935947   2.165943   3.405266   3.875121   3.395464
    23  H    2.380951   2.187263   3.414972   4.571035   4.826451
    24  Br   4.670966   3.289569   3.425379   4.510705   5.304536
    25  O    5.020246   4.847277   5.491094   6.825486   7.518615
    26  C    6.037794   6.115754   6.855184   8.200275   8.838029
    27  H    6.808040   6.893772   7.488223   8.824408   9.557678
    28  H    6.604090   6.403521   7.282019   8.575016   9.068194
    29  H    5.798940   6.319819   7.093176   8.471344   9.112749
                   16         17         18         19         20
    16  C    0.000000
    17  C    1.396883   0.000000
    18  H    3.874256   3.405042   0.000000
    19  H    3.397330   3.874102   2.463509   0.000000
    20  H    2.153672   3.402189   4.288360   2.481120   0.000000
    21  H    1.086868   2.155552   4.961116   4.295901   2.481521
    22  H    2.146730   1.087933   4.315982   4.961895   4.290600
    23  H    4.056589   2.687424   3.761580   5.515696   5.890442
    24  Br   5.227748   4.326043   3.161929   5.017791   6.248739
    25  O    7.074979   5.798219   5.182465   7.471820   8.574766
    26  C    8.291551   6.964040   6.560775   8.873198   9.903357
    27  H    9.113810   7.827159   7.078071   9.408548  10.607310
    28  H    8.393832   7.067574   7.127351   9.322399  10.118932
    29  H    8.537545   7.172111   6.785747   9.157808  10.195332
                   21         22         23         24         25
    21  H    0.000000
    22  H    2.466212   0.000000
    23  H    4.744909   2.489746   0.000000
    24  Br   6.132838   4.736860   3.855188   0.000000
    25  O    7.873881   5.744652   3.841889   2.977404   0.000000
    26  C    9.022533   6.757554   4.778430   4.363762   1.426940
    27  H    9.887241   7.700850   5.738496   4.733795   2.049148
    28  H    9.023458   6.724287   4.998703   4.740479   2.081015
    29  H    9.266161   6.928294   4.733124   5.026556   2.080522
                   26         27         28         29
    26  C    0.000000
    27  H    1.093524   0.000000
    28  H    1.094535   1.774773   0.000000
    29  H    1.094513   1.774855   1.801951   0.000000
 Stoichiometry    C11H14BrNO2
 Framework group  C1[X(C11H14BrNO2)]
 Deg. of freedom    81
 Full point group                 C1      NOp   1
 Largest Abelian subgroup         C1      NOp   1
 Largest concise Abelian subgroup C1      NOp   1
                         Standard orientation:                         
 ---------------------------------------------------------------------
 Center     Atomic      Atomic             Coordinates (Angstroms)
 Number     Number       Type             X           Y           Z
 ---------------------------------------------------------------------
      1          6           0       -0.742491   -0.121320    0.222480
      2          6           0       -2.097291    0.308039    0.694670
      3          8           0       -2.301692    1.189518    1.520120
      4          6           0        0.235689    0.827081    0.282420
      5          6           0       -1.122494    3.027770   -1.336010
      6          1           0       -0.927984    3.595910   -2.250160
      7          1           0       -2.103143    2.551679   -1.419880
      8          1           0       -1.138544    3.717410   -0.487600
      9          7           0       -0.080653    2.009901   -1.137700
     10          1           0       -0.071222    1.438071   -1.988710
     11          1           0        0.816297    2.510112   -1.184210
     12          6           0        1.692869    0.459672    0.250940
     13          6           0        2.322989   -0.061517   -0.888070
     14          6           0        3.687190   -0.362166   -0.871520
     15          6           0        4.437829   -0.136665    0.280370
     16          6           0        3.826769    0.391945    1.415350
     17          6           0        2.462649    0.692293    1.399560
     18          1           0        1.758020   -0.238538   -1.799090
     19          1           0        4.162550   -0.772815   -1.758360
     20          1           0        5.498780   -0.372314    0.293480
     21          1           0        4.410539    0.570445    2.314590
     22          1           0        2.002878    1.104303    2.295360
     23          1           0        0.022548    1.707461    0.912130
     24         35           0       -0.527409   -1.887920   -0.365860
     25          8           0       -3.072990   -0.406192    0.069380
     26          6           0       -4.397911   -0.050494    0.462090
     27          1           0       -5.096960   -0.682324   -0.092810
     28          1           0       -4.543100   -0.231064    1.531820
     29          1           0       -4.604112    0.995116    0.212810
 ---------------------------------------------------------------------
 Rotational constants (GHZ):           0.6855917           0.3044402           0.2523100
 Standard basis: STO-3G (5D, 7F)
 There are   103 symmetry adapted cartesian basis functions of A   symmetry.
 There are   102 symmetry adapted basis functions of A   symmetry.
   102 basis functions,   309 primitive gaussians,   103 cartesian basis functions
    69 alpha electrons       69 beta electrons
       nuclear repulsion energy      1360.8047526770 Hartrees.
 NAtoms=   29 NActive=   29 NUniq=   29 SFac= 1.00D+00 NAtFMM=   60 NAOKFM=F Big=F
 Integral buffers will be    131072 words long.
 Raffenetti 1 integral format.
 Two-electron integral symmetry is turned on.
 External calculation of energy, first and second derivatives.
 Running external command "~/scripts/MiMe -H 'hf def2svp' -EF 'wb97xd def2svp' -c 12 -m 48GB R"
         input file       "/local/jobs/1157681/Gau-681350.EIn"
         output file      "/local/jobs/1157681/Gau-681350.EOu"
         message file     "/local/jobs/1157681/Gau-681350.EMs"
         fchk file        "/local/jobs/1157681/Gau-681350.EFC"
         mat. el file     "/local/jobs/1157681/Gau-681350.EUF"
 Read checkpoint file Gau-681350_H.chk type G16
 Write formatted file Gau-681350_H.fchk

deriv: 2

spelevel: wb97xd def2svp
gradlevel: wb97xd def2svp
hesslevel: hf def2svp

runspe: False
runforce: True
runfreq: True

Running Gaussian ...

Parsing files ...
SPE file: Gau-681350_F.out
FORCE file: Gau-681350_F.out
HESS file: Gau-681350_H.out

 ExternalExternalExternalExternalExternalExternalExternalExternalExternalExternal
 Output from external command:
 "~/scripts/MiMe -H 'hf def2svp' -EF 'wb97xd def2svp' -c 12 -m 48GB R /local/jobs/1157681/Gau-681350.EIn /local/jobs/1157681/Gau-681350.EOu /local/jobs/1157681/Gau-681350.EMs /local/jobs/1157681/Gau-681350.EFC /local/jobs/1157681/Gau-681350.EUF"
  
 --------------------------------------------------
 Force calculation at wb97xd def2svp
 Hessian calculation at hf def2svp
 ExternalExternalExternalExternalExternalExternalExternalExternalExternalExternal

 Recovered energy= -3205.96547277     dipole=      1.675600000000      4.168400000000     -3.591900000000
 Energy=    -3205.96547     NIter=   0.
 Dipole moment=       1.675600       4.168400      -3.591900
 ***** Axes restored to original set *****
 -------------------------------------------------------------------
 Center     Atomic                   Forces (Hartrees/Bohr)
 Number     Number              X              Y              Z
 -------------------------------------------------------------------
      1        6          -0.038492355    0.002670073    0.025863863
      2        6           0.020040909   -0.012283367   -0.002525487
      3        8          -0.003508266   -0.011671172   -0.021888032
      4        6           0.007640770   -0.005428505    0.029288740
      5        6          -0.001434748   -0.006167454    0.008638485
      6        1          -0.001514921    0.003871695   -0.003831131
      7        1          -0.002761072   -0.002312238    0.001222697
      8        1          -0.000676326    0.000988945    0.003450267
      9        7           0.025470826    0.033526540   -0.052571714
     10        1           0.000017963   -0.004487422    0.004762104
     11        1          -0.001019951   -0.002346320   -0.000182828
     12        6          -0.002404801    0.012181354   -0.008483250
     13        6           0.004878610    0.000253754    0.004037828
     14        6          -0.004666230    0.002427725    0.003981813
     15        6          -0.001898841   -0.000027698   -0.000548301
     16        6          -0.006553432   -0.001227725   -0.003467086
     17        6           0.005556034   -0.001556480   -0.002572592
     18        1          -0.003501407   -0.001368052   -0.002564860
     19        1           0.001227634   -0.001317876   -0.003243400
     20        1           0.003721830   -0.000702605   -0.000067207
     21        1           0.001557469    0.000743540    0.003194228
     22        1          -0.003302429    0.001513842    0.001664726
     23        1           0.000105339   -0.014294282    0.008699021
     24       35           0.003277787   -0.006085285   -0.007558830
     25        8          -0.008734406    0.015663138    0.015420911
     26        6           0.006197118   -0.006784818   -0.004122453
     27        1           0.001954736   -0.003596192   -0.003342253
     28        1          -0.000602368    0.003439736    0.003726228
     29        1          -0.000575468    0.004377151    0.003018515
 -------------------------------------------------------------------
 Cartesian Forces:  Max     0.052571714 RMS     0.011072829
 FormGI is forming the generalized inverse of G from B-inverse, IUseBI=4.

 GradGradGradGradGradGradGradGradGradGradGradGradGradGradGradGradGradGrad
 Berny optimization.
 Internal  Forces:  Max     0.040674512 RMS     0.007162675
 Search for a saddle point.
 Step number   1 out of a maximum of   50
 All quantities printed in internal units (Hartrees-Bohrs-Radians)
 Swapping is turned off.
 Second derivative matrix not updated -- analytic derivatives used.
 ITU=  0
     Eigenvalues ---   -0.06568   0.00410   0.00714   0.00743   0.01011
     Eigenvalues ---    0.01121   0.01704   0.02291   0.02358   0.02406
     Eigenvalues ---    0.02552   0.02743   0.02977   0.03191   0.03332
     Eigenvalues ---    0.03531   0.03670   0.04008   0.04265   0.05523
     Eigenvalues ---    0.05814   0.05877   0.06080   0.07258   0.08395
     Eigenvalues ---    0.10143   0.10262   0.10468   0.10842   0.11650
     Eigenvalues ---    0.12824   0.12950   0.13804   0.14231   0.14551
     Eigenvalues ---    0.15129   0.15346   0.15840   0.15990   0.19446
     Eigenvalues ---    0.20268   0.21254   0.21399   0.21798   0.21937
     Eigenvalues ---    0.22130   0.22277   0.22496   0.23016   0.25665
     Eigenvalues ---    0.27495   0.27984   0.29978   0.31236   0.34265
     Eigenvalues ---    0.35038   0.36222   0.36281   0.36565   0.36686
     Eigenvalues ---    0.36920   0.36944   0.38443   0.38625   0.38659
     Eigenvalues ---    0.38740   0.38847   0.38919   0.39381   0.43701
     Eigenvalues ---    0.44727   0.45177   0.46243   0.46477   0.51418
     Eigenvalues ---    0.51771   0.52013   0.52275   0.55549   0.61322
     Eigenvalues ---    0.80876
 Eigenvectors required to have negative eigenvalues:
                          R6        A19       A11       R2        D5
   1                   -0.82076  -0.24805   0.17629   0.15757  -0.13085
                          D10       A21       D27       D26       D6
   1                    0.12879   0.12857  -0.12421  -0.12192  -0.11511
 RFO step:  Lambda0=1.675974832D-03 Lambda=-3.46924361D-02.
 Linear search not attempted -- option 19 set.
 Maximum step size (   0.100) exceeded in Quadratic search.
    -- Step size scaled by   0.243
 Iteration  1 RMS(Cart)=  0.02665751 RMS(Int)=  0.00043841
 Iteration  2 RMS(Cart)=  0.00085856 RMS(Int)=  0.00010399
 Iteration  3 RMS(Cart)=  0.00000065 RMS(Int)=  0.00010399
 Variable       Old X    -DE/DX   Delta X   Delta X   Delta X     New X
                                 (Linear)    (Quad)   (Total)
    R1        2.83005  -0.01953   0.00000  -0.01944  -0.01944   2.81060
    R2        2.57717   0.02420   0.00000   0.01003   0.01003   2.58720
    R3        3.54205   0.00848   0.00000   0.00946   0.00946   3.55151
    R4        2.31455  -0.02256   0.00000  -0.00275  -0.00275   2.31180
    R5        2.57246  -0.01237   0.00000  -0.00630  -0.00630   2.56616
    R6        3.54336   0.04067   0.00000   0.01908   0.01908   3.56244
    R7        2.84048  -0.00772   0.00000  -0.00424  -0.00424   2.83624
    R8        2.08473  -0.00646   0.00000  -0.00293  -0.00293   2.08180
    R9        2.06689   0.00494   0.00000   0.00307   0.00307   2.06996
   R10        2.06609   0.00339   0.00000   0.00196   0.00196   2.06805
   R11        2.06634   0.00331   0.00000   0.00183   0.00183   2.06818
   R12        2.77784   0.00074   0.00000  -0.00548  -0.00548   2.77237
   R13        1.93759  -0.00145   0.00000  -0.00147  -0.00147   1.93612
   R14        1.94274  -0.00202   0.00000  -0.00208  -0.00208   1.94065
   R15        2.64969  -0.00235   0.00000  -0.00054  -0.00054   2.64914
   R16        2.64966  -0.00248   0.00000  -0.00117  -0.00117   2.64849
   R17        2.64001  -0.00293   0.00000  -0.00181  -0.00181   2.63820
   R18        2.05319   0.00419   0.00000   0.00217   0.00217   2.05536
   R19        2.63287   0.00029   0.00000   0.00045   0.00045   2.63332
   R20        2.05371   0.00368   0.00000   0.00216   0.00216   2.05587
   R21        2.63276   0.00121   0.00000   0.00015   0.00015   2.63291
   R22        2.05391   0.00378   0.00000   0.00210   0.00210   2.05602
   R23        2.63973  -0.00350   0.00000  -0.00117  -0.00117   2.63856
   R24        2.05388   0.00360   0.00000   0.00210   0.00210   2.05599
   R25        2.05590   0.00334   0.00000   0.00199   0.00199   2.05788
   R26        2.69653  -0.00731   0.00000  -0.00599  -0.00599   2.69053
   R27        2.06646   0.00252   0.00000   0.00129   0.00129   2.06775
   R28        2.06837   0.00316   0.00000   0.00224   0.00224   2.07061
   R29        2.06833   0.00360   0.00000   0.00228   0.00228   2.07061
    A1        2.02154   0.00487   0.00000   0.00807   0.00806   2.02959
    A2        2.06348   0.00374   0.00000   0.00547   0.00546   2.06893
    A3        2.19805  -0.00859   0.00000  -0.01342  -0.01343   2.18462
    A4        2.17706  -0.00013   0.00000  -0.00009  -0.00009   2.17697
    A5        1.93174   0.01658   0.00000   0.01097   0.01097   1.94271
    A6        2.17433  -0.01647   0.00000  -0.01090  -0.01090   2.16343
    A7        1.85916   0.01772   0.00000   0.01588   0.01598   1.87514
    A8        2.12285   0.00549   0.00000   0.01164   0.01170   2.13455
    A9        2.02804  -0.00638   0.00000  -0.01497  -0.01524   2.01280
   A10        1.87746  -0.02518   0.00000  -0.03416  -0.03415   1.84331
   A11        1.46692   0.00965   0.00000   0.02356   0.02368   1.49060
   A12        1.97612  -0.00082   0.00000  -0.00004   0.00022   1.97634
   A13        1.89820  -0.00061   0.00000  -0.00019  -0.00019   1.89801
   A14        1.90021  -0.00074   0.00000   0.00060   0.00060   1.90081
   A15        1.92452   0.00495   0.00000   0.00440   0.00440   1.92893
   A16        1.89757   0.00008   0.00000  -0.00139  -0.00139   1.89618
   A17        1.92253  -0.00242   0.00000  -0.00214  -0.00214   1.92039
   A18        1.92032  -0.00130   0.00000  -0.00133  -0.00133   1.91899
   A19        2.28969  -0.02568   0.00000  -0.06472  -0.06477   2.22491
   A20        1.84964   0.00359   0.00000   0.01026   0.00982   1.85947
   A21        1.76603   0.00774   0.00000   0.02690   0.02719   1.79322
   A22        1.85535   0.01224   0.00000   0.01839   0.01781   1.87315
   A23        1.84975   0.00813   0.00000   0.01763   0.01799   1.86773
   A24        1.79854  -0.00250   0.00000   0.00532   0.00490   1.80344
   A25        2.14543  -0.00033   0.00000  -0.00061  -0.00061   2.14482
   A26        2.06521  -0.00082   0.00000   0.00089   0.00089   2.06610
   A27        2.07191   0.00118   0.00000  -0.00018  -0.00018   2.07173
   A28        2.10505  -0.00010   0.00000   0.00028   0.00028   2.10534
   A29        2.10367  -0.00127   0.00000  -0.00154  -0.00154   2.10213
   A30        2.07446   0.00138   0.00000   0.00126   0.00126   2.07572
   A31        2.09563   0.00012   0.00000   0.00039   0.00039   2.09602
   A32        2.09298  -0.00052   0.00000  -0.00080  -0.00080   2.09218
   A33        2.09458   0.00041   0.00000   0.00041   0.00041   2.09499
   A34        2.09282  -0.00128   0.00000  -0.00106  -0.00106   2.09176
   A35        2.09531   0.00057   0.00000   0.00034   0.00034   2.09565
   A36        2.09506   0.00071   0.00000   0.00073   0.00073   2.09578
   A37        2.09519   0.00034   0.00000   0.00036   0.00036   2.09555
   A38        2.09527   0.00030   0.00000   0.00013   0.00013   2.09540
   A39        2.09273  -0.00064   0.00000  -0.00048  -0.00048   2.09224
   A40        2.10565  -0.00025   0.00000   0.00024   0.00024   2.10589
   A41        2.10056  -0.00212   0.00000  -0.00279  -0.00279   2.09778
   A42        2.07695   0.00237   0.00000   0.00255   0.00255   2.07950
   A43        1.99139   0.00646   0.00000   0.00664   0.00664   1.99803
   A44        1.88586  -0.00636   0.00000  -0.00617  -0.00617   1.87969
   A45        1.92945   0.00217   0.00000   0.00319   0.00320   1.93265
   A46        1.92877   0.00191   0.00000   0.00226   0.00226   1.93104
   A47        1.89212   0.00319   0.00000   0.00403   0.00403   1.89615
   A48        1.89228   0.00330   0.00000   0.00442   0.00442   1.89670
   A49        1.93393  -0.00422   0.00000  -0.00762  -0.00761   1.92632
    D1       -0.47259   0.00571   0.00000   0.02180   0.02177  -0.45082
    D2        2.65735   0.00309   0.00000   0.01984   0.01981   2.67716
    D3        2.65347   0.00699   0.00000   0.02909   0.02913   2.68259
    D4       -0.49978   0.00437   0.00000   0.02713   0.02716  -0.47261
    D5       -1.31473  -0.01024   0.00000  -0.02882  -0.02875  -1.34348
    D6        2.81226   0.00428   0.00000  -0.00471  -0.00472   2.80755
    D7        0.28148   0.00781   0.00000   0.00173   0.00161   0.28309
    D8        1.84377  -0.01176   0.00000  -0.03697  -0.03686   1.80690
    D9       -0.31242   0.00275   0.00000  -0.01286  -0.01283  -0.32525
   D10       -2.84321   0.00628   0.00000  -0.00642  -0.00650  -2.84971
   D11       -3.13684  -0.00043   0.00000  -0.00718  -0.00719   3.13916
   D12       -0.00688  -0.00291   0.00000  -0.00905  -0.00905  -0.01592
   D13        1.26088  -0.00298   0.00000  -0.01680  -0.01649   1.24439
   D14       -1.00256  -0.00081   0.00000   0.00846   0.00855  -0.99401
   D15       -2.87388  -0.00196   0.00000  -0.01003  -0.01005  -2.88394
   D16       -2.72036  -0.00105   0.00000  -0.01457  -0.01431  -2.73467
   D17        1.29938   0.00112   0.00000   0.01070   0.01073   1.31011
   D18       -0.57194  -0.00003   0.00000  -0.00780  -0.00788  -0.57982
   D19       -0.75669   0.00051   0.00000  -0.00818  -0.00819  -0.76488
   D20       -3.02013   0.00268   0.00000   0.01709   0.01685  -3.00328
   D21        1.39173   0.00153   0.00000  -0.00141  -0.00175   1.38998
   D22        1.20310   0.00258   0.00000  -0.00340  -0.00339   1.19971
   D23       -1.97723   0.00356   0.00000  -0.00043  -0.00042  -1.97765
   D24       -0.94455  -0.00296   0.00000  -0.00270  -0.00268  -0.94722
   D25        2.15831  -0.00198   0.00000   0.00027   0.00030   2.15860
   D26       -2.53286  -0.00270   0.00000  -0.01459  -0.01463  -2.54749
   D27        0.56999  -0.00172   0.00000  -0.01162  -0.01165   0.55834
   D28        3.04355   0.00190   0.00000   0.01421   0.01419   3.05775
   D29       -0.97818  -0.00336   0.00000  -0.01411  -0.01417  -0.99235
   D30        0.92730   0.00212   0.00000   0.00650   0.00658   0.93388
   D31       -1.14445   0.00276   0.00000   0.01542   0.01540  -1.12905
   D32        1.11700  -0.00251   0.00000  -0.01290  -0.01296   1.10404
   D33        3.02249   0.00298   0.00000   0.00771   0.00779   3.03028
   D34        0.94729   0.00051   0.00000   0.01151   0.01149   0.95878
   D35       -3.07445  -0.00476   0.00000  -0.01681  -0.01687  -3.09132
   D36       -1.16896   0.00073   0.00000   0.00380   0.00388  -1.16508
   D37        3.11962   0.00083   0.00000   0.00087   0.00087   3.12049
   D38       -0.02204   0.00015   0.00000  -0.00141  -0.00141  -0.02344
   D39        0.01691  -0.00011   0.00000  -0.00214  -0.00214   0.01477
   D40       -3.12475  -0.00079   0.00000  -0.00441  -0.00441  -3.12916
   D41       -3.12101  -0.00110   0.00000  -0.00144  -0.00144  -3.12245
   D42        0.02761  -0.00073   0.00000  -0.00169  -0.00169   0.02592
   D43       -0.01649  -0.00019   0.00000   0.00140   0.00140  -0.01510
   D44        3.13213   0.00017   0.00000   0.00114   0.00114   3.13327
   D45       -0.00762   0.00024   0.00000   0.00132   0.00132  -0.00629
   D46        3.13344  -0.00005   0.00000   0.00040   0.00040   3.13384
   D47        3.13403   0.00091   0.00000   0.00356   0.00357   3.13760
   D48       -0.00809   0.00061   0.00000   0.00264   0.00264  -0.00545
   D49       -0.00241  -0.00004   0.00000   0.00027   0.00027  -0.00214
   D50        3.13971  -0.00011   0.00000  -0.00004  -0.00004   3.13967
   D51        3.13971   0.00025   0.00000   0.00120   0.00120   3.14091
   D52       -0.00135   0.00019   0.00000   0.00089   0.00089  -0.00046
   D53        0.00282  -0.00026   0.00000  -0.00101  -0.00101   0.00182
   D54       -3.13967  -0.00006   0.00000  -0.00019  -0.00019  -3.13987
   D55       -3.13930  -0.00020   0.00000  -0.00070  -0.00070  -3.13999
   D56        0.00139   0.00001   0.00000   0.00012   0.00012   0.00151
   D57        0.00678   0.00037   0.00000   0.00017   0.00017   0.00695
   D58        3.14144  -0.00001   0.00000   0.00039   0.00039  -3.14135
   D59       -3.13391   0.00017   0.00000  -0.00065  -0.00065  -3.13455
   D60        0.00075  -0.00021   0.00000  -0.00042  -0.00042   0.00033
   D61       -3.13765   0.00005   0.00000  -0.00247  -0.00247  -3.14012
   D62       -1.06970   0.00133   0.00000   0.00052   0.00052  -1.06918
   D63        1.07779  -0.00121   0.00000  -0.00540  -0.00539   1.07239
         Item               Value     Threshold  Converged?
 Maximum Force            0.040675     0.000450     NO 
 RMS     Force            0.007163     0.000300     NO 
 Maximum Displacement     0.103431     0.001800     NO 
 RMS     Displacement     0.026841     0.001200     NO 
 Predicted change in Energy=-7.320729D-03
 GradGradGradGradGradGradGradGradGradGradGradGradGradGradGradGradGradGrad

                          Input orientation:                          
 ---------------------------------------------------------------------
 Center     Atomic      Atomic             Coordinates (Angstroms)
 Number     Number       Type             X           Y           Z
 ---------------------------------------------------------------------
      1          6           0       -0.762905   -0.115633    0.212083
      2          6           0       -2.108425    0.309162    0.682411
      3          8           0       -2.313357    1.199273    1.496228
      4          6           0        0.227239    0.827779    0.275244
      5          6           0       -1.092016    3.010801   -1.326540
      6          1           0       -0.927830    3.606949   -2.230694
      7          1           0       -2.063909    2.513841   -1.404565
      8          1           0       -1.109154    3.678633   -0.459656
      9          7           0       -0.028500    2.012668   -1.168525
     10          1           0       -0.016486    1.442325   -2.019564
     11          1           0        0.865223    2.516912   -1.208803
     12          6           0        1.683398    0.465240    0.247244
     13          6           0        2.316318   -0.056225   -0.889732
     14          6           0        3.680167   -0.353866   -0.870930
     15          6           0        4.429045   -0.126787    0.282084
     16          6           0        3.814142    0.400505    1.415696
     17          6           0        2.450199    0.698608    1.396950
     18          1           0        1.750760   -0.237432   -1.800935
     19          1           0        4.157367   -0.764898   -1.758006
     20          1           0        5.491530   -0.360550    0.296925
     21          1           0        4.395930    0.580662    2.317233
     22          1           0        1.984955    1.110418    2.291292
     23          1           0        0.008363    1.698625    0.913475
     24         35           0       -0.541427   -1.877924   -0.402200
     25          8           0       -3.091191   -0.407873    0.079027
     26          6           0       -4.410496   -0.057377    0.483628
     27          1           0       -5.107811   -0.698149   -0.064508
     28          1           0       -4.545831   -0.230307    1.557117
     29          1           0       -4.625660    0.987989    0.235610
 ---------------------------------------------------------------------
                    Distance matrix (angstroms):
                    1          2          3          4          5
     1  C    0.000000
     2  C    1.487307   0.000000
     3  O    2.404559   1.223353   0.000000
     4  C    1.369087   2.426948   2.843138   0.000000
     5  C    3.500038   3.516792   3.569499   3.011932   0.000000
     6  H    4.455555   4.555807   4.648283   3.916337   1.095374
     7  H    3.349671   3.036125   3.194512   3.303623   1.094365
     8  H    3.868795   3.695429   3.379765   3.233171   1.094432
     9  N    2.641041   3.264044   3.603206   1.885162   1.467074
    10  H    2.822166   3.600130   4.206600   2.388141   2.024146
    11  H    3.405879   4.158538   4.376841   2.337219   2.022023
    12  C    2.514567   3.819902   4.251213   1.500872   4.081618
    13  C    3.270953   4.709935   5.357515   2.550075   4.605887
    14  C    4.579362   6.029947   6.628574   3.825272   5.856816
    15  C    5.192434   6.564208   6.978006   4.308877   6.550897
    16  C    4.760718   5.968488   6.179867   3.788016   6.197087
    17  C    3.520076   4.630690   4.790823   2.493283   5.030997
    18  H    3.222668   4.621588   5.427011   2.786810   4.342516
    19  H    5.339650   6.809507   7.504550   4.702832   6.480593
    20  H    6.259803   7.639138   8.049076   5.396791   7.572630
    21  H    5.615163   6.712153   6.787581   4.648523   7.021411
    22  H    3.657464   4.470601   4.372129   2.689591   5.115459
    23  H    2.092447   2.542595   2.445269   1.101643   2.819629
    24  Br   1.879379   2.900898   4.026525   2.893200   5.005716
    25  O    2.350324   1.357954   2.279562   3.546451   4.202339
    26  C    3.658148   2.339529   2.646227   4.726046   4.868545
    27  H    4.392498   3.250982   3.720898   5.559375   5.610316
    28  H    4.016565   2.645200   2.651669   5.054200   5.545187
    29  H    4.017389   2.645167   2.642072   4.855705   4.361046
                    6          7          8          9         10
     6  H    0.000000
     7  H    1.779902   0.000000
     8  H    1.781739   1.777963   0.000000
     9  N    2.116301   2.109450   2.108494   0.000000
    10  H    2.358118   2.391299   2.937398   1.024550   0.000000
    11  H    2.333984   2.935669   2.410183   1.026950   1.609187
    12  C    4.777973   4.579034   4.315547   2.707311   2.997119
    13  C    5.073610   5.104575   5.086058   3.139461   2.994019
    14  C    6.226608   6.442276   6.274376   4.409451   4.267424
    15  C    6.996496   7.209450   6.760403   5.152790   5.246184
    16  C    6.787028   6.853579   6.204991   4.903383   5.249773
    17  C    5.747115   5.614333   4.999653   3.801627   4.279044
    18  H    4.705189   4.719991   5.031273   2.937458   2.447967
    19  H    6.722775   7.041259   7.011913   5.058047   4.728773
    20  H    7.958523   8.260863   7.775374   6.184694   6.241372
    21  H    7.627875   7.701850   6.900325   5.811776   6.246575
    22  H    5.930038   5.658821   4.872059   4.103461   4.764390
    23  H    3.795254   3.214374   2.656081   2.105874   2.944321
    24  Br   5.794526   4.755028   5.585780   3.998382   3.730346
    25  O    5.112116   3.434059   4.573640   4.098229   4.157057
    26  C    5.737925   3.960164   5.074092   5.120213   5.274694
    27  H    6.379536   4.623632   5.941517   5.862320   5.858794
    28  H    6.493225   4.739392   5.581929   5.732917   6.008769
    29  H    5.159026   3.403082   4.482051   4.914819   5.151380
                   11         12         13         14         15
    11  H    0.000000
    12  C    2.645532   0.000000
    13  C    2.971282   1.401866   0.000000
    14  C    4.034778   2.430706   1.396076   0.000000
    15  C    4.681102   2.808966   2.416971   1.393494   0.000000
    16  C    4.479207   2.430955   2.786948   2.411573   1.393277
    17  C    3.550821   1.401523   2.411764   2.786359   2.416616
    18  H    2.953169   2.166408   1.087650   2.145012   3.394764
    19  H    4.680823   3.413911   2.155360   1.087921   2.154754
    20  H    5.652408   3.896956   3.403342   2.155218   1.087997
    21  H    5.352372   3.414089   3.874924   3.398535   2.154857
    22  H    3.934805   2.164560   3.404375   3.875244   3.397230
    23  H    2.430610   2.184226   3.414338   4.569350   4.824232
    24  Br   4.684427   3.295762   3.423884   4.512684   5.314163
    25  O    5.085871   4.856678   5.504843   6.837881   7.528226
    26  C    6.109378   6.120829   6.865576   8.208627   8.842111
    27  H    6.879184   6.897187   7.497383   8.831614   9.560242
    28  H    6.669111   6.403346   7.287418   8.577745   9.065585
    29  H    5.879944   6.330688   7.109700   8.485975   9.123189
                   16         17         18         19         20
    16  C    0.000000
    17  C    1.396265   0.000000
    18  H    3.874432   3.404681   0.000000
    19  H    3.398287   3.874276   2.464106   0.000000
    20  H    2.155107   3.403169   4.290633   2.483190   0.000000
    21  H    1.087981   2.155621   4.962410   4.298258   2.483518
    22  H    2.148620   1.088985   4.314843   4.963164   4.293869
    23  H    4.052319   2.682601   3.761952   5.515431   5.889435
    24  Br   5.240894   4.338811   3.146712   5.015546   6.260014
    25  O    7.079815   5.802433   5.196902   7.486237   8.585616
    26  C    8.289938   6.962385   6.573638   8.884468   9.908425
    27  H    9.110395   7.823702   7.089954   9.418913  10.610874
    28  H    8.384931   7.059247   7.136079   9.328530  10.116998
    29  H    8.542131   7.176367   6.804991   9.175439  10.206853
                   21         22         23         24         25
    21  H    0.000000
    22  H    2.468626   0.000000
    23  H    4.740372   2.480178   0.000000
    24  Br   6.149590   4.750547   3.850321   0.000000
    25  O    7.876785   5.741653   3.839384   2.982268   0.000000
    26  C    9.017890   6.747828   4.774372   4.366781   1.423768
    27  H    9.880746   7.689476   5.733779   4.728400   2.042455
    28  H    9.010579   6.707289   4.987558   4.752769   2.081408
    29  H    9.267587   6.923948   4.736948   5.030031   2.080275
                   26         27         28         29
    26  C    0.000000
    27  H    1.094208   0.000000
    28  H    1.095719   1.778866   0.000000
    29  H    1.095718   1.779214   1.799166   0.000000
 Stoichiometry    C11H14BrNO2
 Framework group  C1[X(C11H14BrNO2)]
 Deg. of freedom    81
 Full point group                 C1      NOp   1
 Largest Abelian subgroup         C1      NOp   1
 Largest concise Abelian subgroup C1      NOp   1
                         Standard orientation:                         
 ---------------------------------------------------------------------
 Center     Atomic      Atomic             Coordinates (Angstroms)
 Number     Number       Type             X           Y           Z
 ---------------------------------------------------------------------
      1          6           0       -0.758532   -0.111583    0.223354
      2          6           0       -2.101999    0.328393    0.685524
      3          8           0       -2.302380    1.230444    1.487237
      4          6           0        0.237855    0.825879    0.276052
      5          6           0       -1.063696    2.996584   -1.356657
      6          1           0       -0.893842    3.579722   -2.268218
      7          1           0       -2.038786    2.505207   -1.430023
      8          1           0       -1.077888    3.675810   -0.498617
      9          7           0       -0.007245    1.993460   -1.183577
     10          1           0        0.002454    1.411955   -2.027058
     11          1           0        0.889941    2.491098   -1.228747
     12          6           0        1.691576    0.453198    0.255566
     13          6           0        2.323015   -0.087364   -0.873285
     14          6           0        3.684783   -0.393919   -0.847997
     15          6           0        4.433088   -0.156815    0.303370
     16          6           0        3.819711    0.389408    1.428816
     17          6           0        2.457852    0.696425    1.403577
     18          1           0        1.757898   -0.276669   -1.783114
     19          1           0        4.160799   -0.819737   -1.728712
     20          1           0        5.493938   -0.397520    0.323288
     21          1           0        4.401068    0.577427    2.329024
     22          1           0        1.993783    1.123037    2.291570
     23          1           0        0.023718    1.706463    0.902419
     24         35           0       -0.547867   -1.883219   -0.367402
     25          8           0       -3.088497   -0.389841    0.089703
     26          6           0       -4.406132   -0.025192    0.487175
     27          1           0       -5.106771   -0.668372   -0.053857
     28          1           0       -4.544581   -0.183137    1.562575
     29          1           0       -4.613770    1.018262    0.225096
 ---------------------------------------------------------------------
 Rotational constants (GHZ):           0.6876330           0.3040349           0.2526020
 Standard basis: STO-3G (5D, 7F)
 There are   103 symmetry adapted cartesian basis functions of A   symmetry.
 There are   102 symmetry adapted basis functions of A   symmetry.
   102 basis functions,   309 primitive gaussians,   103 cartesian basis functions
    69 alpha electrons       69 beta electrons
       nuclear repulsion energy      1361.1390170878 Hartrees.
 NAtoms=   29 NActive=   29 NUniq=   29 SFac= 1.00D+00 NAtFMM=   60 NAOKFM=F Big=F
 Integral buffers will be    131072 words long.
 Raffenetti 1 integral format.
 Two-electron integral symmetry is turned on.
 External calculation of energy, first and second derivatives.
 Running external command "~/scripts/MiMe -H 'hf def2svp' -EF 'wb97xd def2svp' -c 12 -m 48GB R"
         input file       "/local/jobs/1157681/Gau-681350.EIn"
         output file      "/local/jobs/1157681/Gau-681350.EOu"
         message file     "/local/jobs/1157681/Gau-681350.EMs"
         fchk file        "/local/jobs/1157681/Gau-681350.EFC"
         mat. el file     "/local/jobs/1157681/Gau-681350.EUF"
 Read checkpoint file Gau-681350_H.chk type G16
 Write formatted file Gau-681350_H.fchk

deriv: 2

spelevel: wb97xd def2svp
gradlevel: wb97xd def2svp
hesslevel: hf def2svp

runspe: False
runforce: True
runfreq: True

Running Gaussian ...

Parsing files ...
SPE file: Gau-681350_F.out
FORCE file: Gau-681350_F.out
HESS file: Gau-681350_H.out

 ExternalExternalExternalExternalExternalExternalExternalExternalExternalExternal
 Output from external command:
 "~/scripts/MiMe -H 'hf def2svp' -EF 'wb97xd def2svp' -c 12 -m 48GB R /local/jobs/1157681/Gau-681350.EIn /local/jobs/1157681/Gau-681350.EOu /local/jobs/1157681/Gau-681350.EMs /local/jobs/1157681/Gau-681350.EFC /local/jobs/1157681/Gau-681350.EUF"
  
 --------------------------------------------------
 Force calculation at wb97xd def2svp
 Hessian calculation at hf def2svp
 ExternalExternalExternalExternalExternalExternalExternalExternalExternalExternal

 Recovered energy= -3205.97289551     dipole=      1.862800000000      4.106000000000     -3.612800000000
 Energy=    -3205.97290     NIter=   0.
 Dipole moment=       1.862800       4.106000      -3.612800
 ***** Axes restored to original set *****
 -------------------------------------------------------------------
 Center     Atomic                   Forces (Hartrees/Bohr)
 Number     Number              X              Y              Z
 -------------------------------------------------------------------
      1        6          -0.029925769    0.003244592    0.021191100
      2        6           0.015976445   -0.010246109   -0.001776661
      3        8          -0.002923450   -0.008548067   -0.017918989
      4        6           0.004352023   -0.006121423    0.025087423
      5        6          -0.001080674   -0.005657599    0.006769635
      6        1          -0.001605502    0.003169163   -0.002850952
      7        1          -0.002101955   -0.002109255    0.001239698
      8        1          -0.000555195    0.000528687    0.002910118
      9        7           0.023253871    0.028935470   -0.044507524
     10        1          -0.000627987   -0.004094303    0.004177611
     11        1          -0.000928582   -0.001687479    0.000300145
     12        6          -0.001865261    0.010056725   -0.007191042
     13        6           0.003852477    0.000135954    0.003275980
     14        6          -0.003582133    0.001951734    0.003176325
     15        6          -0.001464523   -0.000102694   -0.000478874
     16        6          -0.005246784   -0.001064216   -0.002719178
     17        6           0.004592223   -0.001167382   -0.001933993
     18        1          -0.002877812   -0.001312578   -0.001950868
     19        1           0.000970013   -0.001021773   -0.002544507
     20        1           0.002922478   -0.000534090   -0.000039281
     21        1           0.001190032    0.000591105    0.002528508
     22        1          -0.002708028    0.001179686    0.001236199
     23        1          -0.000425236   -0.011713963    0.006949873
     24       35           0.002499547   -0.004543725   -0.007033117
     25        8          -0.007330995    0.012245543    0.012718197
     26        6           0.004876808   -0.005703815   -0.003501740
     27        1           0.001644644   -0.002900923   -0.002681759
     28        1          -0.000408816    0.002959945    0.002951998
     29        1          -0.000471863    0.003530790    0.002615679
 -------------------------------------------------------------------
 Cartesian Forces:  Max     0.044507524 RMS     0.009221373
 FormGI is forming the generalized inverse of G from B-inverse, IUseBI=4.

 GradGradGradGradGradGradGradGradGradGradGradGradGradGradGradGradGradGrad
 Berny optimization.
 Internal  Forces:  Max     0.034255145 RMS     0.005884968
 Search for a saddle point.
 Step number   2 out of a maximum of   50
 All quantities printed in internal units (Hartrees-Bohrs-Radians)
 Swapping is turned off.
 Second derivative matrix not updated -- analytic derivatives used.
 ITU=  0  0
     Eigenvalues ---   -0.05692   0.00428   0.00747   0.00786   0.01017
     Eigenvalues ---    0.01126   0.01788   0.02302   0.02360   0.02427
     Eigenvalues ---    0.02567   0.02753   0.03001   0.03195   0.03343
     Eigenvalues ---    0.03533   0.03687   0.04011   0.04271   0.05568
     Eigenvalues ---    0.05811   0.05858   0.06263   0.07315   0.08289
     Eigenvalues ---    0.09814   0.10150   0.10255   0.10767   0.11460
     Eigenvalues ---    0.12955   0.13052   0.13823   0.14249   0.14553
     Eigenvalues ---    0.15149   0.15447   0.15886   0.16374   0.19464
     Eigenvalues ---    0.19994   0.21250   0.21504   0.21878   0.21954
     Eigenvalues ---    0.22172   0.22367   0.22568   0.23050   0.25704
     Eigenvalues ---    0.27858   0.28470   0.30209   0.31353   0.34690
     Eigenvalues ---    0.35428   0.35930   0.36179   0.36309   0.36579
     Eigenvalues ---    0.36746   0.36823   0.38217   0.38396   0.38423
     Eigenvalues ---    0.38523   0.38657   0.39030   0.39764   0.44075
     Eigenvalues ---    0.45014   0.45673   0.46492   0.46700   0.51558
     Eigenvalues ---    0.52161   0.52280   0.52386   0.55641   0.59910
     Eigenvalues ---    0.82065
 Eigenvectors required to have negative eigenvalues:
                          R6        A19       A11       R2        D27
   1                   -0.84071  -0.19217   0.17451   0.15909  -0.13486
                          D26       D6        D10       D5        R1
   1                   -0.13093  -0.12715   0.12707  -0.11684  -0.10378
 RFO step:  Lambda0=2.667137541D-03 Lambda=-2.65788882D-02.
 Linear search not attempted -- option 19 set.
 Maximum step size (   0.100) exceeded in Quadratic search.
    -- Step size scaled by   0.269
 Iteration  1 RMS(Cart)=  0.03020792 RMS(Int)=  0.00047583
 Iteration  2 RMS(Cart)=  0.00091652 RMS(Int)=  0.00012657
 Iteration  3 RMS(Cart)=  0.00000077 RMS(Int)=  0.00012657
 Variable       Old X    -DE/DX   Delta X   Delta X   Delta X     New X
                                 (Linear)    (Quad)   (Total)
    R1        2.81060  -0.01515   0.00000  -0.01923  -0.01923   2.79137
    R2        2.58720   0.01818   0.00000   0.01246   0.01246   2.59966
    R3        3.55151   0.00685   0.00000   0.00930   0.00930   3.56082
    R4        2.31180  -0.01765   0.00000  -0.00124  -0.00124   2.31056
    R5        2.56616  -0.00951   0.00000  -0.00490  -0.00490   2.56127
    R6        3.56244   0.03426   0.00000   0.00035   0.00035   3.56279
    R7        2.83624  -0.00607   0.00000  -0.00252  -0.00252   2.83372
    R8        2.08180  -0.00515   0.00000  -0.00209  -0.00209   2.07971
    R9        2.06996   0.00384   0.00000   0.00251   0.00251   2.07247
   R10        2.06805   0.00274   0.00000   0.00151   0.00151   2.06956
   R11        2.06818   0.00264   0.00000   0.00143   0.00143   2.06961
   R12        2.77237   0.00024   0.00000  -0.00448  -0.00448   2.76789
   R13        1.93612  -0.00120   0.00000  -0.00145  -0.00145   1.93467
   R14        1.94065  -0.00165   0.00000  -0.00191  -0.00191   1.93874
   R15        2.64914  -0.00190   0.00000  -0.00039  -0.00039   2.64875
   R16        2.64849  -0.00194   0.00000  -0.00108  -0.00108   2.64742
   R17        2.63820  -0.00221   0.00000  -0.00170  -0.00170   2.63650
   R18        2.05536   0.00335   0.00000   0.00189   0.00189   2.05725
   R19        2.63332   0.00021   0.00000   0.00042   0.00042   2.63374
   R20        2.05587   0.00289   0.00000   0.00193   0.00193   2.05780
   R21        2.63291   0.00098   0.00000   0.00005   0.00005   2.63297
   R22        2.05602   0.00297   0.00000   0.00187   0.00187   2.05789
   R23        2.63856  -0.00285   0.00000  -0.00092  -0.00092   2.63764
   R24        2.05599   0.00283   0.00000   0.00188   0.00188   2.05787
   R25        2.05788   0.00262   0.00000   0.00178   0.00178   2.05966
   R26        2.69053  -0.00592   0.00000  -0.00565  -0.00565   2.68488
   R27        2.06775   0.00199   0.00000   0.00119   0.00119   2.06894
   R28        2.07061   0.00248   0.00000   0.00209   0.00209   2.07269
   R29        2.07061   0.00287   0.00000   0.00209   0.00209   2.07269
    A1        2.02959   0.00362   0.00000   0.00779   0.00778   2.03737
    A2        2.06893   0.00325   0.00000   0.00594   0.00593   2.07487
    A3        2.18462  -0.00686   0.00000  -0.01366  -0.01368   2.17095
    A4        2.17697  -0.00037   0.00000   0.00008   0.00008   2.17705
    A5        1.94271   0.01368   0.00000   0.01038   0.01038   1.95309
    A6        2.16343  -0.01333   0.00000  -0.01049  -0.01049   2.15294
    A7        1.87514   0.01418   0.00000   0.01410   0.01418   1.88932
    A8        2.13455   0.00477   0.00000   0.00997   0.01000   2.14455
    A9        2.01280  -0.00581   0.00000  -0.01639  -0.01670   1.99610
   A10        1.84331  -0.02024   0.00000  -0.02953  -0.02952   1.81379
   A11        1.49060   0.00799   0.00000   0.02929   0.02940   1.52000
   A12        1.97634  -0.00033   0.00000  -0.00133  -0.00107   1.97527
   A13        1.89801  -0.00046   0.00000   0.00055   0.00055   1.89857
   A14        1.90081  -0.00061   0.00000   0.00144   0.00144   1.90225
   A15        1.92893   0.00450   0.00000   0.00327   0.00327   1.93220
   A16        1.89618   0.00011   0.00000  -0.00118  -0.00119   1.89499
   A17        1.92039  -0.00234   0.00000  -0.00269  -0.00270   1.91770
   A18        1.91899  -0.00125   0.00000  -0.00140  -0.00141   1.91758
   A19        2.22491  -0.02262   0.00000  -0.06676  -0.06687   2.15804
   A20        1.85947   0.00319   0.00000   0.00724   0.00665   1.86612
   A21        1.79322   0.00706   0.00000   0.03014   0.03048   1.82370
   A22        1.87315   0.01007   0.00000   0.01667   0.01590   1.88906
   A23        1.86773   0.00729   0.00000   0.01841   0.01885   1.88658
   A24        1.80344  -0.00210   0.00000   0.00781   0.00738   1.81082
   A25        2.14482  -0.00001   0.00000  -0.00054  -0.00054   2.14428
   A26        2.06610  -0.00087   0.00000   0.00101   0.00101   2.06711
   A27        2.07173   0.00091   0.00000  -0.00039  -0.00039   2.07133
   A28        2.10534  -0.00010   0.00000   0.00042   0.00042   2.10575
   A29        2.10213  -0.00105   0.00000  -0.00142  -0.00142   2.10070
   A30        2.07572   0.00115   0.00000   0.00100   0.00100   2.07672
   A31        2.09602   0.00011   0.00000   0.00038   0.00038   2.09640
   A32        2.09218  -0.00042   0.00000  -0.00087  -0.00087   2.09131
   A33        2.09499   0.00031   0.00000   0.00048   0.00048   2.09547
   A34        2.09176  -0.00104   0.00000  -0.00106  -0.00106   2.09070
   A35        2.09565   0.00047   0.00000   0.00027   0.00027   2.09592
   A36        2.09578   0.00056   0.00000   0.00078   0.00078   2.09657
   A37        2.09555   0.00027   0.00000   0.00037   0.00037   2.09591
   A38        2.09540   0.00027   0.00000   0.00006   0.00006   2.09546
   A39        2.09224  -0.00054   0.00000  -0.00043  -0.00043   2.09181
   A40        2.10589  -0.00014   0.00000   0.00032   0.00032   2.10620
   A41        2.09778  -0.00182   0.00000  -0.00262  -0.00262   2.09516
   A42        2.07950   0.00196   0.00000   0.00231   0.00231   2.08181
   A43        1.99803   0.00526   0.00000   0.00622   0.00622   2.00425
   A44        1.87969  -0.00513   0.00000  -0.00575  -0.00575   1.87394
   A45        1.93265   0.00168   0.00000   0.00333   0.00334   1.93599
   A46        1.93104   0.00164   0.00000   0.00214   0.00214   1.93318
   A47        1.89615   0.00267   0.00000   0.00387   0.00387   1.90003
   A48        1.89670   0.00274   0.00000   0.00426   0.00426   1.90096
   A49        1.92632  -0.00358   0.00000  -0.00769  -0.00769   1.91863
    D1       -0.45082   0.00540   0.00000   0.02995   0.02991  -0.42091
    D2        2.67716   0.00320   0.00000   0.02802   0.02798   2.70513
    D3        2.68259   0.00667   0.00000   0.03911   0.03915   2.72174
    D4       -0.47261   0.00448   0.00000   0.03717   0.03721  -0.43541
    D5       -1.34348  -0.00816   0.00000  -0.03335  -0.03328  -1.37676
    D6        2.80755   0.00333   0.00000  -0.01267  -0.01266   2.79489
    D7        0.28309   0.00608   0.00000   0.00190   0.00175   0.28484
    D8        1.80690  -0.00959   0.00000  -0.04331  -0.04319   1.76372
    D9       -0.32525   0.00190   0.00000  -0.02262  -0.02257  -0.34782
   D10       -2.84971   0.00465   0.00000  -0.00806  -0.00816  -2.85787
   D11        3.13916  -0.00044   0.00000  -0.00795  -0.00795   3.13120
   D12       -0.01592  -0.00250   0.00000  -0.00977  -0.00977  -0.02569
   D13        1.24439  -0.00270   0.00000  -0.01956  -0.01917   1.22523
   D14       -0.99401  -0.00043   0.00000   0.01064   0.01070  -0.98331
   D15       -2.88394  -0.00194   0.00000  -0.01203  -0.01206  -2.89600
   D16       -2.73467  -0.00109   0.00000  -0.01784  -0.01750  -2.75217
   D17        1.31011   0.00117   0.00000   0.01236   0.01237   1.32248
   D18       -0.57982  -0.00034   0.00000  -0.01031  -0.01039  -0.59021
   D19       -0.76488   0.00010   0.00000  -0.01224  -0.01221  -0.77709
   D20       -3.00328   0.00236   0.00000   0.01797   0.01766  -2.98562
   D21        1.38998   0.00086   0.00000  -0.00471  -0.00510   1.38487
   D22        1.19971   0.00194   0.00000  -0.00305  -0.00302   1.19669
   D23       -1.97765   0.00286   0.00000  -0.00032  -0.00029  -1.97794
   D24       -0.94722  -0.00250   0.00000  -0.00255  -0.00253  -0.94975
   D25        2.15860  -0.00158   0.00000   0.00018   0.00021   2.15881
   D26       -2.54749  -0.00254   0.00000  -0.02224  -0.02230  -2.56978
   D27        0.55834  -0.00163   0.00000  -0.01951  -0.01956   0.53878
   D28        3.05775   0.00186   0.00000   0.01764   0.01761   3.07535
   D29       -0.99235  -0.00324   0.00000  -0.01681  -0.01686  -1.00921
   D30        0.93388   0.00208   0.00000   0.00766   0.00775   0.94163
   D31       -1.12905   0.00266   0.00000   0.01868   0.01864  -1.11041
   D32        1.10404  -0.00245   0.00000  -0.01577  -0.01582   1.08822
   D33        3.03028   0.00287   0.00000   0.00870   0.00879   3.03906
   D34        0.95878   0.00055   0.00000   0.01466   0.01463   0.97341
   D35       -3.09132  -0.00455   0.00000  -0.01978  -0.01983  -3.11115
   D36       -1.16508   0.00077   0.00000   0.00469   0.00477  -1.16031
   D37        3.12049   0.00073   0.00000  -0.00013  -0.00013   3.12035
   D38       -0.02344   0.00010   0.00000  -0.00283  -0.00283  -0.02627
   D39        0.01477  -0.00015   0.00000  -0.00290  -0.00290   0.01187
   D40       -3.12916  -0.00079   0.00000  -0.00560  -0.00560  -3.13476
   D41       -3.12245  -0.00098   0.00000  -0.00040  -0.00040  -3.12286
   D42        0.02592  -0.00066   0.00000  -0.00115  -0.00115   0.02477
   D43       -0.01510  -0.00013   0.00000   0.00221   0.00221  -0.01289
   D44        3.13327   0.00020   0.00000   0.00147   0.00147   3.13474
   D45       -0.00629   0.00024   0.00000   0.00153   0.00153  -0.00476
   D46        3.13384  -0.00005   0.00000   0.00064   0.00064   3.13448
   D47        3.13760   0.00087   0.00000   0.00419   0.00419  -3.14139
   D48       -0.00545   0.00059   0.00000   0.00330   0.00330  -0.00215
   D49       -0.00214  -0.00004   0.00000   0.00059   0.00059  -0.00155
   D50        3.13967  -0.00011   0.00000   0.00032   0.00032   3.13999
   D51        3.14091   0.00025   0.00000   0.00149   0.00149  -3.14078
   D52       -0.00046   0.00018   0.00000   0.00122   0.00122   0.00075
   D53        0.00182  -0.00024   0.00000  -0.00128  -0.00128   0.00054
   D54       -3.13987  -0.00007   0.00000  -0.00017  -0.00017  -3.14004
   D55       -3.13999  -0.00016   0.00000  -0.00101  -0.00101  -3.14100
   D56        0.00151   0.00001   0.00000   0.00010   0.00010   0.00161
   D57        0.00695   0.00031   0.00000  -0.00014  -0.00014   0.00681
   D58       -3.14135  -0.00002   0.00000   0.00058   0.00058  -3.14077
   D59       -3.13455   0.00014   0.00000  -0.00124  -0.00124  -3.13580
   D60        0.00033  -0.00019   0.00000  -0.00052  -0.00052  -0.00019
   D61       -3.14012   0.00008   0.00000  -0.00378  -0.00378   3.13929
   D62       -1.06918   0.00117   0.00000  -0.00068  -0.00068  -1.06986
   D63        1.07239  -0.00108   0.00000  -0.00668  -0.00668   1.06571
         Item               Value     Threshold  Converged?
 Maximum Force            0.034255     0.000450     NO 
 RMS     Force            0.005885     0.000300     NO 
 Maximum Displacement     0.113491     0.001800     NO 
 RMS     Displacement     0.030352     0.001200     NO 
 Predicted change in Energy=-5.825277D-03
 GradGradGradGradGradGradGradGradGradGradGradGradGradGradGradGradGradGrad

                          Input orientation:                          
 ---------------------------------------------------------------------
 Center     Atomic      Atomic             Coordinates (Angstroms)
 Number     Number       Type             X           Y           Z
 ---------------------------------------------------------------------
      1          6           0       -0.783996   -0.103239    0.190810
      2          6           0       -2.118922    0.315552    0.664627
      3          8           0       -2.322794    1.215907    1.466364
      4          6           0        0.219672    0.835031    0.260039
      5          6           0       -1.063957    2.987513   -1.314477
      6          1           0       -0.934431    3.609065   -2.208709
      7          1           0       -2.023501    2.464323   -1.384717
      8          1           0       -1.083021    3.634095   -0.430729
      9          7           0        0.025647    2.015764   -1.196929
     10          1           0        0.039003    1.445066   -2.046784
     11          1           0        0.914155    2.527446   -1.232761
     12          6           0        1.674798    0.473335    0.240028
     13          6           0        2.312795   -0.050164   -0.892914
     14          6           0        3.675738   -0.347282   -0.868070
     15          6           0        4.420109   -0.119631    0.288013
     16          6           0        3.799190    0.407426    1.418486
     17          6           0        2.435898    0.705732    1.393020
     18          1           0        1.748989   -0.235431   -1.805582
     19          1           0        4.156329   -0.759758   -1.753896
     20          1           0        5.483597   -0.353109    0.307383
     21          1           0        4.376853    0.588429    2.323701
     22          1           0        1.963771    1.118285    2.284556
     23          1           0       -0.004534    1.692487    0.912480
     24         35           0       -0.558720   -1.856336   -0.462256
     25          8           0       -3.109815   -0.407771    0.088478
     26          6           0       -4.422208   -0.064533    0.510875
     27          1           0       -5.119319   -0.715255   -0.026953
     28          1           0       -4.542593   -0.229593    1.588503
     29          1           0       -4.649095    0.980018    0.265002
 ---------------------------------------------------------------------
                    Distance matrix (angstroms):
[...]
     4   6     0.00  -0.00  -0.00    -0.00   0.00  -0.00     0.00  -0.00  -0.00
     5   6     0.04  -0.00  -0.09    -0.00  -0.00   0.01    -0.00  -0.00   0.00
     6   1    -0.10  -0.25   0.68     0.01   0.02  -0.04     0.00   0.00  -0.01
     7   1    -0.12  -0.16  -0.01     0.02   0.02   0.00     0.01   0.01   0.00
     8   1    -0.23   0.46   0.39     0.01  -0.02  -0.02    -0.00   0.00   0.00
     9   7    -0.00   0.00   0.00    -0.00   0.00   0.00    -0.00   0.00   0.00
    10   1    -0.00  -0.01  -0.01     0.00  -0.01  -0.00     0.00  -0.01  -0.00
    11   1     0.01   0.01  -0.01     0.00  -0.00  -0.00     0.00  -0.00  -0.00
    12   6    -0.00   0.00   0.00    -0.00   0.00   0.00     0.00   0.00   0.00
    13   6    -0.00  -0.00  -0.00    -0.02  -0.04  -0.04    -0.02  -0.03  -0.03
    14   6    -0.00   0.00   0.00    -0.02   0.03   0.02    -0.01   0.01   0.01
    15   6     0.00  -0.00   0.00     0.03  -0.01   0.01    -0.01   0.00  -0.01
    16   6    -0.00  -0.00  -0.00    -0.01  -0.02  -0.02     0.01   0.02   0.03
    17   6    -0.00   0.00   0.00    -0.01   0.02   0.01     0.03  -0.05  -0.02
    18   1     0.02   0.03   0.03     0.27   0.41   0.43     0.21   0.31   0.32
    19   1     0.01  -0.02  -0.01     0.25  -0.38  -0.19     0.09  -0.14  -0.07
    20   1    -0.02   0.00  -0.00    -0.32   0.06  -0.10     0.14  -0.02   0.05
    21   1     0.01   0.01   0.01     0.13   0.19   0.21    -0.18  -0.27  -0.31
    22   1     0.01  -0.01  -0.01     0.16  -0.24  -0.12    -0.36   0.54   0.27
    23   1    -0.00   0.02   0.01     0.01  -0.02  -0.00    -0.01   0.04   0.01
    24  35    -0.00   0.00   0.00    -0.00  -0.00   0.00    -0.00   0.00   0.00
    25   8     0.00  -0.00  -0.00    -0.00   0.00   0.00    -0.00   0.00   0.00
    26   6    -0.00   0.00   0.00     0.00   0.00  -0.00    -0.00  -0.00  -0.00
    27   1     0.00   0.00  -0.00    -0.00  -0.00   0.00     0.00   0.00  -0.00
    28   1    -0.00  -0.00  -0.00     0.00   0.00   0.00     0.00   0.00   0.00
    29   1     0.00  -0.00   0.00    -0.00   0.00  -0.00    -0.00   0.00  -0.00
                     76                     77                     78
                      A                      A                      A
 Frequencies --   3254.4599              3259.0345              3268.8850
 Red. masses --      1.1097                 1.0942                 1.0979
 Frc consts  --      6.9248                 6.8471                 6.9124
 IR Inten    --      0.0000                 0.0000                 0.0000
  Atom  AN      X      Y      Z        X      Y      Z        X      Y      Z
     1   6     0.00   0.00   0.00     0.00  -0.00  -0.00     0.00  -0.00   0.00
     2   6    -0.00   0.00  -0.00    -0.00   0.00   0.00     0.00  -0.00  -0.00
     3   8     0.00  -0.00  -0.00    -0.00  -0.00   0.00     0.00   0.00   0.00
     4   6    -0.00  -0.00   0.00    -0.00   0.00   0.00     0.00  -0.00  -0.00
     5   6    -0.03  -0.09  -0.01     0.00   0.00   0.00     0.00   0.00   0.00
     6   1     0.02   0.06  -0.18     0.00   0.00   0.00    -0.00   0.00  -0.00
     7   1     0.53   0.66   0.00    -0.01  -0.02  -0.00    -0.00  -0.00  -0.00
     8   1    -0.18   0.33   0.30     0.01  -0.01  -0.01     0.00  -0.00  -0.00
     9   7     0.00   0.00  -0.00    -0.00   0.00   0.00    -0.00   0.00   0.00
    10   1    -0.00  -0.01  -0.01     0.00  -0.01  -0.00     0.00  -0.00  -0.00
    11   1    -0.01  -0.01   0.01     0.00   0.00  -0.00     0.00  -0.00  -0.00
    12   6    -0.00  -0.00  -0.00    -0.00   0.00  -0.00    -0.00   0.00   0.00
    13   6     0.00   0.00   0.00    -0.02  -0.02  -0.03    -0.01  -0.02  -0.02
    14   6     0.00  -0.00  -0.00     0.02  -0.02  -0.01     0.03  -0.04  -0.02
    15   6    -0.00   0.00  -0.00    -0.05   0.01  -0.02     0.01   0.00   0.01
    16   6     0.00  -0.00   0.00     0.01   0.01   0.01    -0.02  -0.03  -0.04
    17   6    -0.00   0.00   0.00    -0.02   0.03   0.02     0.02  -0.02  -0.01
    18   1    -0.00  -0.00  -0.01     0.18   0.27   0.29     0.13   0.19   0.20
    19   1    -0.01   0.02   0.01    -0.17   0.25   0.12    -0.32   0.48   0.24
    20   1     0.02  -0.00   0.01     0.60  -0.11   0.20    -0.06   0.01  -0.03
    21   1    -0.00   0.00  -0.00    -0.09  -0.11  -0.13     0.26   0.37   0.42
    22   1     0.01  -0.01  -0.01     0.25  -0.37  -0.19    -0.18   0.27   0.13
    23   1    -0.00   0.01   0.00     0.01  -0.02  -0.00    -0.00   0.02   0.00
    24  35     0.00   0.00  -0.00    -0.00  -0.00   0.00    -0.00   0.00   0.00
    25   8    -0.00  -0.00  -0.00     0.00   0.00  -0.00    -0.00   0.00   0.00
    26   6     0.00   0.00  -0.00     0.00  -0.00  -0.00    -0.00  -0.00  -0.00
    27   1    -0.00  -0.00   0.00    -0.00  -0.00   0.00     0.00   0.00  -0.00
    28   1    -0.00  -0.00  -0.00     0.00   0.00   0.00     0.00   0.00   0.00
    29   1     0.00  -0.00   0.00    -0.00   0.00  -0.00    -0.00   0.00  -0.00
                     79                     80                     81
                      A                      A                      A
 Frequencies --   3279.4406              3524.7297              3596.9991
 Red. masses --      1.1015                 1.0547                 1.0972
 Frc consts  --      6.9799                 7.7205                 8.3640
 IR Inten    --      0.0000                 0.0000                 0.0000
  Atom  AN      X      Y      Z        X      Y      Z        X      Y      Z
     1   6    -0.00   0.00   0.00    -0.00  -0.00   0.00    -0.00   0.00   0.00
     2   6     0.00  -0.00  -0.00     0.00  -0.00  -0.00     0.00  -0.00  -0.00
     3   8    -0.00   0.00   0.00    -0.00   0.00   0.00     0.00  -0.00   0.00
     4   6     0.00  -0.00   0.00     0.00  -0.00  -0.00     0.00  -0.00  -0.00
     5   6    -0.00  -0.00   0.00    -0.00   0.00  -0.00     0.00  -0.00   0.00
     6   1     0.00   0.00  -0.00    -0.00  -0.00   0.01     0.00   0.00  -0.01
     7   1     0.00   0.00   0.00    -0.01   0.00  -0.00     0.01   0.01   0.00
     8   1    -0.00   0.00   0.00    -0.01   0.01   0.00    -0.01   0.01   0.00
     9   7    -0.00  -0.00  -0.00     0.05  -0.02  -0.03    -0.03  -0.08   0.01
    10   1    -0.00   0.00   0.00    -0.11   0.71   0.18    -0.11   0.64   0.18
    11   1     0.00   0.00   0.00    -0.51  -0.37   0.23     0.56   0.40  -0.26
    12   6     0.00  -0.00   0.00    -0.00   0.00   0.00     0.00   0.00  -0.00
    13   6     0.01   0.01   0.01    -0.00  -0.00  -0.00    -0.00  -0.00  -0.00
    14   6    -0.02   0.03   0.02    -0.00  -0.00  -0.00     0.00  -0.00  -0.00
    15   6    -0.06   0.01  -0.02     0.00   0.00   0.00    -0.00  -0.00  -0.00
    16   6    -0.02  -0.03  -0.03     0.00  -0.00  -0.00    -0.00   0.00   0.00
    17   6     0.01  -0.01  -0.01     0.00  -0.00  -0.00     0.00   0.00   0.00
    18   1    -0.07  -0.10  -0.11     0.01   0.01   0.01     0.01   0.00   0.01
    19   1     0.24  -0.37  -0.18     0.00  -0.00  -0.00    -0.00   0.00   0.00
    20   1     0.62  -0.11   0.20     0.00  -0.00  -0.00    -0.00  -0.00  -0.00
    21   1     0.22   0.31   0.36     0.00   0.00   0.00    -0.00  -0.00  -0.00
    22   1    -0.10   0.15   0.07    -0.00   0.00   0.00     0.00  -0.00  -0.00
    23   1    -0.00   0.01   0.00    -0.00   0.01   0.01    -0.00   0.01   0.00
    24  35     0.00  -0.00  -0.00     0.00  -0.00  -0.00     0.00   0.00  -0.00
    25   8    -0.00  -0.00   0.00    -0.00  -0.00   0.00    -0.00  -0.00   0.00
    26   6     0.00   0.00  -0.00     0.00  -0.00  -0.00    -0.00   0.00   0.00
    27   1    -0.00  -0.00   0.00    -0.00  -0.00   0.00    -0.00  -0.00   0.00
    28   1    -0.00   0.00   0.00    -0.00   0.00   0.00    -0.00  -0.00  -0.00
    29   1    -0.00   0.00  -0.00    -0.00   0.00   0.00     0.00  -0.00   0.00

 -------------------
 - Thermochemistry -
 -------------------
 Temperature   298.150 Kelvin.  Pressure   1.00000 Atm.
 Atom     1 has atomic number  6 and mass  12.00000
 Atom     2 has atomic number  6 and mass  12.00000
 Atom     3 has atomic number  8 and mass  15.99491
 Atom     4 has atomic number  6 and mass  12.00000
 Atom     5 has atomic number  6 and mass  12.00000
 Atom     6 has atomic number  1 and mass   1.00783
 Atom     7 has atomic number  1 and mass   1.00783
 Atom     8 has atomic number  1 and mass   1.00783
 Atom     9 has atomic number  7 and mass  14.00307
 Atom    10 has atomic number  1 and mass   1.00783
 Atom    11 has atomic number  1 and mass   1.00783
 Atom    12 has atomic number  6 and mass  12.00000
 Atom    13 has atomic number  6 and mass  12.00000
 Atom    14 has atomic number  6 and mass  12.00000
 Atom    15 has atomic number  6 and mass  12.00000
 Atom    16 has atomic number  6 and mass  12.00000
 Atom    17 has atomic number  6 and mass  12.00000
 Atom    18 has atomic number  1 and mass   1.00783
 Atom    19 has atomic number  1 and mass   1.00783
 Atom    20 has atomic number  1 and mass   1.00783
 Atom    21 has atomic number  1 and mass   1.00783
 Atom    22 has atomic number  1 and mass   1.00783
 Atom    23 has atomic number  1 and mass   1.00783
 Atom    24 has atomic number 35 and mass  78.91834
 Atom    25 has atomic number  8 and mass  15.99491
 Atom    26 has atomic number  6 and mass  12.00000
 Atom    27 has atomic number  1 and mass   1.00783
 Atom    28 has atomic number  1 and mass   1.00783
 Atom    29 has atomic number  1 and mass   1.00783
 Molecular mass:   271.02079 amu.
 Principal axes and moments of inertia in atomic units:
                           1         2         3
     Eigenvalues --  2596.895116026.266386652.06935
           X            0.99971  -0.02388   0.00075
           Y            0.02389   0.99950  -0.02065
           Z           -0.00025   0.02067   0.99979
 This molecule is an asymmetric top.
 Rotational symmetry number  1.
 Warning -- assumption of classical behavior for rotation
           may cause significant error
 Rotational temperatures (Kelvin)      0.03335     0.01437     0.01302
 Rotational constants (GHZ):           0.69496     0.29948     0.27131
 Zero-point vibrational energy     661276.5 (Joules/Mol)
                                  158.04887 (Kcal/Mol)
 Warning -- explicit consideration of  20 degrees of freedom as
           vibrations may cause significant error
 Vibrational temperatures:     79.58   110.69   134.21   161.77   206.09
          (Kelvin)            233.97   263.86   293.49   315.65   365.06
                              407.72   462.97   489.77   501.55   514.24
                              526.55   624.76   648.99   678.57   726.50
                              921.14   950.00   978.44  1016.51  1150.40
                             1159.99  1269.66  1276.11  1314.71  1406.37
                             1418.92  1512.88  1535.66  1551.84  1563.06
                             1610.56  1627.74  1658.14  1686.94  1693.54
                             1713.23  1771.85  1816.48  1840.27  1868.84
                             1878.43  1896.42  1925.47  1952.95  2054.84
                             2098.02  2115.26  2125.16  2150.88  2233.35
                             2295.70  2305.66  2306.95  2311.55  2322.70
                             2346.28  2348.83  2387.08  2477.10  2538.48
                             2547.06  2588.51  4465.06  4510.09  4574.91
                             4578.12  4625.16  4664.01  4668.53  4675.10
                             4682.44  4689.02  4703.20  4718.38  5071.30
                             5175.28
 
 Zero-point correction=                           0.251867 (Hartree/Particle)
 Thermal correction to Energy=                    0.265752
 Thermal correction to Enthalpy=                  0.266696
 Thermal correction to Gibbs Free Energy=         0.210514
 Sum of electronic and zero-point Energies=          -3205.737900
 Sum of electronic and thermal Energies=             -3205.724015
 Sum of electronic and thermal Enthalpies=           -3205.723071
 Sum of electronic and thermal Free Energies=        -3205.779253
 
                     E (Thermal)             CV                S
                      KCal/Mol        Cal/Mol-Kelvin    Cal/Mol-Kelvin
 Total                  166.762             51.756            118.245
 Electronic               0.000              0.000              0.000
 Translational            0.889              2.981             42.690
 Rotational               0.889              2.981             33.009
 Vibrational            164.984             45.795             42.546
 Vibration     1          0.596              1.975              4.618
 Vibration     2          0.599              1.965              3.968
 Vibration     3          0.602              1.954              3.590
 Vibration     4          0.607              1.939              3.226
 Vibration     5          0.616              1.910              2.760
 Vibration     6          0.623              1.888              2.519
 Vibration     7          0.631              1.862              2.294
 Vibration     8          0.640              1.834              2.097
 Vibration     9          0.647              1.812              1.964
 Vibration    10          0.665              1.756              1.705
 Vibration    11          0.682              1.704              1.513
 Vibration    12          0.707              1.632              1.301
 Vibration    13          0.720              1.595              1.210
 Vibration    14          0.726              1.578              1.173
 Vibration    15          0.733              1.560              1.133
 Vibration    16          0.739              1.542              1.097
 Vibration    17          0.795              1.396              0.845
 Vibration    18          0.810              1.359              0.793
 Vibration    19          0.829              1.313              0.733
 Vibration    20          0.860              1.239              0.646
                       Q            Log10(Q)             Ln(Q)
 Total Bot       0.148078D-96        -96.829509       -222.958184
 Total V=0       0.104984D+20         19.021124         43.797757
 Vib (Bot)       0.231184-111       -111.636042       -257.051486
 Vib (Bot)    1  0.373538D+01          0.572335          1.317849
 Vib (Bot)    2  0.267815D+01          0.427834          0.985124
 Vib (Bot)    3  0.220283D+01          0.342981          0.789742
 Vib (Bot)    4  0.182059D+01          0.260212          0.599160
 Vib (Bot)    5  0.141827D+01          0.151760          0.349440
 Vib (Bot)    6  0.124219D+01          0.094189          0.216878
 Vib (Bot)    7  0.109392D+01          0.038986          0.089768
 Vib (Bot)    8  0.976002D+00         -0.010549         -0.024290
 Vib (Bot)    9  0.901833D+00         -0.044874         -0.103326
 Vib (Bot)   10  0.767852D+00         -0.114722         -0.264158
 Vib (Bot)   11  0.677243D+00         -0.169255         -0.389725
 Vib (Bot)   12  0.583567D+00         -0.233909         -0.538596
 Vib (Bot)   13  0.545339D+00         -0.263333         -0.606348
 Vib (Bot)   14  0.529744D+00         -0.275934         -0.635362
 Vib (Bot)   15  0.513702D+00         -0.289289         -0.666112
 Vib (Bot)   16  0.498830D+00         -0.302048         -0.695491
 Vib (Bot)   17  0.399930D+00         -0.398016         -0.916465
 Vib (Bot)   18  0.379848D+00         -0.420391         -0.967985
 Vib (Bot)   19  0.357153D+00         -0.447146         -1.029591
 Vib (Bot)   20  0.324055D+00         -0.489382         -1.126843
 Vib (V=0)       0.163904D+05          4.214591          9.704454
 Vib (V=0)    1  0.426869D+01          0.630295          1.451308
 Vib (V=0)    2  0.322442D+01          0.508452          1.170753
 Vib (V=0)    3  0.275886D+01          0.440730          1.014818
 Vib (V=0)    4  0.238800D+01          0.378034          0.870456
 Vib (V=0)    5  0.200383D+01          0.301860          0.695059
 Vib (V=0)    6  0.183904D+01          0.264592          0.609246
 Vib (V=0)    7  0.170277D+01          0.231157          0.532258
 Vib (V=0)    8  0.159662D+01          0.203202          0.467890
 Vib (V=0)    9  0.153117D+01          0.185022          0.426030
 Vib (V=0)   10  0.141630D+01          0.151154          0.348044
 Vib (V=0)   11  0.134182D+01          0.127694          0.294026
 Vib (V=0)   12  0.126847D+01          0.103281          0.237814
 Vib (V=0)   13  0.123986D+01          0.093373          0.214999
 Vib (V=0)   14  0.122844D+01          0.089355          0.205747
 Vib (V=0)   15  0.121686D+01          0.085241          0.196275
 Vib (V=0)   16  0.120628D+01          0.081448          0.187541
 Vib (V=0)   17  0.114027D+01          0.057007          0.131264
 Vib (V=0)   18  0.112792D+01          0.052278          0.120376
 Vib (V=0)   19  0.111446D+01          0.047064          0.108368
 Vib (V=0)   20  0.109583D+01          0.039743          0.091511
 Electronic      0.100000D+01          0.000000          0.000000
 Translational   0.175371D+09          8.243958         18.982414
 Rotational      0.365237D+07          6.562575         15.110888
 ***** Axes restored to original set *****
 -------------------------------------------------------------------
 Center     Atomic                   Forces (Hartrees/Bohr)
 Number     Number              X              Y              Z
 -------------------------------------------------------------------
      1        6          -0.000255182    0.000458578   -0.000499971
      2        6           0.000016038   -0.000051946    0.000095625
      3        8          -0.000000349   -0.000003543   -0.000007755
      4        6          -0.000174463   -0.000706351    0.000106324
      5        6           0.000007530   -0.000069355   -0.000088177
      6        1          -0.000099869   -0.000315896   -0.000566749
      7        1          -0.000210740   -0.000256245    0.000569699
      8        1           0.000289841    0.000545478    0.000027974
      9        7          -0.000202725   -0.000097482   -0.000262057
     10        1           0.000554563    0.000585995   -0.000307458
     11        1          -0.000210696    0.000168278    0.000864712
     12        6          -0.000024522   -0.000102699   -0.000210740
     13        6          -0.000048742   -0.000167498    0.000033793
     14        6          -0.000002835    0.000005819    0.000001607
     15        6           0.000000852    0.000006018    0.000002579
     16        6           0.000008203    0.000009677    0.000000688
     17        6           0.000060554    0.000180953   -0.000037386
     18        1          -0.000003831    0.000005073    0.000002034
     19        1           0.000004458    0.000007482    0.000001049
     20        1          -0.000001439   -0.000002838    0.000003382
     21        1          -0.000005652   -0.000008868    0.000004133
     22        1          -0.000000354   -0.000000313    0.000001529
     23        1           0.000205060   -0.000035641    0.000090064
     24       35           0.000095185   -0.000160525    0.000192330
     25        8           0.000000387    0.000009849   -0.000014377
     26        6          -0.000001531   -0.000003413    0.000003670
     27        1           0.000001728   -0.000002586    0.000001186
     28        1          -0.000000547    0.000004830   -0.000001417
     29        1          -0.000000921   -0.000002831   -0.000006289
 -------------------------------------------------------------------
 Cartesian Forces:  Max     0.000864712 RMS     0.000221622


 WAR ES EIN GOTT DER DIESE ZEICHEN SCHRIEB?
          - LUDWIG BOLTZMANN, QUOTING GOETHE, ABOUT MAXWELL'S EQUATIONS.
 Error termination request processed by link 9999.
 Error termination via Lnk1e in /apps/gaussian/g16/C.01/g16/l9999.exe at Wed Jan 17 03:36:40 2024.
 Job cpu time:       0 days 16 hours 16 minutes 44.1 seconds.
 Elapsed time:       0 days  2 hours 44 minutes 36.9 seconds.
 File lengths (MBytes):  RWF=      6 Int=      0 D2E=      0 Chk=      2 Scr=      1
