Unloading slurm/anatra/current
  ERROR: No such file or directory on
    '/cm/local/modulefiles/slurm/anatra/current'
environment: line 0: unalias: gv: not found
environment: line 0: unalias: sl: not found
 Entering Gaussian System, Link 0=g16
 Initial command:
 /apps/gaussian/g16/C.01/g16/l1.exe "/local/jobs/1149211/Gau-840891.inp" -scrdir="/local/jobs/1149211/"
 Entering Link 1 = /apps/gaussian/g16/C.01/g16/l1.exe PID=    840894.
  
 Copyright (c) 1988-2019, Gaussian, Inc.  All Rights Reserved.
  
 This is part of the Gaussian(R) 16 program.  It is based on
 the Gaussian(R) 09 system (copyright 2009, Gaussian, Inc.),
 the Gaussian(R) 03 system (copyright 2003, Gaussian, Inc.),
 the Gaussian(R) 98 system (copyright 1998, Gaussian, Inc.),
 the Gaussian(R) 94 system (copyright 1995, Gaussian, Inc.),
 the Gaussian 92(TM) system (copyright 1992, Gaussian, Inc.),
 the Gaussian 90(TM) system (copyright 1990, Gaussian, Inc.),
 the Gaussian 88(TM) system (copyright 1988, Gaussian, Inc.),
 the Gaussian 86(TM) system (copyright 1986, Carnegie Mellon
 University), and the Gaussian 82(TM) system (copyright 1983,
 Carnegie Mellon University). Gaussian is a federally registered
 trademark of Gaussian, Inc.
  
 This software contains proprietary and confidential information,
 including trade secrets, belonging to Gaussian, Inc.
  
 This software is provided under written license and may be
 used, copied, transmitted, or stored only in accord with that
 written license.
  
 The following legend is applicable only to US Government
 contracts under FAR:
  
                    RESTRICTED RIGHTS LEGEND
  
 Use, reproduction and disclosure by the US Government is
 subject to restrictions as set forth in subparagraphs (a)
 and (c) of the Commercial Computer Software - Restricted
 Rights clause in FAR 52.227-19.
  
 Gaussian, Inc.
 340 Quinnipiac St., Bldg. 40, Wallingford CT 06492
  
  
 ---------------------------------------------------------------
 Warning -- This program may not be used in any manner that
 competes with the business of Gaussian, Inc. or will provide
 assistance to any competitor of Gaussian, Inc.  The licensee
 of this program is prohibited from giving any competitor of
 Gaussian, Inc. access to this program.  By using this program,
 the user acknowledges that Gaussian, Inc. is engaged in the
 business of creating and licensing software in the field of
 computational chemistry and represents and warrants to the
 licensee that it is not a competitor of Gaussian, Inc. and that
 it will not use this program in any manner prohibited above.
 ---------------------------------------------------------------
  

 Cite this work as:
 Gaussian 16, Revision C.01,
 M. J. Frisch, G. W. Trucks, H. B. Schlegel, G. E. Scuseria, 
 M. A. Robb, J. R. Cheeseman, G. Scalmani, V. Barone, 
 G. A. Petersson, H. Nakatsuji, X. Li, M. Caricato, A. V. Marenich, 
 J. Bloino, B. G. Janesko, R. Gomperts, B. Mennucci, H. P. Hratchian, 
 J. V. Ortiz, A. F. Izmaylov, J. L. Sonnenberg, D. Williams-Young, 
 F. Ding, F. Lipparini, F. Egidi, J. Goings, B. Peng, A. Petrone, 
 T. Henderson, D. Ranasinghe, V. G. Zakrzewski, J. Gao, N. Rega, 
 G. Zheng, W. Liang, M. Hada, M. Ehara, K. Toyota, R. Fukuda, 
 J. Hasegawa, M. Ishida, T. Nakajima, Y. Honda, O. Kitao, H. Nakai, 
 T. Vreven, K. Throssell, J. A. Montgomery, Jr., J. E. Peralta, 
 F. Ogliaro, M. J. Bearpark, J. J. Heyd, E. N. Brothers, K. N. Kudin, 
 V. N. Staroverov, T. A. Keith, R. Kobayashi, J. Normand, 
 K. Raghavachari, A. P. Rendell, J. C. Burant, S. S. Iyengar, 
 J. Tomasi, M. Cossi, J. M. Millam, M. Klene, C. Adamo, R. Cammi, 
 J. W. Ochterski, R. L. Martin, K. Morokuma, O. Farkas, 
 J. B. Foresman, and D. J. Fox, Gaussian, Inc., Wallingford CT, 2019.
 
 ******************************************
 Gaussian 16:  ES64L-G16RevC.01  3-Jul-2019
                 9-Dec-2023 
 ******************************************
 %chk=1a_gs_2_opt_hess.chk
 %nprocshared=12
 Will use up to   12 processors via shared memory.
 %mem=48GB
 ----------------------------------------------------------------------
 # m062x 6-31g(d) scrf=(iefpcm,solvent=benzene) opt=(calcfc,maxcycles=5
 0,maxstep=10) freq=noraman
 ----------------------------------------------------------------------
 1/6=50,8=10,10=4,18=20,19=15,26=3,38=1/1,3;
 2/9=110,12=2,17=6,18=5,40=1/2;
 3/5=1,6=6,7=1,11=2,25=1,30=1,70=2201,71=2,72=12,74=-55,140=1/1,2,3;
 4//1;
 5/5=2,38=5,53=12/2;
 8/6=4,10=90,11=11/1;
 11/6=1,8=1,9=11,15=111,16=1/1,2,10;
 10/6=1,13=1/2;
 6/7=2,8=2,9=2,10=2,28=1/1;
 7/10=1,25=1/1,2,3,16;
 1/6=50,8=10,10=4,18=20,19=15,26=3/3(2);
 2/9=110/2;
 99//99;
 2/9=110/2;
 3/5=1,6=6,7=1,11=2,25=1,30=1,70=2205,71=1,72=12,74=-55/1,2,3;
 4/5=5,16=3,69=1/1;
 5/5=2,38=5,53=12/2;
 7//1,2,3,16;
 1/6=50,8=10,18=20,19=15,26=3/3(-5);
 2/9=110/2;
 6/7=2,8=2,9=2,10=2,19=2,28=1/1;
 99/9=1/99;
 -----
 *****
 -----
 Symbolic Z-matrix:
 Charge =  0 Multiplicity = 1
 H                    -0.3445    0.1992    0.1169 
 C                    -0.235     2.3102    0.1169 
 H                    -1.9636    1.0899    0.1169 
 C                    -0.8837    1.1357    0.1169 
 H                     0.8472    2.3215    0.1169 
 C                    -0.9263    3.6559    0.1169 
 H                    -0.1915    4.4615    0.1169 
 H                    -1.5517    3.7674   -0.7696 
 H                    -1.5517    3.7674    1.0034 
 

 GradGradGradGradGradGradGradGradGradGradGradGradGradGradGradGradGradGrad
 Berny optimization.
 Initialization pass.
                           ----------------------------
                           !    Initial Parameters    !
                           ! (Angstroms and Degrees)  !
 --------------------------                            --------------------------
 ! Name  Definition              Value          Derivative Info.                !
 --------------------------------------------------------------------------------
 ! R1    R(1,4)                  1.0806         calculate D2E/DX2 analytically  !
 ! R2    R(2,4)                  1.3417         calculate D2E/DX2 analytically  !
 ! R3    R(2,5)                  1.0823         calculate D2E/DX2 analytically  !
 ! R4    R(2,6)                  1.5129         calculate D2E/DX2 analytically  !
 ! R5    R(3,4)                  1.0809         calculate D2E/DX2 analytically  !
 ! R6    R(6,7)                  1.0904         calculate D2E/DX2 analytically  !
 ! R7    R(6,8)                  1.0906         calculate D2E/DX2 analytically  !
 ! R8    R(6,9)                  1.0906         calculate D2E/DX2 analytically  !
 ! A1    A(4,2,5)              119.511          calculate D2E/DX2 analytically  !
 ! A2    A(4,2,6)              123.8972         calculate D2E/DX2 analytically  !
 ! A3    A(5,2,6)              116.5918         calculate D2E/DX2 analytically  !
 ! A4    A(1,4,2)              121.1556         calculate D2E/DX2 analytically  !
 ! A5    A(1,4,3)              117.5031         calculate D2E/DX2 analytically  !
 ! A6    A(2,4,3)              121.3413         calculate D2E/DX2 analytically  !
 ! A7    A(2,6,7)              110.4415         calculate D2E/DX2 analytically  !
 ! A8    A(2,6,8)              110.6689         calculate D2E/DX2 analytically  !
 ! A9    A(2,6,9)              110.6689         calculate D2E/DX2 analytically  !
 ! A10   A(7,6,8)              108.1136         calculate D2E/DX2 analytically  !
 ! A11   A(7,6,9)              108.1136         calculate D2E/DX2 analytically  !
 ! A12   A(8,6,9)              108.7496         calculate D2E/DX2 analytically  !
 ! D1    D(5,2,4,1)              0.0            calculate D2E/DX2 analytically  !
 ! D2    D(5,2,4,3)            180.0            calculate D2E/DX2 analytically  !
 ! D3    D(6,2,4,1)            180.0            calculate D2E/DX2 analytically  !
 ! D4    D(6,2,4,3)              0.0            calculate D2E/DX2 analytically  !
 ! D5    D(4,2,6,7)            180.0            calculate D2E/DX2 analytically  !
 ! D6    D(4,2,6,8)            -60.3151         calculate D2E/DX2 analytically  !
 ! D7    D(4,2,6,9)             60.3151         calculate D2E/DX2 analytically  !
 ! D8    D(5,2,6,7)              0.0            calculate D2E/DX2 analytically  !
 ! D9    D(5,2,6,8)            119.6849         calculate D2E/DX2 analytically  !
 ! D10   D(5,2,6,9)           -119.6849         calculate D2E/DX2 analytically  !
 --------------------------------------------------------------------------------
 Trust Radius=1.00D-01 FncErr=1.00D-07 GrdErr=1.00D-06 EigMax=2.50D+02 EigMin=1.00D-04
 Number of steps in this run=     50 maximum allowed number of steps=    100.
 GradGradGradGradGradGradGradGradGradGradGradGradGradGradGradGradGradGrad

                          Input orientation:                          
 ---------------------------------------------------------------------
 Center     Atomic      Atomic             Coordinates (Angstroms)
 Number     Number       Type             X           Y           Z
 ---------------------------------------------------------------------
      1          1           0       -0.344500    0.199200    0.116900
      2          6           0       -0.235000    2.310200    0.116900
      3          1           0       -1.963600    1.089900    0.116900
      4          6           0       -0.883700    1.135700    0.116900
      5          1           0        0.847200    2.321500    0.116900
      6          6           0       -0.926300    3.655900    0.116900
      7          1           0       -0.191500    4.461500    0.116900
      8          1           0       -1.551700    3.767400   -0.769600
      9          1           0       -1.551700    3.767400    1.003400
 ---------------------------------------------------------------------
                    Distance matrix (angstroms):
                    1          2          3          4          5
     1  H    0.000000
     2  C    2.113838   0.000000
     3  H    1.847926   2.115937   0.000000
     4  C    1.080634   1.341738   1.080871   0.000000
     5  H    2.433990   1.082259   3.068784   2.098127   0.000000
     6  C    3.505320   1.512879   2.767733   2.520560   2.219443
     7  H    4.265045   2.151740   3.808940   3.397070   2.378760
     8  H    3.869789   2.154765   2.850360   2.856213   2.937896
     9  H    3.869789   2.154765   2.850360   2.856213   2.937896
                    6          7          8          9
     6  C    0.000000
     7  H    1.090377   0.000000
     8  H    1.090614   1.765730   0.000000
     9  H    1.090614   1.765730   1.773000   0.000000
 Stoichiometry    C3H6
 Framework group  CS[SG(C3H4),X(H2)]
 Deg. of freedom    14
 Full point group                 CS      NOp   2
 Largest Abelian subgroup         CS      NOp   2
 Largest concise Abelian subgroup CS      NOp   2
                         Standard orientation:                         
 ---------------------------------------------------------------------
 Center     Atomic      Atomic             Coordinates (Angstroms)
 Number     Number       Type             X           Y           Z
 ---------------------------------------------------------------------
      1          1           0       -2.076961    0.881398    0.000000
      2          6           0       -0.000000    0.488275    0.000000
      3          1           0       -1.594673   -0.902483    0.000000
      4          6           0       -1.294644    0.135912    0.000000
      5          1           0        0.267054    1.537068    0.000000
      6          6           0        1.143906   -0.501818    0.000000
      7          1           0        2.100499    0.021490    0.000000
      8          1           0        1.104255   -1.135841    0.886500
      9          1           0        1.104255   -1.135841   -0.886500
 ---------------------------------------------------------------------
 Rotational constants (GHZ):          45.9160800           9.2692276           8.1041282
 Standard basis: 6-31G(d) (6D, 7F)
 There are    43 symmetry adapted cartesian basis functions of A'  symmetry.
 There are    14 symmetry adapted cartesian basis functions of A"  symmetry.
 There are    43 symmetry adapted basis functions of A'  symmetry.
 There are    14 symmetry adapted basis functions of A"  symmetry.
    57 basis functions,   108 primitive gaussians,    57 cartesian basis functions
    12 alpha electrons       12 beta electrons
       nuclear repulsion energy        70.5366868194 Hartrees.
 NAtoms=    9 NActive=    9 NUniq=    8 SFac= 1.27D+00 NAtFMM=   60 NAOKFM=F Big=F
 Integral buffers will be    131072 words long.
 Raffenetti 2 integral format.
 Two-electron integral symmetry is turned on.
 Force inversion solution in PCM.
 ------------------------------------------------------------------------------
 Polarizable Continuum Model (PCM)
 =================================
 Model                : PCM.
 Atomic radii         : UFF (Universal Force Field).
 Polarization charges : Total charges.
 Charge compensation  : None.
 Solution method      : Matrix inversion.
 Cavity type          : Scaled VdW (van der Waals Surface) (Alpha=1.100).
 Cavity algorithm     : GePol (No added spheres)
                        Default sphere list used, NSphG=    9.
                        Lebedev-Laikov grids with approx.  5.0 points / Ang**2.
                        Smoothing algorithm: York/Karplus (Gamma=1.0000).
                        Polarization charges: spherical gaussians, with
                                              point-specific exponents (IZeta= 3).
                        Self-potential: point-specific (ISelfS= 7).
                        Self-field    : sphere-specific E.n sum rule (ISelfD= 2).
 1st derivatives      : Analytical E(r).r(x)/FMM algorithm (CHGder, D1EAlg=3).
                        Cavity 1st derivative terms included.
 2nd derivatives      : Analytical E(r).r(xy)/FMM algorithm (CHGder, D2EAlg=3).
                        Cavity 2nd derivative terms included.
 Solvent              : Benzene, Eps=   2.270600 Eps(inf)=   2.253301
 ------------------------------------------------------------------------------
 Spheres list:
 ISph  on   Nord     Re0    Alpha      Xe            Ye            Ze
    1   H      1    1.4430  1.100     -2.076961      0.881398      0.000000
    2   C      2    1.9255  1.100     -0.000000      0.488275      0.000000
    3   H      3    1.4430  1.100     -1.594673     -0.902483     -0.000000
    4   C      4    1.9255  1.100     -1.294644      0.135912     -0.000000
    5   H      5    1.4430  1.100      0.267054      1.537068      0.000000
    6   C      6    1.9255  1.100      1.143906     -0.501818      0.000000
    7   H      7    1.4430  1.100      2.100499      0.021490      0.000000
    8   H      8    1.4430  1.100      1.104255     -1.135841      0.886500
    9   H      9    1.4430  1.100      1.104255     -1.135841     -0.886500
 ------------------------------------------------------------------------------
 One-electron integrals computed using PRISM.
 NBasis=    57 RedAO= T EigKep=  5.66D-03  NBF=    43    14
 NBsUse=    57 1.00D-06 EigRej= -1.00D+00 NBFU=    43    14
 ExpMin= 1.61D-01 ExpMax= 3.05D+03 ExpMxC= 4.57D+02 IAcc=3 IRadAn=         5 AccDes= 0.00D+00
 Harris functional with IExCor= 1009 and IRadAn=       5 diagonalized for initial guess.
 HarFok:  IExCor= 1009 AccDes= 0.00D+00 IRadAn=         5 IDoV= 1 UseB2=F ITyADJ=14
 ICtDFT=  3500011 ScaDFX=  1.000000  1.000000  1.000000  1.000000
 FoFCou: FMM=F IPFlag=           0 FMFlag=      100000 FMFlg1=           0
         NFxFlg=           0 DoJE=T BraDBF=F KetDBF=T FulRan=T
         wScrn=  0.000000 ICntrl=       500 IOpCl=  0 I1Cent=   200000004 NGrid=           0
         NMat0=    1 NMatS0=      1 NMatT0=    0 NMatD0=    1 NMtDS0=    0 NMtDT0=    0
 Petite list used in FoFCou.
 Initial guess orbital symmetries:
       Occupied  (A') (A') (A') (A') (A') (A') (A') (A') (A") (A')
                 (A') (A")
       Virtual   (A") (A') (A') (A') (A') (A") (A') (A') (A') (A')
                 (A') (A") (A') (A") (A') (A") (A') (A') (A') (A")
                 (A') (A') (A') (A') (A') (A') (A') (A") (A") (A")
                 (A') (A') (A') (A") (A') (A') (A") (A') (A") (A')
                 (A') (A') (A') (A') (A')
 The electronic state of the initial guess is 1-A'.
 Keep R1 ints in memory in symmetry-blocked form, NReq=11953147.
 Requested convergence on RMS density matrix=1.00D-08 within 128 cycles.
 Requested convergence on MAX density matrix=1.00D-06.
 Requested convergence on             energy=1.00D-06.
 No special actions if energy rises.
 Inv3:  Mode=1 IEnd=     2031987.
 Iteration    1 A*A^-1 deviation from unit magnitude is 2.66D-15 for    119.
 Iteration    1 A*A^-1 deviation from orthogonality  is 1.55D-15 for    598    333.
 Iteration    1 A^-1*A deviation from unit magnitude is 2.66D-15 for    547.
 Iteration    1 A^-1*A deviation from orthogonality  is 1.67D-15 for    544     35.
 Error on total polarization charges =  0.00364
 SCF Done:  E(RM062X) =  -117.831739861     A.U. after   11 cycles
            NFock= 11  Conv=0.23D-08     -V/T= 2.0092
 DoSCS=F DFT=T ScalE2(SS,OS)=  1.000000  1.000000
 Range of M.O.s used for correlation:     1    57
 NBasis=    57 NAE=    12 NBE=    12 NFC=     0 NFV=     0
 NROrb=     57 NOA=    12 NOB=    12 NVA=    45 NVB=    45
 Symmetrizing basis deriv contribution to polar:
 IMax=3 JMax=2 DiffMx= 0.00D+00
 G2DrvN: will do    10 centers at a time, making    1 passes.
 Calling FoFCou, ICntrl=  3107 FMM=F I1Cent=   0 AccDes= 0.00D+00.
 NEqPCM:  Using equilibrium solvation (IEInf=0, Eps=   2.2706, EpsInf=   2.2533)
 G2PCM: DoFxE=T DoFxN=T DoGrad=T DoDP/DQ/DG/TGxP=FFFF NFrqRd=   0 IEInf=0 SqF1=F DoCFld=F IF1Alg=4.
 End of G2Drv F.D. properties file   721 does not exist.
 End of G2Drv F.D. properties file   722 does not exist.
 End of G2Drv F.D. properties file   788 does not exist.
          IDoAtm=111111111
 NEqPCM:  Using equilibrium solvation (IEInf=0, Eps=   2.2706, EpsInf=   2.2533)
          Differentiating once with respect to nuclear coordinates.
 Keep R1 ints in memory in symmetry-blocked form, NReq=11919591.
          There are    27 degrees of freedom in the 1st order CPHF.  IDoFFX=4 NUNeed=    27.
     24 vectors produced by pass  0 Test12= 2.00D-15 3.70D-09 XBig12= 6.03D-02 8.45D-02.
 AX will form    24 AO Fock derivatives at one time.
     24 vectors produced by pass  1 Test12= 2.00D-15 3.70D-09 XBig12= 2.98D-03 3.31D-02.
     24 vectors produced by pass  2 Test12= 2.00D-15 3.70D-09 XBig12= 3.13D-05 1.52D-03.
     24 vectors produced by pass  3 Test12= 2.00D-15 3.70D-09 XBig12= 9.30D-08 8.15D-05.
     24 vectors produced by pass  4 Test12= 2.00D-15 3.70D-09 XBig12= 2.61D-10 3.74D-06.
     22 vectors produced by pass  5 Test12= 2.00D-15 3.70D-09 XBig12= 4.39D-13 1.69D-07.
      3 vectors produced by pass  6 Test12= 2.00D-15 3.70D-09 XBig12= 8.94D-16 6.69D-09.
 InvSVY:  IOpt=1 It=  1 EMax= 1.94D-16
 Solved reduced A of dimension   145 with    27 vectors.
 End of Minotr F.D. properties file   721 does not exist.
 End of Minotr F.D. properties file   722 does not exist.
 End of Minotr F.D. properties file   788 does not exist.

 **********************************************************************

            Population analysis using the SCF Density.

 **********************************************************************

 Orbital symmetries:
       Occupied  (A') (A') (A') (A') (A') (A') (A') (A') (A") (A')
                 (A') (A")
       Virtual   (A") (A') (A') (A') (A') (A") (A') (A') (A') (A')
                 (A') (A") (A') (A") (A') (A") (A') (A') (A') (A")
                 (A') (A') (A') (A') (A') (A') (A') (A") (A") (A")
                 (A') (A') (A') (A") (A') (A') (A") (A') (A") (A')
                 (A') (A') (A') (A') (A')
 The electronic state is 1-A'.
 Alpha  occ. eigenvalues --  -10.54698 -10.53481 -10.53168  -0.87599  -0.76905
 Alpha  occ. eigenvalues --   -0.62906  -0.52960  -0.48094  -0.47645  -0.42602
 Alpha  occ. eigenvalues --   -0.39975  -0.30455
 Alpha virt. eigenvalues --    0.06089   0.15769   0.18239   0.20139   0.23603
 Alpha virt. eigenvalues --    0.24201   0.25164   0.33512   0.38658   0.54491
 Alpha virt. eigenvalues --    0.57515   0.60003   0.63823   0.66651   0.72854
 Alpha virt. eigenvalues --    0.73322   0.80945   0.83414   0.93724   0.95009
 Alpha virt. eigenvalues --    0.95948   0.98894   1.01589   1.03758   1.15268
 Alpha virt. eigenvalues --    1.27802   1.33225   1.48035   1.53683   1.75972
 Alpha virt. eigenvalues --    1.85643   1.93571   2.00292   2.16678   2.17664
 Alpha virt. eigenvalues --    2.23932   2.25756   2.33065   2.50440   2.55379
 Alpha virt. eigenvalues --    2.76763   2.87691   4.13867   4.23152   4.42862
          Condensed to atoms (all electrons):
               1          2          3          4          5          6
     1  H    0.525345  -0.028623  -0.035484   0.378160  -0.006291   0.004343
     2  C   -0.028623   4.857766  -0.043536   0.676871   0.385539   0.365364
     3  H   -0.035484  -0.043536   0.535401   0.384741   0.004812  -0.006943
     4  C    0.378160   0.676871   0.384741   5.034898  -0.040954  -0.053919
     5  H   -0.006291   0.385539   0.004812  -0.040954   0.543642  -0.049891
     6  C    0.004343   0.365364  -0.006943  -0.053919  -0.049891   5.123175
     7  H   -0.000154  -0.028163   0.000069   0.004082  -0.005207   0.380621
     8  H   -0.000053  -0.033478   0.001634  -0.006201   0.003159   0.382243
     9  H   -0.000053  -0.033478   0.001634  -0.006201   0.003159   0.382243
               7          8          9
     1  H   -0.000154  -0.000053  -0.000053
     2  C   -0.028163  -0.033478  -0.033478
     3  H    0.000069   0.001634   0.001634
     4  C    0.004082  -0.006201  -0.006201
     5  H   -0.005207   0.003159   0.003159
     6  C    0.380621   0.382243   0.382243
     7  H    0.532819  -0.026955  -0.026955
     8  H   -0.026955   0.522070  -0.024730
     9  H   -0.026955  -0.024730   0.522070
 Mulliken charges:
               1
     1  H    0.162809
     2  C   -0.118262
     3  H    0.157672
     4  C   -0.371476
     5  H    0.162031
     6  C   -0.527237
     7  H    0.169844
     8  H    0.182310
     9  H    0.182310
 Sum of Mulliken charges =   0.00000
 Mulliken charges with hydrogens summed into heavy atoms:
               1
     2  C    0.043769
     4  C   -0.050996
     6  C    0.007227
 APT charges:
               1
     1  H    0.502070
     2  C   -0.564489
     3  H    0.370021
     4  C   -0.748975
     5  H    0.415035
     6  C   -1.207264
     7  H    0.451306
     8  H    0.391148
     9  H    0.391148
 Sum of APT charges =   0.00000
 APT charges with hydrogens summed into heavy atoms:
               1
     2  C   -0.149454
     4  C    0.123117
     6  C    0.026337
 Electronic spatial extent (au):  <R**2>=            196.7165
 Charge=              0.0000 electrons
 Dipole moment (field-independent basis, Debye):
    X=              0.3546    Y=             -0.0874    Z=             -0.0000  Tot=              0.3653
 Quadrupole moment (field-independent basis, Debye-Ang):
   XX=            -18.7923   YY=            -18.6319   ZZ=            -21.3715
   XY=              0.1918   XZ=             -0.0000   YZ=              0.0000
 Traceless Quadrupole moment (field-independent basis, Debye-Ang):
   XX=              0.8063   YY=              0.9666   ZZ=             -1.7729
   XY=              0.1918   XZ=             -0.0000   YZ=              0.0000
 Octapole moment (field-independent basis, Debye-Ang**2):
  XXX=             -1.1552  YYY=              0.8828  ZZZ=             -0.0000  XYY=             -0.5656
  XXY=              1.1155  XXZ=              0.0000  XZZ=              1.7440  YZZ=             -1.4289
  YYZ=             -0.0000  XYZ=             -0.0000
 Hexadecapole moment (field-independent basis, Debye-Ang**3):
 XXXX=           -168.5298 YYYY=            -61.5538 ZZZZ=            -28.7154 XXXY=             17.0044
 XXXZ=             -0.0000 YYYX=             17.8599 YYYZ=              0.0000 ZZZX=             -0.0000
 ZZZY=             -0.0000 XXYY=            -37.6526 XXZZ=            -35.9962 YYZZ=            -15.0180
 XXYZ=             -0.0000 YYXZ=             -0.0000 ZZXY=              5.3208
 N-N= 7.053668681939D+01 E-N=-4.132125835817D+02  KE= 1.167594753475D+02
 Symmetry A'   KE= 1.127266150170D+02
 Symmetry A"   KE= 4.032860330538D+00
  Exact polarizability:       0.000       0.000       0.000       0.000       0.000       0.000
 Approx polarizability:      48.054       3.634      33.140       0.000       0.000      21.712
 D2PCM: PCM CHGder 2nd derivatives, FixD1E=F FixD2E=F DoIter=F DoCFld=F I1PDM=0
 Calling FoFJK, ICntrl=    100127 FMM=F ISym2X=1 I1Cent= 0 IOpClX= 0 NMat=1 NMatS=1 NMatT=0.
 ***** Axes restored to original set *****
 -------------------------------------------------------------------
 Center     Atomic                   Forces (Hartrees/Bohr)
 Number     Number              X              Y              Z
 -------------------------------------------------------------------
      1        1           0.000960728   -0.003292325   -0.000000000
      2        6          -0.013115007   -0.009915470   -0.000000000
      3        1          -0.004642457   -0.000492735    0.000000000
      4        6           0.011901178    0.015246208    0.000000000
      5        1           0.004208827   -0.001542256    0.000000000
      6        6           0.006059802   -0.004457464   -0.000000000
      7        1          -0.000542171    0.002062048    0.000000000
      8        1          -0.002415450    0.001195997   -0.000937346
      9        1          -0.002415450    0.001195997    0.000937346
 -------------------------------------------------------------------
 Cartesian Forces:  Max     0.015246208 RMS     0.005359237
 FormGI is forming the generalized inverse of G from B-inverse, IUseBI=4.

 GradGradGradGradGradGradGradGradGradGradGradGradGradGradGradGradGradGrad
 Berny optimization.
 Internal  Forces:  Max     0.014005154 RMS     0.003077312
 Search for a local minimum.
 Step number   1 out of a maximum of   50
 All quantities printed in internal units (Hartrees-Bohrs-Radians)
 Mixed Optimization -- RFO/linear search
 Second derivative matrix not updated -- analytic derivatives used.
 ITU=  0
     Eigenvalues ---   -0.00244   0.02040   0.03197   0.04059   0.05977
     Eigenvalues ---    0.05977   0.10622   0.10862   0.12305   0.12766
     Eigenvalues ---    0.14440   0.14777   0.18103   0.32834   0.35330
     Eigenvalues ---    0.35485   0.36203   0.37574   0.38050   0.38331
     Eigenvalues ---    0.62689
 RFO step:  Lambda=-2.43679052D-03 EMin=-2.43678754D-03
 I=     1 Eig=   -2.44D-03 Dot1= -7.82D-16
 I=     1 Stepn=  2.50D-01 RXN=   2.50D-01 EDone=F
 Mixed    1 eigenvectors in step.  Raw Step.Grad= -7.82D-16.
 RFO eigenvector is Hessian eigenvector with negative curvature.
 Taking step of  2.50D-01 in eigenvector direction(s).  Step.Grad=  4.61D-05.
 Linear search not attempted -- first point.
 Iteration  1 RMS(Cart)=  0.04994928 RMS(Int)=  0.00135737
 Iteration  2 RMS(Cart)=  0.00146123 RMS(Int)=  0.00000131
 Iteration  3 RMS(Cart)=  0.00000110 RMS(Int)=  0.00000100
 Iteration  4 RMS(Cart)=  0.00000000 RMS(Int)=  0.00000100
 ClnCor:  largest displacement from symmetrization is 2.56D-01 for atom     9.
          Exceeds limit of 1.00D-01 so symmetrization was rejected.
 Variable       Old X    -DE/DX   Delta X   Delta X   Delta X     New X
                                 (Linear)    (Quad)   (Total)
    R1        2.04210   0.00333   0.00000   0.00000   0.00000   2.04210
    R2        2.53552  -0.01401   0.00000  -0.00000  -0.00000   2.53552
    R3        2.04517   0.00419   0.00000  -0.00000  -0.00000   2.04517
    R4        2.85893  -0.00032   0.00000  -0.00000  -0.00000   2.85893
    R5        2.04255   0.00466   0.00000   0.00000   0.00000   2.04255
    R6        2.06051   0.00116   0.00000  -0.00000  -0.00000   2.06051
    R7        2.06096   0.00227   0.00000   0.00059   0.00059   2.06155
    R8        2.06096   0.00227   0.00000  -0.00059  -0.00059   2.06037
    A1        2.08586  -0.00212   0.00000  -0.00000  -0.00000   2.08586
    A2        2.16241   0.00100   0.00000   0.00000  -0.00000   2.16241
    A3        2.03491   0.00112   0.00000   0.00000  -0.00000   2.03491
    A4        2.11456   0.00090   0.00000   0.00000  -0.00000   2.11456
    A5        2.05082  -0.00075   0.00000  -0.00000  -0.00000   2.05082
    A6        2.11781  -0.00015   0.00000   0.00000  -0.00000   2.11780
    A7        1.92757   0.00230   0.00000  -0.00000  -0.00000   1.92757
    A8        1.93154   0.00118   0.00000  -0.00106  -0.00106   1.93047
    A9        1.93154   0.00118   0.00000   0.00106   0.00106   1.93260
   A10        1.88694  -0.00134   0.00000  -0.00246  -0.00246   1.88448
   A11        1.88694  -0.00134   0.00000   0.00246   0.00246   1.88940
   A12        1.89804  -0.00216   0.00000   0.00000   0.00000   1.89804
    D1        0.00000   0.00000   0.00000  -0.00249  -0.00249  -0.00249
    D2        3.14159   0.00000   0.00000  -0.00330  -0.00330   3.13829
    D3        3.14159  -0.00000   0.00000  -0.00674  -0.00674   3.13486
    D4        0.00000   0.00000   0.00000  -0.00754  -0.00754  -0.00754
    D5        3.14159   0.00000   0.00000  -0.09735  -0.09735   3.04424
    D6       -1.05270   0.00057   0.00000  -0.10110  -0.10110  -1.15380
    D7        1.05270  -0.00057   0.00000  -0.10110  -0.10110   0.95159
    D8        0.00000   0.00000   0.00000  -0.10148  -0.10148  -0.10148
    D9        2.08890   0.00057   0.00000  -0.10523  -0.10523   1.98366
   D10       -2.08890  -0.00057   0.00000  -0.10523  -0.10523  -2.19413
         Item               Value     Threshold  Converged?
 Maximum Force            0.014005     0.000450     NO 
 RMS     Force            0.003077     0.000300     NO 
 Maximum Displacement     0.121653     0.001800     NO 
 RMS     Displacement     0.049942     0.001200     NO 
 Predicted change in Energy=-7.614961D-05
 GradGradGradGradGradGradGradGradGradGradGradGradGradGradGradGradGradGrad

                          Input orientation:                          
 ---------------------------------------------------------------------
 Center     Atomic      Atomic             Coordinates (Angstroms)
 Number     Number       Type             X           Y           Z
 ---------------------------------------------------------------------
      1          1           0       -0.344593    0.199177    0.116530
      2          6           0       -0.235294    2.310133    0.101328
      3          1           0       -1.962364    1.090121    0.178717
      4          6           0       -0.883394    1.135749    0.133736
      5          1           0        0.846100    2.321275    0.059520
      6          6           0       -0.926412    3.655864    0.114198
      7          1           0       -0.193039    4.459970    0.181276
      8          1           0       -1.501976    3.800699   -0.801155
      9          1           0       -1.599829    3.735713    0.967949
 ---------------------------------------------------------------------
                    Distance matrix (angstroms):
                    1          2          3          4          5
     1  H    0.000000
     2  C    2.113838   0.000000
     3  H    1.847926   2.115937   0.000000
     4  C    1.080634   1.341738   1.080871   0.000000
     5  H    2.433989   1.082259   3.068781   2.098125   0.000000
     6  C    3.505311   1.512879   2.767742   2.520558   2.219441
     7  H    4.263979   2.151738   3.806101   3.395482   2.380893
     8  H    3.892640   2.154240   2.918791   2.891129   2.905670
     9  H    3.848067   2.155289   2.784507   2.822943   2.967903
                    6          7          8          9
     6  C    0.000000
     7  H    1.090377   0.000000
     8  H    1.090927   1.764405   0.000000
     9  H    1.090301   1.767049   1.773000   0.000000
 Stoichiometry    C3H6
 Framework group  C1[X(C3H6)]
 Deg. of freedom    21
 Full point group                 C1      NOp   1
 Omega: Change in point group or standard orientation.

 Old FWG=CS   [SG(C3H4),X(H2)]
 New FWG=C01  [X(C3H6)]
 Largest Abelian subgroup         C1      NOp   1
 Largest concise Abelian subgroup C1      NOp   1
                         Standard orientation:                         
 ---------------------------------------------------------------------
 Center     Atomic      Atomic             Coordinates (Angstroms)
 Number     Number       Type             X           Y           Z
 ---------------------------------------------------------------------
      1          1           0       -2.239788    0.271937    0.005097
      2          6           0       -0.135183    0.469171   -0.001872
      3          1           0       -1.282518   -1.308697   -0.002816
      4          6           0       -1.281675   -0.227831    0.000513
      5          1           0       -0.168919    1.550904   -0.001511
      6          6           0        1.238113   -0.165539    0.000213
      7          1           0        2.010410    0.597414   -0.101686
      8          1           0        1.413188   -0.698904    0.935623
      9          1           0        1.340103   -0.867462   -0.827833
 ---------------------------------------------------------------------
 Rotational constants (GHZ):          45.9171480           9.2692489           8.1040071
 Standard basis: 6-31G(d) (6D, 7F)
 There are    57 symmetry adapted cartesian basis functions of A   symmetry.
 There are    57 symmetry adapted basis functions of A   symmetry.
    57 basis functions,   108 primitive gaussians,    57 cartesian basis functions
    12 alpha electrons       12 beta electrons
       nuclear repulsion energy        70.5369287236 Hartrees.
 NAtoms=    9 NActive=    9 NUniq=    9 SFac= 1.00D+00 NAtFMM=   60 NAOKFM=F Big=F
 Integral buffers will be    131072 words long.
 Raffenetti 2 integral format.
 Two-electron integral symmetry is turned on.
 ------------------------------------------------------------------------------
 Polarizable Continuum Model (PCM)
 =================================
 Model                : PCM.
 Atomic radii         : UFF (Universal Force Field).
 Polarization charges : Total charges.
 Charge compensation  : None.
 Solution method      : Matrix inversion.
 Cavity type          : Scaled VdW (van der Waals Surface) (Alpha=1.100).
 Cavity algorithm     : GePol (No added spheres)
                        Default sphere list used, NSphG=    9.
                        Lebedev-Laikov grids with approx.  5.0 points / Ang**2.
                        Smoothing algorithm: York/Karplus (Gamma=1.0000).
                        Polarization charges: spherical gaussians, with
                                              point-specific exponents (IZeta= 3).
                        Self-potential: point-specific (ISelfS= 7).
                        Self-field    : sphere-specific E.n sum rule (ISelfD= 2).
 1st derivatives      : Analytical E(r).r(x)/FMM algorithm (CHGder, D1EAlg=3).
                        Cavity 1st derivative terms included.
 Solvent              : Benzene, Eps=   2.270600 Eps(inf)=   2.253301
 ------------------------------------------------------------------------------
 Spheres list:
 ISph  on   Nord     Re0    Alpha      Xe            Ye            Ze
    1   H      1    1.4430  1.100     -2.239788      0.271937      0.005097
    2   C      2    1.9255  1.100     -0.135183      0.469171     -0.001872
    3   H      3    1.4430  1.100     -1.282518     -1.308697     -0.002816
    4   C      4    1.9255  1.100     -1.281675     -0.227831      0.000513
    5   H      5    1.4430  1.100     -0.168919      1.550904     -0.001511
    6   C      6    1.9255  1.100      1.238113     -0.165539      0.000213
    7   H      7    1.4430  1.100      2.010410      0.597414     -0.101686
    8   H      8    1.4430  1.100      1.413188     -0.698904      0.935623
    9   H      9    1.4430  1.100      1.340103     -0.867462     -0.827833
 ------------------------------------------------------------------------------
 One-electron integrals computed using PRISM.
 NBasis=    57 RedAO= T EigKep=  5.64D-03  NBF=    57
 NBsUse=    57 1.00D-06 EigRej= -1.00D+00 NBFU=    57
 Initial guess from the checkpoint file:  "1a_gs_2_opt_hess.chk"
 B after Tr=    -0.000000   -0.000000    0.000000
         Rot=    0.990046    0.015918   -0.004105   -0.139782 Ang=  16.18 deg.
 ExpMin= 1.61D-01 ExpMax= 3.05D+03 ExpMxC= 4.57D+02 IAcc=3 IRadAn=         5 AccDes= 0.00D+00
 Harris functional with IExCor= 1009 and IRadAn=       5 diagonalized for initial guess.
 HarFok:  IExCor= 1009 AccDes= 0.00D+00 IRadAn=         5 IDoV= 1 UseB2=F ITyADJ=14
 ICtDFT=  3500011 ScaDFX=  1.000000  1.000000  1.000000  1.000000
 FoFCou: FMM=F IPFlag=           0 FMFlag=      100000 FMFlg1=           0
         NFxFlg=           0 DoJE=T BraDBF=F KetDBF=T FulRan=T
         wScrn=  0.000000 ICntrl=       500 IOpCl=  0 I1Cent=   200000004 NGrid=           0
         NMat0=    1 NMatS0=      1 NMatT0=    0 NMatD0=    1 NMtDS0=    0 NMtDT0=    0
 Petite list used in FoFCou.
 Keep R1 ints in memory in canonical form, NReq=11948986.
 Requested convergence on RMS density matrix=1.00D-08 within 128 cycles.
 Requested convergence on MAX density matrix=1.00D-06.
 Requested convergence on             energy=1.00D-06.
 No special actions if energy rises.
 Inv3:  Mode=1 IEnd=     1992675.
 Iteration    1 A*A^-1 deviation from unit magnitude is 2.66D-15 for    190.
 Iteration    1 A*A^-1 deviation from orthogonality  is 3.77D-15 for    635    192.
 Iteration    1 A^-1*A deviation from unit magnitude is 2.89D-15 for    190.
 Iteration    1 A^-1*A deviation from orthogonality  is 2.48D-15 for    732    313.
 Error on total polarization charges =  0.00365
 SCF Done:  E(RM062X) =  -117.831815790     A.U. after   10 cycles
            NFock= 10  Conv=0.32D-08     -V/T= 2.0092
 D1PCM: PCM CHGder 1st derivatives, ID1Alg=3 FixD1E=F DoIter=F DoCFld=F I1PDM=0.
 Calling FoFJK, ICntrl=      2127 FMM=F ISym2X=0 I1Cent= 0 IOpClX= 0 NMat=1 NMatS=1 NMatT=0.
 ***** Axes restored to original set *****
 -------------------------------------------------------------------
 Center     Atomic                   Forces (Hartrees/Bohr)
 Number     Number              X              Y              Z
 -------------------------------------------------------------------
      1        1           0.000961018   -0.003299191   -0.000024866
      2        6          -0.013190285   -0.009847125    0.000525066
      3        1          -0.004637445   -0.000489687    0.000212653
      4        6           0.011881645    0.015261046   -0.000225937
      5        1           0.004207977   -0.001504173   -0.000557925
      6        6           0.006071592   -0.004566655    0.000210845
      7        1          -0.000507723    0.002068885    0.000303497
      8        1          -0.002136826    0.001330934   -0.001162909
      9        1          -0.002649953    0.001045965    0.000719577
 -------------------------------------------------------------------
 Cartesian Forces:  Max     0.015261046 RMS     0.005367760

 GradGradGradGradGradGradGradGradGradGradGradGradGradGradGradGradGradGrad
 Berny optimization.
 Using GEDIIS/GDIIS optimizer.
 FormGI is forming the generalized inverse of G from B-inverse, IUseBI=4.
 Internal  Forces:  Max     0.014006910 RMS     0.003078191
 Search for a local minimum.
 Step number   2 out of a maximum of   50
 All quantities printed in internal units (Hartrees-Bohrs-Radians)
 Mixed Optimization -- RFO/linear search
 Update second derivatives using D2CorX and points    1    2
 ITU=  0  0
 Use linear search instead of GDIIS.
     Eigenvalues ---   -0.00248   0.02040   0.03197   0.04059   0.05977
     Eigenvalues ---    0.05977   0.10622   0.10862   0.12304   0.12765
     Eigenvalues ---    0.14440   0.14777   0.18102   0.32817   0.35330
     Eigenvalues ---    0.35484   0.36203   0.37574   0.38050   0.38331
     Eigenvalues ---    0.62689
 RFO step:  Lambda=-2.66960147D-03 EMin=-2.47730795D-03
 I=     1 Eig=   -2.48D-03 Dot1= -1.53D-04
 I=     1 Stepn= -2.50D-01 RXN=   2.50D-01 EDone=F
 Mixed    1 eigenvectors in step.  Raw Step.Grad=  1.53D-04.
 RFO eigenvector is Hessian eigenvector with negative curvature.
 Taking step of  2.50D-01 in eigenvector direction(s).  Step.Grad=  1.35D-05.
 Skip linear search -- no minimum in search direction.
 Iteration  1 RMS(Cart)=  0.04997087 RMS(Int)=  0.00135879
 Iteration  2 RMS(Cart)=  0.00146324 RMS(Int)=  0.00000123
 Iteration  3 RMS(Cart)=  0.00000110 RMS(Int)=  0.00000090
 Iteration  4 RMS(Cart)=  0.00000000 RMS(Int)=  0.00000090
 Variable       Old X    -DE/DX   Delta X   Delta X   Delta X     New X
                                 (Linear)    (Quad)   (Total)
    R1        2.04210   0.00334   0.00000   0.00002   0.00002   2.04212
    R2        2.53552  -0.01401   0.00000  -0.00001  -0.00001   2.53551
    R3        2.04517   0.00421   0.00000   0.00006   0.00006   2.04523
    R4        2.85893  -0.00046   0.00000  -0.00039  -0.00039   2.85853
    R5        2.04255   0.00466   0.00000  -0.00001  -0.00001   2.04254
    R6        2.06051   0.00120   0.00000   0.00012   0.00012   2.06064
    R7        2.06155   0.00228   0.00000   0.00061   0.00061   2.06217
    R8        2.06037   0.00228   0.00000  -0.00056  -0.00056   2.05981
    A1        2.08586  -0.00208   0.00000   0.00024   0.00024   2.08610
    A2        2.16241   0.00101   0.00000   0.00010   0.00010   2.16251
    A3        2.03491   0.00107   0.00000  -0.00036  -0.00036   2.03455
    A4        2.11456   0.00090   0.00000   0.00001   0.00001   2.11457
    A5        2.05082  -0.00075   0.00000   0.00002   0.00002   2.05083
    A6        2.11780  -0.00015   0.00000  -0.00003  -0.00003   2.11778
    A7        1.92757   0.00227   0.00000  -0.00017  -0.00017   1.92740
    A8        1.93047   0.00117   0.00000  -0.00104  -0.00105   1.92943
    A9        1.93260   0.00115   0.00000   0.00089   0.00089   1.93348
   A10        1.88448  -0.00132   0.00000  -0.00237  -0.00238   1.88210
   A11        1.88940  -0.00132   0.00000   0.00246   0.00246   1.89185
   A12        1.89804  -0.00212   0.00000   0.00024   0.00024   1.89828
    D1       -0.00249  -0.00000   0.00000  -0.00244  -0.00244  -0.00493
    D2        3.13829  -0.00002   0.00000  -0.00347  -0.00347   3.13482
    D3        3.13486  -0.00000   0.00000  -0.00635  -0.00635   3.12850
    D4       -0.00754  -0.00001   0.00000  -0.00739  -0.00739  -0.01493
    D5        3.04424  -0.00025   0.00000  -0.09760  -0.09760   2.94665
    D6       -1.15380   0.00031   0.00000  -0.10133  -0.10133  -1.25513
    D7        0.95159  -0.00082   0.00000  -0.10113  -0.10114   0.85046
    D8       -0.10148  -0.00025   0.00000  -0.10141  -0.10141  -0.20288
    D9        1.98366   0.00031   0.00000  -0.10514  -0.10514   1.87853
   D10       -2.19413  -0.00082   0.00000  -0.10494  -0.10494  -2.29907
         Item               Value     Threshold  Converged?
 Maximum Force            0.014007     0.000450     NO 
 RMS     Force            0.003078     0.000300     NO 
 Maximum Displacement     0.121283     0.001800     NO 
 RMS     Displacement     0.049965     0.001200     NO 
 Predicted change in Energy=-2.308047D-04
 GradGradGradGradGradGradGradGradGradGradGradGradGradGradGradGradGradGrad

                          Input orientation:                          
 ---------------------------------------------------------------------
 Center     Atomic      Atomic             Coordinates (Angstroms)
 Number     Number       Type             X           Y           Z
 ---------------------------------------------------------------------
      1          1           0       -0.344853    0.199158    0.116405
      2          6           0       -0.236329    2.309992    0.085620
      3          1           0       -1.958715    1.090762    0.240394
      4          6           0       -0.882541    1.135919    0.150497
      5          1           0        0.842686    2.321003    0.002212
      6          6           0       -0.926751    3.655661    0.111423
      7          1           0       -0.197454    4.455176    0.245456
      8          1           0       -1.450767    3.835391   -0.828756
      9          1           0       -1.646075    3.705637    0.928849
 ---------------------------------------------------------------------
                    Distance matrix (angstroms):
                    1          2          3          4          5
     1  H    0.000000
     2  C    2.113846   0.000000
     3  H    1.847940   2.115914   0.000000
     4  C    1.080643   1.341733   1.080867   0.000000
     5  H    2.434237   1.082290   3.068887   2.098289   0.000000
     6  C    3.505145   1.512671   2.767723   2.520433   2.219042
     7  H    4.260524   2.151481   3.797545   3.390550   2.386578
     8  H    3.916448   2.153551   2.988994   2.927280   2.871203
     9  H    3.827353   2.155514   2.722000   2.791463   2.994962
                    6          7          8          9
     6  C    0.000000
     7  H    1.090442   0.000000
     8  H    1.091252   1.763195   0.000000
     9  H    1.090004   1.768428   1.773177   0.000000
 Stoichiometry    C3H6
 Framework group  C1[X(C3H6)]
 Deg. of freedom    21
 Full point group                 C1      NOp   1
 Largest Abelian subgroup         C1      NOp   1
 Largest concise Abelian subgroup C1      NOp   1
                         Standard orientation:                         
 ---------------------------------------------------------------------
 Center     Atomic      Atomic             Coordinates (Angstroms)
 Number     Number       Type             X           Y           Z
 ---------------------------------------------------------------------
      1          1           0       -2.239683    0.272321    0.009934
      2          6           0       -0.135054    0.469039   -0.003618
      3          1           0       -1.282823   -1.308519   -0.005688
      4          6           0       -1.281709   -0.227674    0.001026
      5          1           0       -0.168261    1.550819   -0.003009
      6          6           0        1.237964   -0.165767    0.000429
      7          1           0        2.004178    0.583104   -0.202477
      8          1           0        1.452572   -0.608085    0.974662
      9          1           0        1.306808   -0.943226   -0.760443
 ---------------------------------------------------------------------
 Rotational constants (GHZ):          45.9250987           9.2702081           8.1045721
 Standard basis: 6-31G(d) (6D, 7F)
 There are    57 symmetry adapted cartesian basis functions of A   symmetry.
 There are    57 symmetry adapted basis functions of A   symmetry.
    57 basis functions,   108 primitive gaussians,    57 cartesian basis functions
    12 alpha electrons       12 beta electrons
       nuclear repulsion energy        70.5403247919 Hartrees.
 NAtoms=    9 NActive=    9 NUniq=    9 SFac= 1.00D+00 NAtFMM=   60 NAOKFM=F Big=F
 Integral buffers will be    131072 words long.
 Raffenetti 2 integral format.
 Two-electron integral symmetry is turned on.
 ------------------------------------------------------------------------------
 Polarizable Continuum Model (PCM)
 =================================
 Model                : PCM.
 Atomic radii         : UFF (Universal Force Field).
 Polarization charges : Total charges.
 Charge compensation  : None.
 Solution method      : Matrix inversion.
 Cavity type          : Scaled VdW (van der Waals Surface) (Alpha=1.100).
 Cavity algorithm     : GePol (No added spheres)
                        Default sphere list used, NSphG=    9.
                        Lebedev-Laikov grids with approx.  5.0 points / Ang**2.
                        Smoothing algorithm: York/Karplus (Gamma=1.0000).
                        Polarization charges: spherical gaussians, with
                                              point-specific exponents (IZeta= 3).
                        Self-potential: point-specific (ISelfS= 7).
                        Self-field    : sphere-specific E.n sum rule (ISelfD= 2).
 1st derivatives      : Analytical E(r).r(x)/FMM algorithm (CHGder, D1EAlg=3).
                        Cavity 1st derivative terms included.
 Solvent              : Benzene, Eps=   2.270600 Eps(inf)=   2.253301
 ------------------------------------------------------------------------------
 Spheres list:
 ISph  on   Nord     Re0    Alpha      Xe            Ye            Ze
    1   H      1    1.4430  1.100     -2.239683      0.272321      0.009934
    2   C      2    1.9255  1.100     -0.135054      0.469039     -0.003618
    3   H      3    1.4430  1.100     -1.282823     -1.308519     -0.005688
    4   C      4    1.9255  1.100     -1.281709     -0.227674      0.001026
    5   H      5    1.4430  1.100     -0.168261      1.550819     -0.003009
    6   C      6    1.9255  1.100      1.237964     -0.165767      0.000429
    7   H      7    1.4430  1.100      2.004178      0.583104     -0.202477
    8   H      8    1.4430  1.100      1.452572     -0.608085      0.974662
    9   H      9    1.4430  1.100      1.306808     -0.943226     -0.760443
 ------------------------------------------------------------------------------
 One-electron integrals computed using PRISM.
 NBasis=    57 RedAO= T EigKep=  5.61D-03  NBF=    57
 NBsUse=    57 1.00D-06 EigRej= -1.00D+00 NBFU=    57
 Initial guess from the checkpoint file:  "1a_gs_2_opt_hess.chk"
 B after Tr=     0.000000    0.000000   -0.000000
         Rot=    0.999865    0.016303   -0.001845    0.000066 Ang=   1.88 deg.
 ExpMin= 1.61D-01 ExpMax= 3.05D+03 ExpMxC= 4.57D+02 IAcc=3 IRadAn=         5 AccDes= 0.00D+00
 Harris functional with IExCor= 1009 and IRadAn=       5 diagonalized for initial guess.
 HarFok:  IExCor= 1009 AccDes= 0.00D+00 IRadAn=         5 IDoV= 1 UseB2=F ITyADJ=14
 ICtDFT=  3500011 ScaDFX=  1.000000  1.000000  1.000000  1.000000
 FoFCou: FMM=F IPFlag=           0 FMFlag=      100000 FMFlg1=           0
         NFxFlg=           0 DoJE=T BraDBF=F KetDBF=T FulRan=T
         wScrn=  0.000000 ICntrl=       500 IOpCl=  0 I1Cent=   200000004 NGrid=           0
         NMat0=    1 NMatS0=      1 NMatT0=    0 NMatD0=    1 NMtDS0=    0 NMtDT0=    0
 Petite list used in FoFCou.
 Keep R1 ints in memory in canonical form, NReq=11948986.
 Requested convergence on RMS density matrix=1.00D-08 within 128 cycles.
 Requested convergence on MAX density matrix=1.00D-06.
 Requested convergence on             energy=1.00D-06.
 No special actions if energy rises.
 Inv3:  Mode=1 IEnd=     2017200.
 Iteration    1 A*A^-1 deviation from unit magnitude is 3.00D-15 for    439.
 Iteration    1 A*A^-1 deviation from orthogonality  is 1.78D-15 for    738    651.
 Iteration    1 A^-1*A deviation from unit magnitude is 3.00D-15 for    439.
 Iteration    1 A^-1*A deviation from orthogonality  is 2.82D-15 for    476    384.
 Error on total polarization charges =  0.00368
 SCF Done:  E(RM062X) =  -117.832041739     A.U. after   10 cycles
            NFock= 10  Conv=0.32D-08     -V/T= 2.0092
 D1PCM: PCM CHGder 1st derivatives, ID1Alg=3 FixD1E=F DoIter=F DoCFld=F I1PDM=0.
 Calling FoFJK, ICntrl=      2127 FMM=F ISym2X=0 I1Cent= 0 IOpClX= 0 NMat=1 NMatS=1 NMatT=0.
 ***** Axes restored to original set *****
 -------------------------------------------------------------------
 Center     Atomic                   Forces (Hartrees/Bohr)
 Number     Number              X              Y              Z
 -------------------------------------------------------------------
      1        1           0.000957900   -0.003301467   -0.000040303
      2        6          -0.013367953   -0.009649096    0.001047776
      3        1          -0.004602971   -0.000470151    0.000399976
      4        6           0.011872242    0.015241081   -0.000465251
      5        1           0.004168768   -0.001455189   -0.001088746
      6        6           0.006174667   -0.004787605    0.000386904
      7        1          -0.000505839    0.002081104    0.000594810
      8        1          -0.001848129    0.001440665   -0.001353397
      9        1          -0.002848686    0.000900659    0.000518232
 -------------------------------------------------------------------
 Cartesian Forces:  Max     0.015241081 RMS     0.005385462

 GradGradGradGradGradGradGradGradGradGradGradGradGradGradGradGradGradGrad
 Berny optimization.
 Using GEDIIS/GDIIS optimizer.
 FormGI is forming the generalized inverse of G from B-inverse, IUseBI=4.
 Internal  Forces:  Max     0.014004507 RMS     0.003081933
 Search for a local minimum.
 Step number   3 out of a maximum of   50
 All quantities printed in internal units (Hartrees-Bohrs-Radians)
 Mixed Optimization -- RFO/linear search
 Update second derivatives using D2CorX and points    1    2    3
 ITU=  0  0  0
 Use linear search instead of GDIIS.
     Eigenvalues ---   -0.00224   0.02040   0.03196   0.04059   0.05976
     Eigenvalues ---    0.05977   0.10621   0.10862   0.12304   0.12764
     Eigenvalues ---    0.14440   0.14777   0.18090   0.32729   0.35330
     Eigenvalues ---    0.35482   0.36202   0.37574   0.38050   0.38331
     Eigenvalues ---    0.62689
 RFO step:  Lambda=-2.86997348D-03 EMin=-2.23771721D-03
 Skip linear search -- no minimum in search direction.
 Iteration  1 RMS(Cart)=  0.09825992 RMS(Int)=  0.00871008
 Iteration  2 RMS(Cart)=  0.00895217 RMS(Int)=  0.00007925
 Iteration  3 RMS(Cart)=  0.00005707 RMS(Int)=  0.00005378
 Iteration  4 RMS(Cart)=  0.00000000 RMS(Int)=  0.00005378
 Variable       Old X    -DE/DX   Delta X   Delta X   Delta X     New X
                                 (Linear)    (Quad)   (Total)
    R1        2.04212   0.00334   0.00000   0.00885   0.00885   2.05097
    R2        2.53551  -0.01400   0.00000  -0.02297  -0.02297   2.51254
    R3        2.04523   0.00423   0.00000   0.01223   0.01223   2.05747
    R4        2.85853  -0.00077   0.00000  -0.01033  -0.01033   2.84821
    R5        2.04254   0.00464   0.00000   0.01298   0.01298   2.05552
    R6        2.06064   0.00126   0.00000   0.00382   0.00382   2.06446
    R7        2.06217   0.00229   0.00000   0.00882   0.00882   2.07099
    R8        2.05981   0.00231   0.00000   0.00660   0.00660   2.06641
    A1        2.08610  -0.00204   0.00000  -0.01217  -0.01218   2.07392
    A2        2.16251   0.00104   0.00000   0.00831   0.00831   2.17082
    A3        2.03455   0.00099   0.00000   0.00381   0.00380   2.03835
    A4        2.11457   0.00092   0.00000   0.00958   0.00958   2.12415
    A5        2.05083  -0.00074   0.00000  -0.01166  -0.01166   2.03917
    A6        2.11778  -0.00018   0.00000   0.00208   0.00208   2.11986
    A7        1.92740   0.00229   0.00000   0.01918   0.01904   1.94644
    A8        1.92943   0.00111   0.00000   0.00537   0.00534   1.93477
    A9        1.93348   0.00109   0.00000   0.00854   0.00844   1.94193
   A10        1.88210  -0.00130   0.00000  -0.01101  -0.01108   1.87103
   A11        1.89185  -0.00130   0.00000  -0.00181  -0.00199   1.88986
   A12        1.89828  -0.00206   0.00000  -0.02150  -0.02149   1.87679
    D1       -0.00493   0.00000   0.00000  -0.00428  -0.00430  -0.00923
    D2        3.13482  -0.00001   0.00000  -0.00643  -0.00645   3.12837
    D3        3.12850   0.00000   0.00000  -0.01123  -0.01121   3.11729
    D4       -0.01493  -0.00001   0.00000  -0.01337  -0.01336  -0.02829
    D5        2.94665  -0.00047   0.00000  -0.20500  -0.20494   2.74171
    D6       -1.25513   0.00009   0.00000  -0.20302  -0.20298  -1.45811
    D7        0.85046  -0.00104   0.00000  -0.22084  -0.22090   0.62956
    D8       -0.20288  -0.00048   0.00000  -0.21182  -0.21179  -0.41467
    D9        1.87853   0.00008   0.00000  -0.20984  -0.20983   1.66870
   D10       -2.29907  -0.00105   0.00000  -0.22767  -0.22775  -2.52682
         Item               Value     Threshold  Converged?
 Maximum Force            0.014005     0.000450     NO 
 RMS     Force            0.003082     0.000300     NO 
 Maximum Displacement     0.250263     0.001800     NO 
 RMS     Displacement     0.104407     0.001200     NO 
 Predicted change in Energy=-1.274767D-03
 GradGradGradGradGradGradGradGradGradGradGradGradGradGradGradGradGradGrad

                          Input orientation:                          
 ---------------------------------------------------------------------
 Center     Atomic      Atomic             Coordinates (Angstroms)
 Number     Number       Type             X           Y           Z
 ---------------------------------------------------------------------
      1          1           0       -0.343693    0.197355    0.116493
      2          6           0       -0.243674    2.306494    0.053392
      3          1           0       -1.943783    1.093643    0.368224
      4          6           0       -0.872835    1.142528    0.184236
      5          1           0        0.831587    2.305723   -0.117544
      6          6           0       -0.922079    3.651336    0.106666
      7          1           0       -0.220551    4.443660    0.377890
      8          1           0       -1.345600    3.913596   -0.869496
      9          1           0       -1.740171    3.654364    0.832239
 ---------------------------------------------------------------------
                    Distance matrix (angstroms):
                    1          2          3          4          5
     1  H    0.000000
     2  C    2.112453   0.000000
     3  H    1.851213   2.111989   0.000000
     4  C    1.085326   1.329579   1.087737   0.000000
     5  H    2.425134   1.088764   3.067212   2.085461   0.000000
     6  C    3.502088   1.507206   2.766602   2.510490   2.221777
     7  H    4.256125   2.161784   3.767258   3.370527   2.433768
     8  H    3.973215   2.156093   3.137182   3.002112   2.809062
     9  H    3.796493   2.159365   2.610375   2.735233   3.055300
                    6          7          8          9
     6  C    0.000000
     7  H    1.092465   0.000000
     8  H    1.095920   1.761441   0.000000
     9  H    1.093499   1.771628   1.766010   0.000000
 Stoichiometry    C3H6
 Framework group  C1[X(C3H6)]
 Deg. of freedom    21
 Full point group                 C1      NOp   1
 Largest Abelian subgroup         C1      NOp   1
 Largest concise Abelian subgroup C1      NOp   1
                         Standard orientation:                         
 ---------------------------------------------------------------------
 Center     Atomic      Atomic             Coordinates (Angstroms)
 Number     Number       Type             X           Y           Z
 ---------------------------------------------------------------------
      1          1           0       -2.241599    0.268334    0.018941
      2          6           0       -0.138300    0.463154   -0.006328
      3          1           0       -1.280334   -1.313420   -0.012927
      4          6           0       -1.275435   -0.225790    0.001528
      5          1           0       -0.183543    1.550974   -0.003731
      6          6           0        1.234184   -0.159677   -0.000048
      7          1           0        1.985871    0.522796   -0.403381
      8          1           0        1.542201   -0.414730    1.020303
      9          1           0        1.254713   -1.080077   -0.590118
 ---------------------------------------------------------------------
 Rotational constants (GHZ):          46.3173139           9.3113228           8.1438165
 Standard basis: 6-31G(d) (6D, 7F)
 There are    57 symmetry adapted cartesian basis functions of A   symmetry.
 There are    57 symmetry adapted basis functions of A   symmetry.
    57 basis functions,   108 primitive gaussians,    57 cartesian basis functions
    12 alpha electrons       12 beta electrons
       nuclear repulsion energy        70.6710844663 Hartrees.
 NAtoms=    9 NActive=    9 NUniq=    9 SFac= 1.00D+00 NAtFMM=   60 NAOKFM=F Big=F
 Integral buffers will be    131072 words long.
 Raffenetti 2 integral format.
 Two-electron integral symmetry is turned on.
 ------------------------------------------------------------------------------
 Polarizable Continuum Model (PCM)
 =================================
 Model                : PCM.
 Atomic radii         : UFF (Universal Force Field).
 Polarization charges : Total charges.
 Charge compensation  : None.
 Solution method      : Matrix inversion.
 Cavity type          : Scaled VdW (van der Waals Surface) (Alpha=1.100).
 Cavity algorithm     : GePol (No added spheres)
                        Default sphere list used, NSphG=    9.
                        Lebedev-Laikov grids with approx.  5.0 points / Ang**2.
                        Smoothing algorithm: York/Karplus (Gamma=1.0000).
                        Polarization charges: spherical gaussians, with
                                              point-specific exponents (IZeta= 3).
                        Self-potential: point-specific (ISelfS= 7).
                        Self-field    : sphere-specific E.n sum rule (ISelfD= 2).
 1st derivatives      : Analytical E(r).r(x)/FMM algorithm (CHGder, D1EAlg=3).
                        Cavity 1st derivative terms included.
 Solvent              : Benzene, Eps=   2.270600 Eps(inf)=   2.253301
 ------------------------------------------------------------------------------
 Spheres list:
 ISph  on   Nord     Re0    Alpha      Xe            Ye            Ze
    1   H      1    1.4430  1.100     -2.241599      0.268334      0.018941
    2   C      2    1.9255  1.100     -0.138300      0.463154     -0.006328
    3   H      3    1.4430  1.100     -1.280334     -1.313420     -0.012927
    4   C      4    1.9255  1.100     -1.275435     -0.225790      0.001528
    5   H      5    1.4430  1.100     -0.183543      1.550974     -0.003731
    6   C      6    1.9255  1.100      1.234184     -0.159677     -0.000048
    7   H      7    1.4430  1.100      1.985871      0.522796     -0.403381
    8   H      8    1.4430  1.100      1.542201     -0.414730      1.020303
    9   H      9    1.4430  1.100      1.254713     -1.080077     -0.590118
 ------------------------------------------------------------------------------
 One-electron integrals computed using PRISM.
 NBasis=    57 RedAO= T EigKep=  5.32D-03  NBF=    57
 NBsUse=    57 1.00D-06 EigRej= -1.00D+00 NBFU=    57
 Initial guess from the checkpoint file:  "1a_gs_2_opt_hess.chk"
 B after Tr=    -0.000000   -0.000000    0.000000
         Rot=    0.999433    0.033439   -0.003713   -0.001083 Ang=   3.86 deg.
 ExpMin= 1.61D-01 ExpMax= 3.05D+03 ExpMxC= 4.57D+02 IAcc=3 IRadAn=         5 AccDes= 0.00D+00
 Harris functional with IExCor= 1009 and IRadAn=       5 diagonalized for initial guess.
 HarFok:  IExCor= 1009 AccDes= 0.00D+00 IRadAn=         5 IDoV= 1 UseB2=F ITyADJ=14
 ICtDFT=  3500011 ScaDFX=  1.000000  1.000000  1.000000  1.000000
 FoFCou: FMM=F IPFlag=           0 FMFlag=      100000 FMFlg1=           0
         NFxFlg=           0 DoJE=T BraDBF=F KetDBF=T FulRan=T
         wScrn=  0.000000 ICntrl=       500 IOpCl=  0 I1Cent=   200000004 NGrid=           0
         NMat0=    1 NMatS0=      1 NMatT0=    0 NMatD0=    1 NMtDS0=    0 NMtDT0=    0
 Petite list used in FoFCou.
 Keep R1 ints in memory in canonical form, NReq=11948986.
 Requested convergence on RMS density matrix=1.00D-08 within 128 cycles.
 Requested convergence on MAX density matrix=1.00D-06.
 Requested convergence on             energy=1.00D-06.
 No special actions if energy rises.
 Inv3:  Mode=1 IEnd=     1963443.
 Iteration    1 A*A^-1 deviation from unit magnitude is 2.44D-15 for    118.
 Iteration    1 A*A^-1 deviation from orthogonality  is 2.22D-15 for    725    637.
 Iteration    1 A^-1*A deviation from unit magnitude is 2.44D-15 for    118.
 Iteration    1 A^-1*A deviation from orthogonality  is 2.22D-15 for    601    362.
 Error on total polarization charges =  0.00371
 SCF Done:  E(RM062X) =  -117.833228928     A.U. after   10 cycles
            NFock= 10  Conv=0.70D-08     -V/T= 2.0092
 D1PCM: PCM CHGder 1st derivatives, ID1Alg=3 FixD1E=F DoIter=F DoCFld=F I1PDM=0.
 Calling FoFJK, ICntrl=      2127 FMM=F ISym2X=0 I1Cent= 0 IOpClX= 0 NMat=1 NMatS=1 NMatT=0.
 ***** Axes restored to original set *****
 -------------------------------------------------------------------
 Center     Atomic                   Forces (Hartrees/Bohr)
 Number     Number              X              Y              Z
 -------------------------------------------------------------------
      1        1           0.000021602   -0.000094996    0.000044626
      2        6          -0.000461015    0.000747435   -0.000007762
      3        1          -0.000117756    0.000006917   -0.000059935
      4        6           0.000103982   -0.000251020    0.001193392
      5        1          -0.000028915    0.000087268   -0.001319611
      6        6           0.000351772   -0.000534185   -0.000017183
      7        1          -0.000040907    0.000054894    0.000834163
      8        1           0.000738781    0.000323052   -0.000250945
      9        1          -0.000567545   -0.000339366   -0.000416745
 -------------------------------------------------------------------
 Cartesian Forces:  Max     0.001319611 RMS     0.000489976

 GradGradGradGradGradGradGradGradGradGradGradGradGradGradGradGradGradGrad
 Berny optimization.
 Using GEDIIS/GDIIS optimizer.
 FormGI is forming the generalized inverse of G from B-inverse, IUseBI=4.
 Internal  Forces:  Max     0.000794517 RMS     0.000384505
 Search for a local minimum.
 Step number   4 out of a maximum of   50
 All quantities printed in internal units (Hartrees-Bohrs-Radians)
 Mixed Optimization -- En-DIIS/RFO-DIIS
 Update second derivatives using D2CorX and points    3    4
 DE= -1.19D-03 DEPred=-1.27D-03 R= 9.31D-01
 TightC=F SS=  1.41D+00  RLast= 5.25D-01 DXNew= 1.6818D-01 1.5755D+00
 Trust test= 9.31D-01 RLast= 5.25D-01 DXMaxT set to 1.68D-01
 ITU=  1  0  0  0
 Use linear search instead of GDIIS.
     Eigenvalues ---   -1.73142   0.00174   0.02042   0.03213   0.04059
     Eigenvalues ---    0.05977   0.06249   0.10810   0.10894   0.12364
     Eigenvalues ---    0.14358   0.14776   0.15326   0.19646   0.32930
     Eigenvalues ---    0.35334   0.35504   0.36424   0.37820   0.38078
     Eigenvalues ---    0.45910
 RFO step:  Lambda=-1.73162534D+00 EMin=-1.73142142D+00
 I=     1 Eig=   -1.73D+00 Dot1=  7.90D-03
 I=     1 Stepn=  4.20D-01 RXN=   4.20D-01 EDone=F
 Mixed    1 eigenvectors in step.  Raw Step.Grad=  7.90D-03.
 RFO eigenvector is Hessian eigenvector with negative curvature.
 Taking step of  4.20D-01 in eigenvector direction(s).  Step.Grad=  1.68D-03.
 Quartic linear search produced a step of  1.08963.
 Maximum step size (   0.168) exceeded in Quadratic search.
    -- Step size not scaled.
 Iteration  1 RMS(Cart)=  0.10981340 RMS(Int)=  0.02972690
 Iteration  2 RMS(Cart)=  0.03512720 RMS(Int)=  0.00052831
 Iteration  3 RMS(Cart)=  0.00040853 RMS(Int)=  0.00031428
 Iteration  4 RMS(Cart)=  0.00000014 RMS(Int)=  0.00031428
 Variable       Old X    -DE/DX   Delta X   Delta X   Delta X     New X
                                 (Linear)    (Quad)   (Total)
    R1        2.05097   0.00009   0.00964  -0.08919  -0.07954   1.97143
    R2        2.51254   0.00041  -0.02503   0.32868   0.30365   2.81619
    R3        2.05747   0.00018   0.01333  -0.11437  -0.10104   1.95643
    R4        2.84821  -0.00065  -0.01125   0.02823   0.01698   2.86519
    R5        2.05552   0.00010   0.01415  -0.12428  -0.11013   1.94540
    R6        2.06446   0.00022   0.00417  -0.03570  -0.03153   2.03293
    R7        2.07099   0.00002   0.00961  -0.06117  -0.05155   2.01943
    R8        2.06641   0.00015   0.00720  -0.06344  -0.05625   2.01017
    A1        2.07392   0.00009  -0.01327   0.05694   0.04365   2.11757
    A2        2.17082   0.00011   0.00905  -0.03306  -0.02402   2.14680
    A3        2.03835  -0.00020   0.00414  -0.02390  -0.01977   2.01858
    A4        2.12415   0.00005   0.01043  -0.02961  -0.01918   2.10497
    A5        2.03917  -0.00001  -0.01271   0.02571   0.01300   2.05217
    A6        2.11986  -0.00004   0.00227   0.00390   0.00617   2.12603
    A7        1.94644   0.00007   0.02075  -0.06760  -0.04767   1.89877
    A8        1.93477  -0.00006   0.00582  -0.03190  -0.02663   1.90814
    A9        1.94193  -0.00017   0.00920  -0.02896  -0.02020   1.92173
   A10        1.87103   0.00001  -0.01207   0.03774   0.02472   1.89574
   A11        1.88986   0.00004  -0.00217   0.03988   0.03701   1.92687
   A12        1.87679   0.00012  -0.02342   0.05906   0.03547   1.91227
    D1       -0.00923   0.00003  -0.00469  -0.00121  -0.00581  -0.01505
    D2        3.12837   0.00006  -0.00702  -0.00152  -0.00847   3.11990
    D3        3.11729   0.00005  -0.01222  -0.00310  -0.01539   3.10190
    D4       -0.02829   0.00008  -0.01455  -0.00341  -0.01805  -0.04633
    D5        2.74171  -0.00079  -0.22331  -0.01616  -0.23964   2.50207
    D6       -1.45811  -0.00078  -0.22117  -0.03440  -0.25530  -1.71340
    D7        0.62956  -0.00077  -0.24070  -0.00029  -0.24126   0.38829
    D8       -0.41467  -0.00078  -0.23077  -0.01738  -0.24821  -0.66288
    D9        1.66870  -0.00076  -0.22863  -0.03562  -0.26387   1.40483
   D10       -2.52682  -0.00076  -0.24817  -0.00151  -0.24983  -2.77666
         Item               Value     Threshold  Converged?
 Maximum Force            0.000795     0.000450     NO 
 RMS     Force            0.000385     0.000300     NO 
 Maximum Displacement     0.291271     0.001800     NO 
 RMS     Displacement     0.140148     0.001200     NO 
 Predicted change in Energy=-1.618146D-01
 GradGradGradGradGradGradGradGradGradGradGradGradGradGradGradGradGradGrad

                          Input orientation:                          
 ---------------------------------------------------------------------
 Center     Atomic      Atomic             Coordinates (Angstroms)
 Number     Number       Type             X           Y           Z
 ---------------------------------------------------------------------
      1          1           0       -0.396588    0.154701    0.132103
      2          6           0       -0.217919    2.355607    0.004010
      3          1           0       -1.900770    1.011643    0.513801
      4          6           0       -0.909908    1.056688    0.238212
      5          1           0        0.783906    2.392872   -0.254448
      6          6           0       -0.922966    3.694891    0.093809
      7          1           0       -0.246839    4.414505    0.520788
      8          1           0       -1.191466    4.019803   -0.888194
      9          1           0       -1.798251    3.607989    0.692019
 ---------------------------------------------------------------------
                    Distance matrix (angstroms):
                    1          2          3          4          5
     1  H    0.000000
     2  C    2.211858   0.000000
     3  H    1.772740   2.213169   0.000000
     4  C    1.043234   1.490265   1.029459   0.000000
     5  H    2.559765   1.035298   3.115363   2.212941   0.000000
     6  C    3.579313   1.516192   2.886575   2.642184   2.174844
     7  H    4.280120   2.122960   3.783519   3.434304   2.398004
     8  H    4.075763   2.124469   3.393778   3.182469   2.636405
     9  H    3.768734   2.130556   2.604474   2.739385   3.006633
                    6          7          8          9
     6  C    0.000000
     7  H    1.075781   0.000000
     8  H    1.068639   1.741649   0.000000
     9  H    1.063735   1.756892   1.742083   0.000000
 Stoichiometry    C3H6
 Framework group  C1[X(C3H6)]
 Deg. of freedom    21
 Full point group                 C1      NOp   1
 Largest Abelian subgroup         C1      NOp   1
 Largest concise Abelian subgroup C1      NOp   1
                         Standard orientation:                         
 ---------------------------------------------------------------------
 Center     Atomic      Atomic             Coordinates (Angstroms)
 Number     Number       Type             X           Y           Z
 ---------------------------------------------------------------------
      1          1           0       -2.273291    0.304825    0.029682
      2          6           0       -0.070817    0.504783   -0.008328
      3          1           0       -1.421075   -1.248689   -0.024447
      4          6           0       -1.372531   -0.220705    0.001621
      5          1           0       -0.031073    1.539292   -0.001080
      6          6           0        1.269599   -0.203749    0.001908
      7          1           0        1.957991    0.348129   -0.613601
      8          1           0        1.649074   -0.228298    1.000600
      9          1           0        1.160872   -1.197235   -0.362365
 ---------------------------------------------------------------------
 Rotational constants (GHZ):          44.6040776           8.6075108           7.5432113
 Standard basis: 6-31G(d) (6D, 7F)
 There are    57 symmetry adapted cartesian basis functions of A   symmetry.
 There are    57 symmetry adapted basis functions of A   symmetry.
    57 basis functions,   108 primitive gaussians,    57 cartesian basis functions
    12 alpha electrons       12 beta electrons
       nuclear repulsion energy        69.0472856459 Hartrees.
 NAtoms=    9 NActive=    9 NUniq=    9 SFac= 1.00D+00 NAtFMM=   60 NAOKFM=F Big=F
 Integral buffers will be    131072 words long.
 Raffenetti 2 integral format.
 Two-electron integral symmetry is turned on.
 ------------------------------------------------------------------------------
 Polarizable Continuum Model (PCM)
 =================================
 Model                : PCM.
 Atomic radii         : UFF (Universal Force Field).
 Polarization charges : Total charges.
 Charge compensation  : None.
 Solution method      : Matrix inversion.
 Cavity type          : Scaled VdW (van der Waals Surface) (Alpha=1.100).
 Cavity algorithm     : GePol (No added spheres)
                        Default sphere list used, NSphG=    9.
                        Lebedev-Laikov grids with approx.  5.0 points / Ang**2.
                        Smoothing algorithm: York/Karplus (Gamma=1.0000).
                        Polarization charges: spherical gaussians, with
                                              point-specific exponents (IZeta= 3).
                        Self-potential: point-specific (ISelfS= 7).
                        Self-field    : sphere-specific E.n sum rule (ISelfD= 2).
 1st derivatives      : Analytical E(r).r(x)/FMM algorithm (CHGder, D1EAlg=3).
                        Cavity 1st derivative terms included.
 Solvent              : Benzene, Eps=   2.270600 Eps(inf)=   2.253301
 ------------------------------------------------------------------------------
 Spheres list:
 ISph  on   Nord     Re0    Alpha      Xe            Ye            Ze
    1   H      1    1.4430  1.100     -2.273291      0.304825      0.029682
    2   C      2    1.9255  1.100     -0.070817      0.504783     -0.008328
    3   H      3    1.4430  1.100     -1.421075     -1.248689     -0.024447
    4   C      4    1.9255  1.100     -1.372531     -0.220705      0.001621
    5   H      5    1.4430  1.100     -0.031073      1.539292     -0.001080
    6   C      6    1.9255  1.100      1.269599     -0.203749      0.001908
    7   H      7    1.4430  1.100      1.957991      0.348129     -0.613601
    8   H      8    1.4430  1.100      1.649074     -0.228298      1.000600
    9   H      9    1.4430  1.100      1.160872     -1.197235     -0.362365
 ------------------------------------------------------------------------------
 One-electron integrals computed using PRISM.
 NBasis=    57 RedAO= T EigKep=  6.60D-03  NBF=    57
 NBsUse=    57 1.00D-06 EigRej= -1.00D+00 NBFU=    57
 Initial guess from the checkpoint file:  "1a_gs_2_opt_hess.chk"
 B after Tr=    -0.000000    0.000000    0.000000
         Rot=    0.999169    0.036387   -0.004550    0.017799 Ang=   4.67 deg.
 ExpMin= 1.61D-01 ExpMax= 3.05D+03 ExpMxC= 4.57D+02 IAcc=3 IRadAn=         5 AccDes= 0.00D+00
 Harris functional with IExCor= 1009 and IRadAn=       5 diagonalized for initial guess.
 HarFok:  IExCor= 1009 AccDes= 0.00D+00 IRadAn=         5 IDoV= 1 UseB2=F ITyADJ=14
 ICtDFT=  3500011 ScaDFX=  1.000000  1.000000  1.000000  1.000000
 FoFCou: FMM=F IPFlag=           0 FMFlag=      100000 FMFlg1=           0
         NFxFlg=           0 DoJE=T BraDBF=F KetDBF=T FulRan=T
         wScrn=  0.000000 ICntrl=       500 IOpCl=  0 I1Cent=   200000004 NGrid=           0
         NMat0=    1 NMatS0=      1 NMatT0=    0 NMatD0=    1 NMtDS0=    0 NMtDT0=    0
 Petite list used in FoFCou.
 Keep R1 ints in memory in canonical form, NReq=11948986.
 Requested convergence on RMS density matrix=1.00D-08 within 128 cycles.
 Requested convergence on MAX density matrix=1.00D-06.
 Requested convergence on             energy=1.00D-06.
 No special actions if energy rises.
 Inv3:  Mode=1 IEnd=     2017200.
 Iteration    1 A*A^-1 deviation from unit magnitude is 3.22D-15 for      2.
 Iteration    1 A*A^-1 deviation from orthogonality  is 1.29D-15 for    474     93.
 Iteration    1 A^-1*A deviation from unit magnitude is 2.78D-15 for    564.
 Iteration    1 A^-1*A deviation from orthogonality  is 1.78D-15 for    737    284.
 Error on total polarization charges =  0.00378
 SCF Done:  E(RM062X) =  -117.803964831     A.U. after   11 cycles
            NFock= 11  Conv=0.43D-08     -V/T= 2.0095
 D1PCM: PCM CHGder 1st derivatives, ID1Alg=3 FixD1E=F DoIter=F DoCFld=F I1PDM=0.
 Calling FoFJK, ICntrl=      2127 FMM=F ISym2X=0 I1Cent= 0 IOpClX= 0 NMat=1 NMatS=1 NMatT=0.
 ***** Axes restored to original set *****
 -------------------------------------------------------------------
 Center     Atomic                   Forces (Hartrees/Bohr)
 Number     Number              X              Y              Z
 -------------------------------------------------------------------
      1        1           0.018987443   -0.026676511   -0.003630966
      2        6          -0.106409636   -0.099740097    0.030539723
      3        1          -0.044592385    0.003212646    0.011732053
      4        6           0.090395709    0.135850277   -0.028588746
      5        1           0.040136315   -0.006363914   -0.011433055
      6        6           0.019782364   -0.027290641    0.001901258
      7        1           0.004718811    0.011131485    0.005526382
      8        1          -0.005212498    0.008491033   -0.016779598
      9        1          -0.017806123    0.001385723    0.010732948
 -------------------------------------------------------------------
 Cartesian Forces:  Max     0.135850277 RMS     0.045859344

 GradGradGradGradGradGradGradGradGradGradGradGradGradGradGradGradGradGrad
 Berny optimization.
 Using GEDIIS/GDIIS optimizer.
 FormGI is forming the generalized inverse of G from B-inverse, IUseBI=4.
 Internal  Forces:  Max     0.131261749 RMS     0.027911242
 Search for a local minimum.
 Step number   5 out of a maximum of   50
 All quantities printed in internal units (Hartrees-Bohrs-Radians)
 Mixed Optimization -- RFO/linear search
 Update second derivatives using D2CorX and points    3    5    4
 ITU=  0  1  0  0  0
 Use linear search instead of GDIIS.
     Eigenvalues ---    0.00137   0.02041   0.03212   0.04059   0.05976
     Eigenvalues ---    0.06200   0.10767   0.10869   0.12339   0.14049
     Eigenvalues ---    0.14582   0.14775   0.18427   0.32840   0.35334
     Eigenvalues ---    0.35498   0.36293   0.37788   0.38071   0.41750
     Eigenvalues ---    0.49253
 RFO step:  Lambda=-1.03472666D-03 EMin= 1.37090104D-03
 Quartic linear search produced a step of -0.98295.
 Iteration  1 RMS(Cart)=  0.04859485 RMS(Int)=  0.01728346
 Iteration  2 RMS(Cart)=  0.02403062 RMS(Int)=  0.00025496
[...]
 Thermal correction to Energy=                    0.084875
 Thermal correction to Enthalpy=                  0.085819
 Thermal correction to Gibbs Free Energy=         0.055813
 Sum of electronic and zero-point Energies=           -117.754547
 Sum of electronic and thermal Energies=              -117.750481
 Sum of electronic and thermal Enthalpies=            -117.749536
 Sum of electronic and thermal Free Energies=         -117.779543
 
                     E (Thermal)             CV                S
                      KCal/Mol        Cal/Mol-Kelvin    Cal/Mol-Kelvin
 Total                   53.260             12.853             63.154
 Electronic               0.000              0.000              0.000
 Translational            0.889              2.981             37.135
 Rotational               0.889              2.981             22.031
 Vibrational             51.483              6.892              3.987
 Vibration     1          0.642              1.828              2.056
 Vibration     2          0.789              1.410              0.866
 Vibration     3          0.952              1.044              0.460
                       Q            Log10(Q)             Ln(Q)
 Total Bot       0.212734D-25        -25.672164        -59.112342
 Total V=0       0.314241D+12         11.497263         26.473427
 Vib (Bot)       0.136269D-36        -36.865604        -84.886190
 Vib (Bot)    1  0.953001D+00         -0.020907         -0.048139
 Vib (Bot)    2  0.407894D+00         -0.389452         -0.896747
 Vib (Bot)    3  0.252795D+00         -0.597232         -1.375177
 Vib (V=0)       0.201291D+01          0.303823          0.699579
 Vib (V=0)    1  0.157620D+01          0.197612          0.455018
 Vib (V=0)    2  0.114527D+01          0.058909          0.135643
 Vib (V=0)    3  0.106027D+01          0.025417          0.058526
 Electronic      0.100000D+01          0.000000          0.000000
 Translational   0.107166D+08          7.030056         16.187301
 Rotational      0.145675D+05          4.163384          9.586547
 ***** Axes restored to original set *****
 -------------------------------------------------------------------
 Center     Atomic                   Forces (Hartrees/Bohr)
 Number     Number              X              Y              Z
 -------------------------------------------------------------------
      1        1          -0.000003874   -0.000000980    0.000002522
      2        6           0.000008397   -0.000005438   -0.000000706
      3        1          -0.000001417   -0.000001472   -0.000001380
      4        6           0.000001832    0.000003762    0.000000527
      5        1          -0.000000650   -0.000007723    0.000003084
      6        6           0.000002898    0.000002478   -0.000007100
      7        1           0.000000518   -0.000003115   -0.000000032
      8        1          -0.000006494    0.000004878    0.000002465
      9        1          -0.000001210    0.000007610    0.000000621
 -------------------------------------------------------------------
 Cartesian Forces:  Max     0.000008397 RMS     0.000003958
 FormGI is forming the generalized inverse of G from B-inverse, IUseBI=4.

 GradGradGradGradGradGradGradGradGradGradGradGradGradGradGradGradGradGrad
 Berny optimization.
 Internal  Forces:  Max     0.000013707 RMS     0.000004725
 Search for a local minimum.
 Step number   1 out of a maximum of    2
 All quantities printed in internal units (Hartrees-Bohrs-Radians)
 Second derivative matrix not updated -- analytic derivatives used.
 ITU=  0
     Eigenvalues ---    0.00239   0.01970   0.03273   0.04082   0.05859
     Eigenvalues ---    0.05937   0.10711   0.11167   0.12285   0.12670
     Eigenvalues ---    0.14634   0.14693   0.18502   0.33067   0.34230
     Eigenvalues ---    0.34828   0.35532   0.36045   0.36643   0.37187
     Eigenvalues ---    0.66914
 Angle between quadratic step and forces=  74.49 degrees.
 Linear search not attempted -- first point.
 Iteration  1 RMS(Cart)=  0.00020126 RMS(Int)=  0.00000002
 Iteration  2 RMS(Cart)=  0.00000002 RMS(Int)=  0.00000000
 Variable       Old X    -DE/DX   Delta X   Delta X   Delta X     New X
                                 (Linear)    (Quad)   (Total)
    R1        2.05126  -0.00000   0.00000   0.00000   0.00000   2.05126
    R2        2.51299  -0.00000   0.00000  -0.00000  -0.00000   2.51299
    R3        2.05925  -0.00000   0.00000  -0.00001  -0.00001   2.05925
    R4        2.83472   0.00001   0.00000   0.00003   0.00003   2.83475
    R5        2.05526  -0.00000   0.00000  -0.00000  -0.00000   2.05526
    R6        2.07050  -0.00000   0.00000  -0.00001  -0.00001   2.07049
    R7        2.07049   0.00000   0.00000   0.00000   0.00000   2.07049
    R8        2.06637   0.00000   0.00000   0.00001   0.00001   2.06638
    A1        2.07821  -0.00001   0.00000  -0.00004  -0.00004   2.07817
    A2        2.17601  -0.00000   0.00000  -0.00001  -0.00001   2.17600
    A3        2.02897   0.00001   0.00000   0.00005   0.00005   2.02902
    A4        2.12575   0.00000   0.00000   0.00001   0.00001   2.12576
    A5        2.04014  -0.00000   0.00000  -0.00003  -0.00003   2.04011
    A6        2.11730   0.00000   0.00000   0.00003   0.00003   2.11732
    A7        1.93775  -0.00001   0.00000  -0.00004  -0.00004   1.93771
    A8        1.93760   0.00001   0.00000   0.00010   0.00010   1.93771
    A9        1.93964   0.00001   0.00000   0.00002   0.00002   1.93967
   A10        1.86512  -0.00000   0.00000   0.00001   0.00001   1.86513
   A11        1.89058  -0.00000   0.00000  -0.00004  -0.00004   1.89054
   A12        1.89061  -0.00001   0.00000  -0.00006  -0.00006   1.89054
    D1        0.00001   0.00000   0.00000  -0.00001  -0.00001   0.00000
    D2        3.14158   0.00000   0.00000   0.00001   0.00001   3.14159
    D3        3.14154   0.00000   0.00000   0.00005   0.00005   3.14159
    D4       -0.00007   0.00000   0.00000   0.00007   0.00007  -0.00000
    D5        2.10516  -0.00000   0.00000   0.00033   0.00033   2.10549
    D6       -2.10589   0.00000   0.00000   0.00039   0.00039  -2.10550
    D7       -0.00040   0.00000   0.00000   0.00039   0.00039  -0.00000
    D8       -1.03649  -0.00000   0.00000   0.00039   0.00039  -1.03610
    D9        1.03564   0.00000   0.00000   0.00045   0.00045   1.03609
   D10        3.14113   0.00000   0.00000   0.00045   0.00045   3.14159
         Item               Value     Threshold  Converged?
 Maximum Force            0.000014     0.000450     YES
 RMS     Force            0.000005     0.000300     YES
 Maximum Displacement     0.000533     0.001800     YES
 RMS     Displacement     0.000201     0.001200     YES
 Predicted change in Energy=-3.468862D-09
 Optimization completed.
    -- Stationary point found.
                           ----------------------------
                           !   Optimized Parameters   !
                           ! (Angstroms and Degrees)  !
 --------------------------                            --------------------------
 ! Name  Definition              Value          Derivative Info.                !
 --------------------------------------------------------------------------------
 ! R1    R(1,4)                  1.0855         -DE/DX =    0.0                 !
 ! R2    R(2,4)                  1.3298         -DE/DX =    0.0                 !
 ! R3    R(2,5)                  1.0897         -DE/DX =    0.0                 !
 ! R4    R(2,6)                  1.5001         -DE/DX =    0.0                 !
 ! R5    R(3,4)                  1.0876         -DE/DX =    0.0                 !
 ! R6    R(6,7)                  1.0957         -DE/DX =    0.0                 !
 ! R7    R(6,8)                  1.0957         -DE/DX =    0.0                 !
 ! R8    R(6,9)                  1.0935         -DE/DX =    0.0                 !
 ! A1    A(4,2,5)              119.0726         -DE/DX =    0.0                 !
 ! A2    A(4,2,6)              124.6761         -DE/DX =    0.0                 !
 ! A3    A(5,2,6)              116.2513         -DE/DX =    0.0                 !
 ! A4    A(1,4,2)              121.7967         -DE/DX =    0.0                 !
 ! A5    A(1,4,3)              116.8912         -DE/DX =    0.0                 !
 ! A6    A(2,4,3)              121.3121         -DE/DX =    0.0                 !
 ! A7    A(2,6,7)              111.0247         -DE/DX =    0.0                 !
 ! A8    A(2,6,8)              111.0165         -DE/DX =    0.0                 !
 ! A9    A(2,6,9)              111.1334         -DE/DX =    0.0                 !
 ! A10   A(7,6,8)              106.8634         -DE/DX =    0.0                 !
 ! A11   A(7,6,9)              108.3225         -DE/DX =    0.0                 !
 ! A12   A(8,6,9)              108.3237         -DE/DX =    0.0                 !
 ! D1    D(5,2,4,1)              0.0008         -DE/DX =    0.0                 !
 ! D2    D(5,2,4,3)            179.9995         -DE/DX =    0.0                 !
 ! D3    D(6,2,4,1)            179.9972         -DE/DX =    0.0                 !
 ! D4    D(6,2,4,3)             -0.0042         -DE/DX =    0.0                 !
 ! D5    D(4,2,6,7)            120.617          -DE/DX =    0.0                 !
 ! D6    D(4,2,6,8)           -120.6587         -DE/DX =    0.0                 !
 ! D7    D(4,2,6,9)             -0.0228         -DE/DX =    0.0                 !
 ! D8    D(5,2,6,7)            -59.3865         -DE/DX =    0.0                 !
 ! D9    D(5,2,6,8)             59.3378         -DE/DX =    0.0                 !
 ! D10   D(5,2,6,9)            179.9737         -DE/DX =    0.0                 !
 --------------------------------------------------------------------------------
 GradGradGradGradGradGradGradGradGradGradGradGradGradGradGradGradGradGrad


 ----------------------------------------------------------------------

 Electric dipole moment (input orientation):
 (Debye = 10**-18 statcoulomb cm , SI units = C m)
                  (au)            (Debye)         (10**-30 SI)
   Tot        0.147577D+00      0.375102D+00      0.125121D+01
   x          0.266557D-01      0.677520D-01      0.225996D+00
   y          0.143133D+00      0.363809D+00      0.121353D+01
   z         -0.241080D-01     -0.612764D-01     -0.204396D+00

 Dipole polarizability, Alpha (input orientation).
 (esu units = cm**3 , SI units = C**2 m**2 J**-1)
 Alpha(0;0):
               (au)            (10**-24 esu)      (10**-40 SI)
   iso        0.344245D+02      0.510118D+01      0.567583D+01
   aniso      0.250002D+02      0.370464D+01      0.412197D+01
   xx         0.328522D+02      0.486819D+01      0.541660D+01
   yx         0.350289D+01      0.519075D+00      0.577548D+00
   yy         0.474407D+02      0.702999D+01      0.782192D+01
   zx        -0.540580D+01     -0.801058D+00     -0.891297D+00
   zy        -0.392604D+01     -0.581779D+00     -0.647316D+00
   zz         0.229806D+02      0.340537D+01      0.378898D+01

 ----------------------------------------------------------------------

 Dipole orientation:
     1         -0.61536708         -0.45882291          0.20295917
     6         -1.18932532         -0.80833350          4.14039146
     1         -3.48279460         -2.20437468          1.19105045
     6         -1.78799380         -1.17267812          1.72710359
     1          0.52540330          0.23547721          4.59939406
     6         -2.71746136         -1.73848477          6.33931101
     1         -1.60093587         -3.00600821          7.53668711
     1         -3.32912518         -0.16445102          7.53731410
     1         -4.39662033         -2.75961079          5.70086619

 Electric dipole moment (dipole orientation):
 (Debye = 10**-18 statcoulomb cm , SI units = C m)
                  (au)            (Debye)         (10**-30 SI)
   Tot        0.147577D+00      0.375102D+00      0.125121D+01
   x          0.000000D+00      0.000000D+00      0.000000D+00
   y          0.000000D+00      0.000000D+00      0.000000D+00
   z          0.147577D+00      0.375102D+00      0.125121D+01

 Dipole polarizability, Alpha (dipole orientation).
 (esu units = cm**3 , SI units = C**2 m**2 J**-1)
 Alpha(0;0):
               (au)            (10**-24 esu)      (10**-40 SI)
   iso        0.344245D+02      0.510118D+01      0.567583D+01
   aniso      0.250002D+02      0.370464D+01      0.412197D+01
   xx         0.301511D+02      0.446793D+01      0.497124D+01
   yx         0.593005D+01      0.878742D+00      0.977733D+00
   yy         0.240200D+02      0.355939D+01      0.396036D+01
   zx         0.126508D+01      0.187465D+00      0.208583D+00
   zy         0.768634D+00      0.113900D+00      0.126731D+00
   zz         0.491025D+02      0.727623D+01      0.809590D+01

 ----------------------------------------------------------------------
 Unable to Open any file for archive entry.
 1\1\GINC-NODE-002\Freq\RM062X\6-31G(d)\C3H6\JP2658\09-Dec-2023\0\\#N G
 eom=AllCheck Guess=TCheck SCRF=Check GenChk RM062X/6-31G(d) Freq\\****
 *\\0,1\H,-0.3336689225,0.1996761606,0.1591256367\C,-0.28038286,2.30167
 82166,-0.056724868\H,-1.8531468881,1.1121024204,0.6955310352\C,-0.8479
 990403,1.1476802804,0.2816703786\H,0.7286153328,2.2948953562,-0.468237
 6115\C,-0.930304514,3.6462437893,0.084520947\H,-0.3425909616,4.3002010
 224,0.7382810047\H,-1.0049705484,4.1504258657,-0.8853692723\H,-1.93635
 15979,3.5557968884,0.5033027496\\Version=ES64L-G16RevC.01\State=1-A\HF
 =-117.8353558\RMSD=2.847e-10\RMSF=3.958e-06\ZeroPoint=0.0808088\Therma
 l=0.0848752\ETot=-117.7504806\HTot=-117.7495364\GTot=-117.7795428\Dipo
 le=0.0266557,0.1431333,-0.024108\DipoleDeriv=0.0253771,0.0735314,0.048
 5905,0.0583832,-0.0807134,-0.0015273,0.0499853,-0.0077184,0.1412516,0.
 0988667,-0.0880007,-0.1122566,-0.0104556,0.2932657,-0.0409,-0.1193854,
 -0.0091938,-0.1462005,-0.0770421,-0.0034115,0.091062,0.0328225,0.04299
 55,-0.003971,0.087712,0.0108387,0.1083063,0.0248127,-0.067597,-0.14251
 99,-0.0569337,-0.1386642,0.0047235,-0.1435163,0.0090563,-0.2816115,-0.
 1067868,0.0252069,0.0940926,0.0191134,0.0035369,0.0038214,0.094675,0.0
 013291,0.090506,0.0533843,0.0001065,0.0337725,0.0320435,-0.047392,0.00
 38795,0.0307947,0.0168302,0.1219308,0.0089508,-0.0308332,-0.0817883,-0
 .0485964,-0.0672315,-0.0609116,-0.0662079,-0.1059038,0.012967,0.080439
 9,0.0613794,-0.0025573,0.0152381,-0.0355822,0.0738166,-0.0122479,0.092
 7384,-0.0901859,-0.1080026,0.0296182,0.0716046,-0.041615,0.0297852,0.0
 210687,0.0781905,-0.0079767,0.0430362\Polar=32.8521936,3.502889,47.440
 749,-5.405804,-3.9260391,22.9805577\Quadrupole=0.4284575,0.6083055,-1.
 036763,0.0451393,-0.732455,-0.1995954\PG=C01 [X(C3H6)]\NImag=0\\0.1217
 4305,-0.13255552,0.29413765,-0.02764338,0.02920805,0.03269330,0.010073
 38,0.01570399,-0.00402557,0.61703272,-0.01480243,-0.01974224,0.0082157
 9,0.11341888,0.79241157,-0.00120990,-0.00424354,0.00465019,-0.19995894
 ,-0.10536694,0.24451625,-0.00853809,-0.00228081,0.00455086,-0.01058047
 ,0.00129388,0.00664271,0.31596351,0.02305685,0.00408574,-0.00960244,-0
 .02643243,0.00280000,0.01108969,0.00822196,0.05452920,0.00221072,0.000
 74699,0.00111531,0.00920119,-0.00023416,0.00223807,-0.11991795,-0.0061
 5512,0.07379422,-0.12488604,0.12214000,0.02544968,-0.19690792,-0.18030
 740,0.07601294,-0.29957408,-0.00200143,0.10773888,0.62003416,0.1262535
 9,-0.27704351,-0.02921625,-0.18019203,-0.47566859,0.11275918,-0.005463
 02,-0.05900386,0.00433186,0.06785480,0.84193350,0.02506980,-0.02753592
 ,-0.04266520,0.07600289,0.11280636,-0.09302346,0.10805745,0.00291767,-
 0.08067432,-0.21509407,-0.09541285,0.20544421,-0.00013350,-0.00041674,
 -0.00318596,-0.29433109,0.00195550,0.10256164,0.00195850,-0.00180357,0
 .00433466,-0.00990178,0.00175915,0.00660761,0.31103635,-0.00009478,0.0
 0095254,-0.00079059,0.00557715,-0.05760882,-0.00091030,-0.00196109,-0.
 00403069,0.00229637,-0.02815977,0.00275466,0.01186403,-0.00305060,0.05
 924490,-0.00321554,-0.00065891,-0.00665298,0.10223009,0.00056746,-0.08
 460642,0.00434917,0.00223182,0.01018036,0.00936999,-0.00035658,0.00287
 782,-0.11577581,-0.00174228,0.07435344,0.00098312,-0.00282074,0.005574
 15,-0.12164421,0.06572414,0.01321217,-0.00001399,-0.00211026,-0.003332
 46,0.01122274,-0.01118419,-0.00025929,-0.00935817,0.02665415,0.0025124
 6,0.58038919,-0.00105203,-0.00100732,0.00181624,0.05967129,-0.20650122
 ,-0.01217386,0.00113239,0.00175213,-0.00142498,0.01243539,-0.03097247,
 -0.00147485,-0.00136047,0.00227309,0.00060898,0.02800322,0.52410078,0.
 00541299,0.00253779,0.01155486,0.01376239,-0.01463614,-0.07870619,-0.0
 0363425,-0.00009986,-0.00716193,-0.00243868,0.00817045,0.00830472,0.00
 509869,-0.01083349,0.00173679,-0.01379299,-0.00875929,0.55939446,-0.00
 009109,0.00012212,-0.00096787,0.01089511,0.00861054,0.01097499,0.00017
 296,0.00015096,-0.00003347,-0.00067937,0.00149883,-0.00031629,0.000164
 82,-0.00097864,-0.00020533,-0.12953848,-0.08490787,-0.08612116,0.13540
 360,0.00067962,-0.00065347,0.00246714,-0.01802382,-0.02141593,-0.01657
 830,-0.00046352,-0.00005893,-0.00125703,0.00362449,-0.00184721,-0.0011
 1950,0.00061946,0.00088556,0.00059550,-0.08744669,-0.13858502,-0.09744
 328,0.09301757,0.15375561,-0.00025791,0.00003933,-0.00019501,-0.000169
 50,0.00002814,-0.00011681,0.00005440,0.00000634,0.00024900,0.00049257,
 0.00033562,-0.00013827,0.00021004,-0.00023751,0.00020998,-0.08700363,-
 0.09630578,-0.14368083,0.09651508,0.10507457,0.15310024,0.00054187,0.0
 0020880,0.00043761,-0.00023158,0.00542195,-0.01381478,0.00015717,0.000
 11714,-0.00001565,-0.00078161,0.00102514,0.00062898,0.00022058,-0.0005
 2859,0.00037107,-0.05093690,0.00944815,-0.01481794,-0.00173064,0.00884
 344,-0.01684835,0.04874885,-0.00119903,-0.00109148,-0.00216444,0.00000
 143,-0.01749829,0.02816097,0.00055014,0.00016351,0.00123628,0.00339897
 ,-0.00200360,-0.00140453,-0.00005106,0.00083515,-0.00094463,0.00859656
 ,-0.09955363,0.11053264,-0.00075888,0.00979996,-0.01820512,-0.01057332
 ,0.11134903,-0.00019378,-0.00008482,-0.00038987,0.00029083,-0.00153067
 ,0.00708465,-0.00008666,-0.00010045,0.00004298,-0.00059672,-0.00102065
 ,0.00011686,-0.00023433,0.00073533,0.00020919,-0.01362762,0.10801660,-
 0.26131974,-0.00064396,0.00899432,-0.01826116,0.01663898,-0.11887503,0
 .28217154,0.00030729,-0.00010109,-0.00018953,-0.01430595,-0.00131507,0
 .00557918,0.00045448,0.00080078,-0.00018592,0.00147391,-0.00155226,-0.
 00069709,0.00034429,0.00254217,0.00036389,-0.28110329,-0.02337007,0.09
 653095,-0.01459690,-0.00085054,0.00700730,0.00401226,0.00003520,-0.001
 54674,0.30341392,-0.00028626,0.00036209,0.00006649,0.03027553,0.003223
 52,-0.01273690,-0.00102992,-0.00023710,0.00045980,0.00101495,0.0018510
 8,-0.00064041,0.00234834,-0.00530639,-0.00030133,-0.02541619,-0.051506
 33,0.01053117,-0.01675463,-0.00188057,0.00926441,-0.01396271,-0.002000
 64,0.00386537,0.02381089,0.05549435,-0.00017301,-0.00000897,-0.0001106
 1,0.00266662,0.00015017,-0.00203628,-0.00001572,-0.00028765,0.00021631
 ,-0.00093461,0.00040922,-0.00024237,0.00038346,-0.00038155,0.00169181,
 0.09671722,0.00969695,-0.09012213,-0.01920200,-0.00073341,0.00883285,0
 .02742008,0.00166386,-0.00965445,-0.10686204,-0.01050861,0.09142487\\0
 .00000387,0.00000098,-0.00000252,-0.00000840,0.00000544,0.00000071,0.0
 0000142,0.00000147,0.00000138,-0.00000183,-0.00000376,-0.00000053,0.00
 000065,0.00000772,-0.00000308,-0.00000290,-0.00000248,0.00000710,-0.00
 000052,0.00000311,0.00000003,0.00000649,-0.00000488,-0.00000247,0.0000
 0121,-0.00000761,-0.00000062\\\@
 The archive entry for this job was punched.


 EDUCATION IS NOT TRAINING BUT RATHER THE PROCESS THAT EQUIPS YOU TO
 ENTERTAIN YOURSELF, A FRIEND, OR AN IDEA.  -- WALLACE STERLING
 Job cpu time:       0 days  0 hours  1 minutes 38.9 seconds.
 Elapsed time:       0 days  0 hours  0 minutes  8.6 seconds.
 File lengths (MBytes):  RWF=     24 Int=      0 D2E=      0 Chk=      6 Scr=      1
 Normal termination of Gaussian 16 at Sat Dec  9 14:54:37 2023.
