Unloading slurm/anatra/current
  ERROR: No such file or directory on
    '/cm/local/modulefiles/slurm/anatra/current'
environment: line 0: unalias: gv: not found
environment: line 0: unalias: sl: not found
 Entering Gaussian System, Link 0=g16
 Initial command:
 /apps/gaussian/g16/C.01/g16/l1.exe "/local/jobs/1149500/Gau-1390742.inp" -scrdir="/local/jobs/1149500/"
 Entering Link 1 = /apps/gaussian/g16/C.01/g16/l1.exe PID=   1390745.
  
 Copyright (c) 1988-2019, Gaussian, Inc.  All Rights Reserved.
  
 This is part of the Gaussian(R) 16 program.  It is based on
 the Gaussian(R) 09 system (copyright 2009, Gaussian, Inc.),
 the Gaussian(R) 03 system (copyright 2003, Gaussian, Inc.),
 the Gaussian(R) 98 system (copyright 1998, Gaussian, Inc.),
 the Gaussian(R) 94 system (copyright 1995, Gaussian, Inc.),
 the Gaussian 92(TM) system (copyright 1992, Gaussian, Inc.),
 the Gaussian 90(TM) system (copyright 1990, Gaussian, Inc.),
 the Gaussian 88(TM) system (copyright 1988, Gaussian, Inc.),
 the Gaussian 86(TM) system (copyright 1986, Carnegie Mellon
 University), and the Gaussian 82(TM) system (copyright 1983,
 Carnegie Mellon University). Gaussian is a federally registered
 trademark of Gaussian, Inc.
  
 This software contains proprietary and confidential information,
 including trade secrets, belonging to Gaussian, Inc.
  
 This software is provided under written license and may be
 used, copied, transmitted, or stored only in accord with that
 written license.
  
 The following legend is applicable only to US Government
 contracts under FAR:
  
                    RESTRICTED RIGHTS LEGEND
  
 Use, reproduction and disclosure by the US Government is
 subject to restrictions as set forth in subparagraphs (a)
 and (c) of the Commercial Computer Software - Restricted
 Rights clause in FAR 52.227-19.
  
 Gaussian, Inc.
 340 Quinnipiac St., Bldg. 40, Wallingford CT 06492
  
  
 ---------------------------------------------------------------
 Warning -- This program may not be used in any manner that
 competes with the business of Gaussian, Inc. or will provide
 assistance to any competitor of Gaussian, Inc.  The licensee
 of this program is prohibited from giving any competitor of
 Gaussian, Inc. access to this program.  By using this program,
 the user acknowledges that Gaussian, Inc. is engaged in the
 business of creating and licensing software in the field of
 computational chemistry and represents and warrants to the
 licensee that it is not a competitor of Gaussian, Inc. and that
 it will not use this program in any manner prohibited above.
 ---------------------------------------------------------------
  

 Cite this work as:
 Gaussian 16, Revision C.01,
 M. J. Frisch, G. W. Trucks, H. B. Schlegel, G. E. Scuseria, 
 M. A. Robb, J. R. Cheeseman, G. Scalmani, V. Barone, 
 G. A. Petersson, H. Nakatsuji, X. Li, M. Caricato, A. V. Marenich, 
 J. Bloino, B. G. Janesko, R. Gomperts, B. Mennucci, H. P. Hratchian, 
 J. V. Ortiz, A. F. Izmaylov, J. L. Sonnenberg, D. Williams-Young, 
 F. Ding, F. Lipparini, F. Egidi, J. Goings, B. Peng, A. Petrone, 
 T. Henderson, D. Ranasinghe, V. G. Zakrzewski, J. Gao, N. Rega, 
 G. Zheng, W. Liang, M. Hada, M. Ehara, K. Toyota, R. Fukuda, 
 J. Hasegawa, M. Ishida, T. Nakajima, Y. Honda, O. Kitao, H. Nakai, 
 T. Vreven, K. Throssell, J. A. Montgomery, Jr., J. E. Peralta, 
 F. Ogliaro, M. J. Bearpark, J. J. Heyd, E. N. Brothers, K. N. Kudin, 
 V. N. Staroverov, T. A. Keith, R. Kobayashi, J. Normand, 
 K. Raghavachari, A. P. Rendell, J. C. Burant, S. S. Iyengar, 
 J. Tomasi, M. Cossi, J. M. Millam, M. Klene, C. Adamo, R. Cammi, 
 J. W. Ochterski, R. L. Martin, K. Morokuma, O. Farkas, 
 J. B. Foresman, and D. J. Fox, Gaussian, Inc., Wallingford CT, 2019.
 
 ******************************************
 Gaussian 16:  ES64L-G16RevC.01  3-Jul-2019
                11-Dec-2023 
 ******************************************
 %chk=2a_gs_2_opt_freq.chk
 %nprocshared=12
 Will use up to   12 processors via shared memory.
 %mem=48GB
 ----------------------------------------------------------------------
 # m062x 6-31g(d) scrf=(iefpcm,solvent=benzene) opt=(maxcycles=50,maxst
 ep=10) freq=noraman
 ----------------------------------------------------------------------
 1/6=50,8=10,18=20,19=15,26=3,38=1/1,3;
 2/9=110,12=2,17=6,18=5,40=1/2;
 3/5=1,6=6,7=1,11=2,25=1,30=1,70=2201,71=1,72=12,74=-55/1,2,3;
 4//1;
 5/5=2,38=5,53=12/2;
 6/7=2,8=2,9=2,10=2,28=1/1;
 7//1,2,3,16;
 1/6=50,8=10,18=20,19=15,26=3/3(2);
 2/9=110/2;
 99//99;
 2/9=110/2;
 3/5=1,6=6,7=1,11=2,25=1,30=1,70=2205,71=1,72=12,74=-55/1,2,3;
 4/5=5,16=3,69=1/1;
 5/5=2,38=5,53=12/2;
 7//1,2,3,16;
 1/6=50,8=10,18=20,19=15,26=3/3(-5);
 2/9=110/2;
 6/7=2,8=2,9=2,10=2,19=2,28=1/1;
 99/9=1/99;
 -----
 *****
 -----
 Symbolic Z-matrix:
 Charge =  0 Multiplicity = 1
 C                    -2.0498   -1.4458    0. 
 N                    -0.6894   -1.4152    0. 
 C                    -0.8863    0.8911    0. 
 H                    -2.5308   -2.4118    0. 
 N                    -2.8451   -0.3417    0. 
 N                    -2.2461    0.8641    0. 
 N                    -0.0882   -0.2105    0. 
 C                    -0.2193    2.249     0. 
 H                     0.8679    2.166     0. 
 H                    -0.522     2.812    -0.8824 
 H                    -0.522     2.812     0.8824 
 

 GradGradGradGradGradGradGradGradGradGradGradGradGradGradGradGradGradGrad
 Berny optimization.
 Initialization pass.
                           ----------------------------
                           !    Initial Parameters    !
                           ! (Angstroms and Degrees)  !
 --------------------------                            --------------------------
 ! Name  Definition              Value          Derivative Info.                !
 --------------------------------------------------------------------------------
 ! R1    R(1,2)                  1.3607         estimate D2E/DX2                !
 ! R2    R(1,4)                  1.0791         estimate D2E/DX2                !
 ! R3    R(1,5)                  1.3607         estimate D2E/DX2                !
 ! R4    R(2,7)                  1.3464         estimate D2E/DX2                !
 ! R5    R(3,6)                  1.3601         estimate D2E/DX2                !
 ! R6    R(3,7)                  1.3603         estimate D2E/DX2                !
 ! R7    R(3,8)                  1.5129         estimate D2E/DX2                !
 ! R8    R(5,6)                  1.3464         estimate D2E/DX2                !
 ! R9    R(8,9)                  1.0904         estimate D2E/DX2                !
 ! R10   R(8,10)                 1.0896         estimate D2E/DX2                !
 ! R11   R(8,11)                 1.0896         estimate D2E/DX2                !
 ! A1    A(2,1,4)              117.7586         estimate D2E/DX2                !
 ! A2    A(2,1,5)              124.4772         estimate D2E/DX2                !
 ! A3    A(4,1,5)              117.7641         estimate D2E/DX2                !
 ! A4    A(1,2,7)              117.8098         estimate D2E/DX2                !
 ! A5    A(6,3,7)              124.7855         estimate D2E/DX2                !
 ! A6    A(6,3,8)              117.2978         estimate D2E/DX2                !
 ! A7    A(7,3,8)              117.9167         estimate D2E/DX2                !
 ! A8    A(1,5,6)              117.8176         estimate D2E/DX2                !
 ! A9    A(3,6,5)              117.5541         estimate D2E/DX2                !
 ! A10   A(2,7,3)              117.5557         estimate D2E/DX2                !
 ! A11   A(3,8,9)              111.7946         estimate D2E/DX2                !
 ! A12   A(3,8,10)             109.9557         estimate D2E/DX2                !
 ! A13   A(3,8,11)             109.9557         estimate D2E/DX2                !
 ! A14   A(9,8,10)             108.4414         estimate D2E/DX2                !
 ! A15   A(9,8,11)             108.4414         estimate D2E/DX2                !
 ! A16   A(10,8,11)            108.1604         estimate D2E/DX2                !
 ! D1    D(4,1,2,7)            180.0            estimate D2E/DX2                !
 ! D2    D(5,1,2,7)              0.0            estimate D2E/DX2                !
 ! D3    D(2,1,5,6)              0.0            estimate D2E/DX2                !
 ! D4    D(4,1,5,6)            180.0            estimate D2E/DX2                !
 ! D5    D(1,2,7,3)              0.0            estimate D2E/DX2                !
 ! D6    D(7,3,6,5)              0.0            estimate D2E/DX2                !
 ! D7    D(8,3,6,5)            180.0            estimate D2E/DX2                !
 ! D8    D(6,3,7,2)              0.0            estimate D2E/DX2                !
 ! D9    D(8,3,7,2)            180.0            estimate D2E/DX2                !
 ! D10   D(6,3,8,9)            180.0            estimate D2E/DX2                !
 ! D11   D(6,3,8,10)           -59.4934         estimate D2E/DX2                !
 ! D12   D(6,3,8,11)            59.4934         estimate D2E/DX2                !
 ! D13   D(7,3,8,9)              0.0            estimate D2E/DX2                !
 ! D14   D(7,3,8,10)           120.5066         estimate D2E/DX2                !
 ! D15   D(7,3,8,11)          -120.5066         estimate D2E/DX2                !
 ! D16   D(1,5,6,3)              0.0            estimate D2E/DX2                !
 --------------------------------------------------------------------------------
 Trust Radius=1.00D-01 FncErr=1.00D-07 GrdErr=1.00D-06 EigMax=2.50D+02 EigMin=1.00D-04
 Number of steps in this run=     50 maximum allowed number of steps=    100.
 GradGradGradGradGradGradGradGradGradGradGradGradGradGradGradGradGradGrad

                          Input orientation:                          
 ---------------------------------------------------------------------
 Center     Atomic      Atomic             Coordinates (Angstroms)
 Number     Number       Type             X           Y           Z
 ---------------------------------------------------------------------
      1          6           0       -2.049800   -1.445800    0.000000
      2          7           0       -0.689400   -1.415200    0.000000
      3          6           0       -0.886300    0.891100    0.000000
      4          1           0       -2.530800   -2.411800    0.000000
      5          7           0       -2.845100   -0.341700    0.000000
      6          7           0       -2.246100    0.864100    0.000000
      7          7           0       -0.088200   -0.210500    0.000000
      8          6           0       -0.219300    2.249000    0.000000
      9          1           0        0.867900    2.166000    0.000000
     10          1           0       -0.522000    2.812000   -0.882400
     11          1           0       -0.522000    2.812000    0.882400
 ---------------------------------------------------------------------
                    Distance matrix (angstroms):
                    1          2          3          4          5
     1  C    0.000000
     2  N    1.360744   0.000000
     3  C    2.610524   2.314690   0.000000
     4  H    1.079128   2.093792   3.689652   0.000000
     5  N    1.360713   2.408204   2.314453   2.093824   0.000000
     6  N    2.318226   2.760167   1.360068   3.288248   1.346386
     7  N    2.318155   1.346382   1.360326   3.288163   2.760020
     8  C    4.123382   3.694233   1.512872   5.202508   3.688706
     9  H    4.643067   3.905147   2.168545   5.701527   4.480505
    10  H    4.608868   4.321559   2.145041   5.665862   4.015127
    11  H    4.608868   4.321559   2.145041   5.665862   4.015127
                    6          7          8          9         10
     6  N    0.000000
     7  N    2.410663   0.000000
     8  C    2.454764   2.462992   0.000000
     9  H    3.375195   2.561617   1.090364   0.000000
    10  H    2.746901   3.178414   1.089599   1.768550   0.000000
    11  H    2.746901   3.178414   1.089599   1.768550   1.764800
                   11
    11  H    0.000000
 Stoichiometry    C3H4N4
 Framework group  CS[SG(C3H2N4),X(H2)]
 Deg. of freedom    18
 Full point group                 CS      NOp   2
 Largest Abelian subgroup         CS      NOp   2
 Largest concise Abelian subgroup CS      NOp   2
                         Standard orientation:                         
 ---------------------------------------------------------------------
 Center     Atomic      Atomic             Coordinates (Angstroms)
 Number     Number       Type             X           Y           Z
 ---------------------------------------------------------------------
      1          6           0       -0.006635   -1.788768    0.000000
      2          7           0       -1.209191   -1.151992    0.000000
      3          6           0        0.000000    0.821747    0.000000
      4          1           0       -0.009337   -2.867893    0.000000
      5          7           0        1.199005   -1.157919    0.000000
      6          7           0        1.203632    0.188458    0.000000
      7          7           0       -1.207024    0.194388    0.000000
      8          6           0        0.011968    2.334572    0.000000
      9          1           0       -0.997223    2.747399    0.000000
     10          1           0        0.534803    2.702321    0.882400
     11          1           0        0.534803    2.702321   -0.882400
 ---------------------------------------------------------------------
 Rotational constants (GHZ):           5.9850631           2.7739248           1.9180174
 Standard basis: 6-31G(d) (6D, 7F)
 There are    83 symmetry adapted cartesian basis functions of A'  symmetry.
 There are    30 symmetry adapted cartesian basis functions of A"  symmetry.
 There are    83 symmetry adapted basis functions of A'  symmetry.
 There are    30 symmetry adapted basis functions of A"  symmetry.
   113 basis functions,   212 primitive gaussians,   113 cartesian basis functions
    25 alpha electrons       25 beta electrons
       nuclear repulsion energy       276.6999593719 Hartrees.
 NAtoms=   11 NActive=   11 NUniq=   10 SFac= 1.21D+00 NAtFMM=   60 NAOKFM=F Big=F
 Integral buffers will be    131072 words long.
 Raffenetti 2 integral format.
 Two-electron integral symmetry is turned on.
 ------------------------------------------------------------------------------
 Polarizable Continuum Model (PCM)
 =================================
 Model                : PCM.
 Atomic radii         : UFF (Universal Force Field).
 Polarization charges : Total charges.
 Charge compensation  : None.
 Solution method      : On-the-fly selection.
 Cavity type          : Scaled VdW (van der Waals Surface) (Alpha=1.100).
 Cavity algorithm     : GePol (No added spheres)
                        Default sphere list used, NSphG=   11.
                        Lebedev-Laikov grids with approx.  5.0 points / Ang**2.
                        Smoothing algorithm: York/Karplus (Gamma=1.0000).
                        Polarization charges: spherical gaussians, with
                                              point-specific exponents (IZeta= 3).
                        Self-potential: point-specific (ISelfS= 7).
                        Self-field    : sphere-specific E.n sum rule (ISelfD= 2).
 1st derivatives      : Analytical E(r).r(x)/FMM algorithm (CHGder, D1EAlg=3).
                        Cavity 1st derivative terms included.
 Solvent              : Benzene, Eps=   2.270600 Eps(inf)=   2.253301
 ------------------------------------------------------------------------------
 Spheres list:
 ISph  on   Nord     Re0    Alpha      Xe            Ye            Ze
    1   C      1    1.9255  1.100     -0.006635     -1.788768     -0.000000
    2   N      2    1.8300  1.100     -1.209191     -1.151992      0.000000
    3   C      3    1.9255  1.100      0.000000      0.821747      0.000000
    4   H      4    1.4430  1.100     -0.009337     -2.867893     -0.000000
    5   N      5    1.8300  1.100      1.199005     -1.157919     -0.000000
    6   N      6    1.8300  1.100      1.203632      0.188458      0.000000
    7   N      7    1.8300  1.100     -1.207024      0.194388      0.000000
    8   C      8    1.9255  1.100      0.011968      2.334572      0.000000
    9   H      9    1.4430  1.100     -0.997223      2.747399      0.000000
   10   H     10    1.4430  1.100      0.534803      2.702321      0.882400
   11   H     11    1.4430  1.100      0.534803      2.702321     -0.882400
 ------------------------------------------------------------------------------
 One-electron integrals computed using PRISM.
 NBasis=   113 RedAO= T EigKep=  1.59D-03  NBF=    83    30
 NBsUse=   113 1.00D-06 EigRej= -1.00D+00 NBFU=    83    30
 ExpMin= 1.61D-01 ExpMax= 4.17D+03 ExpMxC= 6.27D+02 IAcc=3 IRadAn=         5 AccDes= 0.00D+00
 Harris functional with IExCor= 1009 and IRadAn=       5 diagonalized for initial guess.
 HarFok:  IExCor= 1009 AccDes= 0.00D+00 IRadAn=         5 IDoV= 1 UseB2=F ITyADJ=14
 ICtDFT=  3500011 ScaDFX=  1.000000  1.000000  1.000000  1.000000
 FoFCou: FMM=F IPFlag=           0 FMFlag=      100000 FMFlg1=           0
         NFxFlg=           0 DoJE=T BraDBF=F KetDBF=T FulRan=T
         wScrn=  0.000000 ICntrl=       500 IOpCl=  0 I1Cent=   200000004 NGrid=           0
         NMat0=    1 NMatS0=      1 NMatT0=    0 NMatD0=    1 NMtDS0=    0 NMtDT0=    0
 Petite list used in FoFCou.
 Initial guess orbital symmetries:
       Occupied  (A') (A') (A') (A') (A') (A') (A') (A') (A') (A')
                 (A') (A') (A') (A') (A') (A') (A") (A') (A") (A')
                 (A") (A') (A') (A") (A')
       Virtual   (A") (A") (A") (A') (A') (A') (A") (A') (A') (A')
                 (A') (A') (A') (A') (A') (A') (A") (A') (A") (A')
                 (A') (A') (A") (A') (A') (A") (A') (A") (A") (A')
                 (A') (A") (A') (A') (A') (A") (A') (A') (A') (A')
                 (A') (A") (A') (A') (A") (A') (A") (A') (A") (A")
                 (A") (A') (A') (A') (A') (A') (A') (A") (A') (A')
                 (A") (A') (A') (A') (A") (A") (A') (A") (A') (A")
                 (A") (A') (A') (A') (A') (A") (A') (A') (A') (A')
                 (A') (A') (A') (A') (A') (A') (A') (A')
 The electronic state of the initial guess is 1-A'.
 Keep R1 ints in memory in symmetry-blocked form, NReq=32039445.
 Requested convergence on RMS density matrix=1.00D-08 within 128 cycles.
 Requested convergence on MAX density matrix=1.00D-06.
 Requested convergence on             energy=1.00D-06.
 No special actions if energy rises.
 Inv3:  Mode=1 IEnd=     3610227.
 Iteration    1 A*A^-1 deviation from unit magnitude is 3.33D-15 for    985.
 Iteration    1 A*A^-1 deviation from orthogonality  is 1.67D-15 for   1009    743.
 Iteration    1 A^-1*A deviation from unit magnitude is 2.89D-15 for    405.
 Iteration    1 A^-1*A deviation from orthogonality  is 1.44D-15 for   1073    634.
 Error on total polarization charges =  0.00411
 SCF Done:  E(RM062X) =  -335.504636398     A.U. after   12 cycles
            NFock= 12  Conv=0.84D-08     -V/T= 2.0095

 **********************************************************************

            Population analysis using the SCF Density.

 **********************************************************************

 Orbital symmetries:
       Occupied  (A') (A') (A') (A') (A') (A') (A') (A') (A') (A')
                 (A') (A') (A') (A') (A') (A") (A') (A") (A') (A")
                 (A') (A') (A') (A") (A')
       Virtual   (A") (A") (A") (A') (A') (A') (A") (A') (A') (A')
                 (A') (A') (A') (A') (A") (A') (A') (A") (A') (A')
                 (A") (A') (A') (A') (A') (A") (A') (A") (A") (A')
                 (A') (A') (A") (A') (A') (A") (A') (A') (A') (A')
                 (A') (A') (A") (A') (A") (A') (A') (A") (A") (A")
                 (A") (A') (A') (A') (A') (A') (A') (A") (A') (A')
                 (A') (A") (A') (A") (A') (A") (A") (A') (A') (A")
                 (A") (A') (A') (A') (A') (A") (A') (A') (A') (A')
                 (A') (A') (A') (A') (A') (A') (A') (A')
 The electronic state is 1-A'.
 Alpha  occ. eigenvalues --  -14.84547 -14.84476 -14.84186 -14.84155 -10.65830
 Alpha  occ. eigenvalues --  -10.64892 -10.56304  -1.19413  -1.10434  -0.99537
 Alpha  occ. eigenvalues --   -0.85047  -0.84632  -0.75547  -0.65745  -0.60634
 Alpha  occ. eigenvalues --   -0.56044  -0.53955  -0.49366  -0.48308  -0.43569
 Alpha  occ. eigenvalues --   -0.43398  -0.41872  -0.41377  -0.37547  -0.31193
 Alpha virt. eigenvalues --   -0.07056  -0.02382   0.13069   0.16052   0.17470
 Alpha virt. eigenvalues --    0.18371   0.22288   0.22400   0.24007   0.25064
 Alpha virt. eigenvalues --    0.33072   0.38075   0.40831   0.51108   0.55769
 Alpha virt. eigenvalues --    0.56517   0.57712   0.58288   0.60508   0.61658
 Alpha virt. eigenvalues --    0.68148   0.68875   0.69445   0.71974   0.72626
 Alpha virt. eigenvalues --    0.76975   0.78950   0.82308   0.84583   0.84957
 Alpha virt. eigenvalues --    0.85762   0.91044   0.93261   0.94328   0.95169
 Alpha virt. eigenvalues --    0.96458   0.97161   0.98230   1.01880   1.15569
 Alpha virt. eigenvalues --    1.22462   1.25649   1.26273   1.30234   1.38385
 Alpha virt. eigenvalues --    1.39238   1.47378   1.47720   1.50341   1.52744
 Alpha virt. eigenvalues --    1.54810   1.66180   1.68993   1.72719   1.84569
 Alpha virt. eigenvalues --    1.87607   1.88298   1.93026   1.97892   2.07784
 Alpha virt. eigenvalues --    2.14630   2.17134   2.18326   2.25131   2.25968
 Alpha virt. eigenvalues --    2.27769   2.33127   2.33374   2.37381   2.37558
 Alpha virt. eigenvalues --    2.47969   2.52734   2.54014   2.66444   2.71630
 Alpha virt. eigenvalues --    2.72933   2.79913   2.80653   2.83162   3.08416
 Alpha virt. eigenvalues --    3.35417   3.63489   3.72820   4.01191   4.09190
 Alpha virt. eigenvalues --    4.13494   4.31513   4.46281
          Condensed to atoms (all electrons):
               1          2          3          4          5          6
     1  C    4.847079   0.356358  -0.030517   0.392830   0.354878  -0.050048
     2  N    0.356358   6.772740  -0.052171  -0.048003  -0.034764  -0.026319
     3  C   -0.030517  -0.052171   4.742824   0.000231  -0.046572   0.315280
     4  H    0.392830  -0.048003   0.000231   0.454314  -0.047759   0.003519
     5  N    0.354878  -0.034764  -0.046572  -0.047759   6.759958   0.255446
     6  N   -0.050048  -0.026319   0.315280   0.003519   0.255446   6.883584
     7  N   -0.051852   0.249115   0.368905   0.003510  -0.025265  -0.049204
     8  C   -0.000080   0.005814   0.363489   0.000025   0.004837  -0.082947
     9  H    0.000049  -0.000027  -0.027712  -0.000001  -0.000115   0.003817
    10  H    0.000055  -0.000126  -0.026686  -0.000000  -0.000034  -0.000780
    11  H    0.000055  -0.000126  -0.026686  -0.000000  -0.000034  -0.000780
               7          8          9         10         11
     1  C   -0.051852  -0.000080   0.000049   0.000055   0.000055
     2  N    0.249115   0.005814  -0.000027  -0.000126  -0.000126
     3  C    0.368905   0.363489  -0.027712  -0.026686  -0.026686
     4  H    0.003510   0.000025  -0.000001  -0.000000  -0.000000
     5  N   -0.025265   0.004837  -0.000115  -0.000034  -0.000034
     6  N   -0.049204  -0.082947   0.003817  -0.000780  -0.000780
     7  N    6.830761  -0.078808   0.004067   0.001765   0.001765
     8  C   -0.078808   5.198746   0.370870   0.373345   0.373345
     9  H    0.004067   0.370870   0.482773  -0.021457  -0.021457
    10  H    0.001765   0.373345  -0.021457   0.481588  -0.021015
    11  H    0.001765   0.373345  -0.021457  -0.021015   0.481588
 Mulliken charges:
               1
     1  C    0.181193
     2  N   -0.222491
     3  C    0.419614
     4  H    0.241335
     5  N   -0.220577
     6  N   -0.251568
     7  N   -0.254757
     8  C   -0.528636
     9  H    0.209194
    10  H    0.213346
    11  H    0.213346
 Sum of Mulliken charges =  -0.00000
 Mulliken charges with hydrogens summed into heavy atoms:
               1
     1  C    0.422529
     2  N   -0.222491
     3  C    0.419614
     5  N   -0.220577
     6  N   -0.251568
     7  N   -0.254757
     8  C    0.107251
 Electronic spatial extent (au):  <R**2>=            622.8848
 Charge=             -0.0000 electrons
 Dipole moment (field-independent basis, Debye):
    X=              0.0643    Y=              0.8343    Z=              0.0000  Tot=              0.8368
 Quadrupole moment (field-independent basis, Debye-Ang):
   XX=            -50.5616   YY=            -31.2899   ZZ=            -38.9271
   XY=              0.1200   XZ=              0.0000   YZ=             -0.0000
 Traceless Quadrupole moment (field-independent basis, Debye-Ang):
   XX=            -10.3021   YY=              8.9696   ZZ=              1.3325
   XY=              0.1200   XZ=              0.0000   YZ=             -0.0000
 Octapole moment (field-independent basis, Debye-Ang**2):
  XXX=             -0.4624  YYY=             -3.6154  ZZZ=             -0.0000  XYY=              0.0487
  XXY=              6.4854  XXZ=              0.0000  XZZ=              0.7832  YZZ=              1.1594
  YYZ=              0.0000  XYZ=              0.0000
 Hexadecapole moment (field-independent basis, Debye-Ang**3):
 XXXX=           -276.3594 YYYY=           -458.1885 ZZZZ=            -41.5749 XXXY=             -2.8650
 XXXZ=             -0.0000 YYYX=             -0.8169 YYYZ=              0.0000 ZZZX=              0.0000
 ZZZY=             -0.0000 XXYY=           -141.3001 XXZZ=            -46.7931 YYZZ=            -93.4234
 XXYZ=              0.0000 YYXZ=              0.0000 ZZXY=              1.8531
 N-N= 2.766999593719D+02 E-N=-1.333341487914D+03  KE= 3.323418481576D+02
 Symmetry A'   KE= 3.218717418232D+02
 Symmetry A"   KE= 1.047010633443D+01
 D1PCM: PCM CHGder 1st derivatives, ID1Alg=3 FixD1E=F DoIter=F DoCFld=F I1PDM=0.
 Calling FoFJK, ICntrl=      2127 FMM=F ISym2X=1 I1Cent= 0 IOpClX= 0 NMat=1 NMatS=1 NMatT=0.
 ***** Axes restored to original set *****
 -------------------------------------------------------------------
 Center     Atomic                   Forces (Hartrees/Bohr)
 Number     Number              X              Y              Z
 -------------------------------------------------------------------
      1        6           0.019544537    0.036807226    0.000000000
      2        7          -0.011520957    0.023278962    0.000000000
      3        6          -0.001578920   -0.010185117   -0.000000000
      4        1          -0.001186047   -0.002280079    0.000000000
      5        7           0.025343796    0.007170067   -0.000000000
      6        7           0.005703945   -0.031686122    0.000000000
      7        7          -0.028615632   -0.012946771    0.000000000
      8        6          -0.002402536   -0.007676911    0.000000000
      9        1          -0.000657276   -0.004484262   -0.000000000
     10        1          -0.002315455    0.001001505   -0.001434218
     11        1          -0.002315455    0.001001505    0.001434218
 -------------------------------------------------------------------
 Cartesian Forces:  Max     0.036807226 RMS     0.012724428

 GradGradGradGradGradGradGradGradGradGradGradGradGradGradGradGradGradGrad
 Berny optimization.
 FormGI is forming the generalized inverse of G from B-inverse, IUseBI=4.
 Internal  Forces:  Max     0.037019862 RMS     0.011340069
 Search for a local minimum.
 Step number   1 out of a maximum of   50
 All quantities printed in internal units (Hartrees-Bohrs-Radians)
 Mixed Optimization -- RFO/linear search
 Second derivative matrix not updated -- first step.
 ITU=  0
     Eigenvalues ---    0.00596   0.01330   0.02114   0.02162   0.02211
     Eigenvalues ---    0.02216   0.07102   0.07342   0.16000   0.16000
     Eigenvalues ---    0.16000   0.16000   0.23200   0.25000   0.25000
     Eigenvalues ---    0.25000   0.31064   0.34771   0.34859   0.34859
     Eigenvalues ---    0.36100   0.47787   0.50744   0.52843   0.52866
     Eigenvalues ---    0.54278   0.55798
 RFO step:  Lambda=-1.08580875D-02 EMin= 5.95676860D-03
 Linear search not attempted -- first point.
 Maximum step size (   0.100) exceeded in Quadratic search.
    -- Step size scaled by   0.654
 Iteration  1 RMS(Cart)=  0.02745321 RMS(Int)=  0.00010873
 Iteration  2 RMS(Cart)=  0.00010228 RMS(Int)=  0.00002255
 Iteration  3 RMS(Cart)=  0.00000001 RMS(Int)=  0.00002255
 ClnCor:  largest displacement from symmetrization is 1.27D-13 for atom    11.
 Variable       Old X    -DE/DX   Delta X   Delta X   Delta X     New X
                                 (Linear)    (Quad)   (Total)
    R1        2.57143  -0.02858   0.00000  -0.03528  -0.03525   2.53618
    R2        2.03926   0.00257   0.00000   0.00452   0.00452   2.04378
    R3        2.57137  -0.02744   0.00000  -0.03390  -0.03387   2.53750
    R4        2.54429  -0.03549   0.00000  -0.04079  -0.04079   2.50350
    R5        2.57016  -0.02103   0.00000  -0.02489  -0.02492   2.54524
    R6        2.57064  -0.02169   0.00000  -0.02569  -0.02572   2.54492
    R7        2.85891  -0.01251   0.00000  -0.02545  -0.02545   2.83346
    R8        2.54430  -0.03702   0.00000  -0.04259  -0.04259   2.50171
    R9        2.06049  -0.00031   0.00000  -0.00057  -0.00057   2.05992
   R10        2.05904   0.00232   0.00000   0.00423   0.00423   2.06327
   R11        2.05904   0.00232   0.00000   0.00423   0.00423   2.06327
    A1        2.05528  -0.00478   0.00000  -0.01202  -0.01205   2.04323
    A2        2.17254   0.00965   0.00000   0.02441   0.02446   2.19700
    A3        2.05537  -0.00487   0.00000  -0.01239  -0.01241   2.04296
    A4        2.05617  -0.00438   0.00000  -0.01315  -0.01311   2.04306
    A5        2.17792   0.00163   0.00000   0.00600   0.00595   2.18387
    A6        2.04723  -0.00151   0.00000  -0.00474  -0.00471   2.04252
    A7        2.05804  -0.00012   0.00000  -0.00126  -0.00124   2.05680
    A8        2.05631  -0.00442   0.00000  -0.01347  -0.01343   2.04288
    A9        2.05171  -0.00107   0.00000  -0.00156  -0.00160   2.05011
   A10        2.05173  -0.00142   0.00000  -0.00223  -0.00227   2.04946
   A11        1.95118  -0.00590   0.00000  -0.02231  -0.02234   1.92884
   A12        1.91909  -0.00022   0.00000  -0.00098  -0.00100   1.91809
   A13        1.91909  -0.00022   0.00000  -0.00098  -0.00100   1.91809
   A14        1.89266   0.00328   0.00000   0.01283   0.01280   1.90546
   A15        1.89266   0.00328   0.00000   0.01283   0.01280   1.90546
   A16        1.88776   0.00004   0.00000  -0.00042  -0.00043   1.88733
    D1        3.14159  -0.00000   0.00000  -0.00000   0.00000   3.14159
    D2        0.00000  -0.00000   0.00000  -0.00000   0.00000   0.00000
    D3        0.00000   0.00000   0.00000   0.00000   0.00000   0.00000
    D4        3.14159   0.00000   0.00000   0.00000   0.00000   3.14159
    D5        0.00000   0.00000   0.00000   0.00000   0.00000   0.00000
    D6        0.00000  -0.00000   0.00000   0.00000   0.00000   0.00000
    D7        3.14159  -0.00000   0.00000  -0.00000   0.00000   3.14159
    D8        0.00000   0.00000   0.00000  -0.00000   0.00000   0.00000
    D9        3.14159   0.00000   0.00000   0.00000   0.00000   3.14159
   D10        3.14159   0.00000   0.00000   0.00000   0.00000   3.14159
   D11       -1.03836   0.00011   0.00000   0.00087   0.00088  -1.03748
   D12        1.03836  -0.00011   0.00000  -0.00087  -0.00088   1.03748
   D13        0.00000   0.00000   0.00000  -0.00000   0.00000   0.00000
   D14        2.10324   0.00011   0.00000   0.00087   0.00088   2.10412
   D15       -2.10324  -0.00011   0.00000  -0.00087  -0.00088  -2.10412
   D16        0.00000  -0.00000   0.00000  -0.00000   0.00000   0.00000
         Item               Value     Threshold  Converged?
 Maximum Force            0.037020     0.000450     NO 
 RMS     Force            0.011340     0.000300     NO 
 Maximum Displacement     0.080468     0.001800     NO 
 RMS     Displacement     0.027432     0.001200     NO 
 Predicted change in Energy=-4.834094D-03
 GradGradGradGradGradGradGradGradGradGradGradGradGradGradGradGradGradGrad

                          Input orientation:                          
 ---------------------------------------------------------------------
 Center     Atomic      Atomic             Coordinates (Angstroms)
 Number     Number       Type             X           Y           Z
 ---------------------------------------------------------------------
      1          6           0       -2.029085   -1.406272    0.000000
      2          7           0       -0.687064   -1.392495    0.000000
      3          6           0       -0.890109    0.881493    0.000000
      4          1           0       -2.511321   -2.374328    0.000000
      5          7           0       -2.827180   -0.326400    0.000000
      6          7           0       -2.236796    0.858513    0.000000
      7          7           0       -0.096556   -0.206586    0.000000
      8          6           0       -0.231630    2.228571    0.000000
      9          1           0        0.853347    2.123418    0.000000
     10          1           0       -0.537353    2.791643   -0.884074
     11          1           0       -0.537353    2.791643    0.884074
 ---------------------------------------------------------------------
                    Distance matrix (angstroms):
                    1          2          3          4          5
     1  C    0.000000
     2  N    1.342091   0.000000
     3  C    2.555608   2.283034   0.000000
     4  H    1.081520   2.071693   3.637128   0.000000
     5  N    1.342788   2.390952   2.282817   2.072143   0.000000
     6  N    2.274290   2.732893   1.346883   3.244476   1.323847
     7  N    2.274624   1.324795   1.346715   3.245027   2.733252
     8  C    4.054988   3.649594   1.499404   5.136504   3.642081
     9  H    4.557096   3.838556   2.140564   5.617002   4.421300
    10  H    4.541954   4.279137   2.134174   5.600482   3.968260
    11  H    4.541954   4.279137   2.134174   5.600482   3.968260
                    6          7          8          9         10
     6  N    0.000000
     7  N    2.390620   0.000000
     8  C    2.428528   2.438900   0.000000
     9  H    3.339007   2.516194   1.090061   0.000000
    10  H    2.721523   3.156781   1.091835   1.778246   0.000000
    11  H    2.721523   3.156781   1.091835   1.778246   1.768148
                   11
    11  H    0.000000
 Stoichiometry    C3H4N4
 Framework group  CS[SG(C3H2N4),X(H2)]
 Deg. of freedom    18
 Full point group                 CS      NOp   2
 Largest Abelian subgroup         CS      NOp   2
 Largest concise Abelian subgroup CS      NOp   2
                         Standard orientation:                         
 ---------------------------------------------------------------------
 Center     Atomic      Atomic             Coordinates (Angstroms)
 Number     Number       Type             X           Y           Z
 ---------------------------------------------------------------------
      1          6           0       -0.008431   -1.750234    0.000000
      2          7           0       -1.201639   -1.135853    0.000000
      3          6           0       -0.000000    0.805361    0.000000
      4          1           0       -0.011745   -2.831749    0.000000
      5          7           0        1.189302   -1.143180    0.000000
      6          7           0        1.193250    0.180661    0.000000
      7          7           0       -1.197355    0.188935    0.000000
      8          6           0        0.015843    2.304681    0.000000
      9          1           0       -1.000996    2.697455    0.000000
     10          1           0        0.541683    2.670754    0.884074
     11          1           0        0.541683    2.670754   -0.884074
 ---------------------------------------------------------------------
 Rotational constants (GHZ):           6.0732249           2.8600915           1.9682646
 Standard basis: 6-31G(d) (6D, 7F)
 There are    83 symmetry adapted cartesian basis functions of A'  symmetry.
 There are    30 symmetry adapted cartesian basis functions of A"  symmetry.
 There are    83 symmetry adapted basis functions of A'  symmetry.
 There are    30 symmetry adapted basis functions of A"  symmetry.
   113 basis functions,   212 primitive gaussians,   113 cartesian basis functions
    25 alpha electrons       25 beta electrons
       nuclear repulsion energy       280.0686332947 Hartrees.
 NAtoms=   11 NActive=   11 NUniq=   10 SFac= 1.21D+00 NAtFMM=   60 NAOKFM=F Big=F
 Integral buffers will be    131072 words long.
 Raffenetti 2 integral format.
 Two-electron integral symmetry is turned on.
 ------------------------------------------------------------------------------
 Polarizable Continuum Model (PCM)
 =================================
 Model                : PCM.
 Atomic radii         : UFF (Universal Force Field).
 Polarization charges : Total charges.
 Charge compensation  : None.
 Solution method      : On-the-fly selection.
 Cavity type          : Scaled VdW (van der Waals Surface) (Alpha=1.100).
 Cavity algorithm     : GePol (No added spheres)
                        Default sphere list used, NSphG=   11.
                        Lebedev-Laikov grids with approx.  5.0 points / Ang**2.
                        Smoothing algorithm: York/Karplus (Gamma=1.0000).
                        Polarization charges: spherical gaussians, with
                                              point-specific exponents (IZeta= 3).
                        Self-potential: point-specific (ISelfS= 7).
                        Self-field    : sphere-specific E.n sum rule (ISelfD= 2).
 1st derivatives      : Analytical E(r).r(x)/FMM algorithm (CHGder, D1EAlg=3).
                        Cavity 1st derivative terms included.
 Solvent              : Benzene, Eps=   2.270600 Eps(inf)=   2.253301
 ------------------------------------------------------------------------------
 Spheres list:
 ISph  on   Nord     Re0    Alpha      Xe            Ye            Ze
    1   C      1    1.9255  1.100     -0.008431     -1.750234     -0.000000
    2   N      2    1.8300  1.100     -1.201639     -1.135853      0.000000
    3   C      3    1.9255  1.100     -0.000000      0.805361      0.000000
    4   H      4    1.4430  1.100     -0.011745     -2.831749     -0.000000
    5   N      5    1.8300  1.100      1.189302     -1.143180     -0.000000
    6   N      6    1.8300  1.100      1.193250      0.180661      0.000000
    7   N      7    1.8300  1.100     -1.197355      0.188935      0.000000
    8   C      8    1.9255  1.100      0.015843      2.304681      0.000000
    9   H      9    1.4430  1.100     -1.000996      2.697455      0.000000
   10   H     10    1.4430  1.100      0.541683      2.670754      0.884074
   11   H     11    1.4430  1.100      0.541683      2.670754     -0.884074
 ------------------------------------------------------------------------------
 One-electron integrals computed using PRISM.
 NBasis=   113 RedAO= T EigKep=  1.45D-03  NBF=    83    30
 NBsUse=   113 1.00D-06 EigRej= -1.00D+00 NBFU=    83    30
 Initial guess from the checkpoint file:  "2a_gs_2_opt_freq.chk"
 B after Tr=    -0.000000    0.000000   -0.000000
         Rot=    1.000000    0.000000    0.000000    0.000497 Ang=   0.06 deg.
 Initial guess orbital symmetries:
       Occupied  (A') (A') (A') (A') (A') (A') (A') (A') (A') (A')
                 (A') (A') (A') (A') (A') (A") (A') (A") (A') (A")
                 (A') (A') (A') (A") (A')
       Virtual   (A") (A") (A") (A') (A') (A') (A") (A') (A') (A')
                 (A') (A') (A') (A') (A") (A') (A') (A") (A') (A')
                 (A") (A') (A') (A') (A') (A") (A') (A") (A") (A')
                 (A') (A') (A") (A') (A') (A") (A') (A') (A') (A')
                 (A') (A') (A") (A') (A") (A') (A') (A") (A") (A")
                 (A") (A') (A') (A') (A') (A') (A') (A") (A') (A')
                 (A') (A") (A') (A") (A') (A") (A") (A') (A') (A")
                 (A") (A') (A') (A') (A') (A") (A') (A') (A') (A')
                 (A') (A') (A') (A') (A') (A') (A') (A')
 ExpMin= 1.61D-01 ExpMax= 4.17D+03 ExpMxC= 6.27D+02 IAcc=3 IRadAn=         5 AccDes= 0.00D+00
 Harris functional with IExCor= 1009 and IRadAn=       5 diagonalized for initial guess.
 HarFok:  IExCor= 1009 AccDes= 0.00D+00 IRadAn=         5 IDoV= 1 UseB2=F ITyADJ=14
 ICtDFT=  3500011 ScaDFX=  1.000000  1.000000  1.000000  1.000000
 FoFCou: FMM=F IPFlag=           0 FMFlag=      100000 FMFlg1=           0
         NFxFlg=           0 DoJE=T BraDBF=F KetDBF=T FulRan=T
         wScrn=  0.000000 ICntrl=       500 IOpCl=  0 I1Cent=   200000004 NGrid=           0
         NMat0=    1 NMatS0=      1 NMatT0=    0 NMatD0=    1 NMtDS0=    0 NMtDT0=    0
 Petite list used in FoFCou.
 Keep R1 ints in memory in symmetry-blocked form, NReq=32039445.
 Requested convergence on RMS density matrix=1.00D-08 within 128 cycles.
 Requested convergence on MAX density matrix=1.00D-06.
 Requested convergence on             energy=1.00D-06.
 No special actions if energy rises.
 Inv3:  Mode=1 IEnd=     3570843.
 Iteration    1 A*A^-1 deviation from unit magnitude is 2.89D-15 for    367.
 Iteration    1 A*A^-1 deviation from orthogonality  is 2.33D-15 for   1017     29.
 Iteration    1 A^-1*A deviation from unit magnitude is 2.89D-15 for    367.
 Iteration    1 A^-1*A deviation from orthogonality  is 3.22D-15 for    915    125.
 Error on total polarization charges =  0.00410
 SCF Done:  E(RM062X) =  -335.509331747     A.U. after   12 cycles
            NFock= 12  Conv=0.37D-08     -V/T= 2.0086
 D1PCM: PCM CHGder 1st derivatives, ID1Alg=3 FixD1E=F DoIter=F DoCFld=F I1PDM=0.
 Calling FoFJK, ICntrl=      2127 FMM=F ISym2X=1 I1Cent= 0 IOpClX= 0 NMat=1 NMatS=1 NMatT=0.
 ***** Axes restored to original set *****
 -------------------------------------------------------------------
 Center     Atomic                   Forces (Hartrees/Bohr)
 Number     Number              X              Y              Z
 -------------------------------------------------------------------
      1        6           0.005644687    0.008973692    0.000000000
      2        7          -0.004933432    0.010554260   -0.000000000
      3        6           0.001707710   -0.000521169   -0.000000000
      4        1          -0.000744317   -0.001422204    0.000000000
      5        7           0.011102961    0.004463056    0.000000000
      6        7           0.000434191   -0.013943618    0.000000000
      7        7          -0.011352665   -0.005963855    0.000000000
      8        6           0.000236143   -0.002087982   -0.000000000
      9        1          -0.000291507   -0.001454218    0.000000000
     10        1          -0.000901885    0.000701019   -0.000211771
     11        1          -0.000901885    0.000701019    0.000211771
 -------------------------------------------------------------------
 Cartesian Forces:  Max     0.013943618 RMS     0.004816191

 GradGradGradGradGradGradGradGradGradGradGradGradGradGradGradGradGradGrad
 Berny optimization.
 Using GEDIIS/GDIIS optimizer.
 FormGI is forming the generalized inverse of G from B-inverse, IUseBI=4.
 Internal  Forces:  Max     0.013207764 RMS     0.003833069
 Search for a local minimum.
 Step number   2 out of a maximum of   50
 All quantities printed in internal units (Hartrees-Bohrs-Radians)
 Mixed Optimization -- RFO/linear search
 Update second derivatives using D2CorX and points    1    2
 DE= -4.70D-03 DEPred=-4.83D-03 R= 9.71D-01
 TightC=F SS=  1.41D+00  RLast= 1.00D-01 DXNew= 1.6818D-01 3.0004D-01
 Trust test= 9.71D-01 RLast= 1.00D-01 DXMaxT set to 1.68D-01
 ITU=  1  0
 Use linear search instead of GDIIS.
     Eigenvalues ---    0.00596   0.01334   0.02115   0.02164   0.02211
     Eigenvalues ---    0.02216   0.07252   0.07377   0.15947   0.16000
     Eigenvalues ---    0.16000   0.16056   0.24287   0.24979   0.25000
     Eigenvalues ---    0.25243   0.31734   0.34770   0.34859   0.34871
     Eigenvalues ---    0.36036   0.47212   0.50705   0.52837   0.53352
     Eigenvalues ---    0.54266   0.56038
 RFO step:  Lambda=-3.85271821D-04 EMin= 5.95676860D-03
 Quartic linear search produced a step of  0.41093.
 Iteration  1 RMS(Cart)=  0.00854986 RMS(Int)=  0.00003020
 Iteration  2 RMS(Cart)=  0.00004175 RMS(Int)=  0.00000676
 Iteration  3 RMS(Cart)=  0.00000000 RMS(Int)=  0.00000676
 ClnCor:  largest displacement from symmetrization is 1.86D-12 for atom     9.
 Variable       Old X    -DE/DX   Delta X   Delta X   Delta X     New X
                                 (Linear)    (Quad)   (Total)
    R1        2.53618  -0.01040  -0.01448  -0.00641  -0.02088   2.51530
    R2        2.04378   0.00160   0.00186   0.00338   0.00524   2.04901
    R3        2.53750  -0.00931  -0.01392  -0.00435  -0.01826   2.51925
    R4        2.50350  -0.01193  -0.01676  -0.00503  -0.02179   2.48171
    R5        2.54524  -0.00600  -0.01024  -0.00018  -0.01043   2.53482
    R6        2.54492  -0.00722  -0.01057  -0.00293  -0.01351   2.53141
    R7        2.83346  -0.00274  -0.01046   0.00410  -0.00636   2.82710
    R8        2.50171  -0.01321  -0.01750  -0.00718  -0.02469   2.47702
    R9        2.05992  -0.00015  -0.00023  -0.00023  -0.00047   2.05945
   R10        2.06327   0.00078   0.00174   0.00046   0.00220   2.06547
   R11        2.06327   0.00078   0.00174   0.00046   0.00220   2.06547
    A1        2.04323  -0.00007  -0.00495   0.00875   0.00379   2.04702
    A2        2.19700   0.00021   0.01005  -0.01714  -0.00707   2.18993
    A3        2.04296  -0.00014  -0.00510   0.00838   0.00328   2.04624
    A4        2.04306   0.00042  -0.00539   0.01002   0.00464   2.04770
    A5        2.18387  -0.00283   0.00244  -0.01824  -0.01582   2.16805
    A6        2.04252   0.00136  -0.00194   0.00997   0.00804   2.05056
    A7        2.05680   0.00147  -0.00051   0.00827   0.00777   2.06457
    A8        2.04288   0.00027  -0.00552   0.00920   0.00369   2.04657
    A9        2.05011   0.00109  -0.00066   0.00848   0.00781   2.05792
   A10        2.04946   0.00084  -0.00093   0.00769   0.00674   2.05621
   A11        1.92884  -0.00196  -0.00918   0.00007  -0.00912   1.91972
   A12        1.91809   0.00021  -0.00041   0.00203   0.00162   1.91971
   A13        1.91809   0.00021  -0.00041   0.00203   0.00162   1.91971
   A14        1.90546   0.00105   0.00526   0.00118   0.00643   1.91189
   A15        1.90546   0.00105   0.00526   0.00118   0.00643   1.91189
   A16        1.88733  -0.00053  -0.00018  -0.00665  -0.00683   1.88050
    D1        3.14159  -0.00000   0.00000  -0.00000   0.00000   3.14159
    D2        0.00000  -0.00000   0.00000   0.00000   0.00000   0.00000
    D3        0.00000   0.00000   0.00000   0.00000   0.00000   0.00000
    D4        3.14159   0.00000   0.00000   0.00000   0.00000   3.14159
    D5        0.00000  -0.00000   0.00000  -0.00000   0.00000   0.00000
    D6        0.00000  -0.00000   0.00000   0.00000   0.00000   0.00000
    D7        3.14159  -0.00000   0.00000  -0.00000   0.00000   3.14159
    D8        0.00000   0.00000   0.00000   0.00000   0.00000   0.00000
    D9        3.14159   0.00000   0.00000   0.00000   0.00000   3.14159
   D10        3.14159  -0.00000   0.00000  -0.00000   0.00000   3.14159
   D11       -1.03748   0.00019   0.00036   0.00283   0.00320  -1.03428
   D12        1.03748  -0.00019  -0.00036  -0.00283  -0.00320   1.03428
   D13        0.00000  -0.00000   0.00000  -0.00000   0.00000   0.00000
   D14        2.10412   0.00019   0.00036   0.00283   0.00320   2.10731
   D15       -2.10412  -0.00019  -0.00036  -0.00283  -0.00320  -2.10731
   D16        0.00000  -0.00000   0.00000  -0.00000   0.00000   0.00000
         Item               Value     Threshold  Converged?
 Maximum Force            0.013208     0.000450     NO 
 RMS     Force            0.003833     0.000300     NO 
 Maximum Displacement     0.024730     0.001800     NO 
 RMS     Displacement     0.008565     0.001200     NO 
 Predicted change in Energy=-6.756562D-04
 GradGradGradGradGradGradGradGradGradGradGradGradGradGradGradGradGradGrad

                          Input orientation:                          
 ---------------------------------------------------------------------
 Center     Atomic      Atomic             Coordinates (Angstroms)
 Number     Number       Type             X           Y           Z
 ---------------------------------------------------------------------
      1          6           0       -2.025180   -1.400092    0.000000
      2          7           0       -0.694272   -1.381285    0.000000
      3          6           0       -0.889167    0.882056    0.000000
      4          1           0       -2.508583   -2.370664    0.000000
      5          7           0       -2.814093   -0.325456    0.000000
      6          7           0       -2.230102    0.848047    0.000000
      7          7           0       -0.107989   -0.206152    0.000000
      8          6           0       -0.232504    2.226275    0.000000
      9          1           0        0.851251    2.111530    0.000000
     10          1           0       -0.540230    2.792471   -0.882823
     11          1           0       -0.540230    2.792471    0.882823
 ---------------------------------------------------------------------
                    Distance matrix (angstroms):
                    1          2          3          4          5
     1  C    0.000000
     2  N    1.331041   0.000000
     3  C    2.549260   2.271716   0.000000
     4  H    1.084291   2.066541   3.633551   0.000000
     5  N    1.333127   2.368210   2.272317   2.067900   0.000000
     6  N    2.257459   2.707156   1.341367   3.230735   1.310784
     7  N    2.258564   1.313265   1.339565   3.232330   2.708733
     8  C    4.045272   3.636993   1.496039   5.129560   3.629867
     9  H    4.539311   3.819477   2.130883   5.601656   4.401551
    10  H    4.534539   4.268881   2.133265   5.595690   3.958699
    11  H    4.534539   4.268881   2.133265   5.595690   3.958699
                    6          7          8          9         10
     6  N    0.000000
     7  N    2.369535   0.000000
     8  C    2.426914   2.435612   0.000000
     9  H    3.330334   2.508345   1.089813   0.000000
    10  H    2.723202   3.155622   1.093000   1.783052   0.000000
    11  H    2.723202   3.155622   1.093000   1.783052   1.765645
                   11
    11  H    0.000000
 Stoichiometry    C3H4N4
 Framework group  CS[SG(C3H2N4),X(H2)]
 Deg. of freedom    18
 Full point group                 CS      NOp   2
 Largest Abelian subgroup         CS      NOp   2
 Largest concise Abelian subgroup CS      NOp   2
                         Standard orientation:                         
 ---------------------------------------------------------------------
 Center     Atomic      Atomic             Coordinates (Angstroms)
 Number     Number       Type             X           Y           Z
 ---------------------------------------------------------------------
      1          6           0       -0.009907   -1.743819    0.000000
      2          7           0       -1.190602   -1.129304    0.000000
      3          6           0       -0.000000    0.805422    0.000000
      4          1           0       -0.013879   -2.828103    0.000000
      5          7           0        1.177592   -1.137952    0.000000
      6          7           0        1.182827    0.172821    0.000000
      7          7           0       -1.186682    0.183955    0.000000
      8          6           0        0.016974    2.301364    0.000000
      9          1           0       -1.002873    2.685557    0.000000
     10          1           0        0.546199    2.669050    0.882823
     11          1           0        0.546199    2.669050   -0.882823
 ---------------------------------------------------------------------
 Rotational constants (GHZ):           6.1810427           2.8763195           1.9871447
 Standard basis: 6-31G(d) (6D, 7F)
 There are    83 symmetry adapted cartesian basis functions of A'  symmetry.
 There are    30 symmetry adapted cartesian basis functions of A"  symmetry.
 There are    83 symmetry adapted basis functions of A'  symmetry.
 There are    30 symmetry adapted basis functions of A"  symmetry.
   113 basis functions,   212 primitive gaussians,   113 cartesian basis functions
    25 alpha electrons       25 beta electrons
       nuclear repulsion energy       281.6223758045 Hartrees.
 NAtoms=   11 NActive=   11 NUniq=   10 SFac= 1.21D+00 NAtFMM=   60 NAOKFM=F Big=F
 Integral buffers will be    131072 words long.
 Raffenetti 2 integral format.
 Two-electron integral symmetry is turned on.
 ------------------------------------------------------------------------------
 Polarizable Continuum Model (PCM)
 =================================
 Model                : PCM.
 Atomic radii         : UFF (Universal Force Field).
 Polarization charges : Total charges.
 Charge compensation  : None.
 Solution method      : On-the-fly selection.
 Cavity type          : Scaled VdW (van der Waals Surface) (Alpha=1.100).
 Cavity algorithm     : GePol (No added spheres)
                        Default sphere list used, NSphG=   11.
                        Lebedev-Laikov grids with approx.  5.0 points / Ang**2.
                        Smoothing algorithm: York/Karplus (Gamma=1.0000).
                        Polarization charges: spherical gaussians, with
                                              point-specific exponents (IZeta= 3).
                        Self-potential: point-specific (ISelfS= 7).
                        Self-field    : sphere-specific E.n sum rule (ISelfD= 2).
 1st derivatives      : Analytical E(r).r(x)/FMM algorithm (CHGder, D1EAlg=3).
                        Cavity 1st derivative terms included.
 Solvent              : Benzene, Eps=   2.270600 Eps(inf)=   2.253301
 ------------------------------------------------------------------------------
 Spheres list:
 ISph  on   Nord     Re0    Alpha      Xe            Ye            Ze
    1   C      1    1.9255  1.100     -0.009907     -1.743819     -0.000000
    2   N      2    1.8300  1.100     -1.190602     -1.129304      0.000000
    3   C      3    1.9255  1.100     -0.000000      0.805422      0.000000
    4   H      4    1.4430  1.100     -0.013879     -2.828103     -0.000000
    5   N      5    1.8300  1.100      1.177592     -1.137952     -0.000000
    6   N      6    1.8300  1.100      1.182827      0.172821      0.000000
    7   N      7    1.8300  1.100     -1.186682      0.183955      0.000000
    8   C      8    1.9255  1.100      0.016974      2.301364      0.000000
    9   H      9    1.4430  1.100     -1.002873      2.685557      0.000000
   10   H     10    1.4430  1.100      0.546199      2.669050      0.882823
   11   H     11    1.4430  1.100      0.546199      2.669050     -0.882823
 ------------------------------------------------------------------------------
 One-electron integrals computed using PRISM.
 NBasis=   113 RedAO= T EigKep=  1.37D-03  NBF=    83    30
 NBsUse=   113 1.00D-06 EigRej= -1.00D+00 NBFU=    83    30
 Initial guess from the checkpoint file:  "2a_gs_2_opt_freq.chk"
 B after Tr=     0.000000   -0.000000    0.000000
         Rot=    1.000000   -0.000000    0.000000    0.000311 Ang=   0.04 deg.
 Initial guess orbital symmetries:
       Occupied  (A') (A') (A') (A') (A') (A') (A') (A') (A') (A')
                 (A') (A') (A') (A') (A') (A") (A') (A") (A') (A")
                 (A') (A') (A') (A") (A')
       Virtual   (A") (A") (A") (A') (A') (A') (A") (A') (A') (A')
                 (A') (A') (A') (A') (A") (A') (A") (A') (A') (A')
                 (A") (A') (A') (A') (A') (A") (A') (A") (A") (A')
                 (A') (A') (A") (A') (A') (A") (A') (A') (A') (A')
                 (A') (A") (A') (A') (A") (A') (A") (A') (A") (A")
                 (A") (A') (A') (A') (A') (A') (A') (A") (A') (A')
                 (A') (A") (A') (A") (A') (A") (A") (A') (A') (A")
                 (A") (A') (A') (A') (A') (A") (A') (A') (A') (A')
                 (A') (A') (A') (A') (A') (A') (A') (A')
 ExpMin= 1.61D-01 ExpMax= 4.17D+03 ExpMxC= 6.27D+02 IAcc=3 IRadAn=         5 AccDes= 0.00D+00
 Harris functional with IExCor= 1009 and IRadAn=       5 diagonalized for initial guess.
 HarFok:  IExCor= 1009 AccDes= 0.00D+00 IRadAn=         5 IDoV= 1 UseB2=F ITyADJ=14
 ICtDFT=  3500011 ScaDFX=  1.000000  1.000000  1.000000  1.000000
 FoFCou: FMM=F IPFlag=           0 FMFlag=      100000 FMFlg1=           0
         NFxFlg=           0 DoJE=T BraDBF=F KetDBF=T FulRan=T
         wScrn=  0.000000 ICntrl=       500 IOpCl=  0 I1Cent=   200000004 NGrid=           0
         NMat0=    1 NMatS0=      1 NMatT0=    0 NMatD0=    1 NMtDS0=    0 NMtDT0=    0
 Petite list used in FoFCou.
 Keep R1 ints in memory in symmetry-blocked form, NReq=32039445.
 Requested convergence on RMS density matrix=1.00D-08 within 128 cycles.
 Requested convergence on MAX density matrix=1.00D-06.
 Requested convergence on             energy=1.00D-06.
 No special actions if energy rises.
 Inv3:  Mode=1 IEnd=     3557763.
 Iteration    1 A*A^-1 deviation from unit magnitude is 3.33D-15 for    402.
 Iteration    1 A*A^-1 deviation from orthogonality  is 1.89D-15 for   1002    608.
 Iteration    1 A^-1*A deviation from unit magnitude is 2.89D-15 for    382.
 Iteration    1 A^-1*A deviation from orthogonality  is 1.78D-15 for    998     76.
 Error on total polarization charges =  0.00413
 SCF Done:  E(RM062X) =  -335.509934079     A.U. after   12 cycles
            NFock= 12  Conv=0.21D-08     -V/T= 2.0081
 D1PCM: PCM CHGder 1st derivatives, ID1Alg=3 FixD1E=F DoIter=F DoCFld=F I1PDM=0.
 Calling FoFJK, ICntrl=      2127 FMM=F ISym2X=1 I1Cent= 0 IOpClX= 0 NMat=1 NMatS=1 NMatT=0.
 ***** Axes restored to original set *****
 -------------------------------------------------------------------
 Center     Atomic                   Forces (Hartrees/Bohr)
 Number     Number              X              Y              Z
 -------------------------------------------------------------------
      1        6           0.000432984   -0.000742831    0.000000000
      2        7           0.001211624   -0.000689750   -0.000000000
      3        6           0.000921697    0.000418276    0.000000000
      4        1           0.000068300    0.000206325   -0.000000000
      5        7          -0.001342805    0.001771886    0.000000000
      6        7          -0.001762944    0.000020570    0.000000000
      7        7           0.000924767   -0.000164793   -0.000000000
      8        6           0.000040516   -0.000500370    0.000000000
      9        1          -0.000079094   -0.000315353   -0.000000000
     10        1          -0.000207523   -0.000001981    0.000039955
     11        1          -0.000207523   -0.000001981   -0.000039955
 -------------------------------------------------------------------
 Cartesian Forces:  Max     0.001771886 RMS     0.000630903

 GradGradGradGradGradGradGradGradGradGradGradGradGradGradGradGradGradGrad
 Berny optimization.
 Using GEDIIS/GDIIS optimizer.
 FormGI is forming the generalized inverse of G from B-inverse, IUseBI=4.
 Internal  Forces:  Max     0.001903668 RMS     0.000530535
 Search for a local minimum.
 Step number   3 out of a maximum of   50
 All quantities printed in internal units (Hartrees-Bohrs-Radians)
 Mixed Optimization -- En-DIIS/RFO-DIIS
 Update second derivatives using D2CorX and points    1    2    3
 DE= -6.02D-04 DEPred=-6.76D-04 R= 8.91D-01
 TightC=F SS=  1.41D+00  RLast= 5.54D-02 DXNew= 2.8284D-01 1.6631D-01
 Trust test= 8.91D-01 RLast= 5.54D-02 DXMaxT set to 1.68D-01
 ITU=  1  1  0
 Use linear search instead of GDIIS.
     Eigenvalues ---    0.00596   0.01323   0.02114   0.02163   0.02211
     Eigenvalues ---    0.02216   0.07292   0.07371   0.15926   0.16000
     Eigenvalues ---    0.16001   0.16037   0.24276   0.25000   0.25006
     Eigenvalues ---    0.26183   0.31623   0.34769   0.34859   0.34861
     Eigenvalues ---    0.36103   0.47503   0.50439   0.52172   0.52855
     Eigenvalues ---    0.54363   0.61671
 RFO step:  Lambda=-2.35013694D-05 EMin= 5.95676860D-03
 Quartic linear search produced a step of -0.06595.
 Iteration  1 RMS(Cart)=  0.00243084 RMS(Int)=  0.00000157
 Iteration  2 RMS(Cart)=  0.00000213 RMS(Int)=  0.00000033
 Iteration  3 RMS(Cart)=  0.00000000 RMS(Int)=  0.00000033
 ClnCor:  largest displacement from symmetrization is 1.66D-11 for atom     9.
 Variable       Old X    -DE/DX   Delta X   Delta X   Delta X     New X
                                 (Linear)    (Quad)   (Total)
    R1        2.51530   0.00113   0.00138   0.00059   0.00197   2.51727
    R2        2.04901  -0.00022  -0.00035  -0.00018  -0.00052   2.04849
    R3        2.51925   0.00190   0.00120   0.00217   0.00337   2.52262
    R4        2.48171   0.00002   0.00144  -0.00144  -0.00000   2.48171
    R5        2.53482   0.00146   0.00069   0.00189   0.00258   2.53740
    R6        2.53141   0.00077   0.00089   0.00044   0.00133   2.53274
    R7        2.82710  -0.00094   0.00042  -0.00327  -0.00285   2.82426
    R8        2.47702  -0.00068   0.00163  -0.00284  -0.00121   2.47581
    R9        2.05945  -0.00004   0.00003  -0.00015  -0.00012   2.05933
   R10        2.06547   0.00002  -0.00015   0.00022   0.00008   2.06555
   R11        2.06547   0.00002  -0.00015   0.00022   0.00008   2.06555
    A1        2.04702  -0.00034  -0.00025  -0.00109  -0.00134   2.04568
    A2        2.18993   0.00075   0.00047   0.00263   0.00309   2.19302
    A3        2.04624  -0.00041  -0.00022  -0.00154  -0.00176   2.04448
    A4        2.04770  -0.00053  -0.00031  -0.00165  -0.00196   2.04574
    A5        2.16805   0.00091   0.00104   0.00209   0.00314   2.17119
    A6        2.05056  -0.00040  -0.00053  -0.00082  -0.00135   2.04921
    A7        2.06457  -0.00051  -0.00051  -0.00127  -0.00178   2.06279
    A8        2.04657  -0.00043  -0.00024  -0.00135  -0.00160   2.04497
    A9        2.05792  -0.00040  -0.00052  -0.00101  -0.00152   2.05640
   A10        2.05621  -0.00030  -0.00044  -0.00071  -0.00115   2.05506
   A11        1.91972  -0.00038   0.00060  -0.00269  -0.00208   1.91764
   A12        1.91971  -0.00008  -0.00011  -0.00049  -0.00059   1.91911
   A13        1.91971  -0.00008  -0.00011  -0.00049  -0.00059   1.91911
   A14        1.91189   0.00028  -0.00042   0.00244   0.00201   1.91390
   A15        1.91189   0.00028  -0.00042   0.00244   0.00201   1.91390
   A16        1.88050  -0.00001   0.00045  -0.00114  -0.00069   1.87981
    D1        3.14159   0.00000   0.00000   0.00000   0.00000   3.14159
    D2        0.00000   0.00000   0.00000   0.00000   0.00000   0.00000
    D3        0.00000  -0.00000   0.00000  -0.00000   0.00000   0.00000
    D4        3.14159  -0.00000   0.00000  -0.00000   0.00000   3.14159
    D5        0.00000   0.00000   0.00000  -0.00000   0.00000   0.00000
    D6        0.00000   0.00000   0.00000   0.00000   0.00000   0.00000
    D7        3.14159   0.00000   0.00000   0.00000   0.00000   3.14159
    D8        0.00000  -0.00000   0.00000  -0.00000   0.00000   0.00000
    D9        3.14159  -0.00000   0.00000  -0.00000   0.00000   3.14159
   D10        3.14159  -0.00000   0.00000  -0.00000   0.00000   3.14159
   D11       -1.03428   0.00006  -0.00021   0.00100   0.00078  -1.03349
   D12        1.03428  -0.00006   0.00021  -0.00100  -0.00078   1.03349
   D13        0.00000   0.00000   0.00000   0.00000   0.00000   0.00000
   D14        2.10731   0.00006  -0.00021   0.00100   0.00078   2.10810
   D15       -2.10731  -0.00006   0.00021  -0.00100  -0.00078  -2.10810
   D16        0.00000   0.00000   0.00000   0.00000   0.00000   0.00000
         Item               Value     Threshold  Converged?
 Maximum Force            0.001904     0.000450     NO 
 RMS     Force            0.000531     0.000300     NO 
 Maximum Displacement     0.007723     0.001800     NO 
 RMS     Displacement     0.002432     0.001200     NO 
 Predicted change in Energy=-1.491923D-05
 GradGradGradGradGradGradGradGradGradGradGradGradGradGradGradGradGradGrad

                          Input orientation:                          
 ---------------------------------------------------------------------
 Center     Atomic      Atomic             Coordinates (Angstroms)
 Number     Number       Type             X           Y           Z
 ---------------------------------------------------------------------
      1          6           0       -2.023673   -1.397909    0.000000
      2          7           0       -0.691697   -1.381069    0.000000
      3          6           0       -0.889325    0.881848    0.000000
      4          1           0       -2.507097   -2.368160    0.000000
      5          7           0       -2.815370   -0.323104    0.000000
      6          7           0       -2.231676    0.849833    0.000000
      7          7           0       -0.105969   -0.205660    0.000000
      8          6           0       -0.233112    2.224611    0.000000
      9          1           0        0.850319    2.107444    0.000000
     10          1           0       -0.541751    2.790682   -0.882633
     11          1           0       -0.541751    2.790682    0.882633
 ---------------------------------------------------------------------
                    Distance matrix (angstroms):
                    1          2          3          4          5
     1  C    0.000000
     2  N    1.332082   0.000000
     3  C    2.546377   2.271530   0.000000
     4  H    1.084014   2.066404   3.630391   0.000000
     5  N    1.334912   2.372610   2.271907   2.068161   0.000000
     6  N    2.257345   2.710804   1.342733   3.229758   1.310145
     7  N    2.258107   1.313264   1.340269   3.231381   2.711946
     8  C    4.040885   3.634725   1.494532   5.124895   3.627521
     9  H    4.532915   3.814123   2.128014   5.594933   4.398276
    10  H    4.529837   4.266735   2.131548   5.590642   3.955256
    11  H    4.529837   4.266735   2.131548   5.590642   3.955256
                    6          7          8          9         10
     6  N    0.000000
     7  N    2.373330   0.000000
     8  C    2.425752   2.433594   0.000000
     9  H    3.328705   2.502985   1.089748   0.000000
    10  H    2.720622   3.153889   1.093040   1.784297   0.000000
    11  H    2.720622   3.153889   1.093040   1.784297   1.765266
                   11
    11  H    0.000000
 Stoichiometry    C3H4N4
 Framework group  CS[SG(C3H2N4),X(H2)]
 Deg. of freedom    18
 Full point group                 CS      NOp   2
 Largest Abelian subgroup         CS      NOp   2
 Largest concise Abelian subgroup CS      NOp   2
                         Standard orientation:                         
 ---------------------------------------------------------------------
 Center     Atomic      Atomic             Coordinates (Angstroms)
 Number     Number       Type             X           Y           Z
 ---------------------------------------------------------------------
      1          6           0       -0.010238   -1.741866    0.000000
      2          7           0       -1.192791   -1.128667    0.000000
      3          6           0       -0.000000    0.804491    0.000000
      4          1           0       -0.014013   -2.825874    0.000000
      5          7           0        1.179804   -1.137061    0.000000
      6          7           0        1.185008    0.173074    0.000000
      7          7           0       -1.188294    0.184589    0.000000
      8          6           0        0.016673    2.298930    0.000000
      9          1           0       -1.003985    2.680779    0.000000
     10          1           0        0.546647    2.666111    0.882633
     11          1           0        0.546647    2.666111   -0.882633
 ---------------------------------------------------------------------
 Rotational constants (GHZ):           6.1603580           2.8820276           1.9877083
 Standard basis: 6-31G(d) (6D, 7F)
 There are    83 symmetry adapted cartesian basis functions of A'  symmetry.
 There are    30 symmetry adapted cartesian basis functions of A"  symmetry.
 There are    83 symmetry adapted basis functions of A'  symmetry.
 There are    30 symmetry adapted basis functions of A"  symmetry.
   113 basis functions,   212 primitive gaussians,   113 cartesian basis functions
    25 alpha electrons       25 beta electrons
       nuclear repulsion energy       281.5817277638 Hartrees.
 NAtoms=   11 NActive=   11 NUniq=   10 SFac= 1.21D+00 NAtFMM=   60 NAOKFM=F Big=F
 Integral buffers will be    131072 words long.
 Raffenetti 2 integral format.
 Two-electron integral symmetry is turned on.
 ------------------------------------------------------------------------------
 Polarizable Continuum Model (PCM)
 =================================
 Model                : PCM.
 Atomic radii         : UFF (Universal Force Field).
 Polarization charges : Total charges.
 Charge compensation  : None.
 Solution method      : On-the-fly selection.
 Cavity type          : Scaled VdW (van der Waals Surface) (Alpha=1.100).
 Cavity algorithm     : GePol (No added spheres)
                        Default sphere list used, NSphG=   11.
                        Lebedev-Laikov grids with approx.  5.0 points / Ang**2.
                        Smoothing algorithm: York/Karplus (Gamma=1.0000).
                        Polarization charges: spherical gaussians, with
                                              point-specific exponents (IZeta= 3).
                        Self-potential: point-specific (ISelfS= 7).
                        Self-field    : sphere-specific E.n sum rule (ISelfD= 2).
 1st derivatives      : Analytical E(r).r(x)/FMM algorithm (CHGder, D1EAlg=3).
                        Cavity 1st derivative terms included.
 Solvent              : Benzene, Eps=   2.270600 Eps(inf)=   2.253301
 ------------------------------------------------------------------------------
 Spheres list:
 ISph  on   Nord     Re0    Alpha      Xe            Ye            Ze
    1   C      1    1.9255  1.100     -0.010238     -1.741866     -0.000000
    2   N      2    1.8300  1.100     -1.192791     -1.128667      0.000000
    3   C      3    1.9255  1.100     -0.000000      0.804491      0.000000
    4   H      4    1.4430  1.100     -0.014013     -2.825874     -0.000000
    5   N      5    1.8300  1.100      1.179804     -1.137061     -0.000000
    6   N      6    1.8300  1.100      1.185008      0.173074      0.000000
    7   N      7    1.8300  1.100     -1.188294      0.184589      0.000000
    8   C      8    1.9255  1.100      0.016673      2.298930      0.000000
    9   H      9    1.4430  1.100     -1.003985      2.680779      0.000000
   10   H     10    1.4430  1.100      0.546647      2.666111      0.882633
   11   H     11    1.4430  1.100      0.546647      2.666111     -0.882633
 ------------------------------------------------------------------------------
 One-electron integrals computed using PRISM.
 NBasis=   113 RedAO= T EigKep=  1.38D-03  NBF=    83    30
 NBsUse=   113 1.00D-06 EigRej= -1.00D+00 NBFU=    83    30
 Initial guess from the checkpoint file:  "2a_gs_2_opt_freq.chk"
 B after Tr=    -0.000000    0.000000   -0.000000
         Rot=    1.000000    0.000000    0.000000   -0.000003 Ang=  -0.00 deg.
 Initial guess orbital symmetries:
       Occupied  (A') (A') (A') (A') (A') (A') (A') (A') (A') (A')
                 (A') (A') (A') (A') (A') (A") (A') (A") (A') (A")
                 (A') (A') (A') (A") (A')
       Virtual   (A") (A") (A") (A') (A') (A') (A") (A') (A') (A')
                 (A') (A') (A') (A') (A") (A') (A") (A') (A') (A')
                 (A") (A') (A') (A') (A') (A") (A') (A") (A") (A')
                 (A') (A') (A") (A') (A') (A") (A') (A') (A') (A')
                 (A') (A") (A') (A') (A") (A') (A") (A') (A") (A")
                 (A") (A') (A') (A') (A') (A') (A') (A") (A') (A')
                 (A") (A') (A') (A") (A') (A") (A') (A") (A') (A")
                 (A") (A') (A') (A') (A') (A") (A') (A') (A') (A')
                 (A') (A') (A') (A') (A') (A') (A') (A')
 Keep R1 ints in memory in symmetry-blocked form, NReq=32039445.
 Requested convergence on RMS density matrix=1.00D-08 within 128 cycles.
 Requested convergence on MAX density matrix=1.00D-06.
 Requested convergence on             energy=1.00D-06.
 No special actions if energy rises.
 Inv3:  Mode=1 IEnd=     3557763.
 Iteration    1 A*A^-1 deviation from unit magnitude is 3.55D-15 for     40.
 Iteration    1 A*A^-1 deviation from orthogonality  is 1.67D-15 for   1012     26.
 Iteration    1 A^-1*A deviation from unit magnitude is 3.22D-15 for    542.
 Iteration    1 A^-1*A deviation from orthogonality  is 1.78D-15 for    999     77.
 Error on total polarization charges =  0.00413
 SCF Done:  E(RM062X) =  -335.509947529     A.U. after   10 cycles
            NFock= 10  Conv=0.40D-08     -V/T= 2.0082
 D1PCM: PCM CHGder 1st derivatives, ID1Alg=3 FixD1E=F DoIter=F DoCFld=F I1PDM=0.
 Calling FoFJK, ICntrl=      2127 FMM=F ISym2X=1 I1Cent= 0 IOpClX= 0 NMat=1 NMatS=1 NMatT=0.
 ***** Axes restored to original set *****
 -------------------------------------------------------------------
 Center     Atomic                   Forces (Hartrees/Bohr)
 Number     Number              X              Y              Z
 -------------------------------------------------------------------
      1        6           0.000303170   -0.000522523   -0.000000000
      2        7          -0.000536205   -0.000306978   -0.000000000
      3        6           0.000531979    0.000019538   -0.000000000
      4        1          -0.000022483    0.000034985    0.000000000
      5        7          -0.000013979    0.000262379    0.000000000
      6        7          -0.000310079   -0.000195109   -0.000000000
      7        7          -0.000020134    0.000559037    0.000000000
      8        6           0.000143391    0.000023849    0.000000000
      9        1          -0.000027818    0.000020263   -0.000000000
     10        1          -0.000023920    0.000052279    0.000021948
     11        1          -0.000023920    0.000052279   -0.000021948
 -------------------------------------------------------------------
 Cartesian Forces:  Max     0.000559037 RMS     0.000218665

 GradGradGradGradGradGradGradGradGradGradGradGradGradGradGradGradGradGrad
 Berny optimization.
 Using GEDIIS/GDIIS optimizer.
 FormGI is forming the generalized inverse of G from B-inverse, IUseBI=4.
 Internal  Forces:  Max     0.000570116 RMS     0.000143895
 Search for a local minimum.
 Step number   4 out of a maximum of   50
 All quantities printed in internal units (Hartrees-Bohrs-Radians)
 Mixed Optimization -- En-DIIS/RFO-DIIS
 Swapping is turned off.
 Update second derivatives using D2CorX and points    1    2    3    4
 DE= -1.34D-05 DEPred=-1.49D-05 R= 9.02D-01
 TightC=F SS=  1.41D+00  RLast= 9.43D-03 DXNew= 2.8284D-01 2.8295D-02
 Trust test= 9.02D-01 RLast= 9.43D-03 DXMaxT set to 1.68D-01
 ITU=  1  1  1  0
     Eigenvalues ---    0.00596   0.01325   0.02115   0.02163   0.02211
     Eigenvalues ---    0.02216   0.07289   0.07306   0.15649   0.15999
     Eigenvalues ---    0.16000   0.16097   0.24305   0.24999   0.25005
     Eigenvalues ---    0.27998   0.33545   0.34776   0.34841   0.34859
     Eigenvalues ---    0.36064   0.47374   0.47967   0.51320   0.52853
     Eigenvalues ---    0.58831   0.61622
 En-DIIS/RFO-DIIS/Sim-DIIS IScMMF=       -3 using points:     4    3
 RFO step:  Lambda=-1.72070989D-06.
 DidBck=F Rises=F RFO-DIIS coefs:    0.94905    0.05095
 Iteration  1 RMS(Cart)=  0.00044664 RMS(Int)=  0.00000005
 Iteration  2 RMS(Cart)=  0.00000006 RMS(Int)=  0.00000002
 ClnCor:  largest displacement from symmetrization is 1.24D-11 for atom     9.
 Variable       Old X    -DE/DX   Delta X   Delta X   Delta X     New X
                                 (Linear)    (Quad)   (Total)
    R1        2.51727  -0.00027  -0.00010  -0.00035  -0.00045   2.51682
    R2        2.04849  -0.00002   0.00003  -0.00011  -0.00008   2.04841
    R3        2.52262   0.00023  -0.00017   0.00065   0.00047   2.52309
    R4        2.48171   0.00057   0.00000   0.00082   0.00082   2.48253
    R5        2.53740   0.00033  -0.00013   0.00074   0.00061   2.53800
    R6        2.53274  -0.00021  -0.00007  -0.00029  -0.00036   2.53238
    R7        2.82426   0.00016   0.00015   0.00008   0.00023   2.82448
    R8        2.47581   0.00003   0.00006  -0.00018  -0.00012   2.47569
    R9        2.05933  -0.00003   0.00001  -0.00009  -0.00008   2.05925
   R10        2.06555   0.00002  -0.00000   0.00006   0.00005   2.06560
   R11        2.06555   0.00002  -0.00000   0.00006   0.00005   2.06560
    A1        2.04568   0.00015   0.00007   0.00046   0.00052   2.04621
    A2        2.19302  -0.00023  -0.00016  -0.00042  -0.00058   2.19244
    A3        2.04448   0.00007   0.00009  -0.00004   0.00005   2.04453
    A4        2.04574   0.00013   0.00010   0.00021   0.00031   2.04605
    A5        2.17119  -0.00027  -0.00016  -0.00052  -0.00068   2.17051
    A6        2.04921   0.00013   0.00007   0.00026   0.00033   2.04954
    A7        2.06279   0.00014   0.00009   0.00026   0.00035   2.06314
    A8        2.04497   0.00013   0.00008   0.00021   0.00029   2.04526
    A9        2.05640   0.00013   0.00008   0.00027   0.00035   2.05675
   A10        2.05506   0.00010   0.00006   0.00024   0.00030   2.05536
   A11        1.91764   0.00002   0.00011  -0.00006   0.00004   1.91768
   A12        1.91911   0.00003   0.00003   0.00006   0.00009   1.91920
   A13        1.91911   0.00003   0.00003   0.00006   0.00009   1.91920
   A14        1.91390  -0.00001  -0.00010   0.00027   0.00017   1.91407
   A15        1.91390  -0.00001  -0.00010   0.00027   0.00017   1.91407
   A16        1.87981  -0.00007   0.00004  -0.00060  -0.00057   1.87925
    D1        3.14159  -0.00000   0.00000  -0.00000   0.00000   3.14159
    D2        0.00000  -0.00000   0.00000  -0.00000   0.00000   0.00000
    D3        0.00000   0.00000   0.00000   0.00000   0.00000   0.00000
    D4        3.14159   0.00000   0.00000   0.00000   0.00000   3.14159
    D5        0.00000  -0.00000   0.00000  -0.00000   0.00000   0.00000
    D6        0.00000  -0.00000   0.00000   0.00000   0.00000   0.00000
    D7        3.14159  -0.00000   0.00000  -0.00000   0.00000   3.14159
    D8        0.00000   0.00000   0.00000   0.00000   0.00000   0.00000
    D9        3.14159   0.00000   0.00000   0.00000   0.00000   3.14159
   D10        3.14159   0.00000   0.00000  -0.00000   0.00000   3.14159
   D11       -1.03349   0.00002  -0.00004   0.00034   0.00030  -1.03320
   D12        1.03349  -0.00002   0.00004  -0.00034  -0.00030   1.03320
   D13        0.00000  -0.00000   0.00000  -0.00000   0.00000   0.00000
   D14        2.10810   0.00002  -0.00004   0.00034   0.00030   2.10839
   D15       -2.10810  -0.00002   0.00004  -0.00034  -0.00030  -2.10839
   D16        0.00000  -0.00000   0.00000  -0.00000   0.00000   0.00000
         Item               Value     Threshold  Converged?
 Maximum Force            0.000570     0.000450     NO 
 RMS     Force            0.000144     0.000300     YES
 Maximum Displacement     0.001261     0.001800     YES
 RMS     Displacement     0.000447     0.001200     YES
 Predicted change in Energy=-8.603577D-07
 GradGradGradGradGradGradGradGradGradGradGradGradGradGradGradGradGradGrad

                          Input orientation:                          
 ---------------------------------------------------------------------
 Center     Atomic      Atomic             Coordinates (Angstroms)
 Number     Number       Type             X           Y           Z
 ---------------------------------------------------------------------
      1          6           0       -2.023821   -1.398576    0.000000
      2          7           0       -0.692088   -1.381355    0.000000
[...]
     10        1          -0.000003898    0.000010299    0.000005863
     11        1          -0.000003898    0.000010299   -0.000005863
 -------------------------------------------------------------------
 Cartesian Forces:  Max     0.000329623 RMS     0.000141935
 FormGI is forming the generalized inverse of G from B-inverse, IUseBI=4.

 GradGradGradGradGradGradGradGradGradGradGradGradGradGradGradGradGradGrad
 Berny optimization.
 Internal  Forces:  Max     0.000210585 RMS     0.000071855
 Search for a local minimum.
 Step number   1 out of a maximum of    2
 All quantities printed in internal units (Hartrees-Bohrs-Radians)
 Second derivative matrix not updated -- analytic derivatives used.
 ITU=  0
     Eigenvalues ---    0.00011   0.01125   0.02226   0.03052   0.03892
     Eigenvalues ---    0.05636   0.05735   0.05744   0.11952   0.12984
     Eigenvalues ---    0.13772   0.14938   0.16215   0.24111   0.26453
     Eigenvalues ---    0.27526   0.28635   0.34480   0.35092   0.35737
     Eigenvalues ---    0.36340   0.37755   0.47478   0.49279   0.54549
     Eigenvalues ---    0.55006   0.62422
 Angle between quadratic step and forces=  15.73 degrees.
 Linear search not attempted -- first point.
 Iteration  1 RMS(Cart)=  0.00041054 RMS(Int)=  0.00000013
 Iteration  2 RMS(Cart)=  0.00000017 RMS(Int)=  0.00000001
 ClnCor:  largest displacement from symmetrization is 1.91D-10 for atom    11.
 Variable       Old X    -DE/DX   Delta X   Delta X   Delta X     New X
                                 (Linear)    (Quad)   (Total)
    R1        2.51682  -0.00021   0.00000  -0.00123  -0.00123   2.51559
    R2        2.04841   0.00000   0.00000   0.00000   0.00000   2.04841
    R3        2.52309   0.00016   0.00000   0.00116   0.00116   2.52425
    R4        2.48253   0.00021   0.00000   0.00123   0.00123   2.48376
    R5        2.53800   0.00017   0.00000   0.00123   0.00123   2.53923
    R6        2.53238  -0.00020   0.00000  -0.00126  -0.00126   2.53112
    R7        2.82448   0.00003   0.00000   0.00005   0.00005   2.82454
    R8        2.47569  -0.00018   0.00000  -0.00119  -0.00119   2.47450
    R9        2.05925  -0.00001   0.00000  -0.00003  -0.00003   2.05922
   R10        2.06560   0.00000   0.00000   0.00001   0.00001   2.06561
   R11        2.06560   0.00000   0.00000   0.00001   0.00001   2.06561
    A1        2.04621   0.00004   0.00000   0.00058   0.00058   2.04679
    A2        2.19244  -0.00003   0.00000  -0.00010  -0.00010   2.19234
    A3        2.04453  -0.00001   0.00000  -0.00047  -0.00047   2.04406
    A4        2.04605   0.00002   0.00000   0.00005   0.00005   2.04610
    A5        2.17051  -0.00002   0.00000  -0.00004  -0.00004   2.17047
    A6        2.04954  -0.00002   0.00000  -0.00054  -0.00054   2.04899
    A7        2.06314   0.00004   0.00000   0.00059   0.00059   2.06372
    A8        2.04526   0.00003   0.00000   0.00009   0.00009   2.04535
    A9        2.05675   0.00001   0.00000   0.00002   0.00002   2.05677
   A10        2.05536  -0.00000   0.00000  -0.00002  -0.00002   2.05534
   A11        1.91768   0.00002   0.00000   0.00017   0.00017   1.91786
   A12        1.91920   0.00001   0.00000  -0.00001  -0.00001   1.91918
   A13        1.91920   0.00001   0.00000  -0.00001  -0.00001   1.91918
   A14        1.91407  -0.00001   0.00000   0.00001   0.00001   1.91408
   A15        1.91407  -0.00001   0.00000   0.00001   0.00001   1.91408
   A16        1.87925  -0.00001   0.00000  -0.00017  -0.00017   1.87907
    D1        3.14159   0.00000   0.00000  -0.00000   0.00000   3.14159
    D2        0.00000   0.00000   0.00000  -0.00000   0.00000   0.00000
    D3        0.00000   0.00000   0.00000   0.00000   0.00000   0.00000
    D4        3.14159   0.00000   0.00000   0.00000   0.00000   3.14159
    D5        0.00000  -0.00000   0.00000  -0.00000   0.00000   0.00000
    D6        0.00000   0.00000   0.00000  -0.00000   0.00000   0.00000
    D7        3.14159  -0.00000   0.00000  -0.00000   0.00000   3.14159
    D8        0.00000   0.00000   0.00000   0.00000   0.00000   0.00000
    D9        3.14159   0.00000   0.00000   0.00000   0.00000   3.14159
   D10        3.14159   0.00000   0.00000  -0.00000   0.00000   3.14159
   D11       -1.03320   0.00001   0.00000   0.00011   0.00011  -1.03309
   D12        1.03320  -0.00001   0.00000  -0.00011  -0.00011   1.03309
   D13        0.00000   0.00000   0.00000  -0.00000   0.00000   0.00000
   D14        2.10839   0.00001   0.00000   0.00011   0.00011   2.10851
   D15       -2.10839  -0.00001   0.00000  -0.00011  -0.00011  -2.10851
   D16        0.00000  -0.00000   0.00000   0.00000   0.00000   0.00000
         Item               Value     Threshold  Converged?
 Maximum Force            0.000211     0.000450     YES
 RMS     Force            0.000072     0.000300     YES
 Maximum Displacement     0.001249     0.001800     YES
 RMS     Displacement     0.000411     0.001200     YES
 Predicted change in Energy=-7.251110D-07
 Optimization completed.
    -- Stationary point found.
                           ----------------------------
                           !   Optimized Parameters   !
                           ! (Angstroms and Degrees)  !
 --------------------------                            --------------------------
 ! Name  Definition              Value          Derivative Info.                !
 --------------------------------------------------------------------------------
 ! R1    R(1,2)                  1.3318         -DE/DX =   -0.0002              !
 ! R2    R(1,4)                  1.084          -DE/DX =    0.0                 !
 ! R3    R(1,5)                  1.3352         -DE/DX =    0.0002              !
 ! R4    R(2,7)                  1.3137         -DE/DX =    0.0002              !
 ! R5    R(3,6)                  1.3431         -DE/DX =    0.0002              !
 ! R6    R(3,7)                  1.3401         -DE/DX =   -0.0002              !
 ! R7    R(3,8)                  1.4947         -DE/DX =    0.0                 !
 ! R8    R(5,6)                  1.3101         -DE/DX =   -0.0002              !
 ! R9    R(8,9)                  1.0897         -DE/DX =    0.0                 !
 ! R10   R(8,10)                 1.0931         -DE/DX =    0.0                 !
 ! R11   R(8,11)                 1.0931         -DE/DX =    0.0                 !
 ! A1    A(2,1,4)              117.239          -DE/DX =    0.0                 !
 ! A2    A(2,1,5)              125.6178         -DE/DX =    0.0                 !
 ! A3    A(4,1,5)              117.1432         -DE/DX =    0.0                 !
 ! A4    A(1,2,7)              117.23           -DE/DX =    0.0                 !
 ! A5    A(6,3,7)              124.3611         -DE/DX =    0.0                 !
 ! A6    A(6,3,8)              117.4299         -DE/DX =    0.0                 !
 ! A7    A(7,3,8)              118.209          -DE/DX =    0.0                 !
 ! A8    A(1,5,6)              117.1849         -DE/DX =    0.0                 !
 ! A9    A(3,6,5)              117.8429         -DE/DX =    0.0                 !
 ! A10   A(2,7,3)              117.7633         -DE/DX =    0.0                 !
 ! A11   A(3,8,9)              109.8752         -DE/DX =    0.0                 !
 ! A12   A(3,8,10)             109.9619         -DE/DX =    0.0                 !
 ! A13   A(3,8,11)             109.9619         -DE/DX =    0.0                 !
 ! A14   A(9,8,10)             109.6683         -DE/DX =    0.0                 !
 ! A15   A(9,8,11)             109.6683         -DE/DX =    0.0                 !
 ! A16   A(10,8,11)            107.6728         -DE/DX =    0.0                 !
 ! D1    D(4,1,2,7)            180.0            -DE/DX =    0.0                 !
 ! D2    D(5,1,2,7)              0.0            -DE/DX =    0.0                 !
 ! D3    D(2,1,5,6)              0.0            -DE/DX =    0.0                 !
 ! D4    D(4,1,5,6)            180.0            -DE/DX =    0.0                 !
 ! D5    D(1,2,7,3)              0.0            -DE/DX =    0.0                 !
 ! D6    D(7,3,6,5)              0.0            -DE/DX =    0.0                 !
 ! D7    D(8,3,6,5)            180.0            -DE/DX =    0.0                 !
 ! D8    D(6,3,7,2)              0.0            -DE/DX =    0.0                 !
 ! D9    D(8,3,7,2)            180.0            -DE/DX =    0.0                 !
 ! D10   D(6,3,8,9)            180.0            -DE/DX =    0.0                 !
 ! D11   D(6,3,8,10)           -59.1979         -DE/DX =    0.0                 !
 ! D12   D(6,3,8,11)            59.1979         -DE/DX =    0.0                 !
 ! D13   D(7,3,8,9)              0.0            -DE/DX =    0.0                 !
 ! D14   D(7,3,8,10)           120.8021         -DE/DX =    0.0                 !
 ! D15   D(7,3,8,11)          -120.8021         -DE/DX =    0.0                 !
 ! D16   D(1,5,6,3)              0.0            -DE/DX =    0.0                 !
 --------------------------------------------------------------------------------
 GradGradGradGradGradGradGradGradGradGradGradGradGradGradGradGradGradGrad


 ----------------------------------------------------------------------

 Electric dipole moment (input orientation):
 (Debye = 10**-18 statcoulomb cm , SI units = C m)
                  (au)            (Debye)         (10**-30 SI)
   Tot        0.336697D+00      0.855798D+00      0.285464D+01
   x          0.119639D+00      0.304092D+00      0.101434D+01
   y          0.314724D+00      0.799949D+00      0.266834D+01
   z          0.000000D+00      0.000000D+00      0.000000D+00

 Dipole polarizability, Alpha (input orientation).
 (esu units = cm**3 , SI units = C**2 m**2 J**-1)
 Alpha(0;0):
               (au)            (10**-24 esu)      (10**-40 SI)
   iso        0.564627D+02      0.836690D+01      0.930943D+01
   aniso      0.409907D+02      0.607419D+01      0.675845D+01
   xx         0.620848D+02      0.920001D+01      0.102364D+02
   yx         0.764077D+01      0.113225D+01      0.125979D+01
   yy         0.755146D+02      0.111901D+02      0.124507D+02
   zx         0.000000D+00      0.000000D+00      0.000000D+00
   zy         0.000000D+00      0.000000D+00      0.000000D+00
   zz         0.317886D+02      0.471058D+01      0.524123D+01

 ----------------------------------------------------------------------

 Dipole orientation:
     6         -2.46376297          0.93657126         -3.82940138
     7         -0.27570796          0.10480722         -2.90475163
     6         -2.02152858          0.76846092          0.96106430
     1         -2.65341329          1.00866466         -5.86773532
     7         -4.44557126          1.68993297         -2.46160071
     7         -4.21803706          1.60343845          0.00209479
     7         -0.04622485          0.01757185         -0.43439050
     6         -1.78088160          0.67698173          3.77379077
     1          0.08143731         -0.03095746          4.29444648
     1         -2.05368182          2.56474300          4.56666155
     1         -3.23880473         -0.55286489          4.56666155

 Electric dipole moment (dipole orientation):
 (Debye = 10**-18 statcoulomb cm , SI units = C m)
                  (au)            (Debye)         (10**-30 SI)
   Tot        0.336697D+00      0.855798D+00      0.285464D+01
   x          0.000000D+00      0.000000D+00      0.000000D+00
   y          0.000000D+00      0.000000D+00      0.000000D+00
   z          0.336697D+00      0.855798D+00      0.285464D+01

 Dipole polarizability, Alpha (dipole orientation).
 (esu units = cm**3 , SI units = C**2 m**2 J**-1)
 Alpha(0;0):
               (au)            (10**-24 esu)      (10**-40 SI)
   iso        0.564627D+02      0.836690D+01      0.930943D+01
   aniso      0.409907D+02      0.607419D+01      0.675845D+01
   xx         0.553063D+02      0.819555D+01      0.911878D+01
   yx        -0.894000D+01     -0.132477D+01     -0.147401D+01
   yy         0.351870D+02      0.521418D+01      0.580156D+01
   zx         0.116908D+01      0.173239D+00      0.192755D+00
   zy        -0.444411D+00     -0.658549D-01     -0.732735D-01
   zz         0.788946D+02      0.116910D+02      0.130080D+02

 ----------------------------------------------------------------------
 Unable to Open any file for archive entry.
 1\1\GINC-NODE-002\Freq\RM062X\6-31G(d)\C3H4N4\JP2658\11-Dec-2023\0\\#N
  Geom=AllCheck Guess=TCheck SCRF=Check GenChk RM062X/6-31G(d) Freq\\**
 ***\\0,1\C,-2.0238211401,-1.3985759851,0.\N,-0.6920876028,-1.381354655
 ,0.\C,-0.8890350283,0.8820361294,0.\H,-2.5074538606,-2.3686742569,0.\N
 ,-2.8153572273,-0.3233405491,0.\N,-2.2316951971,0.8495392616,0.\N,-0.1
 061408941,-0.205569776,0.\C,-0.232804666,2.2249240376,0.\H,0.850592526
 ,2.1078376651,0.\H,-0.5416484549,2.7911890643,-0.8824732218\H,-0.54164
 84549,2.7911890643,0.8824732218\\Version=ES64L-G16RevC.01\State=1-A'\H
 F=-335.5099487\RMSD=4.664e-09\RMSF=1.419e-04\ZeroPoint=0.0802939\Therm
 al=0.0861938\ETot=-335.4237549\HTot=-335.4228107\GTot=-335.4600785\Dip
 ole=0.1196388,0.3147242,0.\DipoleDeriv=-0.0889472,0.3156629,0.,0.32515
 58,0.4025259,0.,0.,0.,0.3510457,0.1179359,-0.344764,0.,0.2398783,-0.33
 91369,0.,0.,0.,-0.2463104,-0.0166092,0.5100581,0.,0.5216616,0.8503862,
 0.,0.,0.,0.40582,0.0845899,-0.0459637,0.,-0.0451049,0.0169995,0.,0.,0.
 ,0.1151936,-0.1272356,0.0536392,0.,-0.5363058,-0.0981052,0.,0.,0.,-0.2
 458481,0.0089123,-0.4871253,0.,0.1859465,-0.4304121,0.,0.,0.,-0.254168
 1,-0.1374773,0.0984175,0.,-0.5820394,-0.2985776,0.,0.,0.,-0.2396079,0.
 07959,-0.0224034,0.,-0.1163063,-0.2224415,0.,0.,0.,0.0074623,-0.038083
 3,-0.0272982,0.,0.0522708,0.0559763,0.,0.,0.,0.0934345,0.0586623,-0.02
 51115,-0.058222,-0.0225782,0.0313926,0.0394107,-0.0360503,0.0574594,0.
 0064892,0.0586623,-0.0251115,0.058222,-0.0225782,0.0313926,-0.0394107,
 0.0360503,-0.0574594,0.0064892\Polar=62.0847538,7.6407733,75.5146283,0
 .,0.,31.7885939\Quadrupole=-4.7479899,3.4782407,1.2697492,5.2780463,0.
 ,0.\PG=CS [SG(C3H2N4),X(H2)]\NImag=0\\0.69509008,0.08296640,0.81123058
 ,0.,0.,0.14796354,-0.32579283,-0.03316638,0.,0.55826437,0.05081494,-0.
 16423402,0.,0.06224212,0.52858245,0.,0.,-0.06850384,0.,0.,0.08609765,-
 0.11305435,0.05512448,0.,0.12387921,0.06260184,0.,0.65708516,0.0542220
 0,-0.02802272,0.,-0.04298072,-0.11081594,0.,0.03897297,0.72896164,0.,0
 .,-0.03518529,0.,0.,0.03137146,0.,0.,0.19106356,-0.11345819,-0.1211531
 6,0.,-0.01951291,-0.03202850,0.,-0.00122218,0.00074985,0.,0.12848702,-
 0.12106156,-0.29640994,0.,0.00006157,0.00561737,0.,0.00080811,0.000002
 53,0.,0.12396969,0.31541653,0.,0.,-0.04358510,0.,0.,-0.00285092,0.,0.,
 -0.00031156,0.,0.,0.02851343,-0.22824245,0.11789306,0.,-0.06068546,0.0
 3604563,0.,-0.03349397,-0.05824909,0.,0.01180091,-0.00850371,0.,0.4797
 4958,0.03358673,-0.25178354,0.,0.15419912,0.08330543,0.,-0.16442951,0.
 04607443,0.,0.02369146,-0.02553942,0.,0.01179863,0.60895028,0.,0.,-0.0
 6943658,0.,0.,0.05097287,0.,0.,0.03272844,0.,0.,-0.00250948,0.,0.,0.08
 628712,0.12076008,-0.04342954,0.,-0.09835902,-0.07226386,0.,-0.2900571
 8,-0.02594963,0.,-0.00111437,0.00354166,0.,-0.17623039,-0.07042356,0.,
 0.53147181,0.06231240,-0.11334867,0.,-0.07581725,-0.03597058,0.,0.0548
 8053,-0.16126459,0.,0.00496608,-0.00205445,0.,-0.11378494,-0.31768054,
 0.,0.07429906,0.55440844,0.,0.,0.03572761,0.,0.,-0.03684937,0.,0.,-0.0
 7303627,0.,0.,0.01149330,0.,0.,-0.07148974,0.,0.,0.08254919,-0.0381263
 9,-0.05634564,0.,-0.17416136,-0.11021034,0.,-0.22510669,0.10923756,0.,
 -0.00564094,0.00143482,0.,0.01258165,0.00684381,0.,-0.05654977,0.03857
 529,0.,0.47511620,-0.16283675,0.04515218,0.,-0.06649490,-0.30620185,0.
 ,0.02590198,-0.23754634,0.,0.00009873,0.00264182,0.,0.01173131,-0.1476
 5754,0.,0.14497690,0.08052342,0.,0.02208016,0.60735364,0.,0.,0.0341201
 5,0.,0.,-0.07207019,0.,0.,-0.07108728,0.,0.,0.01208220,0.,0.,-0.036496
 35,0.,0.,0.04811586,0.,0.,0.08424205,0.00075981,-0.00034553,0.,-0.0027
 8506,0.00427083,0.,-0.11423634,-0.06556472,0.,0.00055839,-0.00029228,0
 .,-0.00579813,0.00094951,0.,-0.02615979,-0.03943163,0.,0.01246749,0.02
 148141,0.,0.61117756,0.00001749,-0.00329542,0.,0.00194438,0.00189524,0
 .,-0.06008886,-0.20782702,0.,-0.00024097,0.00034856,0.,0.00516361,0.00
 662625,0.,-0.01173293,-0.00117674,0.,-0.00664224,-0.03911857,0.,-0.036
 19560,0.53324749,0.,0.,-0.00105721,0.,0.,0.01349188,0.,0.,-0.07789267,
 0.,0.,-0.00287855,0.,0.,0.00897882,0.,0.,0.00119956,0.,0.,0.00119602,0
 .,0.,0.56493850,0.00077896,-0.00005016,0.,0.00001863,-0.00060253,0.,-0
 .01262605,0.00294893,0.,0.00011049,-0.00008668,0.,-0.00043627,0.000810
 52,0.,-0.00202600,-0.00360597,0.,0.00021276,0.00366123,0.,-0.33288213,
 0.02886945,0.,0.35788760,0.00047082,-0.00000881,0.,-0.00001025,0.00018
 610,0.,-0.03073301,0.00554783,0.,0.00017476,-0.00007505,0.,-0.00178043
 ,-0.00009495,0.,-0.00377345,-0.00674044,0.,-0.00081101,0.00214629,0.,0
 .03652051,-0.05437516,0.,-0.03250586,0.05671082,0.,0.,0.00016455,0.,0.
 ,-0.00042737,0.,0.,-0.00259938,0.,0.,-0.00003199,0.,0.,0.00034093,0.,0
 .,0.00144272,0.,0.,-0.00013392,0.,0.,-0.04956766,0.,0.,0.04714425,0.00
 064264,-0.00074677,0.00021937,-0.00043279,-0.00043506,-0.00089404,0.00
 441619,-0.00669357,0.01487964,-0.00000412,0.00006419,0.00011628,0.0003
 7726,0.00148664,-0.00045618,-0.00086769,-0.00119679,-0.00098696,-0.000
 39648,-0.00030003,0.00018510,-0.07155090,0.03945284,-0.06578476,-0.005
 51899,0.01622396,-0.02699662,0.07109722,-0.00024623,0.00036018,0.00027
 562,0.00001115,-0.00118210,-0.00219164,0.00848073,-0.01755491,0.025399
 61,-0.00011397,0.00002602,0.00048871,-0.00015703,-0.00110021,-0.001614
 81,0.00237768,0.00165207,-0.00038863,-0.00208120,-0.00364653,0.0007433
 8,0.03930374,-0.11816231,0.11792871,0.00028054,-0.00164831,0.00078799,
 -0.04223842,0.13112002,0.00025736,-0.00034542,-0.00010392,-0.00021218,
 -0.00037842,-0.00061609,0.00157770,-0.00179516,0.00247449,0.00000510,0
 .00000049,0.00003934,0.00028621,0.00050093,0.00031199,-0.00069850,-0.0
 0019578,0.00042357,0.00020914,-0.00053029,0.00001573,-0.06521077,0.117
 77692,-0.22920435,0.00058403,-0.00239464,0.00183393,0.07146004,-0.1270
 3379,0.24575030,0.00064264,-0.00074677,-0.00021937,-0.00043279,-0.0004
 3506,0.00089404,0.00441619,-0.00669357,-0.01487964,-0.00000412,0.00006
 419,-0.00011628,0.00037726,0.00148664,0.00045618,-0.00086769,-0.001196
 79,0.00098696,-0.00039648,-0.00030003,-0.00018510,-0.07155090,0.039452
 84,0.06578476,-0.00551899,0.01622396,0.02699662,0.00223766,-0.00561699
 ,-0.00825813,0.07109722,-0.00024623,0.00036018,-0.00027562,0.00001115,
 -0.00118210,0.00219164,0.00848073,-0.01755491,-0.02539961,-0.00011397,
 0.00002602,-0.00048871,-0.00015703,-0.00110021,0.00161481,0.00237768,0
 .00165207,0.00038863,-0.00208120,-0.00364653,-0.00074338,0.03930374,-0
 .11816231,-0.11792871,0.00028054,-0.00164831,-0.00078799,-0.00561699,0
 .01013607,0.01439516,-0.04223842,0.13112002,-0.00025736,0.00034542,-0.
 00010392,0.00021218,0.00037842,-0.00061609,-0.00157770,0.00179516,0.00
 247449,-0.00000510,-0.00000049,0.00003934,-0.00028621,-0.00050093,0.00
 031199,0.00069850,0.00019578,0.00042357,-0.00020914,0.00053029,0.00001
 573,0.06521077,-0.11777692,-0.22920435,-0.00058403,0.00239464,0.001833
 93,0.00825813,-0.01439516,-0.02092499,-0.07146004,0.12703379,0.2457503
 0\\-0.00031238,0.00018311,0.,0.00030895,0.00014956,0.,-0.00030293,0.00
 017159,0.,0.00002039,-0.00000762,0.,-0.00001240,-0.00029554,0.,0.00025
 940,0.00016985,0.,0.00003415,-0.00032962,0.,-0.00001071,-0.00000608,0.
 ,0.00000773,-0.00001465,0.,0.00000390,-0.00001030,-0.00000586,0.000003
 90,-0.00001030,0.00000586\\\@
 The archive entry for this job was punched.


 Everywhere is walking distance if you have the time.
                                    -- Steven Wright
 Job cpu time:       0 days  0 hours  3 minutes  9.9 seconds.
 Elapsed time:       0 days  0 hours  0 minutes 16.2 seconds.
 File lengths (MBytes):  RWF=     42 Int=      0 D2E=      0 Chk=      6 Scr=      1
 Normal termination of Gaussian 16 at Mon Dec 11 14:57:39 2023.
