Unloading slurm/anatra/current
  ERROR: No such file or directory on
    '/cm/local/modulefiles/slurm/anatra/current'
environment: line 0: unalias: gv: not found
environment: line 0: unalias: sl: not found
 Entering Gaussian System, Link 0=g16
 Initial command:
 /apps/gaussian/g16/C.01/g16/l1.exe "/local/jobs/1149216/Gau-846443.inp" -scrdir="/local/jobs/1149216/"
 Entering Link 1 = /apps/gaussian/g16/C.01/g16/l1.exe PID=    846446.
  
 Copyright (c) 1988-2019, Gaussian, Inc.  All Rights Reserved.
  
 This is part of the Gaussian(R) 16 program.  It is based on
 the Gaussian(R) 09 system (copyright 2009, Gaussian, Inc.),
 the Gaussian(R) 03 system (copyright 2003, Gaussian, Inc.),
 the Gaussian(R) 98 system (copyright 1998, Gaussian, Inc.),
 the Gaussian(R) 94 system (copyright 1995, Gaussian, Inc.),
 the Gaussian 92(TM) system (copyright 1992, Gaussian, Inc.),
 the Gaussian 90(TM) system (copyright 1990, Gaussian, Inc.),
 the Gaussian 88(TM) system (copyright 1988, Gaussian, Inc.),
 the Gaussian 86(TM) system (copyright 1986, Carnegie Mellon
 University), and the Gaussian 82(TM) system (copyright 1983,
 Carnegie Mellon University). Gaussian is a federally registered
 trademark of Gaussian, Inc.
  
 This software contains proprietary and confidential information,
 including trade secrets, belonging to Gaussian, Inc.
  
 This software is provided under written license and may be
 used, copied, transmitted, or stored only in accord with that
 written license.
  
 The following legend is applicable only to US Government
 contracts under FAR:
  
                    RESTRICTED RIGHTS LEGEND
  
 Use, reproduction and disclosure by the US Government is
 subject to restrictions as set forth in subparagraphs (a)
 and (c) of the Commercial Computer Software - Restricted
 Rights clause in FAR 52.227-19.
  
 Gaussian, Inc.
 340 Quinnipiac St., Bldg. 40, Wallingford CT 06492
  
  
 ---------------------------------------------------------------
 Warning -- This program may not be used in any manner that
 competes with the business of Gaussian, Inc. or will provide
 assistance to any competitor of Gaussian, Inc.  The licensee
 of this program is prohibited from giving any competitor of
 Gaussian, Inc. access to this program.  By using this program,
 the user acknowledges that Gaussian, Inc. is engaged in the
 business of creating and licensing software in the field of
 computational chemistry and represents and warrants to the
 licensee that it is not a competitor of Gaussian, Inc. and that
 it will not use this program in any manner prohibited above.
 ---------------------------------------------------------------
  

 Cite this work as:
 Gaussian 16, Revision C.01,
 M. J. Frisch, G. W. Trucks, H. B. Schlegel, G. E. Scuseria, 
 M. A. Robb, J. R. Cheeseman, G. Scalmani, V. Barone, 
 G. A. Petersson, H. Nakatsuji, X. Li, M. Caricato, A. V. Marenich, 
 J. Bloino, B. G. Janesko, R. Gomperts, B. Mennucci, H. P. Hratchian, 
 J. V. Ortiz, A. F. Izmaylov, J. L. Sonnenberg, D. Williams-Young, 
 F. Ding, F. Lipparini, F. Egidi, J. Goings, B. Peng, A. Petrone, 
 T. Henderson, D. Ranasinghe, V. G. Zakrzewski, J. Gao, N. Rega, 
 G. Zheng, W. Liang, M. Hada, M. Ehara, K. Toyota, R. Fukuda, 
 J. Hasegawa, M. Ishida, T. Nakajima, Y. Honda, O. Kitao, H. Nakai, 
 T. Vreven, K. Throssell, J. A. Montgomery, Jr., J. E. Peralta, 
 F. Ogliaro, M. J. Bearpark, J. J. Heyd, E. N. Brothers, K. N. Kudin, 
 V. N. Staroverov, T. A. Keith, R. Kobayashi, J. Normand, 
 K. Raghavachari, A. P. Rendell, J. C. Burant, S. S. Iyengar, 
 J. Tomasi, M. Cossi, J. M. Millam, M. Klene, C. Adamo, R. Cammi, 
 J. W. Ochterski, R. L. Martin, K. Morokuma, O. Farkas, 
 J. B. Foresman, and D. J. Fox, Gaussian, Inc., Wallingford CT, 2019.
 
 ******************************************
 Gaussian 16:  ES64L-G16RevC.01  3-Jul-2019
                 9-Dec-2023 
 ******************************************
 %chk=2a_gs_2_opt_hess.chk
 %nprocshared=12
 Will use up to   12 processors via shared memory.
 %mem=48GB
 ----------------------------------------------------------------------
 # m062x 6-31g(d) scrf=(iefpcm,solvent=benzene) opt=(calcfc,maxcycles=5
 0,maxstep=10) freq=noraman
 ----------------------------------------------------------------------
 1/6=50,8=10,10=4,18=20,19=15,26=3,38=1/1,3;
 2/9=110,12=2,17=6,18=5,40=1/2;
 3/5=1,6=6,7=1,11=2,25=1,30=1,70=2201,71=2,72=12,74=-55,140=1/1,2,3;
 4//1;
 5/5=2,38=5,53=12/2;
 8/6=4,10=90,11=11/1;
 11/6=1,8=1,9=11,15=111,16=1/1,2,10;
 10/6=1,13=1/2;
 6/7=2,8=2,9=2,10=2,28=1/1;
 7/10=1,25=1/1,2,3,16;
 1/6=50,8=10,10=4,18=20,19=15,26=3/3(2);
 2/9=110/2;
 99//99;
 2/9=110/2;
 3/5=1,6=6,7=1,11=2,25=1,30=1,70=2205,71=1,72=12,74=-55/1,2,3;
 4/5=5,16=3,69=1/1;
 5/5=2,38=5,53=12/2;
 7//1,2,3,16;
 1/6=50,8=10,18=20,19=15,26=3/3(-5);
 2/9=110/2;
 6/7=2,8=2,9=2,10=2,19=2,28=1/1;
 99/9=1/99;
 -----
 *****
 -----
 Symbolic Z-matrix:
 Charge =  0 Multiplicity = 1
 C                    -2.0498   -1.4458    0. 
 N                    -0.6894   -1.4152    0. 
 C                    -0.8863    0.8911    0. 
 H                    -2.5308   -2.4118    0. 
 N                    -2.8451   -0.3417    0. 
 N                    -2.2461    0.8641    0. 
 N                    -0.0882   -0.2105    0. 
 C                    -0.2193    2.249     0. 
 H                     0.8679    2.166     0. 
 H                    -0.522     2.812    -0.8824 
 H                    -0.522     2.812     0.8824 
 

 GradGradGradGradGradGradGradGradGradGradGradGradGradGradGradGradGradGrad
 Berny optimization.
 Initialization pass.
                           ----------------------------
                           !    Initial Parameters    !
                           ! (Angstroms and Degrees)  !
 --------------------------                            --------------------------
 ! Name  Definition              Value          Derivative Info.                !
 --------------------------------------------------------------------------------
 ! R1    R(1,2)                  1.3607         calculate D2E/DX2 analytically  !
 ! R2    R(1,4)                  1.0791         calculate D2E/DX2 analytically  !
 ! R3    R(1,5)                  1.3607         calculate D2E/DX2 analytically  !
 ! R4    R(2,7)                  1.3464         calculate D2E/DX2 analytically  !
 ! R5    R(3,6)                  1.3601         calculate D2E/DX2 analytically  !
 ! R6    R(3,7)                  1.3603         calculate D2E/DX2 analytically  !
 ! R7    R(3,8)                  1.5129         calculate D2E/DX2 analytically  !
 ! R8    R(5,6)                  1.3464         calculate D2E/DX2 analytically  !
 ! R9    R(8,9)                  1.0904         calculate D2E/DX2 analytically  !
 ! R10   R(8,10)                 1.0896         calculate D2E/DX2 analytically  !
 ! R11   R(8,11)                 1.0896         calculate D2E/DX2 analytically  !
 ! A1    A(2,1,4)              117.7586         calculate D2E/DX2 analytically  !
 ! A2    A(2,1,5)              124.4772         calculate D2E/DX2 analytically  !
 ! A3    A(4,1,5)              117.7641         calculate D2E/DX2 analytically  !
 ! A4    A(1,2,7)              117.8098         calculate D2E/DX2 analytically  !
 ! A5    A(6,3,7)              124.7855         calculate D2E/DX2 analytically  !
 ! A6    A(6,3,8)              117.2978         calculate D2E/DX2 analytically  !
 ! A7    A(7,3,8)              117.9167         calculate D2E/DX2 analytically  !
 ! A8    A(1,5,6)              117.8176         calculate D2E/DX2 analytically  !
 ! A9    A(3,6,5)              117.5541         calculate D2E/DX2 analytically  !
 ! A10   A(2,7,3)              117.5557         calculate D2E/DX2 analytically  !
 ! A11   A(3,8,9)              111.7946         calculate D2E/DX2 analytically  !
 ! A12   A(3,8,10)             109.9557         calculate D2E/DX2 analytically  !
 ! A13   A(3,8,11)             109.9557         calculate D2E/DX2 analytically  !
 ! A14   A(9,8,10)             108.4414         calculate D2E/DX2 analytically  !
 ! A15   A(9,8,11)             108.4414         calculate D2E/DX2 analytically  !
 ! A16   A(10,8,11)            108.1604         calculate D2E/DX2 analytically  !
 ! D1    D(4,1,2,7)            180.0            calculate D2E/DX2 analytically  !
 ! D2    D(5,1,2,7)              0.0            calculate D2E/DX2 analytically  !
 ! D3    D(2,1,5,6)              0.0            calculate D2E/DX2 analytically  !
 ! D4    D(4,1,5,6)            180.0            calculate D2E/DX2 analytically  !
 ! D5    D(1,2,7,3)              0.0            calculate D2E/DX2 analytically  !
 ! D6    D(7,3,6,5)              0.0            calculate D2E/DX2 analytically  !
 ! D7    D(8,3,6,5)            180.0            calculate D2E/DX2 analytically  !
 ! D8    D(6,3,7,2)              0.0            calculate D2E/DX2 analytically  !
 ! D9    D(8,3,7,2)            180.0            calculate D2E/DX2 analytically  !
 ! D10   D(6,3,8,9)            180.0            calculate D2E/DX2 analytically  !
 ! D11   D(6,3,8,10)           -59.4934         calculate D2E/DX2 analytically  !
 ! D12   D(6,3,8,11)            59.4934         calculate D2E/DX2 analytically  !
 ! D13   D(7,3,8,9)              0.0            calculate D2E/DX2 analytically  !
 ! D14   D(7,3,8,10)           120.5066         calculate D2E/DX2 analytically  !
 ! D15   D(7,3,8,11)          -120.5066         calculate D2E/DX2 analytically  !
 ! D16   D(1,5,6,3)              0.0            calculate D2E/DX2 analytically  !
 --------------------------------------------------------------------------------
 Trust Radius=1.00D-01 FncErr=1.00D-07 GrdErr=1.00D-06 EigMax=2.50D+02 EigMin=1.00D-04
 Number of steps in this run=     50 maximum allowed number of steps=    100.
 GradGradGradGradGradGradGradGradGradGradGradGradGradGradGradGradGradGrad

                          Input orientation:                          
 ---------------------------------------------------------------------
 Center     Atomic      Atomic             Coordinates (Angstroms)
 Number     Number       Type             X           Y           Z
 ---------------------------------------------------------------------
      1          6           0       -2.049800   -1.445800    0.000000
      2          7           0       -0.689400   -1.415200    0.000000
      3          6           0       -0.886300    0.891100    0.000000
      4          1           0       -2.530800   -2.411800    0.000000
      5          7           0       -2.845100   -0.341700    0.000000
      6          7           0       -2.246100    0.864100    0.000000
      7          7           0       -0.088200   -0.210500    0.000000
      8          6           0       -0.219300    2.249000    0.000000
      9          1           0        0.867900    2.166000    0.000000
     10          1           0       -0.522000    2.812000   -0.882400
     11          1           0       -0.522000    2.812000    0.882400
 ---------------------------------------------------------------------
                    Distance matrix (angstroms):
                    1          2          3          4          5
     1  C    0.000000
     2  N    1.360744   0.000000
     3  C    2.610524   2.314690   0.000000
     4  H    1.079128   2.093792   3.689652   0.000000
     5  N    1.360713   2.408204   2.314453   2.093824   0.000000
     6  N    2.318226   2.760167   1.360068   3.288248   1.346386
     7  N    2.318155   1.346382   1.360326   3.288163   2.760020
     8  C    4.123382   3.694233   1.512872   5.202508   3.688706
     9  H    4.643067   3.905147   2.168545   5.701527   4.480505
    10  H    4.608868   4.321559   2.145041   5.665862   4.015127
    11  H    4.608868   4.321559   2.145041   5.665862   4.015127
                    6          7          8          9         10
     6  N    0.000000
     7  N    2.410663   0.000000
     8  C    2.454764   2.462992   0.000000
     9  H    3.375195   2.561617   1.090364   0.000000
    10  H    2.746901   3.178414   1.089599   1.768550   0.000000
    11  H    2.746901   3.178414   1.089599   1.768550   1.764800
                   11
    11  H    0.000000
 Stoichiometry    C3H4N4
 Framework group  CS[SG(C3H2N4),X(H2)]
 Deg. of freedom    18
 Full point group                 CS      NOp   2
 Largest Abelian subgroup         CS      NOp   2
 Largest concise Abelian subgroup CS      NOp   2
                         Standard orientation:                         
 ---------------------------------------------------------------------
 Center     Atomic      Atomic             Coordinates (Angstroms)
 Number     Number       Type             X           Y           Z
 ---------------------------------------------------------------------
      1          6           0       -0.006635   -1.788768    0.000000
      2          7           0       -1.209191   -1.151992    0.000000
      3          6           0        0.000000    0.821747    0.000000
      4          1           0       -0.009337   -2.867893    0.000000
      5          7           0        1.199005   -1.157919    0.000000
      6          7           0        1.203632    0.188458    0.000000
      7          7           0       -1.207024    0.194388    0.000000
      8          6           0        0.011968    2.334572    0.000000
      9          1           0       -0.997223    2.747399    0.000000
     10          1           0        0.534803    2.702321    0.882400
     11          1           0        0.534803    2.702321   -0.882400
 ---------------------------------------------------------------------
 Rotational constants (GHZ):           5.9850631           2.7739248           1.9180174
 Standard basis: 6-31G(d) (6D, 7F)
 There are    83 symmetry adapted cartesian basis functions of A'  symmetry.
 There are    30 symmetry adapted cartesian basis functions of A"  symmetry.
 There are    83 symmetry adapted basis functions of A'  symmetry.
 There are    30 symmetry adapted basis functions of A"  symmetry.
   113 basis functions,   212 primitive gaussians,   113 cartesian basis functions
    25 alpha electrons       25 beta electrons
       nuclear repulsion energy       276.6999593719 Hartrees.
 NAtoms=   11 NActive=   11 NUniq=   10 SFac= 1.21D+00 NAtFMM=   60 NAOKFM=F Big=F
 Integral buffers will be    131072 words long.
 Raffenetti 2 integral format.
 Two-electron integral symmetry is turned on.
 Force inversion solution in PCM.
 ------------------------------------------------------------------------------
 Polarizable Continuum Model (PCM)
 =================================
 Model                : PCM.
 Atomic radii         : UFF (Universal Force Field).
 Polarization charges : Total charges.
 Charge compensation  : None.
 Solution method      : Matrix inversion.
 Cavity type          : Scaled VdW (van der Waals Surface) (Alpha=1.100).
 Cavity algorithm     : GePol (No added spheres)
                        Default sphere list used, NSphG=   11.
                        Lebedev-Laikov grids with approx.  5.0 points / Ang**2.
                        Smoothing algorithm: York/Karplus (Gamma=1.0000).
                        Polarization charges: spherical gaussians, with
                                              point-specific exponents (IZeta= 3).
                        Self-potential: point-specific (ISelfS= 7).
                        Self-field    : sphere-specific E.n sum rule (ISelfD= 2).
 1st derivatives      : Analytical E(r).r(x)/FMM algorithm (CHGder, D1EAlg=3).
                        Cavity 1st derivative terms included.
 2nd derivatives      : Analytical E(r).r(xy)/FMM algorithm (CHGder, D2EAlg=3).
                        Cavity 2nd derivative terms included.
 Solvent              : Benzene, Eps=   2.270600 Eps(inf)=   2.253301
 ------------------------------------------------------------------------------
 Spheres list:
 ISph  on   Nord     Re0    Alpha      Xe            Ye            Ze
    1   C      1    1.9255  1.100     -0.006635     -1.788768     -0.000000
    2   N      2    1.8300  1.100     -1.209191     -1.151992      0.000000
    3   C      3    1.9255  1.100      0.000000      0.821747      0.000000
    4   H      4    1.4430  1.100     -0.009337     -2.867893     -0.000000
    5   N      5    1.8300  1.100      1.199005     -1.157919     -0.000000
    6   N      6    1.8300  1.100      1.203632      0.188458      0.000000
    7   N      7    1.8300  1.100     -1.207024      0.194388      0.000000
    8   C      8    1.9255  1.100      0.011968      2.334572      0.000000
    9   H      9    1.4430  1.100     -0.997223      2.747399      0.000000
   10   H     10    1.4430  1.100      0.534803      2.702321      0.882400
   11   H     11    1.4430  1.100      0.534803      2.702321     -0.882400
 ------------------------------------------------------------------------------
 One-electron integrals computed using PRISM.
 NBasis=   113 RedAO= T EigKep=  1.59D-03  NBF=    83    30
 NBsUse=   113 1.00D-06 EigRej= -1.00D+00 NBFU=    83    30
 ExpMin= 1.61D-01 ExpMax= 4.17D+03 ExpMxC= 6.27D+02 IAcc=3 IRadAn=         5 AccDes= 0.00D+00
 Harris functional with IExCor= 1009 and IRadAn=       5 diagonalized for initial guess.
 HarFok:  IExCor= 1009 AccDes= 0.00D+00 IRadAn=         5 IDoV= 1 UseB2=F ITyADJ=14
 ICtDFT=  3500011 ScaDFX=  1.000000  1.000000  1.000000  1.000000
 FoFCou: FMM=F IPFlag=           0 FMFlag=      100000 FMFlg1=           0
         NFxFlg=           0 DoJE=T BraDBF=F KetDBF=T FulRan=T
         wScrn=  0.000000 ICntrl=       500 IOpCl=  0 I1Cent=   200000004 NGrid=           0
         NMat0=    1 NMatS0=      1 NMatT0=    0 NMatD0=    1 NMtDS0=    0 NMtDT0=    0
 Petite list used in FoFCou.
 Initial guess orbital symmetries:
       Occupied  (A') (A') (A') (A') (A') (A') (A') (A') (A') (A')
                 (A') (A') (A') (A') (A') (A') (A") (A') (A") (A')
                 (A") (A') (A') (A") (A')
       Virtual   (A") (A") (A") (A') (A') (A') (A") (A') (A') (A')
                 (A') (A') (A') (A') (A') (A') (A") (A') (A") (A')
                 (A') (A') (A") (A') (A') (A") (A') (A") (A") (A')
                 (A') (A") (A') (A') (A') (A") (A') (A') (A') (A')
                 (A') (A") (A') (A') (A") (A') (A") (A') (A") (A")
                 (A") (A') (A') (A') (A') (A') (A') (A") (A') (A')
                 (A") (A') (A') (A') (A") (A") (A') (A") (A') (A")
                 (A") (A') (A') (A') (A') (A") (A') (A') (A') (A')
                 (A') (A') (A') (A') (A') (A') (A') (A')
 The electronic state of the initial guess is 1-A'.
 Keep R1 ints in memory in symmetry-blocked form, NReq=32039445.
 Requested convergence on RMS density matrix=1.00D-08 within 128 cycles.
 Requested convergence on MAX density matrix=1.00D-06.
 Requested convergence on             energy=1.00D-06.
 No special actions if energy rises.
 Inv3:  Mode=1 IEnd=     3610227.
 Iteration    1 A*A^-1 deviation from unit magnitude is 3.33D-15 for    985.
 Iteration    1 A*A^-1 deviation from orthogonality  is 1.56D-15 for    567    321.
 Iteration    1 A^-1*A deviation from unit magnitude is 3.11D-15 for    405.
 Iteration    1 A^-1*A deviation from orthogonality  is 1.44D-15 for   1073    634.
 Error on total polarization charges =  0.00411
 SCF Done:  E(RM062X) =  -335.504636398     A.U. after   12 cycles
            NFock= 12  Conv=0.84D-08     -V/T= 2.0095
 DoSCS=F DFT=T ScalE2(SS,OS)=  1.000000  1.000000
 Range of M.O.s used for correlation:     1   113
 NBasis=   113 NAE=    25 NBE=    25 NFC=     0 NFV=     0
 NROrb=    113 NOA=    25 NOB=    25 NVA=    88 NVB=    88
 Symmetrizing basis deriv contribution to polar:
 IMax=3 JMax=2 DiffMx= 0.00D+00
 G2DrvN: will do    12 centers at a time, making    1 passes.
 Calling FoFCou, ICntrl=  3107 FMM=F I1Cent=   0 AccDes= 0.00D+00.
 NEqPCM:  Using equilibrium solvation (IEInf=0, Eps=   2.2706, EpsInf=   2.2533)
 G2PCM: DoFxE=T DoFxN=T DoGrad=T DoDP/DQ/DG/TGxP=FFFF NFrqRd=   0 IEInf=0 SqF1=F DoCFld=F IF1Alg=4.
 End of G2Drv F.D. properties file   721 does not exist.
 End of G2Drv F.D. properties file   722 does not exist.
 End of G2Drv F.D. properties file   788 does not exist.
          IDoAtm=11111111111
 NEqPCM:  Using equilibrium solvation (IEInf=0, Eps=   2.2706, EpsInf=   2.2533)
          Differentiating once with respect to nuclear coordinates.
 Keep R1 ints in memory in symmetry-blocked form, NReq=32008215.
          There are    33 degrees of freedom in the 1st order CPHF.  IDoFFX=4 NUNeed=    33.
     30 vectors produced by pass  0 Test12= 6.67D-15 3.03D-09 XBig12= 1.70D-01 2.42D-01.
 AX will form    30 AO Fock derivatives at one time.
     30 vectors produced by pass  1 Test12= 6.67D-15 3.03D-09 XBig12= 5.47D-02 1.05D-01.
     30 vectors produced by pass  2 Test12= 6.67D-15 3.03D-09 XBig12= 1.58D-03 9.13D-03.
     30 vectors produced by pass  3 Test12= 6.67D-15 3.03D-09 XBig12= 2.24D-05 1.58D-03.
     30 vectors produced by pass  4 Test12= 6.67D-15 3.03D-09 XBig12= 1.50D-07 7.99D-05.
     30 vectors produced by pass  5 Test12= 6.67D-15 3.03D-09 XBig12= 5.48D-10 4.07D-06.
     22 vectors produced by pass  6 Test12= 6.67D-15 3.03D-09 XBig12= 1.60D-12 1.84D-07.
      5 vectors produced by pass  7 Test12= 6.67D-15 3.03D-09 XBig12= 4.53D-15 1.16D-08.
 InvSVY:  IOpt=1 It=  1 EMax= 1.80D-16
 Solved reduced A of dimension   207 with    33 vectors.
 End of Minotr F.D. properties file   721 does not exist.
 End of Minotr F.D. properties file   722 does not exist.
 End of Minotr F.D. properties file   788 does not exist.

 **********************************************************************

            Population analysis using the SCF Density.

 **********************************************************************

 Orbital symmetries:
       Occupied  (A') (A') (A') (A') (A') (A') (A') (A') (A') (A')
                 (A') (A') (A') (A') (A') (A") (A') (A") (A') (A")
                 (A') (A') (A') (A") (A')
       Virtual   (A") (A") (A") (A') (A') (A') (A") (A') (A') (A')
                 (A') (A') (A') (A') (A") (A') (A') (A") (A') (A')
                 (A") (A') (A') (A') (A') (A") (A') (A") (A") (A')
                 (A') (A') (A") (A') (A') (A") (A') (A') (A') (A')
                 (A') (A') (A") (A') (A") (A') (A') (A") (A") (A")
                 (A") (A') (A') (A') (A') (A') (A') (A") (A') (A')
                 (A') (A") (A') (A") (A') (A") (A") (A') (A') (A")
                 (A") (A') (A') (A') (A') (A") (A') (A') (A') (A')
                 (A') (A') (A') (A') (A') (A') (A') (A')
 The electronic state is 1-A'.
 Alpha  occ. eigenvalues --  -14.84547 -14.84476 -14.84186 -14.84155 -10.65830
 Alpha  occ. eigenvalues --  -10.64892 -10.56304  -1.19413  -1.10434  -0.99537
 Alpha  occ. eigenvalues --   -0.85047  -0.84632  -0.75547  -0.65745  -0.60634
 Alpha  occ. eigenvalues --   -0.56044  -0.53955  -0.49366  -0.48308  -0.43569
 Alpha  occ. eigenvalues --   -0.43398  -0.41872  -0.41377  -0.37547  -0.31193
 Alpha virt. eigenvalues --   -0.07056  -0.02382   0.13069   0.16052   0.17470
 Alpha virt. eigenvalues --    0.18371   0.22288   0.22400   0.24007   0.25064
 Alpha virt. eigenvalues --    0.33072   0.38075   0.40831   0.51108   0.55769
 Alpha virt. eigenvalues --    0.56517   0.57712   0.58288   0.60508   0.61658
 Alpha virt. eigenvalues --    0.68148   0.68875   0.69445   0.71974   0.72626
 Alpha virt. eigenvalues --    0.76975   0.78950   0.82308   0.84583   0.84957
 Alpha virt. eigenvalues --    0.85762   0.91044   0.93261   0.94328   0.95169
 Alpha virt. eigenvalues --    0.96458   0.97161   0.98230   1.01880   1.15569
 Alpha virt. eigenvalues --    1.22462   1.25649   1.26273   1.30234   1.38385
 Alpha virt. eigenvalues --    1.39238   1.47378   1.47720   1.50341   1.52744
 Alpha virt. eigenvalues --    1.54810   1.66180   1.68993   1.72719   1.84569
 Alpha virt. eigenvalues --    1.87607   1.88298   1.93026   1.97892   2.07784
 Alpha virt. eigenvalues --    2.14630   2.17134   2.18326   2.25131   2.25968
 Alpha virt. eigenvalues --    2.27769   2.33127   2.33374   2.37381   2.37558
 Alpha virt. eigenvalues --    2.47969   2.52734   2.54014   2.66444   2.71630
 Alpha virt. eigenvalues --    2.72933   2.79913   2.80653   2.83162   3.08416
 Alpha virt. eigenvalues --    3.35417   3.63489   3.72820   4.01191   4.09190
 Alpha virt. eigenvalues --    4.13494   4.31513   4.46281
          Condensed to atoms (all electrons):
               1          2          3          4          5          6
     1  C    4.847079   0.356358  -0.030517   0.392830   0.354878  -0.050048
     2  N    0.356358   6.772740  -0.052171  -0.048003  -0.034764  -0.026319
     3  C   -0.030517  -0.052171   4.742824   0.000231  -0.046572   0.315280
     4  H    0.392830  -0.048003   0.000231   0.454314  -0.047759   0.003519
     5  N    0.354878  -0.034764  -0.046572  -0.047759   6.759958   0.255446
     6  N   -0.050048  -0.026319   0.315280   0.003519   0.255446   6.883584
     7  N   -0.051852   0.249115   0.368905   0.003510  -0.025265  -0.049204
     8  C   -0.000080   0.005814   0.363489   0.000025   0.004837  -0.082947
     9  H    0.000049  -0.000027  -0.027712  -0.000001  -0.000115   0.003817
    10  H    0.000055  -0.000126  -0.026686  -0.000000  -0.000034  -0.000780
    11  H    0.000055  -0.000126  -0.026686  -0.000000  -0.000034  -0.000780
               7          8          9         10         11
     1  C   -0.051852  -0.000080   0.000049   0.000055   0.000055
     2  N    0.249115   0.005814  -0.000027  -0.000126  -0.000126
     3  C    0.368905   0.363489  -0.027712  -0.026686  -0.026686
     4  H    0.003510   0.000025  -0.000001  -0.000000  -0.000000
     5  N   -0.025265   0.004837  -0.000115  -0.000034  -0.000034
     6  N   -0.049204  -0.082947   0.003817  -0.000780  -0.000780
     7  N    6.830761  -0.078808   0.004067   0.001765   0.001765
     8  C   -0.078808   5.198746   0.370870   0.373345   0.373345
     9  H    0.004067   0.370870   0.482773  -0.021457  -0.021457
    10  H    0.001765   0.373345  -0.021457   0.481588  -0.021015
    11  H    0.001765   0.373345  -0.021457  -0.021015   0.481588
 Mulliken charges:
               1
     1  C    0.181193
     2  N   -0.222491
     3  C    0.419614
     4  H    0.241335
     5  N   -0.220577
     6  N   -0.251568
     7  N   -0.254757
     8  C   -0.528636
     9  H    0.209194
    10  H    0.213346
    11  H    0.213346
 Sum of Mulliken charges =  -0.00000
 Mulliken charges with hydrogens summed into heavy atoms:
               1
     1  C    0.422529
     2  N   -0.222491
     3  C    0.419614
     5  N   -0.220577
     6  N   -0.251568
     7  N   -0.254757
     8  C    0.107251
 APT charges:
               1
     1  C   -0.276624
     2  N   -0.194715
     3  C    0.194744
     4  H    0.728352
     5  N   -0.198930
     6  N   -0.210263
     7  N   -0.219841
     8  C   -1.340082
     9  H    0.515480
    10  H    0.500939
    11  H    0.500939
 Sum of APT charges =  -0.00000
 APT charges with hydrogens summed into heavy atoms:
               1
     1  C    0.451728
     2  N   -0.194715
     3  C    0.194744
     5  N   -0.198930
     6  N   -0.210263
     7  N   -0.219841
     8  C    0.177276
 Electronic spatial extent (au):  <R**2>=            622.8848
 Charge=             -0.0000 electrons
 Dipole moment (field-independent basis, Debye):
    X=              0.0643    Y=              0.8343    Z=              0.0000  Tot=              0.8368
 Quadrupole moment (field-independent basis, Debye-Ang):
   XX=            -50.5616   YY=            -31.2899   ZZ=            -38.9271
   XY=              0.1200   XZ=              0.0000   YZ=             -0.0000
 Traceless Quadrupole moment (field-independent basis, Debye-Ang):
   XX=            -10.3021   YY=              8.9696   ZZ=              1.3325
   XY=              0.1200   XZ=              0.0000   YZ=             -0.0000
 Octapole moment (field-independent basis, Debye-Ang**2):
  XXX=             -0.4624  YYY=             -3.6154  ZZZ=             -0.0000  XYY=              0.0487
  XXY=              6.4854  XXZ=             -0.0000  XZZ=              0.7832  YZZ=              1.1594
  YYZ=              0.0000  XYZ=              0.0000
 Hexadecapole moment (field-independent basis, Debye-Ang**3):
 XXXX=           -276.3594 YYYY=           -458.1885 ZZZZ=            -41.5749 XXXY=             -2.8650
 XXXZ=             -0.0000 YYYX=             -0.8169 YYYZ=              0.0000 ZZZX=              0.0000
 ZZZY=             -0.0000 XXYY=           -141.3001 XXZZ=            -46.7931 YYZZ=            -93.4234
 XXYZ=             -0.0000 YYXZ=              0.0000 ZZXY=              1.8531
 N-N= 2.766999593719D+02 E-N=-1.333341487914D+03  KE= 3.323418481576D+02
 Symmetry A'   KE= 3.218717418232D+02
 Symmetry A"   KE= 1.047010633443D+01
  Exact polarizability:       0.000       0.000       0.000       0.000       0.000       0.000
 Approx polarizability:      86.511       0.785      92.349      -0.000       0.000      37.384
 D2PCM: PCM CHGder 2nd derivatives, FixD1E=F FixD2E=F DoIter=F DoCFld=F I1PDM=0
 Calling FoFJK, ICntrl=    100127 FMM=F ISym2X=1 I1Cent= 0 IOpClX= 0 NMat=1 NMatS=1 NMatT=0.
 ***** Axes restored to original set *****
 -------------------------------------------------------------------
 Center     Atomic                   Forces (Hartrees/Bohr)
 Number     Number              X              Y              Z
 -------------------------------------------------------------------
      1        6           0.019544537    0.036807226    0.000000000
      2        7          -0.011520957    0.023278962   -0.000000000
      3        6          -0.001578920   -0.010185117   -0.000000000
      4        1          -0.001186047   -0.002280079   -0.000000000
      5        7           0.025343796    0.007170067   -0.000000000
      6        7           0.005703945   -0.031686122    0.000000000
      7        7          -0.028615632   -0.012946771    0.000000000
      8        6          -0.002402536   -0.007676911    0.000000000
      9        1          -0.000657276   -0.004484262   -0.000000000
     10        1          -0.002315455    0.001001505   -0.001434218
     11        1          -0.002315455    0.001001505    0.001434218
 -------------------------------------------------------------------
 Cartesian Forces:  Max     0.036807226 RMS     0.012724428
 FormGI is forming the generalized inverse of G from B-inverse, IUseBI=4.

 GradGradGradGradGradGradGradGradGradGradGradGradGradGradGradGradGradGrad
 Berny optimization.
 Internal  Forces:  Max     0.037019862 RMS     0.011340069
 Search for a local minimum.
 Step number   1 out of a maximum of   50
 All quantities printed in internal units (Hartrees-Bohrs-Radians)
 Mixed Optimization -- RFO/linear search
 Second derivative matrix not updated -- analytic derivatives used.
 ITU=  0
     Eigenvalues ---   -0.00004   0.00948   0.02116   0.02985   0.03675
     Eigenvalues ---    0.05539   0.05691   0.05725   0.07484   0.12463
     Eigenvalues ---    0.12878   0.14045   0.14737   0.21444   0.24156
     Eigenvalues ---    0.25663   0.27252   0.31662   0.35840   0.35942
     Eigenvalues ---    0.36460   0.38725   0.40226   0.41731   0.46096
     Eigenvalues ---    0.47546   0.51431
 RFO step:  Lambda=-1.10826455D-02 EMin=-4.44375406D-05
 Linear search not attempted -- first point.
 Maximum step size (   0.100) exceeded in Quadratic search.
    -- Step size scaled by   0.649
 Iteration  1 RMS(Cart)=  0.02373088 RMS(Int)=  0.00006927
 Iteration  2 RMS(Cart)=  0.00005953 RMS(Int)=  0.00001256
 Iteration  3 RMS(Cart)=  0.00000000 RMS(Int)=  0.00001256
 ClnCor:  largest displacement from symmetrization is 1.96D-11 for atom    11.
 Variable       Old X    -DE/DX   Delta X   Delta X   Delta X     New X
                                 (Linear)    (Quad)   (Total)
    R1        2.57143  -0.02858   0.00000  -0.04011  -0.04009   2.53134
    R2        2.03926   0.00257   0.00000   0.00549   0.00549   2.04475
    R3        2.57137  -0.02744   0.00000  -0.03082  -0.03080   2.54058
    R4        2.54429  -0.03549   0.00000  -0.04201  -0.04201   2.50229
    R5        2.57016  -0.02103   0.00000  -0.01933  -0.01934   2.55081
    R6        2.57064  -0.02169   0.00000  -0.02810  -0.02812   2.54252
    R7        2.85891  -0.01251   0.00000  -0.02306  -0.02306   2.83585
    R8        2.54430  -0.03702   0.00000  -0.05238  -0.05238   2.49192
    R9        2.06049  -0.00031   0.00000  -0.00082  -0.00082   2.05967
   R10        2.05904   0.00232   0.00000   0.00410   0.00410   2.06314
   R11        2.05904   0.00232   0.00000   0.00410   0.00410   2.06314
    A1        2.05528  -0.00478   0.00000  -0.00503  -0.00505   2.05023
    A2        2.17254   0.00965   0.00000   0.01268   0.01271   2.18525
    A3        2.05537  -0.00487   0.00000  -0.00765  -0.00766   2.04771
    A4        2.05617  -0.00438   0.00000  -0.00624  -0.00622   2.04995
    A5        2.17792   0.00163   0.00000  -0.00536  -0.00539   2.17252
    A6        2.04723  -0.00151   0.00000   0.00083   0.00084   2.04807
    A7        2.05804  -0.00012   0.00000   0.00454   0.00455   2.06259
    A8        2.05631  -0.00442   0.00000  -0.00674  -0.00672   2.04959
    A9        2.05171  -0.00107   0.00000   0.00352   0.00350   2.05521
   A10        2.05173  -0.00142   0.00000   0.00214   0.00211   2.05385
   A11        1.95118  -0.00590   0.00000  -0.02079  -0.02080   1.93039
   A12        1.91909  -0.00022   0.00000   0.00032   0.00031   1.91940
   A13        1.91909  -0.00022   0.00000   0.00032   0.00031   1.91940
   A14        1.89266   0.00328   0.00000   0.01273   0.01272   1.90538
   A15        1.89266   0.00328   0.00000   0.01273   0.01272   1.90538
   A16        1.88776   0.00004   0.00000  -0.00458  -0.00458   1.88317
    D1        3.14159  -0.00000   0.00000  -0.00000   0.00000   3.14159
    D2        0.00000  -0.00000   0.00000  -0.00000   0.00000   0.00000
    D3        0.00000   0.00000   0.00000   0.00000   0.00000   0.00000
    D4        3.14159   0.00000   0.00000  -0.00000   0.00000   3.14159
    D5        0.00000  -0.00000   0.00000   0.00000   0.00000   0.00000
    D6        0.00000  -0.00000   0.00000  -0.00000   0.00000   0.00000
    D7        3.14159  -0.00000   0.00000  -0.00000   0.00000   3.14159
    D8        0.00000   0.00000   0.00000   0.00000   0.00000   0.00000
    D9        3.14159   0.00000   0.00000   0.00000   0.00000   3.14159
   D10        3.14159   0.00000   0.00000  -0.00000   0.00000   3.14159
   D11       -1.03836   0.00011   0.00000   0.00262   0.00262  -1.03573
   D12        1.03836  -0.00011   0.00000  -0.00262  -0.00262   1.03573
   D13        0.00000   0.00000   0.00000  -0.00000   0.00000   0.00000
   D14        2.10324   0.00011   0.00000   0.00262   0.00262   2.10586
   D15       -2.10324  -0.00011   0.00000  -0.00262  -0.00262  -2.10586
   D16        0.00000  -0.00000   0.00000   0.00000   0.00000   0.00000
         Item               Value     Threshold  Converged?
 Maximum Force            0.037020     0.000450     NO 
 RMS     Force            0.011340     0.000300     NO 
 Maximum Displacement     0.069723     0.001800     NO 
 RMS     Displacement     0.023734     0.001200     NO 
 Predicted change in Energy=-4.913407D-03
 GradGradGradGradGradGradGradGradGradGradGradGradGradGradGradGradGradGrad

                          Input orientation:                          
 ---------------------------------------------------------------------
 Center     Atomic      Atomic             Coordinates (Angstroms)
 Number     Number       Type             X           Y           Z
 ---------------------------------------------------------------------
      1          6           0       -2.031532   -1.413712    0.000000
      2          7           0       -0.692176   -1.392223    0.000000
      3          6           0       -0.887449    0.883847    0.000000
      4          1           0       -2.515183   -2.381638    0.000000
      5          7           0       -2.824126   -0.327781    0.000000
      6          7           0       -2.236926    0.852929    0.000000
      7          7           0       -0.100632   -0.207548    0.000000
      8          6           0       -0.228810    2.232254    0.000000
      9          1           0        0.856228    2.129104    0.000000
     10          1           0       -0.535247    2.796984   -0.882687
     11          1           0       -0.535247    2.796984    0.882687
 ---------------------------------------------------------------------
                    Distance matrix (angstroms):
                    1          2          3          4          5
     1  C    0.000000
     2  N    1.339529   0.000000
     3  C    2.566652   2.284431   0.000000
     4  H    1.082035   2.074198   3.648686   0.000000
     5  N    1.344414   2.382907   2.284460   2.076963   0.000000
     6  N    2.275928   2.725246   1.349831   3.246514   1.318666
     7  N    2.276666   1.324152   1.345445   3.249111   2.726146
     8  C    4.067293   3.653976   1.500669   5.149321   3.645469
     9  H    4.570635   3.846726   2.142679   5.631448   4.425075
    10  H    4.554993   4.284065   2.136182   5.614037   3.972689
    11  H    4.554993   4.284065   2.136182   5.614037   3.972689
                    6          7          8          9         10
     6  N    0.000000
     7  N    2.385029   0.000000
     8  C    2.436199   2.443167   0.000000
     9  H    3.346076   2.524980   1.089930   0.000000
    10  H    2.730238   3.161524   1.091769   1.778033   0.000000
    11  H    2.730238   3.161524   1.091769   1.778033   1.765374
                   11
    11  H    0.000000
 Stoichiometry    C3H4N4
 Framework group  CS[SG(C3H2N4),X(H2)]
 Deg. of freedom    18
 Full point group                 CS      NOp   2
 Largest Abelian subgroup         CS      NOp   2
 Largest concise Abelian subgroup CS      NOp   2
                         Standard orientation:                         
 ---------------------------------------------------------------------
 Center     Atomic      Atomic             Coordinates (Angstroms)
 Number     Number       Type             X           Y           Z
 ---------------------------------------------------------------------
      1          6           0       -0.012211   -1.756817    0.000000
      2          7           0       -1.198623   -1.134912    0.000000
      3          6           0        0.000000    0.809806    0.000000
      4          1           0       -0.015869   -2.838845    0.000000
      5          7           0        1.184268   -1.143721    0.000000
      6          7           0        1.191207    0.174927    0.000000
      7          7           0       -1.193780    0.189231    0.000000
      8          6           0        0.018605    2.310360    0.000000
      9          1           0       -0.996780    2.706514    0.000000
     10          1           0        0.546391    2.676781    0.882687
     11          1           0        0.546391    2.676781   -0.882687
 ---------------------------------------------------------------------
 Rotational constants (GHZ):           6.1069451           2.8473861           1.9656704
 Standard basis: 6-31G(d) (6D, 7F)
 There are    83 symmetry adapted cartesian basis functions of A'  symmetry.
 There are    30 symmetry adapted cartesian basis functions of A"  symmetry.
 There are    83 symmetry adapted basis functions of A'  symmetry.
 There are    30 symmetry adapted basis functions of A"  symmetry.
   113 basis functions,   212 primitive gaussians,   113 cartesian basis functions
    25 alpha electrons       25 beta electrons
       nuclear repulsion energy       280.0657366337 Hartrees.
 NAtoms=   11 NActive=   11 NUniq=   10 SFac= 1.21D+00 NAtFMM=   60 NAOKFM=F Big=F
 Integral buffers will be    131072 words long.
 Raffenetti 2 integral format.
 Two-electron integral symmetry is turned on.
 ------------------------------------------------------------------------------
 Polarizable Continuum Model (PCM)
 =================================
 Model                : PCM.
 Atomic radii         : UFF (Universal Force Field).
 Polarization charges : Total charges.
 Charge compensation  : None.
 Solution method      : Matrix inversion.
 Cavity type          : Scaled VdW (van der Waals Surface) (Alpha=1.100).
 Cavity algorithm     : GePol (No added spheres)
                        Default sphere list used, NSphG=   11.
                        Lebedev-Laikov grids with approx.  5.0 points / Ang**2.
                        Smoothing algorithm: York/Karplus (Gamma=1.0000).
                        Polarization charges: spherical gaussians, with
                                              point-specific exponents (IZeta= 3).
                        Self-potential: point-specific (ISelfS= 7).
                        Self-field    : sphere-specific E.n sum rule (ISelfD= 2).
 1st derivatives      : Analytical E(r).r(x)/FMM algorithm (CHGder, D1EAlg=3).
                        Cavity 1st derivative terms included.
 Solvent              : Benzene, Eps=   2.270600 Eps(inf)=   2.253301
 ------------------------------------------------------------------------------
 Spheres list:
 ISph  on   Nord     Re0    Alpha      Xe            Ye            Ze
    1   C      1    1.9255  1.100     -0.012211     -1.756817     -0.000000
    2   N      2    1.8300  1.100     -1.198623     -1.134912      0.000000
    3   C      3    1.9255  1.100     -0.000000      0.809806      0.000000
    4   H      4    1.4430  1.100     -0.015869     -2.838845     -0.000000
    5   N      5    1.8300  1.100      1.184268     -1.143721     -0.000000
    6   N      6    1.8300  1.100      1.191207      0.174927      0.000000
    7   N      7    1.8300  1.100     -1.193780      0.189231      0.000000
    8   C      8    1.9255  1.100      0.018605      2.310360      0.000000
    9   H      9    1.4430  1.100     -0.996780      2.706514      0.000000
   10   H     10    1.4430  1.100      0.546391      2.676781      0.882687
   11   H     11    1.4430  1.100      0.546391      2.676781     -0.882687
 ------------------------------------------------------------------------------
 One-electron integrals computed using PRISM.
 NBasis=   113 RedAO= T EigKep=  1.44D-03  NBF=    83    30
 NBsUse=   113 1.00D-06 EigRej= -1.00D+00 NBFU=    83    30
 Initial guess from the checkpoint file:  "2a_gs_2_opt_hess.chk"
 B after Tr=    -0.000000    0.000000    0.000000
         Rot=    0.999999   -0.000000   -0.000000    0.001223 Ang=   0.14 deg.
 Initial guess orbital symmetries:
       Occupied  (A') (A') (A') (A') (A') (A') (A') (A') (A') (A')
                 (A') (A') (A') (A') (A') (A") (A') (A") (A') (A")
                 (A') (A') (A') (A") (A')
       Virtual   (A") (A") (A") (A') (A') (A') (A") (A') (A') (A')
                 (A') (A') (A') (A') (A") (A') (A') (A") (A') (A')
                 (A") (A') (A') (A') (A') (A") (A') (A") (A") (A')
                 (A') (A') (A") (A') (A') (A") (A') (A') (A') (A')
                 (A') (A') (A") (A') (A") (A') (A') (A") (A") (A")
                 (A") (A') (A') (A') (A') (A') (A') (A") (A') (A')
                 (A') (A") (A') (A") (A') (A") (A") (A') (A') (A")
                 (A") (A') (A') (A') (A') (A") (A') (A') (A') (A')
                 (A') (A') (A') (A') (A') (A') (A') (A')
 ExpMin= 1.61D-01 ExpMax= 4.17D+03 ExpMxC= 6.27D+02 IAcc=3 IRadAn=         5 AccDes= 0.00D+00
 Harris functional with IExCor= 1009 and IRadAn=       5 diagonalized for initial guess.
 HarFok:  IExCor= 1009 AccDes= 0.00D+00 IRadAn=         5 IDoV= 1 UseB2=F ITyADJ=14
 ICtDFT=  3500011 ScaDFX=  1.000000  1.000000  1.000000  1.000000
 FoFCou: FMM=F IPFlag=           0 FMFlag=      100000 FMFlg1=           0
         NFxFlg=           0 DoJE=T BraDBF=F KetDBF=T FulRan=T
         wScrn=  0.000000 ICntrl=       500 IOpCl=  0 I1Cent=   200000004 NGrid=           0
         NMat0=    1 NMatS0=      1 NMatT0=    0 NMatD0=    1 NMtDS0=    0 NMtDT0=    0
 Petite list used in FoFCou.
 Keep R1 ints in memory in symmetry-blocked form, NReq=32039445.
 Requested convergence on RMS density matrix=1.00D-08 within 128 cycles.
 Requested convergence on MAX density matrix=1.00D-06.
 Requested convergence on             energy=1.00D-06.
 No special actions if energy rises.
 Inv3:  Mode=1 IEnd=     3557763.
 Iteration    1 A*A^-1 deviation from unit magnitude is 3.22D-15 for    236.
 Iteration    1 A*A^-1 deviation from orthogonality  is 1.95D-15 for    654    381.
 Iteration    1 A^-1*A deviation from unit magnitude is 2.89D-15 for    223.
 Iteration    1 A^-1*A deviation from orthogonality  is 2.00D-15 for   1005     55.
 Error on total polarization charges =  0.00410
 SCF Done:  E(RM062X) =  -335.509440503     A.U. after   12 cycles
            NFock= 12  Conv=0.34D-08     -V/T= 2.0086
 D1PCM: PCM CHGder 1st derivatives, ID1Alg=3 FixD1E=F DoIter=F DoCFld=F I1PDM=0.
 Calling FoFJK, ICntrl=      2127 FMM=F ISym2X=1 I1Cent= 0 IOpClX= 0 NMat=1 NMatS=1 NMatT=0.
 ***** Axes restored to original set *****
 -------------------------------------------------------------------
 Center     Atomic                   Forces (Hartrees/Bohr)
 Number     Number              X              Y              Z
 -------------------------------------------------------------------
      1        6           0.006322050    0.012451402   -0.000000000
      2        7          -0.003762290    0.007074706   -0.000000000
      3        6          -0.000445274   -0.003167851   -0.000000000
      4        1          -0.000493202   -0.000919056    0.000000000
      5        7           0.007777496    0.001231445   -0.000000000
      6        7           0.002656733   -0.009433656    0.000000000
      7        7          -0.009311517   -0.003724389   -0.000000000
      8        6          -0.000613804   -0.002649927   -0.000000000
      9        1          -0.000264318   -0.001713460    0.000000000
     10        1          -0.000932937    0.000425393   -0.000484010
     11        1          -0.000932937    0.000425393    0.000484010
 -------------------------------------------------------------------
 Cartesian Forces:  Max     0.012451402 RMS     0.004053217

 GradGradGradGradGradGradGradGradGradGradGradGradGradGradGradGradGradGrad
 Berny optimization.
 Using GEDIIS/GDIIS optimizer.
 FormGI is forming the generalized inverse of G from B-inverse, IUseBI=4.
 Internal  Forces:  Max     0.011108086 RMS     0.003629654
 Search for a local minimum.
 Step number   2 out of a maximum of   50
 All quantities printed in internal units (Hartrees-Bohrs-Radians)
 Mixed Optimization -- RFO/linear search
 Update second derivatives using D2CorX and points    1    2
 DE= -4.80D-03 DEPred=-4.91D-03 R= 9.78D-01
 TightC=F SS=  1.41D+00  RLast= 1.00D-01 DXNew= 1.6818D-01 3.0041D-01
 Trust test= 9.78D-01 RLast= 1.00D-01 DXMaxT set to 1.68D-01
 ITU=  1  0
 Use linear search instead of GDIIS.
     Eigenvalues ---   -0.00004   0.00948   0.02116   0.02985   0.03675
     Eigenvalues ---    0.05539   0.05691   0.05724   0.07499   0.12457
     Eigenvalues ---    0.12873   0.14059   0.14736   0.21427   0.24267
     Eigenvalues ---    0.25663   0.27207   0.31640   0.35840   0.35939
     Eigenvalues ---    0.36456   0.38728   0.40227   0.41803   0.46139
     Eigenvalues ---    0.47547   0.54825
 RFO step:  Lambda=-4.44405154D-05 EMin=-4.44375351D-05
 I=     1 Eig=   -4.44D-05 Dot1=  4.06D-16
 I=     1 Stepn=  4.20D-01 RXN=   4.20D-01 EDone=F
 Mixed    1 eigenvectors in step.  Raw Step.Grad=  4.06D-16.
 RFO eigenvector is Hessian eigenvector with negative curvature.
 Taking step of  4.20D-01 in eigenvector direction(s).  Step.Grad= -8.89D-06.
 Quartic linear search produced a step of  0.42838.
 Iteration  1 RMS(Cart)=  0.07135022 RMS(Int)=  0.00328769
 Iteration  2 RMS(Cart)=  0.00340871 RMS(Int)=  0.00001490
 Iteration  3 RMS(Cart)=  0.00000641 RMS(Int)=  0.00001413
 Iteration  4 RMS(Cart)=  0.00000000 RMS(Int)=  0.00001413
 ClnCor:  largest displacement from symmetrization is 4.41D-01 for atom    11.
          Exceeds limit of 1.00D-01 so symmetrization was rejected.
 Variable       Old X    -DE/DX   Delta X   Delta X   Delta X     New X
                                 (Linear)    (Quad)   (Total)
    R1        2.53134  -0.00918  -0.01717   0.00000  -0.01716   2.51418
    R2        2.04475   0.00104   0.00235  -0.00000   0.00235   2.04710
    R3        2.54058  -0.00913  -0.01319  -0.00000  -0.01318   2.52739
    R4        2.50229  -0.01111  -0.01800  -0.00000  -0.01800   2.48429
    R5        2.55081  -0.00713  -0.00829  -0.00000  -0.00830   2.54252
    R6        2.54252  -0.00717  -0.01205   0.00000  -0.01206   2.53047
    R7        2.83585  -0.00436  -0.00988  -0.00000  -0.00988   2.82597
    R8        2.49192  -0.01104  -0.02244   0.00000  -0.02244   2.46948
    R9        2.05967  -0.00010  -0.00035  -0.00000  -0.00035   2.05932
   R10        2.06314   0.00087   0.00176   0.00158   0.00334   2.06648
   R11        2.06314   0.00087   0.00176  -0.00158   0.00017   2.06332
    A1        2.05023  -0.00159  -0.00216  -0.00000  -0.00217   2.04806
    A2        2.18525   0.00325   0.00545  -0.00000   0.00546   2.19071
    A3        2.04771  -0.00166  -0.00328   0.00000  -0.00329   2.04441
    A4        2.04995  -0.00151  -0.00266  -0.00000  -0.00266   2.04729
    A5        2.17252   0.00049  -0.00231   0.00000  -0.00234   2.17018
    A6        2.04807  -0.00051   0.00036   0.00000   0.00037   2.04844
    A7        2.06259   0.00002   0.00195  -0.00000   0.00196   2.06454
    A8        2.04959  -0.00158  -0.00288   0.00000  -0.00287   2.04672
    A9        2.05521  -0.00031   0.00150  -0.00000   0.00148   2.05669
   A10        2.05385  -0.00034   0.00091   0.00000   0.00088   2.05473
   A11        1.93039  -0.00225  -0.00891  -0.00000  -0.00893   1.92146
   A12        1.91940  -0.00008   0.00013  -0.00255  -0.00244   1.91696
   A13        1.91940  -0.00008   0.00013   0.00255   0.00269   1.92209
   A14        1.90538   0.00127   0.00545  -0.00762  -0.00222   1.90315
   A15        1.90538   0.00127   0.00545   0.00762   0.01308   1.91845
   A16        1.88317  -0.00006  -0.00196  -0.00000  -0.00196   1.88121
    D1        3.14159   0.00000   0.00000  -0.00226  -0.00226   3.13933
    D2        0.00000   0.00000   0.00000  -0.00642  -0.00643  -0.00643
    D3        0.00000  -0.00000   0.00000   0.00601   0.00602   0.00602
    D4        3.14159  -0.00000   0.00000   0.00186   0.00186  -3.13973
    D5        0.00000  -0.00000   0.00000  -0.00035  -0.00037  -0.00037
    D6        0.00000   0.00000   0.00000  -0.00794  -0.00794  -0.00794
    D7        3.14159   0.00000   0.00000  -0.01474  -0.01473   3.12686
    D8        0.00000  -0.00000   0.00000   0.00753   0.00752   0.00752
    D9        3.14159  -0.00000   0.00000   0.01438   0.01437  -3.12722
   D10        3.14159  -0.00000   0.00000  -0.16053  -0.16055   2.98104
   D11       -1.03573   0.00008   0.00112  -0.17171  -0.17057  -1.20630
   D12        1.03573  -0.00008  -0.00112  -0.17171  -0.17283   0.86290
   D13        0.00000  -0.00000   0.00000  -0.16689  -0.16691  -0.16691
   D14        2.10586   0.00008   0.00112  -0.17807  -0.17693   1.92893
   D15       -2.10586  -0.00008  -0.00112  -0.17807  -0.17920  -2.28506
   D16        0.00000  -0.00000   0.00000   0.00113   0.00115   0.00115
         Item               Value     Threshold  Converged?
 Maximum Force            0.011108     0.000450     NO 
 RMS     Force            0.003630     0.000300     NO 
 Maximum Displacement     0.196375     0.001800     NO 
 RMS     Displacement     0.071294     0.001200     NO 
 Predicted change in Energy=-5.429823D-04
 GradGradGradGradGradGradGradGradGradGradGradGradGradGradGradGradGradGrad

                          Input orientation:                          
 ---------------------------------------------------------------------
 Center     Atomic      Atomic             Coordinates (Angstroms)
 Number     Number       Type             X           Y           Z
 ---------------------------------------------------------------------
      1          6           0       -2.023978   -1.399784   -0.005212
      2          7           0       -0.695254   -1.381243   -0.070295
      3          6           0       -0.887610    0.880595    0.010382
      4          1           0       -2.509144   -2.368304   -0.014076
      5          7           0       -2.813090   -0.322925    0.074893
      6          7           0       -2.230632    0.846850    0.083619
      7          7           0       -0.107502   -0.205348   -0.062115
      8          6           0       -0.233197    2.225219    0.001649
      9          1           0        0.846309    2.116833    0.103917
     10          1           0       -0.452749    2.738613   -0.938587
     11          1           0       -0.624253    2.838696    0.815825
 ---------------------------------------------------------------------
                    Distance matrix (angstroms):
                    1          2          3          4          5
     1  C    0.000000
     2  N    1.330446   0.000000
     3  C    2.547882   2.271436   0.000000
     4  H    1.083280   2.065828   3.631159   0.000000
     5  N    1.337439   2.371992   2.271584   2.069753   0.000000
     6  N    2.257867   2.710254   1.345441   3.228673   1.306792
     7  N    2.258937   1.314629   1.339065   3.232425   2.711605
     8  C    4.043215   3.636652   1.495441   5.126464   3.626878
     9  H    4.540601   3.826657   2.131551   5.602628   4.398234
    10  H    4.523967   4.217340   2.131168   5.582480   3.996419
    11  H    4.538507   4.312555   2.133601   5.599500   3.916099
                    6          7          8          9         10
     6  N    0.000000
     7  N    2.374035   0.000000
     8  C    2.428243   2.434650   0.000000
     9  H    3.328789   2.515919   1.089744   0.000000
    10  H    2.790079   3.091004   1.093535   1.777914   0.000000
    11  H    2.661583   3.209986   1.091861   1.786184   1.765614
                   11
    11  H    0.000000
 Stoichiometry    C3H4N4
 Framework group  C1[X(C3H4N4)]
 Deg. of freedom    27
 Full point group                 C1      NOp   1
 Omega: Change in point group or standard orientation.

 Old FWG=CS   [SG(C3H2N4),X(H2)]
 New FWG=C01  [X(C3H4N4)]
 Largest Abelian subgroup         C1      NOp   1
 Largest concise Abelian subgroup C1      NOp   1
                         Standard orientation:                         
 ---------------------------------------------------------------------
 Center     Atomic      Atomic             Coordinates (Angstroms)
 Number     Number       Type             X           Y           Z
 ---------------------------------------------------------------------
      1          6           0       -1.743169   -0.004067    0.006991
      2          7           0       -1.140239    1.181899    0.000152
      3          6           0        0.804649    0.008530   -0.006041
      4          1           0       -2.826394   -0.011545    0.014901
      5          7           0       -1.124981   -1.190045    0.000394
      6          7           0        0.181777   -1.184047   -0.006992
      7          7           0        0.174347    1.189976   -0.006804
      8          6           0        2.300039    0.003043    0.005020
      9          1           0        2.679310    1.011424   -0.158875
     10          1           0        2.662606   -0.362073    0.969932
     11          1           0        2.679042   -0.667319   -0.769018
 ---------------------------------------------------------------------
 Rotational constants (GHZ):           6.1602771           2.8797956           1.9866714
 Standard basis: 6-31G(d) (6D, 7F)
 There are   113 symmetry adapted cartesian basis functions of A   symmetry.
 There are   113 symmetry adapted basis functions of A   symmetry.
   113 basis functions,   212 primitive gaussians,   113 cartesian basis functions
    25 alpha electrons       25 beta electrons
       nuclear repulsion energy       281.5383123397 Hartrees.
 NAtoms=   11 NActive=   11 NUniq=   11 SFac= 1.00D+00 NAtFMM=   60 NAOKFM=F Big=F
 Integral buffers will be    131072 words long.
 Raffenetti 2 integral format.
 Two-electron integral symmetry is turned on.
 ------------------------------------------------------------------------------
 Polarizable Continuum Model (PCM)
 =================================
 Model                : PCM.
 Atomic radii         : UFF (Universal Force Field).
 Polarization charges : Total charges.
 Charge compensation  : None.
 Solution method      : Matrix inversion.
 Cavity type          : Scaled VdW (van der Waals Surface) (Alpha=1.100).
 Cavity algorithm     : GePol (No added spheres)
                        Default sphere list used, NSphG=   11.
                        Lebedev-Laikov grids with approx.  5.0 points / Ang**2.
                        Smoothing algorithm: York/Karplus (Gamma=1.0000).
                        Polarization charges: spherical gaussians, with
                                              point-specific exponents (IZeta= 3).
                        Self-potential: point-specific (ISelfS= 7).
                        Self-field    : sphere-specific E.n sum rule (ISelfD= 2).
 1st derivatives      : Analytical E(r).r(x)/FMM algorithm (CHGder, D1EAlg=3).
                        Cavity 1st derivative terms included.
 Solvent              : Benzene, Eps=   2.270600 Eps(inf)=   2.253301
 ------------------------------------------------------------------------------
 Spheres list:
 ISph  on   Nord     Re0    Alpha      Xe            Ye            Ze
    1   C      1    1.9255  1.100     -1.743169     -0.004067      0.006991
    2   N      2    1.8300  1.100     -1.140239      1.181899      0.000152
    3   C      3    1.9255  1.100      0.804649      0.008530     -0.006041
    4   H      4    1.4430  1.100     -2.826394     -0.011545      0.014901
    5   N      5    1.8300  1.100     -1.124981     -1.190045      0.000394
    6   N      6    1.8300  1.100      0.181777     -1.184047     -0.006992
    7   N      7    1.8300  1.100      0.174347      1.189976     -0.006804
    8   C      8    1.9255  1.100      2.300039      0.003043      0.005020
    9   H      9    1.4430  1.100      2.679310      1.011424     -0.158875
   10   H     10    1.4430  1.100      2.662606     -0.362073      0.969932
   11   H     11    1.4430  1.100      2.679042     -0.667319     -0.769018
 ------------------------------------------------------------------------------
 One-electron integrals computed using PRISM.
 NBasis=   113 RedAO= T EigKep=  1.38D-03  NBF=   113
 NBsUse=   113 1.00D-06 EigRej= -1.00D+00 NBFU=   113
 Initial guess from the checkpoint file:  "2a_gs_2_opt_hess.chk"
 B after Tr=     0.000000   -0.000000    0.000000
         Rot=    0.710493    0.004381    0.004524    0.703676 Ang=  89.45 deg.
 ExpMin= 1.61D-01 ExpMax= 4.17D+03 ExpMxC= 6.27D+02 IAcc=3 IRadAn=         5 AccDes= 0.00D+00
 Harris functional with IExCor= 1009 and IRadAn=       5 diagonalized for initial guess.
 HarFok:  IExCor= 1009 AccDes= 0.00D+00 IRadAn=         5 IDoV= 1 UseB2=F ITyADJ=14
 ICtDFT=  3500011 ScaDFX=  1.000000  1.000000  1.000000  1.000000
 FoFCou: FMM=F IPFlag=           0 FMFlag=      100000 FMFlg1=           0
         NFxFlg=           0 DoJE=T BraDBF=F KetDBF=T FulRan=T
         wScrn=  0.000000 ICntrl=       500 IOpCl=  0 I1Cent=   200000004 NGrid=           0
         NMat0=    1 NMatS0=      1 NMatT0=    0 NMatD0=    1 NMtDS0=    0 NMtDT0=    0
 Petite list used in FoFCou.
 Keep R1 ints in memory in canonical form, NReq=32024856.
 Requested convergence on RMS density matrix=1.00D-08 within 128 cycles.
 Requested convergence on MAX density matrix=1.00D-06.
 Requested convergence on             energy=1.00D-06.
 No special actions if energy rises.
 Inv3:  Mode=1 IEnd=     3590508.
 Iteration    1 A*A^-1 deviation from unit magnitude is 3.11D-15 for    752.
 Iteration    1 A*A^-1 deviation from orthogonality  is 1.44D-15 for    933    100.
 Iteration    1 A^-1*A deviation from unit magnitude is 3.00D-15 for    752.
 Iteration    1 A^-1*A deviation from orthogonality  is 1.78D-15 for   1007     72.
 Error on total polarization charges =  0.00414
 SCF Done:  E(RM062X) =  -335.509933099     A.U. after   13 cycles
            NFock= 13  Conv=0.41D-08     -V/T= 2.0082
 D1PCM: PCM CHGder 1st derivatives, ID1Alg=3 FixD1E=F DoIter=F DoCFld=F I1PDM=0.
 Calling FoFJK, ICntrl=      2127 FMM=F ISym2X=0 I1Cent= 0 IOpClX= 0 NMat=1 NMatS=1 NMatT=0.
 ***** Axes restored to original set *****
 -------------------------------------------------------------------
 Center     Atomic                   Forces (Hartrees/Bohr)
 Number     Number              X              Y              Z
 -------------------------------------------------------------------
      1        6          -0.000072677    0.001525396    0.000079886
      2        7           0.000023355   -0.000705172   -0.000031227
      3        6          -0.000208250    0.000310211   -0.000008991
      4        1          -0.000211512   -0.000385613   -0.000009038
      5        7          -0.000734752   -0.002503620   -0.000035951
      6        7           0.001828831    0.001588373   -0.000071058
      7        7          -0.000274619    0.000801266    0.000041850
      8        6           0.000217802   -0.000381592    0.000169077
      9        1           0.000032180   -0.000430799   -0.000017553
     10        1          -0.000276406    0.000113939   -0.000190150
     11        1          -0.000323952    0.000067611    0.000073154
 -------------------------------------------------------------------
 Cartesian Forces:  Max     0.002503620 RMS     0.000722381

 GradGradGradGradGradGradGradGradGradGradGradGradGradGradGradGradGradGrad
 Berny optimization.
 Using GEDIIS/GDIIS optimizer.
 FormGI is forming the generalized inverse of G from B-inverse, IUseBI=4.
 Internal  Forces:  Max     0.001878845 RMS     0.000408423
 Search for a local minimum.
 Step number   3 out of a maximum of   50
 All quantities printed in internal units (Hartrees-Bohrs-Radians)
 Mixed Optimization -- En-DIIS/RFO-DIIS
 Update second derivatives using D2CorX and points    1    2    3
 ITU=  0  1  0
 Use linear search instead of GDIIS.
     Eigenvalues ---   -0.00005   0.00948   0.02116   0.02985   0.03675
     Eigenvalues ---    0.05539   0.05694   0.05724   0.07525   0.12448
     Eigenvalues ---    0.12865   0.14112   0.14735   0.21437   0.24379
     Eigenvalues ---    0.25665   0.27128   0.31599   0.35840   0.35944
     Eigenvalues ---    0.36448   0.38721   0.40223   0.41852   0.46028
     Eigenvalues ---    0.47542   0.59371
 RFO step:  Lambda=-5.85430428D-05 EMin=-4.55611511D-05
 Quartic linear search produced a step of -0.01211.
 Iteration  1 RMS(Cart)=  0.08501627 RMS(Int)=  0.13367852
 Iteration  2 RMS(Cart)=  0.08256480 RMS(Int)=  0.05902117
 Iteration  3 RMS(Cart)=  0.06499971 RMS(Int)=  0.00277428
 Iteration  4 RMS(Cart)=  0.00285764 RMS(Int)=  0.00005763
 Iteration  5 RMS(Cart)=  0.00000468 RMS(Int)=  0.00005752
 Iteration  6 RMS(Cart)=  0.00000000 RMS(Int)=  0.00005752
 Variable       Old X    -DE/DX   Delta X   Delta X   Delta X     New X
                                 (Linear)    (Quad)   (Total)
    R1        2.51418   0.00004   0.00021   0.00308   0.00329   2.51747
    R2        2.04710   0.00044  -0.00003   0.00148   0.00145   2.04855
    R3        2.52739  -0.00087   0.00016  -0.00768  -0.00752   2.51987
    R4        2.48429   0.00042   0.00022  -0.00524  -0.00502   2.47927
    R5        2.54252  -0.00085   0.00010  -0.00703  -0.00693   2.53559
    R6        2.53047  -0.00045   0.00015   0.00240   0.00254   2.53301
    R7        2.82597  -0.00072   0.00012  -0.00242  -0.00230   2.82368
    R8        2.46948   0.00188   0.00027   0.00772   0.00799   2.47747
    R9        2.05932   0.00007   0.00000   0.00006   0.00006   2.05938
   R10        2.06648   0.00027  -0.00004  -0.00424  -0.00428   2.06220
   R11        2.06332   0.00021  -0.00000   0.00578   0.00578   2.06910
    A1        2.04806  -0.00013   0.00003  -0.00247  -0.00245   2.04561
    A2        2.19071   0.00029  -0.00007   0.00227   0.00213   2.19284
    A3        2.04441  -0.00017   0.00004   0.00024   0.00028   2.04469
    A4        2.04729  -0.00021   0.00003  -0.00139  -0.00143   2.04587
    A5        2.17018   0.00002   0.00003   0.00023   0.00013   2.17032
    A6        2.04844   0.00011  -0.00000   0.00248   0.00243   2.05086
    A7        2.06454  -0.00013  -0.00002  -0.00257  -0.00264   2.06190
    A8        2.04672  -0.00037   0.00003  -0.00172  -0.00176   2.04496
    A9        2.05669   0.00003  -0.00002  -0.00019  -0.00029   2.05641
   A10        2.05473   0.00025  -0.00001   0.00109   0.00100   2.05573
   A11        1.92146  -0.00051   0.00011  -0.00391  -0.00395   1.91751
   A12        1.91696  -0.00007   0.00003   0.00794   0.00791   1.92488
   A13        1.92209  -0.00012  -0.00003  -0.00911  -0.00924   1.91286
   A14        1.90315   0.00033   0.00003   0.02767   0.02759   1.93075
   A15        1.91845   0.00039  -0.00016  -0.02110  -0.02145   1.89701
   A16        1.88121   0.00001   0.00002  -0.00101  -0.00098   1.88023
    D1        3.13933   0.00000   0.00003   0.00809   0.00812  -3.13573
    D2       -0.00643   0.00001   0.00008   0.02228   0.02236   0.01593
    D3        0.00602  -0.00001  -0.00007  -0.02072  -0.02080  -0.01478
    D4       -3.13973   0.00000  -0.00002  -0.00657  -0.00658   3.13687
    D5       -0.00037  -0.00001   0.00000   0.00101   0.00103   0.00066
    D6       -0.00794   0.00001   0.00010   0.02723   0.02730   0.01937
    D7        3.12686   0.00004   0.00018   0.04973   0.04992  -3.10640
    D8        0.00752  -0.00001  -0.00009  -0.02564  -0.02573  -0.01821
    D9       -3.12722  -0.00003  -0.00017  -0.04835  -0.04850   3.10746
   D10        2.98104   0.00001   0.00194   0.51990   0.52187  -2.78027
   D11       -1.20630   0.00004   0.00207   0.55667   0.55878  -0.64752
   D12        0.86290  -0.00007   0.00209   0.55474   0.55675   1.41966
   D13       -0.16691   0.00003   0.00202   0.54100   0.54306   0.37614
   D14        1.92893   0.00007   0.00214   0.57778   0.57996   2.50889
   D15       -2.28506  -0.00004   0.00217   0.57584   0.57794  -1.70712
   D16        0.00115  -0.00000  -0.00001  -0.00398  -0.00400  -0.00285
         Item               Value     Threshold  Converged?
 Maximum Force            0.001879     0.000450     NO 
 RMS     Force            0.000408     0.000300     NO 
 Maximum Displacement     0.632572     0.001800     NO 
 RMS     Displacement     0.228648     0.001200     NO 
 Predicted change in Energy=-8.484798D-05
 GradGradGradGradGradGradGradGradGradGradGradGradGradGradGradGradGradGrad

                          Input orientation:                          
 ---------------------------------------------------------------------
 Center     Atomic      Atomic             Coordinates (Angstroms)
 Number     Number       Type             X           Y           Z
 ---------------------------------------------------------------------
      1          6           0       -2.025282   -1.396293    0.012565
      2          7           0       -0.701404   -1.374063    0.159454
      3          6           0       -0.888556    0.881722   -0.024730
      4          1           0       -2.510127   -2.365626    0.034347
      5          7           0       -2.804835   -0.329921   -0.169817
      6          7           0       -2.219454    0.842969   -0.190765
      7          7           0       -0.115079   -0.200557    0.139917
      8          6           0       -0.234568    2.225064   -0.003654
      9          1           0        0.826463    2.123983   -0.230825
     10          1           0       -0.718718    2.892850   -0.718168
     11          1           0       -0.339541    2.669070    0.991678
 ---------------------------------------------------------------------
                    Distance matrix (angstroms):
                    1          2          3          4          5
     1  C    0.000000
     2  N    1.332187   0.000000
     3  C    2.546152   2.271016   0.000000
     4  H    1.084046   2.066477   3.630186   0.000000
     5  N    1.333459   2.371301   2.271840   2.067034   0.000000
     6  N    2.256843   2.709679   1.341775   3.229589   1.311023
     7  N    2.257184   1.311974   1.340411   3.230313   2.710619
     8  C    4.039944   3.632940   1.494226   5.123870   3.627924
     9  H    4.536963   3.837059   2.127670   5.599977   4.383115
    10  H    4.542888   4.356267   2.134089   5.605978   3.877992
    11  H    4.508610   4.143726   2.128172   5.565617   4.052246
                    6          7          8          9         10
     6  N    0.000000
     7  N    2.372065   0.000000
     8  C    2.425896   2.432802   0.000000
     9  H    3.304574   2.535239   1.089775   0.000000
    10  H    2.594682   3.266475   1.091270   1.793389   0.000000
    11  H    2.875220   3.001773   1.094918   1.775162   1.765624
                   11
    11  H    0.000000
 Stoichiometry    C3H4N4
 Framework group  C1[X(C3H4N4)]
 Deg. of freedom    27
 Full point group                 C1      NOp   1
 Largest Abelian subgroup         C1      NOp   1
 Largest concise Abelian subgroup C1      NOp   1
                         Standard orientation:                         
 ---------------------------------------------------------------------
 Center     Atomic      Atomic             Coordinates (Angstroms)
 Number     Number       Type             X           Y           Z
 ---------------------------------------------------------------------
      1          6           0       -1.741325   -0.003865   -0.016720
      2          7           0       -1.136869    1.183185   -0.000317
      3          6           0        0.804624    0.005090    0.014119
      4          1           0       -2.825195   -0.007874   -0.035839
      5          7           0       -1.128592   -1.188102   -0.000749
      6          7           0        0.182305   -1.183636    0.016872
      7          7           0        0.174993    1.188417    0.015983
      8          6           0        2.298613    0.001841   -0.012361
      9          1           0        2.677482    0.957240    0.349967
     10          1           0        2.685983   -0.819639    0.592607
     11          1           0        2.647408   -0.147169   -1.039485
 ---------------------------------------------------------------------
 Rotational constants (GHZ):           6.1653710           2.8829715           1.9888708
 Standard basis: 6-31G(d) (6D, 7F)
 There are   113 symmetry adapted cartesian basis functions of A   symmetry.
 There are   113 symmetry adapted basis functions of A   symmetry.
   113 basis functions,   212 primitive gaussians,   113 cartesian basis functions
    25 alpha electrons       25 beta electrons
       nuclear repulsion energy       281.6582411619 Hartrees.
 NAtoms=   11 NActive=   11 NUniq=   11 SFac= 1.00D+00 NAtFMM=   60 NAOKFM=F Big=F
 Integral buffers will be    131072 words long.
 Raffenetti 2 integral format.
 Two-electron integral symmetry is turned on.
 ------------------------------------------------------------------------------
 Polarizable Continuum Model (PCM)
 =================================
 Model                : PCM.
 Atomic radii         : UFF (Universal Force Field).
 Polarization charges : Total charges.
 Charge compensation  : None.
 Solution method      : Matrix inversion.
 Cavity type          : Scaled VdW (van der Waals Surface) (Alpha=1.100).
 Cavity algorithm     : GePol (No added spheres)
                        Default sphere list used, NSphG=   11.
                        Lebedev-Laikov grids with approx.  5.0 points / Ang**2.
                        Smoothing algorithm: York/Karplus (Gamma=1.0000).
                        Polarization charges: spherical gaussians, with
                                              point-specific exponents (IZeta= 3).
                        Self-potential: point-specific (ISelfS= 7).
                        Self-field    : sphere-specific E.n sum rule (ISelfD= 2).
 1st derivatives      : Analytical E(r).r(x)/FMM algorithm (CHGder, D1EAlg=3).
                        Cavity 1st derivative terms included.
 Solvent              : Benzene, Eps=   2.270600 Eps(inf)=   2.253301
 ------------------------------------------------------------------------------
 Spheres list:
 ISph  on   Nord     Re0    Alpha      Xe            Ye            Ze
    1   C      1    1.9255  1.100     -1.741325     -0.003865     -0.016720
    2   N      2    1.8300  1.100     -1.136869      1.183185     -0.000317
    3   C      3    1.9255  1.100      0.804624      0.005090      0.014119
    4   H      4    1.4430  1.100     -2.825195     -0.007874     -0.035839
    5   N      5    1.8300  1.100     -1.128592     -1.188102     -0.000749
    6   N      6    1.8300  1.100      0.182305     -1.183636      0.016872
    7   N      7    1.8300  1.100      0.174993      1.188417      0.015983
    8   C      8    1.9255  1.100      2.298613      0.001841     -0.012361
    9   H      9    1.4430  1.100      2.677482      0.957240      0.349967
   10   H     10    1.4430  1.100      2.685983     -0.819639      0.592607
   11   H     11    1.4430  1.100      2.647408     -0.147169     -1.039485
 ------------------------------------------------------------------------------
 One-electron integrals computed using PRISM.
 NBasis=   113 RedAO= T EigKep=  1.38D-03  NBF=   113
 NBsUse=   113 1.00D-06 EigRej= -1.00D+00 NBFU=   113
 Initial guess from the checkpoint file:  "2a_gs_2_opt_hess.chk"
 B after Tr=    -0.000000    0.000000   -0.000000
         Rot=    0.999804   -0.019790   -0.000456    0.000394 Ang=  -2.27 deg.
 ExpMin= 1.61D-01 ExpMax= 4.17D+03 ExpMxC= 6.27D+02 IAcc=3 IRadAn=         5 AccDes= 0.00D+00
 Harris functional with IExCor= 1009 and IRadAn=       5 diagonalized for initial guess.
 HarFok:  IExCor= 1009 AccDes= 0.00D+00 IRadAn=         5 IDoV= 1 UseB2=F ITyADJ=14
 ICtDFT=  3500011 ScaDFX=  1.000000  1.000000  1.000000  1.000000
 FoFCou: FMM=F IPFlag=           0 FMFlag=      100000 FMFlg1=           0
         NFxFlg=           0 DoJE=T BraDBF=F KetDBF=T FulRan=T
         wScrn=  0.000000 ICntrl=       500 IOpCl=  0 I1Cent=   200000004 NGrid=           0
         NMat0=    1 NMatS0=      1 NMatT0=    0 NMatD0=    1 NMtDS0=    0 NMtDT0=    0
 Petite list used in FoFCou.
 Keep R1 ints in memory in canonical form, NReq=32024856.
 Requested convergence on RMS density matrix=1.00D-08 within 128 cycles.
 Requested convergence on MAX density matrix=1.00D-06.
 Requested convergence on             energy=1.00D-06.
 No special actions if energy rises.
 Inv3:  Mode=1 IEnd=     3531675.
 Iteration    1 A*A^-1 deviation from unit magnitude is 2.89D-15 for    407.
 Iteration    1 A*A^-1 deviation from orthogonality  is 2.00D-15 for    949    217.
 Iteration    1 A^-1*A deviation from unit magnitude is 2.78D-15 for    587.
 Iteration    1 A^-1*A deviation from orthogonality  is 1.33D-15 for    929    147.
 Error on total polarization charges =  0.00415
 SCF Done:  E(RM062X) =  -335.509925992     A.U. after   15 cycles
            NFock= 15  Conv=0.53D-08     -V/T= 2.0081
 D1PCM: PCM CHGder 1st derivatives, ID1Alg=3 FixD1E=F DoIter=F DoCFld=F I1PDM=0.
 Calling FoFJK, ICntrl=      2127 FMM=F ISym2X=0 I1Cent= 0 IOpClX= 0 NMat=1 NMatS=1 NMatT=0.
 ***** Axes restored to original set *****
 -------------------------------------------------------------------
 Center     Atomic                   Forces (Hartrees/Bohr)
 Number     Number              X              Y              Z
 -------------------------------------------------------------------
      1        6          -0.000346355   -0.000953112   -0.000105257
      2        7           0.000243052   -0.000528199    0.000030590
      3        6          -0.000570488    0.000653820    0.000294513
      4        1           0.000025597    0.000016153    0.000052898
      5        7          -0.000315668    0.000520412   -0.000191790
      6        7          -0.000689553   -0.000067920    0.000032793
      7        7           0.000805719    0.000525775    0.000095564
      8        6           0.000103739    0.000077060    0.000134924
      9        1           0.000297074    0.000441558   -0.000056055
     10        1           0.000169662   -0.000409550   -0.000263568
     11        1           0.000277220   -0.000275997   -0.000024612
 -------------------------------------------------------------------
 Cartesian Forces:  Max     0.000953112 RMS     0.000380826

 GradGradGradGradGradGradGradGradGradGradGradGradGradGradGradGradGradGrad
 Berny optimization.
 Using GEDIIS/GDIIS optimizer.
 FormGI is forming the generalized inverse of G from B-inverse, IUseBI=4.
 Internal  Forces:  Max     0.000790263 RMS     0.000333822
 Search for a local minimum.
 Step number   4 out of a maximum of   50
 All quantities printed in internal units (Hartrees-Bohrs-Radians)
 Mixed Optimization -- En-DIIS/RFO-DIIS
 Swapping is turned off.
 Update second derivatives using D2CorX and points    3    4
 DE=  7.11D-06 DEPred=-8.48D-05 R=-8.38D-02
 Trust test=-8.38D-02 RLast= 1.37D+00 DXMaxT set to 8.41D-02
 ITU= -1  0  1  0
     Eigenvalues ---    0.00005   0.00975   0.02117   0.03069   0.03693
     Eigenvalues ---    0.05544   0.05725   0.05748   0.09255   0.12621
     Eigenvalues ---    0.13543   0.14211   0.14775   0.22895   0.24878
     Eigenvalues ---    0.25679   0.29123   0.33239   0.35843   0.36129
     Eigenvalues ---    0.36690   0.38956   0.40354   0.42206   0.47575
     Eigenvalues ---    0.59651   0.61253
 Eigenvalue     1 is   5.02D-05 Eigenvector:
                          D15       D14       D12       D11       D13
   1                    0.42279   0.42203   0.40955   0.40878   0.39716
                          D10       D7        D9        A14       A15
   1                    0.38392   0.02926  -0.02876   0.01805  -0.01760
 En-DIIS/RFO-DIIS/Sim-DIIS IScMMF=       -3 using points:     4    3
 RFO step:  Lambda=-3.15034002D-05.
 DidBck=T Rises=T En-DIIS coefs:    0.47366    0.52634
 Iteration  1 RMS(Cart)=  0.08322284 RMS(Int)=  0.03857428
 Iteration  2 RMS(Cart)=  0.04248699 RMS(Int)=  0.00120110
 Iteration  3 RMS(Cart)=  0.00123164 RMS(Int)=  0.00001026
 Iteration  4 RMS(Cart)=  0.00000083 RMS(Int)=  0.00001025
 Variable       Old X    -DE/DX   Delta X   Delta X   Delta X     New X
                                 (Linear)    (Quad)   (Total)
    R1        2.51747   0.00062  -0.00173   0.00154  -0.00019   2.51728
    R2        2.04855  -0.00002  -0.00076   0.00041  -0.00035   2.04819
    R3        2.51987   0.00078   0.00396  -0.00121   0.00274   2.52262
    R4        2.47927   0.00079   0.00264  -0.00021   0.00243   2.48171
    R5        2.53559   0.00074   0.00365  -0.00135   0.00230   2.53788
    R6        2.53301   0.00040  -0.00134   0.00114  -0.00020   2.53281
    R7        2.82368   0.00022   0.00121  -0.00037   0.00084   2.82452
    R8        2.47747   0.00023  -0.00421   0.00275  -0.00146   2.47601
    R9        2.05938   0.00026  -0.00003   0.00035   0.00032   2.05970
   R10        2.06220  -0.00016   0.00225   0.00019   0.00244   2.06464
   R11        2.06910  -0.00015  -0.00304  -0.00011  -0.00316   2.06594
    A1        2.04561   0.00010   0.00129  -0.00053   0.00076   2.04636
    A2        2.19284  -0.00024  -0.00112   0.00036  -0.00075   2.19209
    A3        2.04469   0.00014  -0.00015   0.00019   0.00004   2.04473
    A4        2.04587   0.00006   0.00075  -0.00041   0.00035   2.04621
    A5        2.17032  -0.00003  -0.00007   0.00015   0.00009   2.17040
    A6        2.05086   0.00068  -0.00128   0.00196   0.00069   2.05156
    A7        2.06190  -0.00065   0.00139  -0.00208  -0.00068   2.06122
    A8        2.04496   0.00018   0.00093  -0.00020   0.00073   2.04569
[...]
    R6        2.53112  -0.00000   0.00000  -0.00001  -0.00001   2.53111
    R7        2.82454   0.00000   0.00000   0.00000   0.00000   2.82454
    R8        2.47453  -0.00000   0.00000  -0.00001  -0.00001   2.47452
    R9        2.05922  -0.00000   0.00000  -0.00000  -0.00000   2.05922
   R10        2.06562  -0.00000   0.00000  -0.00000  -0.00000   2.06562
   R11        2.06560   0.00000   0.00000   0.00000   0.00000   2.06560
    A1        2.04675   0.00000   0.00000   0.00000   0.00000   2.04675
    A2        2.19234  -0.00000   0.00000  -0.00000  -0.00000   2.19234
    A3        2.04410   0.00000   0.00000  -0.00000  -0.00000   2.04410
    A4        2.04612   0.00000   0.00000   0.00000   0.00000   2.04612
    A5        2.17047  -0.00000   0.00000   0.00000   0.00000   2.17047
    A6        2.04903  -0.00000   0.00000  -0.00000  -0.00000   2.04902
    A7        2.06369   0.00000   0.00000   0.00000   0.00000   2.06370
    A8        2.04534   0.00000   0.00000   0.00000   0.00000   2.04534
    A9        2.05678  -0.00000   0.00000  -0.00000  -0.00000   2.05678
   A10        2.05533  -0.00000   0.00000  -0.00000  -0.00000   2.05533
   A11        1.91787  -0.00000   0.00000   0.00000   0.00000   1.91787
   A12        1.91917   0.00000   0.00000   0.00001   0.00001   1.91918
   A13        1.91920   0.00000   0.00000  -0.00000  -0.00000   1.91920
   A14        1.91402   0.00000   0.00000   0.00002   0.00002   1.91404
   A15        1.91412  -0.00000   0.00000  -0.00002  -0.00002   1.91410
   A16        1.87908  -0.00000   0.00000  -0.00001  -0.00001   1.87907
    D1        3.14158   0.00000   0.00000   0.00001   0.00001   3.14159
    D2       -0.00004   0.00000   0.00000   0.00002   0.00002  -0.00002
    D3        0.00004  -0.00000   0.00000  -0.00002  -0.00002   0.00002
    D4       -3.14158  -0.00000   0.00000  -0.00001  -0.00001  -3.14159
    D5       -0.00000  -0.00000   0.00000   0.00000   0.00000  -0.00000
    D6       -0.00005   0.00000   0.00000   0.00002   0.00002  -0.00002
    D7        3.14151   0.00000   0.00000   0.00003   0.00003   3.14155
    D8        0.00004  -0.00000   0.00000  -0.00002  -0.00002   0.00002
    D9       -3.14151  -0.00000   0.00000  -0.00003  -0.00003  -3.14155
   D10        3.14070  -0.00000   0.00000   0.00032   0.00032   3.14102
   D11       -1.03405   0.00000   0.00000   0.00035   0.00035  -1.03370
   D12        1.03213   0.00000   0.00000   0.00035   0.00035   1.03247
   D13       -0.00092  -0.00000   0.00000   0.00033   0.00033  -0.00059
   D14        2.10751   0.00000   0.00000   0.00036   0.00036   2.10787
   D15       -2.10950  -0.00000   0.00000   0.00036   0.00036  -2.10914
   D16        0.00001   0.00000   0.00000  -0.00000  -0.00000   0.00000
         Item               Value     Threshold  Converged?
 Maximum Force            0.000002     0.000450     YES
 RMS     Force            0.000001     0.000300     YES
 Maximum Displacement     0.000387     0.001800     YES
 RMS     Displacement     0.000143     0.001200     YES
 Predicted change in Energy=-8.446498D-11
 Optimization completed.
    -- Stationary point found.
                           ----------------------------
                           !   Optimized Parameters   !
                           ! (Angstroms and Degrees)  !
 --------------------------                            --------------------------
 ! Name  Definition              Value          Derivative Info.                !
 --------------------------------------------------------------------------------
 ! R1    R(1,2)                  1.3312         -DE/DX =    0.0                 !
 ! R2    R(1,4)                  1.084          -DE/DX =    0.0                 !
 ! R3    R(1,5)                  1.3358         -DE/DX =    0.0                 !
 ! R4    R(2,7)                  1.3143         -DE/DX =    0.0                 !
 ! R5    R(3,6)                  1.3437         -DE/DX =    0.0                 !
 ! R6    R(3,7)                  1.3394         -DE/DX =    0.0                 !
 ! R7    R(3,8)                  1.4947         -DE/DX =    0.0                 !
 ! R8    R(5,6)                  1.3095         -DE/DX =    0.0                 !
 ! R9    R(8,9)                  1.0897         -DE/DX =    0.0                 !
 ! R10   R(8,10)                 1.0931         -DE/DX =    0.0                 !
 ! R11   R(8,11)                 1.0931         -DE/DX =    0.0                 !
 ! A1    A(2,1,4)              117.2701         -DE/DX =    0.0                 !
 ! A2    A(2,1,5)              125.6117         -DE/DX =    0.0                 !
 ! A3    A(4,1,5)              117.1182         -DE/DX =    0.0                 !
 ! A4    A(1,2,7)              117.2342         -DE/DX =    0.0                 !
 ! A5    A(6,3,7)              124.3585         -DE/DX =    0.0                 !
 ! A6    A(6,3,8)              117.4005         -DE/DX =    0.0                 !
 ! A7    A(7,3,8)              118.241          -DE/DX =    0.0                 !
 ! A8    A(1,5,6)              117.1891         -DE/DX =    0.0                 !
 ! A9    A(3,6,5)              117.8449         -DE/DX =    0.0                 !
 ! A10   A(2,7,3)              117.7616         -DE/DX =    0.0                 !
 ! A11   A(3,8,9)              109.8858         -DE/DX =    0.0                 !
 ! A12   A(3,8,10)             109.9603         -DE/DX =    0.0                 !
 ! A13   A(3,8,11)             109.9622         -DE/DX =    0.0                 !
 ! A14   A(9,8,10)             109.6653         -DE/DX =    0.0                 !
 ! A15   A(9,8,11)             109.6712         -DE/DX =    0.0                 !
 ! A16   A(10,8,11)            107.6633         -DE/DX =    0.0                 !
 ! D1    D(4,1,2,7)            179.9993         -DE/DX =    0.0                 !
 ! D2    D(5,1,2,7)             -0.0022         -DE/DX =    0.0                 !
 ! D3    D(2,1,5,6)              0.0021         -DE/DX =    0.0                 !
 ! D4    D(4,1,5,6)           -179.9994         -DE/DX =    0.0                 !
 ! D5    D(1,2,7,3)             -0.0002         -DE/DX =    0.0                 !
 ! D6    D(7,3,6,5)             -0.0026         -DE/DX =    0.0                 !
 ! D7    D(8,3,6,5)            179.9955         -DE/DX =    0.0                 !
 ! D8    D(6,3,7,2)              0.0025         -DE/DX =    0.0                 !
 ! D9    D(8,3,7,2)           -179.9955         -DE/DX =    0.0                 !
 ! D10   D(6,3,8,9)            179.9491         -DE/DX =    0.0                 !
 ! D11   D(6,3,8,10)           -59.2468         -DE/DX =    0.0                 !
 ! D12   D(6,3,8,11)            59.1365         -DE/DX =    0.0                 !
 ! D13   D(7,3,8,9)             -0.0527         -DE/DX =    0.0                 !
 ! D14   D(7,3,8,10)           120.7514         -DE/DX =    0.0                 !
 ! D15   D(7,3,8,11)          -120.8653         -DE/DX =    0.0                 !
 ! D16   D(1,5,6,3)              0.0003         -DE/DX =    0.0                 !
 --------------------------------------------------------------------------------
 GradGradGradGradGradGradGradGradGradGradGradGradGradGradGradGradGradGrad


 ----------------------------------------------------------------------

 Electric dipole moment (input orientation):
 (Debye = 10**-18 statcoulomb cm , SI units = C m)
                  (au)            (Debye)         (10**-30 SI)
   Tot        0.336929D+00      0.856388D+00      0.285660D+01
   x          0.118242D+00      0.300540D+00      0.100249D+01
   y          0.315500D+00      0.801920D+00      0.267492D+01
   z         -0.177605D-03     -0.451428D-03     -0.150580D-02

 Dipole polarizability, Alpha (input orientation).
 (esu units = cm**3 , SI units = C**2 m**2 J**-1)
 Alpha(0;0):
               (au)            (10**-24 esu)      (10**-40 SI)
   iso        0.564632D+02      0.836698D+01      0.930952D+01
   aniso      0.409920D+02      0.607439D+01      0.675867D+01
   xx         0.620837D+02      0.919985D+01      0.102362D+02
   yx         0.764159D+01      0.113237D+01      0.125993D+01
   yy         0.755168D+02      0.111904D+02      0.124510D+02
   zx         0.899773D-02      0.133333D-02      0.148353D-02
   zy        -0.943884D-02     -0.139869D-02     -0.155625D-02
   zz         0.317891D+02      0.471066D+01      0.524131D+01

 ----------------------------------------------------------------------

 Dipole orientation:
     6         -2.48431474          0.93292413         -3.81715047
     7         -0.28969484          0.10885582         -2.90446833
     6         -2.01973434          0.75632840          0.97106568
     1         -2.68437773          1.00898756         -5.85434940
     7         -4.46394654          1.67515029         -2.43808981
     7         -4.22510965          1.58435759          0.02321290
     7         -0.04855313          0.01719675         -0.43416616
     6         -1.76745441          0.66053722          3.78268183
     1          0.09920060         -0.04204006          4.29490942
     1         -2.04347096          2.54595060          4.58006325
     1         -3.21825279         -0.57536841          4.57918748

 Electric dipole moment (dipole orientation):
 (Debye = 10**-18 statcoulomb cm , SI units = C m)
                  (au)            (Debye)         (10**-30 SI)
   Tot        0.336929D+00      0.856388D+00      0.285660D+01
   x          0.000000D+00      0.000000D+00      0.000000D+00
   y          0.000000D+00      0.000000D+00      0.000000D+00
   z          0.336929D+00      0.856388D+00      0.285660D+01

 Dipole polarizability, Alpha (dipole orientation).
 (esu units = cm**3 , SI units = C**2 m**2 J**-1)
 Alpha(0;0):
               (au)            (10**-24 esu)      (10**-40 SI)
   iso        0.564632D+02      0.836698D+01      0.930952D+01
   aniso      0.409920D+02      0.607439D+01      0.675867D+01
   xx         0.553913D+02      0.820814D+01      0.913279D+01
   yx        -0.885798D+01     -0.131262D+01     -0.146048D+01
   yy         0.351135D+02      0.520329D+01      0.578944D+01
   zx         0.125268D+01      0.185627D+00      0.206538D+00
   zy        -0.489917D+00     -0.725982D-01     -0.807764D-01
   zz         0.788848D+02      0.116895D+02      0.130063D+02

 ----------------------------------------------------------------------
 Unable to Open any file for archive entry.
 1\1\GINC-NODE-002\Freq\RM062X\6-31G(d)\C3H4N4\JP2658\09-Dec-2023\0\\#N
  Geom=AllCheck Guess=TCheck SCRF=Check GenChk RM062X/6-31G(d) Freq\\**
 ***\\0,1\C,-2.0238461979,-1.3986594738,0.0001413156\N,-0.6927354542,-1
 .3817521437,0.0006688334\C,-0.8883540972,0.8817019895,0.0000357155\H,-
 2.5082298819,-2.3683859341,0.0001720868\N,-2.8153719289,-0.3226806327,
 -0.0003962318\N,-2.2316756822,0.8494953827,-0.0004473123\N,-0.10614782
 52,-0.2055739784,0.0006165177\C,-0.2324946389,2.2248020217,-0.00013272
 94\H,0.8509439919,2.108226433,0.0012112255\H,-0.5405189105,2.790360911
 7,-0.8833574609\H,-0.5426693749,2.7916654241,0.8814880399\\Version=ES6
 4L-G16RevC.01\State=1-A\HF=-335.5099485\RMSD=4.877e-09\RMSF=1.942e-06\
 ZeroPoint=0.0802869\Thermal=0.0861907\ETot=-335.4237578\HTot=-335.4228
 137\GTot=-335.460111\Dipole=0.1182416,0.3154998,-0.0001776\DipoleDeriv
 =-0.0883213,0.3161025,-0.0002301,0.3252663,0.402177,0.0001387,-0.00023
 29,0.0001352,0.3510837,0.1170303,-0.3449934,0.0002336,0.2399647,-0.338
 2686,0.000094,0.0000695,-0.0001263,-0.2465867,-0.0168227,0.509035,-0.0
 003347,0.5218686,0.8510292,-0.000039,-0.0003583,-0.0000848,0.4057466,0
 .0844916,-0.0461399,-0.0000019,-0.0450613,0.0171218,0.0000036,-0.00000
 04,0.0000066,0.1151916,-0.127695,0.0526059,0.0000087,-0.5367414,-0.097
 9084,-0.0002424,0.0001663,-0.0000335,-0.2456137,0.0102395,-0.4862732,0
 .0002446,0.1855029,-0.4306237,0.0001218,0.0000796,-0.0001348,-0.253953
 2,-0.1378611,0.0996133,0.0000053,-0.5815046,-0.2996637,-0.0001834,0.00
 01684,0.0000659,-0.2398243,0.0796417,-0.0224155,0.0000448,-0.1161277,-
 0.2224708,0.0000839,0.0001984,0.0003822,0.0075294,-0.0380365,-0.027274
 5,-0.0001454,0.0520234,0.0558804,0.000081,-0.0001902,-0.0000484,0.0934
 633,0.0587931,-0.0252679,-0.0581941,-0.0226747,0.0313972,0.0393985,-0.
 0360217,0.0573622,0.0062846,0.0585402,-0.0249923,0.0583694,-0.0225162,
 0.0313295,-0.0394567,0.0361212,-0.0575243,0.0066788\Polar=62.0836513,7
 .6415924,75.5168449,0.0089977,-0.0094388,31.7890924\Quadrupole=-4.7441
 3,3.4749324,1.2691975,5.2816542,-0.0037219,0.0011854\PG=C01 [X(C3H4N4)
 ]\NImag=0\\0.69653263,0.08396641,0.80988880,0.00019509,-0.00011622,0.1
 4794791,-0.32766668,-0.03326316,-0.00009752,0.55982594,0.05065276,-0.1
 6423588,0.00004294,0.06172842,0.52694449,-0.00011554,0.00001055,-0.068
 33242,0.00017244,-0.00008191,0.08602484,-0.11299202,0.05511039,-0.0000
 4118,0.12377808,0.06249913,0.00002214,0.65583912,0.05427339,-0.0280526
 9,0.00002312,-0.04305200,-0.11081459,0.00001682,0.03792265,0.73027075,
 -0.00004419,0.00001673,-0.03519422,0.00004270,0.00006088,0.03127011,0.
 00016089,-0.00013137,0.19105821,-0.11364193,-0.12131416,-0.00000002,-0
 .01955109,-0.03200398,0.00000093,-0.00122761,0.00074529,-0.00000045,0.
 12868036,-0.12118492,-0.29620714,0.00000952,0.00005572,0.00562971,-0.0
 0000183,0.00080489,0.00000724,0.00000039,0.12412260,0.31520148,0.00000
 018,0.00001012,-0.04358288,-0.00000711,-0.00001473,-0.00288083,-0.0000
 0071,-0.00000019,-0.00031076,0.00001108,-0.00001612,0.02851292,-0.2276
 8333,0.11710167,-0.00008417,-0.06068693,0.03607151,-0.00005323,-0.0335
 4562,-0.05824745,-0.00000707,0.01181585,-0.00854429,0.00000768,0.47977
 133,0.03279553,-0.25059328,0.00005145,0.15420035,0.08327497,0.00005226
 ,-0.16441339,0.04621567,-0.00006661,0.02367597,-0.02552847,0.00001364,
 0.01340070,0.60911838,-0.00006567,0.00008499,-0.06958155,-0.00007762,0
 .00000555,0.05097477,0.00001220,-0.00002423,0.03283349,0.00000016,0.00
 000207,-0.00247982,0.00014395,-0.00011482,0.08632539,0.12077868,-0.043
 49296,0.00004247,-0.09836156,-0.07225345,-0.00000782,-0.28818244,-0.02
 591345,-0.00007101,-0.00112027,0.00355450,-0.00000517,-0.17676368,-0.0
 7119804,-0.00002336,0.53009495,0.06219547,-0.11344381,0.00005708,-0.07
 577410,-0.03595050,-0.00003076,0.05493077,-0.16136852,0.00004251,0.004
 97222,-0.00207148,0.00000490,-0.11456713,-0.31918760,0.00001666,0.0750
 8519,0.55609756,0.00001957,0.00001722,0.03581086,-0.00000668,-0.000028
 33,-0.03684917,-0.00008907,0.00000524,-0.07320889,-0.00000600,0.000004
 25,0.01145826,-0.00001557,0.00003290,-0.07148451,0.00014736,-0.0000842
 8,0.08263318,-0.03816329,-0.05622526,-0.00001589,-0.17371279,-0.109482
 64,-0.00001123,-0.22568856,0.11020086,-0.00008820,-0.00561529,0.001441
 46,-0.00000765,0.01259577,0.00679845,0.00001695,-0.05655011,0.03858358
 ,-0.00004825,0.47523872,-0.16270909,0.04524215,-0.00006649,-0.06582927
 ,-0.30457985,0.00003157,0.02695893,-0.23885353,0.00005476,0.00009868,0
 .00264244,0.00000254,0.01172156,-0.14763479,0.00002848,0.14494891,0.08
 050389,0.00005143,0.02027985,0.60692974,0.00000892,-0.00002407,0.03403
 284,-0.00002101,0.00001264,-0.07207697,-0.00007290,0.00008432,-0.07091
 039,-0.00000710,0.00000261,0.01211547,0.00001651,0.00002841,-0.0364955
 9,-0.00007298,0.00000955,0.04811524,0.00014769,-0.00012217,0.08414490,
 0.00076574,-0.00033509,0.00000060,-0.00277385,0.00425999,-0.00001256,-
 0.11420383,-0.06551389,0.00000583,0.00055828,-0.00029215,0.00000153,-0
 .00582073,0.00095193,-0.00000122,-0.02613967,-0.03943005,-0.00000046,0
 .01247604,0.02149183,0.00000124,0.61126565,0.00002722,-0.00330742,-0.0
 0000030,0.00193030,0.00190891,0.00000573,-0.06005695,-0.20782873,0.000
 01410,-0.00024204,0.00034895,-0.00000045,0.00516380,0.00662630,-0.0000
 0054,-0.01170922,-0.00113860,-0.00000075,-0.00662375,-0.03914025,0.000
 00931,-0.03618036,0.53309509,0.00000137,0.00000329,-0.00105537,-0.0000
 0830,-0.00000138,0.01353407,-0.00000015,0.00000359,-0.07788305,0.00000
 125,-0.00000118,-0.00287983,-0.00001044,-0.00000520,0.00894526,-0.0000
 0461,-0.00001590,0.00122400,0.00000286,0.00001818,0.00115845,0.0000320
 6,0.00003851,0.56484564,0.00077930,-0.00004907,0.00000003,0.00002026,-
 0.00060271,0.00000260,-0.01261310,0.00294841,-0.00001299,0.00011035,-0
 .00008653,-0.00000026,-0.00043844,0.00081034,-0.00000036,-0.00201843,-
 0.00360088,-0.00000209,0.00020948,0.00364195,-0.00000089,-0.33296013,0
 .02875789,-0.00035556,0.35796861,0.00047293,-0.00000595,-0.00000050,-0
 .00000998,0.00018372,0.00000026,-0.03074127,0.00553905,-0.00004438,0.0
 0017411,-0.00007519,-0.00000026,-0.00178708,-0.00009257,0.00000260,-0.
 00376756,-0.00674290,-0.00000036,-0.00081211,0.00217768,0.00000181,0.0
 3640615,-0.05429415,0.00003907,-0.03237954,0.05659382,0.00000135,-0.00
 000097,0.00016333,0.00000008,-0.00000034,-0.00042717,0.00001444,0.0000
 0201,-0.00259983,0.,0.00000008,-0.00003155,0.00000120,0.00000385,0.000
 33802,-0.00000048,0.00000143,0.00144698,0.00000073,0.00000109,-0.00012
 317,-0.00035982,0.00002825,-0.04954847,0.00038742,-0.00004434,0.047111
 46,0.00064635,-0.00074951,0.00021999,-0.00043701,-0.00043486,-0.000896
 69,0.00439972,-0.00667297,0.01487372,-0.00000437,0.00006434,0.00011634
 ,0.00037711,0.00148911,-0.00045365,-0.00086886,-0.00119810,-0.00098797
 ,-0.00039406,-0.00029723,0.00018630,-0.07141778,0.03927348,-0.06565658
 ,-0.00549971,0.01620585,-0.02701712,0.07095703,-0.00024510,0.00035724,
 0.00027538,0.00000691,-0.00118043,-0.00219971,0.00846123,-0.01754328,0
 .02543275,-0.00011435,0.00002627,0.00048933,-0.00015576,-0.00110052,-0
 .00160945,0.00237071,0.00164896,-0.00039418,-0.00207837,-0.00363859,0.
 00074638,0.03913238,-0.11795593,0.11785035,0.00028008,-0.00164275,0.00
 077957,-0.04205242,0.13089843,0.00025757,-0.00034648,-0.00010424,-0.00
 021170,-0.00037732,-0.00061821,0.00157092,-0.00178335,0.00247589,0.000
 00514,0.00000057,0.00003939,0.00028673,0.00050344,0.00031270,-0.000700
 95,-0.00019822,0.00042619,0.00021118,-0.00052895,0.00001883,-0.0650820
 5,0.11768586,-0.22949117,0.00057503,-0.00237210,0.00180373,0.07132020,
 -0.12694711,0.24606923,0.00064455,-0.00074925,-0.00021939,-0.00043438,
 -0.00043418,0.00089896,0.00443625,-0.00669084,-0.01485922,-0.00000428,
 0.00006439,-0.00011591,0.00037867,0.00148906,0.00044859,-0.00086862,-0
 .00119697,0.00098916,-0.00039592,-0.00030613,-0.00018577,-0.07174973,0
 .03965963,0.06599811,-0.00555818,0.01623849,0.02697219,0.00224157,-0.0
 0560531,-0.00823208,0.07131006,-0.00024460,0.00035797,-0.00027597,0.00
 000680,-0.00118055,0.00219704,0.00852361,-0.01757137,-0.02537975,-0.00
 011433,0.00002619,-0.00048880,-0.00015754,-0.00109808,0.00160868,0.002
 37536,0.00165299,0.00039687,-0.00208208,-0.00364888,-0.00074881,0.0395
 0926,-0.11831418,-0.11792932,0.00028007,-0.00164076,-0.00077062,-0.005
 62769,0.01013059,0.01436367,-0.04246886,0.13128608,-0.00025863,0.00034
 485,-0.00010427,0.00021472,0.00038200,-0.00061903,-0.00157658,0.001804
 04,0.00246944,-0.00000500,-0.00000036,0.00003962,-0.00028559,-0.000499
 31,0.00031184,0.00069654,0.00019703,0.00042786,-0.00020820,0.00052955,
 0.00002041,0.06541484,-0.11777971,-0.22884953,-0.00059294,0.00241820,0
 .00186666,0.00829547,-0.01442331,-0.02093234,-0.07169464,0.12702701,0.
 24536934\\-0.00000450,0.00000254,-0.00000030,0.00000087,0.00000139,0.0
 0000024,-0.00000094,0.00000104,-0.00000034,-0.00000416,0.00000154,0.00
 000002,-0.00000191,0.00000095,0.00000019,0.00000186,0.00000231,0.00000
 011,-0.00000189,-0.00000388,0.00000006,0.00000207,-0.00000101,0.000000
 96,0.00000244,-0.00000258,-0.00000039,0.00000322,-0.00000114,-0.000000
 71,0.00000294,-0.00000116,0.00000017\\\@
 The archive entry for this job was punched.


 A SLIP OF THE FOOT YOU MAY SOON RECOVER, BUT A SLIP OF THE TONGUE
 YOU MAY NEVER GET OVER. -- BEN FRANKLIN
 Job cpu time:       0 days  0 hours  4 minutes 12.5 seconds.
 Elapsed time:       0 days  0 hours  0 minutes 21.6 seconds.
 File lengths (MBytes):  RWF=     43 Int=      0 D2E=      0 Chk=      8 Scr=      1
 Normal termination of Gaussian 16 at Sat Dec  9 14:56:48 2023.
