Unloading slurm/anatra/current
  ERROR: No such file or directory on
    '/cm/local/modulefiles/slurm/anatra/current'
environment: line 0: unalias: gv: not found
environment: line 0: unalias: sl: not found
 Entering Gaussian System, Link 0=g16
 Initial command:
 /apps/gaussian/g16/C.01/g16/l1.exe "/local/jobs/1149222/Gau-2041830.inp" -scrdir="/local/jobs/1149222/"
 Entering Link 1 = /apps/gaussian/g16/C.01/g16/l1.exe PID=   2041831.
  
 Copyright (c) 1988-2019, Gaussian, Inc.  All Rights Reserved.
  
 This is part of the Gaussian(R) 16 program.  It is based on
 the Gaussian(R) 09 system (copyright 2009, Gaussian, Inc.),
 the Gaussian(R) 03 system (copyright 2003, Gaussian, Inc.),
 the Gaussian(R) 98 system (copyright 1998, Gaussian, Inc.),
 the Gaussian(R) 94 system (copyright 1995, Gaussian, Inc.),
 the Gaussian 92(TM) system (copyright 1992, Gaussian, Inc.),
 the Gaussian 90(TM) system (copyright 1990, Gaussian, Inc.),
 the Gaussian 88(TM) system (copyright 1988, Gaussian, Inc.),
 the Gaussian 86(TM) system (copyright 1986, Carnegie Mellon
 University), and the Gaussian 82(TM) system (copyright 1983,
 Carnegie Mellon University). Gaussian is a federally registered
 trademark of Gaussian, Inc.
  
 This software contains proprietary and confidential information,
 including trade secrets, belonging to Gaussian, Inc.
  
 This software is provided under written license and may be
 used, copied, transmitted, or stored only in accord with that
 written license.
  
 The following legend is applicable only to US Government
 contracts under FAR:
  
                    RESTRICTED RIGHTS LEGEND
  
 Use, reproduction and disclosure by the US Government is
 subject to restrictions as set forth in subparagraphs (a)
 and (c) of the Commercial Computer Software - Restricted
 Rights clause in FAR 52.227-19.
  
 Gaussian, Inc.
 340 Quinnipiac St., Bldg. 40, Wallingford CT 06492
  
  
 ---------------------------------------------------------------
 Warning -- This program may not be used in any manner that
 competes with the business of Gaussian, Inc. or will provide
 assistance to any competitor of Gaussian, Inc.  The licensee
 of this program is prohibited from giving any competitor of
 Gaussian, Inc. access to this program.  By using this program,
 the user acknowledges that Gaussian, Inc. is engaged in the
 business of creating and licensing software in the field of
 computational chemistry and represents and warrants to the
 licensee that it is not a competitor of Gaussian, Inc. and that
 it will not use this program in any manner prohibited above.
 ---------------------------------------------------------------
  

 Cite this work as:
 Gaussian 16, Revision C.01,
 M. J. Frisch, G. W. Trucks, H. B. Schlegel, G. E. Scuseria, 
 M. A. Robb, J. R. Cheeseman, G. Scalmani, V. Barone, 
 G. A. Petersson, H. Nakatsuji, X. Li, M. Caricato, A. V. Marenich, 
 J. Bloino, B. G. Janesko, R. Gomperts, B. Mennucci, H. P. Hratchian, 
 J. V. Ortiz, A. F. Izmaylov, J. L. Sonnenberg, D. Williams-Young, 
 F. Ding, F. Lipparini, F. Egidi, J. Goings, B. Peng, A. Petrone, 
 T. Henderson, D. Ranasinghe, V. G. Zakrzewski, J. Gao, N. Rega, 
 G. Zheng, W. Liang, M. Hada, M. Ehara, K. Toyota, R. Fukuda, 
 J. Hasegawa, M. Ishida, T. Nakajima, Y. Honda, O. Kitao, H. Nakai, 
 T. Vreven, K. Throssell, J. A. Montgomery, Jr., J. E. Peralta, 
 F. Ogliaro, M. J. Bearpark, J. J. Heyd, E. N. Brothers, K. N. Kudin, 
 V. N. Staroverov, T. A. Keith, R. Kobayashi, J. Normand, 
 K. Raghavachari, A. P. Rendell, J. C. Burant, S. S. Iyengar, 
 J. Tomasi, M. Cossi, J. M. Millam, M. Klene, C. Adamo, R. Cammi, 
 J. W. Ochterski, R. L. Martin, K. Morokuma, O. Farkas, 
 J. B. Foresman, and D. J. Fox, Gaussian, Inc., Wallingford CT, 2019.
 
 ******************************************
 Gaussian 16:  ES64L-G16RevC.01  3-Jul-2019
                 9-Dec-2023 
 ******************************************
 %chk=2g_gs_2_opt_hess.chk
 %nprocshared=12
 Will use up to   12 processors via shared memory.
 %mem=48GB
 ----------------------------------------------------------------------
 # m062x 6-31g(d) scrf=(iefpcm,solvent=benzene) opt=(calcfc,maxcycles=5
 0,maxstep=10) freq=noraman
 ----------------------------------------------------------------------
 1/6=50,8=10,10=4,18=20,19=15,26=3,38=1/1,3;
 2/9=110,12=2,17=6,18=5,40=1/2;
 3/5=1,6=6,7=1,11=2,25=1,30=1,70=2201,71=2,72=12,74=-55,140=1/1,2,3;
 4//1;
 5/5=2,38=5,53=12/2;
 8/6=4,10=90,11=11/1;
 11/6=1,8=1,9=11,15=111,16=1/1,2,10;
 10/6=1,13=1/2;
 6/7=2,8=2,9=2,10=2,28=1/1;
 7/10=1,25=1/1,2,3,16;
 1/6=50,8=10,10=4,18=20,19=15,26=3/3(2);
 2/9=110/2;
 99//99;
 2/9=110/2;
 3/5=1,6=6,7=1,11=2,25=1,30=1,70=2205,71=1,72=12,74=-55/1,2,3;
 4/5=5,16=3,69=1/1;
 5/5=2,38=5,53=12/2;
 7//1,2,3,16;
 1/6=50,8=10,18=20,19=15,26=3/3(-5);
 2/9=110/2;
 6/7=2,8=2,9=2,10=2,19=2,28=1/1;
 99/9=1/99;
 -----
 *****
 -----
 Symbolic Z-matrix:
 Charge =  0 Multiplicity = 1
 C                    -0.8651    1.0515    0.2944 
 H                    -3.833    -0.5667   -1.5984 
 C                    -3.4191   -1.0931   -0.7504 
 H                    -3.8596   -2.0409   -0.4819 
 N                    -1.8357    0.6046   -0.3885 
 C                    -2.3922   -0.5828   -0.0569 
 H                    -1.997    -1.1345    0.7909 
 H                    -0.4278    0.5445    1.1522 
 C                    -0.2168    2.3702   -0.0417 
 H                     0.5964    2.5931    0.6476 
 H                     0.1899    2.3525   -1.0526 
 H                    -0.9424    3.1813    0.0152 
 

 GradGradGradGradGradGradGradGradGradGradGradGradGradGradGradGradGradGrad
 Berny optimization.
 Initialization pass.
                           ----------------------------
                           !    Initial Parameters    !
                           ! (Angstroms and Degrees)  !
 --------------------------                            --------------------------
 ! Name  Definition              Value          Derivative Info.                !
 --------------------------------------------------------------------------------
 ! R1    R(1,5)                  1.2681         calculate D2E/DX2 analytically  !
 ! R2    R(1,8)                  1.0882         calculate D2E/DX2 analytically  !
 ! R3    R(1,9)                  1.5074         calculate D2E/DX2 analytically  !
 ! R4    R(2,3)                  1.0805         calculate D2E/DX2 analytically  !
 ! R5    R(3,4)                  1.0791         calculate D2E/DX2 analytically  !
 ! R6    R(3,6)                  1.3401         calculate D2E/DX2 analytically  !
 ! R7    R(5,6)                  1.3526         calculate D2E/DX2 analytically  !
 ! R8    R(6,7)                  1.086          calculate D2E/DX2 analytically  !
 ! R9    R(9,10)                 1.0891         calculate D2E/DX2 analytically  !
 ! R10   R(9,11)                 1.0898         calculate D2E/DX2 analytically  !
 ! R11   R(9,12)                 1.0898         calculate D2E/DX2 analytically  !
 ! A1    A(5,1,8)              124.6037         calculate D2E/DX2 analytically  !
 ! A2    A(5,1,9)              121.1582         calculate D2E/DX2 analytically  !
 ! A3    A(8,1,9)              114.2381         calculate D2E/DX2 analytically  !
 ! A4    A(2,3,4)              117.8271         calculate D2E/DX2 analytically  !
 ! A5    A(2,3,6)              120.9411         calculate D2E/DX2 analytically  !
 ! A6    A(4,3,6)              121.2318         calculate D2E/DX2 analytically  !
 ! A7    A(1,5,6)              119.4882         calculate D2E/DX2 analytically  !
 ! A8    A(3,6,5)              121.5123         calculate D2E/DX2 analytically  !
 ! A9    A(3,6,7)              119.3021         calculate D2E/DX2 analytically  !
 ! A10   A(5,6,7)              119.1855         calculate D2E/DX2 analytically  !
 ! A11   A(1,9,10)             111.0425         calculate D2E/DX2 analytically  !
 ! A12   A(1,9,11)             110.6784         calculate D2E/DX2 analytically  !
 ! A13   A(1,9,12)             110.6779         calculate D2E/DX2 analytically  !
 ! A14   A(10,9,11)            108.1658         calculate D2E/DX2 analytically  !
 ! A15   A(10,9,12)            108.1666         calculate D2E/DX2 analytically  !
 ! A16   A(11,9,12)            107.9991         calculate D2E/DX2 analytically  !
 ! D1    D(8,1,5,6)             -0.0007         calculate D2E/DX2 analytically  !
 ! D2    D(9,1,5,6)           -179.9986         calculate D2E/DX2 analytically  !
 ! D3    D(5,1,9,10)          -179.9821         calculate D2E/DX2 analytically  !
 ! D4    D(5,1,9,11)           -59.833          calculate D2E/DX2 analytically  !
 ! D5    D(5,1,9,12)            59.8681         calculate D2E/DX2 analytically  !
 ! D6    D(8,1,9,10)             0.0198         calculate D2E/DX2 analytically  !
 ! D7    D(8,1,9,11)           120.1689         calculate D2E/DX2 analytically  !
 ! D8    D(8,1,9,12)          -120.13           calculate D2E/DX2 analytically  !
 ! D9    D(2,3,6,5)             -0.0036         calculate D2E/DX2 analytically  !
 ! D10   D(2,3,6,7)           -179.9999         calculate D2E/DX2 analytically  !
 ! D11   D(4,3,6,5)            179.9954         calculate D2E/DX2 analytically  !
 ! D12   D(4,3,6,7)             -0.0009         calculate D2E/DX2 analytically  !
 ! D13   D(1,5,6,3)           -179.9972         calculate D2E/DX2 analytically  !
 ! D14   D(1,5,6,7)             -0.0008         calculate D2E/DX2 analytically  !
 --------------------------------------------------------------------------------
 Trust Radius=1.00D-01 FncErr=1.00D-07 GrdErr=1.00D-06 EigMax=2.50D+02 EigMin=1.00D-04
 Number of steps in this run=     50 maximum allowed number of steps=    100.
 GradGradGradGradGradGradGradGradGradGradGradGradGradGradGradGradGradGrad

                          Input orientation:                          
 ---------------------------------------------------------------------
 Center     Atomic      Atomic             Coordinates (Angstroms)
 Number     Number       Type             X           Y           Z
 ---------------------------------------------------------------------
      1          6           0       -0.865100    1.051500    0.294400
      2          1           0       -3.833000   -0.566700   -1.598400
      3          6           0       -3.419100   -1.093100   -0.750400
      4          1           0       -3.859600   -2.040900   -0.481900
      5          7           0       -1.835700    0.604600   -0.388500
      6          6           0       -2.392200   -0.582800   -0.056900
      7          1           0       -1.997000   -1.134500    0.790900
      8          1           0       -0.427800    0.544500    1.152200
      9          6           0       -0.216800    2.370200   -0.041700
     10          1           0        0.596400    2.593100    0.647600
     11          1           0        0.189900    2.352500   -1.052600
     12          1           0       -0.942400    3.181300    0.015200
 ---------------------------------------------------------------------
                    Distance matrix (angstroms):
                    1          2          3          4          5
     1  C    0.000000
     2  H    3.874235   0.000000
     3  C    3.494829   1.080516   0.000000
     4  H    4.374084   1.849472   1.079100   0.000000
     5  N    1.268123   2.612472   2.349535   3.332201   0.000000
     6  C    2.264152   2.110068   1.340101   2.111858   1.352616
     7  H    2.511236   3.066276   2.097543   2.431226   2.107480
     8  H    1.088164   4.516188   3.905060   4.596937   2.087954
     9  C    1.507390   4.911782   4.769846   5.737732   2.420424
    10  H    2.153431   5.886292   5.627319   6.527301   3.307982
    11  H    2.149427   5.000335   4.998836   6.002176   2.756672
    12  H    2.149413   5.000678   4.999068   6.002378   2.756872
                    6          7          8          9         10
     6  C    0.000000
     7  H    1.085965   0.000000
     8  H    2.567410   2.326364   0.000000
     9  C    3.667807   4.018116   2.191597   0.000000
    10  H    4.417510   4.543265   2.345286   1.089088   0.000000
    11  H    4.034185   4.510010   2.917458   1.089788   1.764599
    12  H    4.034299   4.509991   2.917241   1.089778   1.764600
                   11         12
    11  H    0.000000
    12  H    1.763295   0.000000
 Stoichiometry    C4H7N
 Framework group  C1[X(C4H7N)]
 Deg. of freedom    30
 Full point group                 C1      NOp   1
 Largest Abelian subgroup         C1      NOp   1
 Largest concise Abelian subgroup C1      NOp   1
                         Standard orientation:                         
 ---------------------------------------------------------------------
 Center     Atomic      Atomic             Coordinates (Angstroms)
 Number     Number       Type             X           Y           Z
 ---------------------------------------------------------------------
      1          6           0       -1.012380    0.414033   -0.000014
      2          1           0        2.419847   -1.383051    0.000008
      3          6           0        2.408186   -0.302598   -0.000008
      4          1           0        3.357008    0.211400   -0.000068
      5          7           0        0.058961   -0.264469    0.000008
      6          6           0        1.251417    0.373980    0.000025
      7          1           0        1.270761    1.459773    0.000006
      8          1           0       -1.055231    1.501353   -0.000010
      9          6           0       -2.361456   -0.258441   -0.000001
     10          1           0       -3.164895    0.476812   -0.000341
     11          1           0       -2.477290   -0.888694   -0.881477
     12          1           0       -2.477527   -0.888155    0.881818
 ---------------------------------------------------------------------
 Rotational constants (GHZ):          30.8357530           2.3880460           2.2472823
 Standard basis: 6-31G(d) (6D, 7F)
 There are    89 symmetry adapted cartesian basis functions of A   symmetry.
 There are    89 symmetry adapted basis functions of A   symmetry.
    89 basis functions,   168 primitive gaussians,    89 cartesian basis functions
    19 alpha electrons       19 beta electrons
       nuclear repulsion energy       157.7498742387 Hartrees.
 NAtoms=   12 NActive=   12 NUniq=   12 SFac= 1.00D+00 NAtFMM=   60 NAOKFM=F Big=F
 Integral buffers will be    131072 words long.
 Raffenetti 2 integral format.
 Two-electron integral symmetry is turned on.
 Force inversion solution in PCM.
 ------------------------------------------------------------------------------
 Polarizable Continuum Model (PCM)
 =================================
 Model                : PCM.
 Atomic radii         : UFF (Universal Force Field).
 Polarization charges : Total charges.
 Charge compensation  : None.
 Solution method      : Matrix inversion.
 Cavity type          : Scaled VdW (van der Waals Surface) (Alpha=1.100).
 Cavity algorithm     : GePol (No added spheres)
                        Default sphere list used, NSphG=   12.
                        Lebedev-Laikov grids with approx.  5.0 points / Ang**2.
                        Smoothing algorithm: York/Karplus (Gamma=1.0000).
                        Polarization charges: spherical gaussians, with
                                              point-specific exponents (IZeta= 3).
                        Self-potential: point-specific (ISelfS= 7).
                        Self-field    : sphere-specific E.n sum rule (ISelfD= 2).
 1st derivatives      : Analytical E(r).r(x)/FMM algorithm (CHGder, D1EAlg=3).
                        Cavity 1st derivative terms included.
 2nd derivatives      : Analytical E(r).r(xy)/FMM algorithm (CHGder, D2EAlg=3).
                        Cavity 2nd derivative terms included.
 Solvent              : Benzene, Eps=   2.270600 Eps(inf)=   2.253301
 ------------------------------------------------------------------------------
 Spheres list:
 ISph  on   Nord     Re0    Alpha      Xe            Ye            Ze
    1   C      1    1.9255  1.100     -1.012380      0.414033     -0.000014
    2   H      2    1.4430  1.100      2.419847     -1.383051      0.000008
    3   C      3    1.9255  1.100      2.408186     -0.302598     -0.000008
    4   H      4    1.4430  1.100      3.357008      0.211400     -0.000068
    5   N      5    1.8300  1.100      0.058961     -0.264469      0.000008
    6   C      6    1.9255  1.100      1.251417      0.373980      0.000025
    7   H      7    1.4430  1.100      1.270761      1.459773      0.000006
    8   H      8    1.4430  1.100     -1.055231      1.501353     -0.000010
    9   C      9    1.9255  1.100     -2.361456     -0.258441     -0.000001
   10   H     10    1.4430  1.100     -3.164895      0.476812     -0.000341
   11   H     11    1.4430  1.100     -2.477290     -0.888694     -0.881477
   12   H     12    1.4430  1.100     -2.477527     -0.888155      0.881818
 ------------------------------------------------------------------------------
 One-electron integrals computed using PRISM.
 NBasis=    89 RedAO= T EigKep=  3.48D-03  NBF=    89
 NBsUse=    89 1.00D-06 EigRej= -1.00D+00 NBFU=    89
 ExpMin= 1.61D-01 ExpMax= 4.17D+03 ExpMxC= 6.27D+02 IAcc=3 IRadAn=         5 AccDes= 0.00D+00
 Harris functional with IExCor= 1009 and IRadAn=       5 diagonalized for initial guess.
 HarFok:  IExCor= 1009 AccDes= 0.00D+00 IRadAn=         5 IDoV= 1 UseB2=F ITyADJ=14
 ICtDFT=  3500011 ScaDFX=  1.000000  1.000000  1.000000  1.000000
 FoFCou: FMM=F IPFlag=           0 FMFlag=      100000 FMFlg1=           0
         NFxFlg=           0 DoJE=T BraDBF=F KetDBF=T FulRan=T
         wScrn=  0.000000 ICntrl=       500 IOpCl=  0 I1Cent=   200000004 NGrid=           0
         NMat0=    1 NMatS0=      1 NMatT0=    0 NMatD0=    1 NMtDS0=    0 NMtDT0=    0
 Petite list used in FoFCou.
 Keep R1 ints in memory in canonical form, NReq=19002712.
 Requested convergence on RMS density matrix=1.00D-08 within 128 cycles.
 Requested convergence on MAX density matrix=1.00D-06.
 Requested convergence on             energy=1.00D-06.
 No special actions if energy rises.
 Inv3:  Mode=1 IEnd=     3499200.
 Iteration    1 A*A^-1 deviation from unit magnitude is 2.66D-15 for    611.
 Iteration    1 A*A^-1 deviation from orthogonality  is 1.89D-15 for    911    242.
 Iteration    1 A^-1*A deviation from unit magnitude is 2.66D-15 for    801.
 Iteration    1 A^-1*A deviation from orthogonality  is 1.73D-15 for    647    451.
 Error on total polarization charges =  0.00407
 SCF Done:  E(RM062X) =  -211.238371417     A.U. after   12 cycles
            NFock= 12  Conv=0.60D-08     -V/T= 2.0080
 DoSCS=F DFT=T ScalE2(SS,OS)=  1.000000  1.000000
 Range of M.O.s used for correlation:     1    89
 NBasis=    89 NAE=    19 NBE=    19 NFC=     0 NFV=     0
 NROrb=     89 NOA=    19 NOB=    19 NVA=    70 NVB=    70
 Symmetrizing basis deriv contribution to polar:
 IMax=3 JMax=2 DiffMx= 0.00D+00
 G2DrvN: will do    13 centers at a time, making    1 passes.
 Calling FoFCou, ICntrl=  3107 FMM=F I1Cent=   0 AccDes= 0.00D+00.
 NEqPCM:  Using equilibrium solvation (IEInf=0, Eps=   2.2706, EpsInf=   2.2533)
 G2PCM: DoFxE=T DoFxN=T DoGrad=T DoDP/DQ/DG/TGxP=FFFF NFrqRd=   0 IEInf=0 SqF1=F DoCFld=F IF1Alg=4.
 End of G2Drv F.D. properties file   721 does not exist.
 End of G2Drv F.D. properties file   722 does not exist.
 End of G2Drv F.D. properties file   788 does not exist.
          IDoAtm=111111111111
 NEqPCM:  Using equilibrium solvation (IEInf=0, Eps=   2.2706, EpsInf=   2.2533)
          Differentiating once with respect to nuclear coordinates.
 Keep R1 ints in memory in canonical form, NReq=18972531.
          There are    39 degrees of freedom in the 1st order CPHF.  IDoFFX=6 NUNeed=     0.
     33 vectors produced by pass  0 Test12= 3.41D-15 2.56D-09 XBig12= 8.36D-02 1.20D-01.
 AX will form    33 AO Fock derivatives at one time.
     33 vectors produced by pass  1 Test12= 3.41D-15 2.56D-09 XBig12= 1.81D-02 4.37D-02.
     33 vectors produced by pass  2 Test12= 3.41D-15 2.56D-09 XBig12= 2.56D-04 4.08D-03.
     33 vectors produced by pass  3 Test12= 3.41D-15 2.56D-09 XBig12= 1.85D-06 2.80D-04.
     33 vectors produced by pass  4 Test12= 3.41D-15 2.56D-09 XBig12= 7.03D-09 1.58D-05.
     32 vectors produced by pass  5 Test12= 3.41D-15 2.56D-09 XBig12= 1.54D-11 5.03D-07.
     10 vectors produced by pass  6 Test12= 3.41D-15 2.56D-09 XBig12= 3.46D-14 2.78D-08.
 InvSVY:  IOpt=1 It=  1 EMax= 2.33D-15
 Solved reduced A of dimension   207 with    33 vectors.
 End of Minotr F.D. properties file   721 does not exist.
 End of Minotr F.D. properties file   722 does not exist.
 End of Minotr F.D. properties file   788 does not exist.

 **********************************************************************

            Population analysis using the SCF Density.

 **********************************************************************

 Orbital symmetries:
       Occupied  (A) (A) (A) (A) (A) (A) (A) (A) (A) (A) (A) (A)
                 (A) (A) (A) (A) (A) (A) (A)
       Virtual   (A) (A) (A) (A) (A) (A) (A) (A) (A) (A) (A) (A)
                 (A) (A) (A) (A) (A) (A) (A) (A) (A) (A) (A) (A)
                 (A) (A) (A) (A) (A) (A) (A) (A) (A) (A) (A) (A)
                 (A) (A) (A) (A) (A) (A) (A) (A) (A) (A) (A) (A)
                 (A) (A) (A) (A) (A) (A) (A) (A) (A) (A) (A) (A)
                 (A) (A) (A) (A) (A) (A) (A) (A) (A) (A)
 The electronic state is 1-A.
 Alpha  occ. eigenvalues --  -14.75361 -10.59563 -10.56873 -10.54041 -10.53778
 Alpha  occ. eigenvalues --   -1.04813  -0.87070  -0.80834  -0.68307  -0.63657
 Alpha  occ. eigenvalues --   -0.57364  -0.52289  -0.49495  -0.46014  -0.44569
 Alpha  occ. eigenvalues --   -0.43562  -0.42570  -0.32052  -0.28875
 Alpha virt. eigenvalues --    0.00487   0.11723   0.16014   0.17088   0.18874
 Alpha virt. eigenvalues --    0.20827   0.23604   0.23661   0.26220   0.29010
 Alpha virt. eigenvalues --    0.31738   0.38758   0.47062   0.56490   0.57695
 Alpha virt. eigenvalues --    0.58118   0.61414   0.62735   0.64699   0.65154
 Alpha virt. eigenvalues --    0.70804   0.75727   0.75812   0.79888   0.83137
 Alpha virt. eigenvalues --    0.87799   0.90687   0.93070   0.93859   0.94902
 Alpha virt. eigenvalues --    0.97030   1.00117   1.01945   1.03364   1.05992
 Alpha virt. eigenvalues --    1.14630   1.23392   1.35473   1.38898   1.40571
 Alpha virt. eigenvalues --    1.45695   1.48542   1.51929   1.66678   1.78404
 Alpha virt. eigenvalues --    1.79276   1.89986   1.93331   2.02841   2.04771
 Alpha virt. eigenvalues --    2.07998   2.16570   2.21272   2.27105   2.29070
 Alpha virt. eigenvalues --    2.33750   2.39571   2.43230   2.54578   2.60062
 Alpha virt. eigenvalues --    2.65540   2.71253   2.79657   3.08121   3.15560
 Alpha virt. eigenvalues --    3.96955   4.12272   4.16123   4.34138   4.41528
          Condensed to atoms (all electrons):
               1          2          3          4          5          6
     1  C    4.825082   0.000331   0.004085  -0.000225   0.552432  -0.066188
     2  H    0.000331   0.513762   0.366776  -0.030828  -0.000745  -0.029586
     3  C    0.004085   0.366776   5.143624   0.368555  -0.063720   0.639868
     4  H   -0.000225  -0.030828   0.368555   0.515175   0.003299  -0.022944
     5  N    0.552432  -0.000745  -0.063720   0.003299   6.711459   0.374142
     6  C   -0.066188  -0.029586   0.639868  -0.022944   0.374142   4.681694
     7  H   -0.005276   0.005545  -0.061754  -0.002226  -0.063049   0.365679
     8  H    0.368189   0.000060   0.000098   0.000008  -0.051945  -0.009860
     9  C    0.356280  -0.000016  -0.000341   0.000003  -0.072811   0.006376
    10  H   -0.025497   0.000000   0.000002  -0.000000   0.003923  -0.000194
    11  H   -0.027192   0.000002   0.000012   0.000000  -0.002791   0.000040
    12  H   -0.027191   0.000002   0.000012   0.000000  -0.002794   0.000039
               7          8          9         10         11         12
     1  C   -0.005276   0.368189   0.356280  -0.025497  -0.027192  -0.027191
     2  H    0.005545   0.000060  -0.000016   0.000000   0.000002   0.000002
     3  C   -0.061754   0.000098  -0.000341   0.000002   0.000012   0.000012
     4  H   -0.002226   0.000008   0.000003  -0.000000   0.000000   0.000000
     5  N   -0.063049  -0.051945  -0.072811   0.003923  -0.002791  -0.002794
     6  C    0.365679  -0.009860   0.006376  -0.000194   0.000040   0.000039
     7  H    0.603007   0.016562  -0.000402   0.000040   0.000025   0.000025
     8  H    0.016562   0.586951  -0.073572   0.000046   0.003842   0.003841
     9  C   -0.000402  -0.073572   5.197089   0.367820   0.374667   0.374668
    10  H    0.000040   0.000046   0.367820   0.533058  -0.025190  -0.025191
    11  H    0.000025   0.003842   0.374667  -0.025190   0.498488  -0.019707
    12  H    0.000025   0.003841   0.374668  -0.025191  -0.019707   0.498486
 Mulliken charges:
               1
     1  C    0.045171
     2  H    0.174695
     3  C   -0.397217
     4  H    0.169182
     5  N   -0.387401
     6  C    0.060934
     7  H    0.141825
     8  H    0.155779
     9  C   -0.529762
    10  H    0.171183
    11  H    0.197803
    12  H    0.197809
 Sum of Mulliken charges =  -0.00000
 Mulliken charges with hydrogens summed into heavy atoms:
               1
     1  C    0.200949
     3  C   -0.053340
     5  N   -0.387401
     6  C    0.202758
     9  C    0.037033
 APT charges:
               1
     1  C   -0.146208
     2  H    0.393939
     3  C   -0.634261
     4  H    0.661751
     5  N   -0.496981
     6  C   -0.616362
     7  H    0.360557
     8  H    0.387734
     9  C   -1.319418
    10  H    0.560432
    11  H    0.424380
    12  H    0.424437
 Sum of APT charges =  -0.00000
 APT charges with hydrogens summed into heavy atoms:
               1
     1  C    0.241526
     3  C    0.421429
     5  N   -0.496981
     6  C   -0.255805
     9  C    0.089831
 Electronic spatial extent (au):  <R**2>=            561.9112
 Charge=             -0.0000 electrons
 Dipole moment (field-independent basis, Debye):
    X=             -0.9843    Y=              1.3922    Z=              0.0000  Tot=              1.7050
 Quadrupole moment (field-independent basis, Debye-Ang):
   XX=            -25.8870   YY=            -29.8841   ZZ=            -32.4657
   XY=             -0.1899   XZ=             -0.0003   YZ=             -0.0000
 Traceless Quadrupole moment (field-independent basis, Debye-Ang):
   XX=              3.5253   YY=             -0.4719   ZZ=             -3.0534
   XY=             -0.1899   XZ=             -0.0003   YZ=             -0.0000
 Octapole moment (field-independent basis, Debye-Ang**2):
  XXX=              1.0238  YYY=              1.4032  ZZZ=              0.0007  XYY=              0.2235
  XXY=             -0.2234  XXZ=             -0.0004  XZZ=             -4.1100  YZZ=             -0.8986
  YYZ=             -0.0005  XYZ=              0.0001
 Hexadecapole moment (field-independent basis, Debye-Ang**3):
 XXXX=           -603.3401 YYYY=            -79.8446 ZZZZ=            -38.5470 XXXY=              0.1243
 XXXZ=             -0.0021 YYYX=             -2.8125 YYYZ=              0.0007 ZZZX=             -0.0022
 ZZZY=             -0.0004 XXYY=           -113.5533 XXZZ=           -119.8326 YYZZ=            -20.3262
 XXYZ=             -0.0016 YYXZ=              0.0011 ZZXY=              2.4849
 N-N= 1.577498742387D+02 E-N=-8.052519530189D+02  KE= 2.095598443152D+02
  Exact polarizability:       0.000       0.000       0.000       0.000       0.000       0.000
 Approx polarizability:      96.693     -15.318      54.904      -0.001      -0.000      30.685
 D2PCM: PCM CHGder 2nd derivatives, FixD1E=F FixD2E=F DoIter=F DoCFld=F I1PDM=0
 Calling FoFJK, ICntrl=    100127 FMM=F ISym2X=0 I1Cent= 0 IOpClX= 0 NMat=1 NMatS=1 NMatT=0.
 ***** Axes restored to original set *****
 -------------------------------------------------------------------
 Center     Atomic                   Forces (Hartrees/Bohr)
 Number     Number              X              Y              Z
 -------------------------------------------------------------------
      1        6           0.007827865    0.015540048   -0.003758163
      2        1          -0.000394981    0.002626655   -0.002460510
      3        6           0.005460411    0.002116361    0.004151891
      4        1          -0.001040108   -0.003205282    0.001388799
      5        7           0.011756683    0.031541117   -0.012015713
      6        6          -0.023477748   -0.034082231    0.001544836
      7        1           0.003655011   -0.002777623    0.006037017
      8        1          -0.002183084   -0.010592234    0.005909613
      9        6          -0.000107691   -0.002722284    0.001980675
     10        1           0.001327906    0.000010279    0.001403051
     11        1          -0.000182430   -0.000129680   -0.003250360
     12        1          -0.002641833    0.001674873   -0.000931135
 -------------------------------------------------------------------
 Cartesian Forces:  Max     0.034082231 RMS     0.010046001
 FormGI is forming the generalized inverse of G from B-inverse, IUseBI=4.

 GradGradGradGradGradGradGradGradGradGradGradGradGradGradGradGradGradGrad
 Berny optimization.
 Internal  Forces:  Max     0.040133431 RMS     0.007086464
 Search for a local minimum.
 Step number   1 out of a maximum of   50
 All quantities printed in internal units (Hartrees-Bohrs-Radians)
 Mixed Optimization -- RFO/linear search
 Second derivative matrix not updated -- analytic derivatives used.
 ITU=  0
     Eigenvalues ---   -0.00175   0.00933   0.03045   0.03149   0.03686
     Eigenvalues ---    0.04332   0.04835   0.05739   0.05814   0.10252
     Eigenvalues ---    0.10970   0.12215   0.13108   0.13939   0.14150
     Eigenvalues ---    0.14772   0.19998   0.20967   0.24719   0.32292
     Eigenvalues ---    0.35669   0.35751   0.35980   0.36444   0.36695
     Eigenvalues ---    0.38413   0.38751   0.51737   0.65335   0.79682
 RFO step:  Lambda=-5.46714132D-03 EMin=-1.75322359D-03
 Linear search not attempted -- first point.
 Maximum step size (   0.100) exceeded in Quadratic search.
    -- Step size scaled by   0.695
 Iteration  1 RMS(Cart)=  0.04269276 RMS(Int)=  0.00107477
 Iteration  2 RMS(Cart)=  0.00130937 RMS(Int)=  0.00002297
 Iteration  3 RMS(Cart)=  0.00000119 RMS(Int)=  0.00002295
 Iteration  4 RMS(Cart)=  0.00000000 RMS(Int)=  0.00002295
 Variable       Old X    -DE/DX   Delta X   Delta X   Delta X     New X
                                 (Linear)    (Quad)   (Total)
    R1        2.39641   0.00514   0.00000   0.00631   0.00631   2.40272
    R2        2.05633   0.00871   0.00000   0.01608   0.01608   2.07241
    R3        2.84856  -0.00153   0.00000  -0.00814  -0.00814   2.84042
    R4        2.04188   0.00336   0.00000   0.00582   0.00582   2.04770
    R5        2.03920   0.00359   0.00000   0.00601   0.00601   2.04521
    R6        2.53242  -0.00527   0.00000  -0.01040  -0.01040   2.52203
    R7        2.55607   0.04013   0.00000   0.05807   0.05807   2.61414
    R8        2.05218   0.00746   0.00000   0.01155   0.01155   2.06373
    R9        2.05808   0.00188   0.00000   0.00260   0.00260   2.06068
   R10        2.05940   0.00295   0.00000   0.00471   0.00471   2.06411
   R11        2.05938   0.00296   0.00000   0.00619   0.00619   2.06557
    A1        2.17475  -0.00989   0.00000  -0.04401  -0.04401   2.13073
    A2        2.11461   0.00187   0.00000   0.00375   0.00375   2.11836
    A3        1.99383   0.00802   0.00000   0.04026   0.04026   2.03409
    A4        2.05647   0.00136   0.00000   0.00716   0.00716   2.06363
    A5        2.11082  -0.00137   0.00000  -0.00721  -0.00721   2.10361
    A6        2.11589   0.00001   0.00000   0.00005   0.00005   2.11594
    A7        2.08546  -0.00588   0.00000  -0.03116  -0.03116   2.05430
    A8        2.12079   0.00106   0.00000  -0.00150  -0.00150   2.11929
    A9        2.08222   0.00091   0.00000   0.01893   0.01893   2.10114
   A10        2.08018  -0.00197   0.00000  -0.01743  -0.01743   2.06275
   A11        1.93806   0.00010   0.00000   0.00459   0.00459   1.94265
   A12        1.93170  -0.00079   0.00000  -0.00481  -0.00484   1.92686
   A13        1.93169  -0.00079   0.00000  -0.00744  -0.00748   1.92422
   A14        1.88785   0.00094   0.00000   0.01055   0.01055   1.89840
   A15        1.88786   0.00094   0.00000   0.00393   0.00394   1.89180
   A16        1.88494  -0.00033   0.00000  -0.00655  -0.00662   1.87832
    D1       -0.00001   0.00000   0.00000   0.00063   0.00069   0.00068
    D2       -3.14157  -0.00000   0.00000   0.00422   0.00416  -3.13741
    D3       -3.14128  -0.00000   0.00000   0.06588   0.06586  -3.07542
    D4       -1.04428   0.00072   0.00000   0.07901   0.07896  -0.96533
    D5        1.04490  -0.00072   0.00000   0.06285   0.06286   1.10776
    D6        0.00035  -0.00000   0.00000   0.06912   0.06914   0.06949
    D7        2.09734   0.00072   0.00000   0.08225   0.08224   2.17958
    D8       -2.09666  -0.00072   0.00000   0.06609   0.06614  -2.03052
    D9       -0.00006   0.00000   0.00000  -0.00008  -0.00008  -0.00014
   D10       -3.14159  -0.00000   0.00000  -0.00003  -0.00003   3.14157
   D11        3.14151   0.00000   0.00000   0.00024   0.00024  -3.14143
   D12       -0.00002   0.00000   0.00000   0.00029   0.00029   0.00027
   D13       -3.14154  -0.00000   0.00000  -0.00026  -0.00026   3.14138
   D14       -0.00001   0.00000   0.00000  -0.00031  -0.00031  -0.00032
         Item               Value     Threshold  Converged?
 Maximum Force            0.040133     0.000450     NO 
 RMS     Force            0.007086     0.000300     NO 
 Maximum Displacement     0.120557     0.001800     NO 
 RMS     Displacement     0.042758     0.001200     NO 
 Predicted change in Energy=-2.533884D-03
 GradGradGradGradGradGradGradGradGradGradGradGradGradGradGradGradGradGrad

                          Input orientation:                          
 ---------------------------------------------------------------------
 Center     Atomic      Atomic             Coordinates (Angstroms)
 Number     Number       Type             X           Y           Z
 ---------------------------------------------------------------------
      1          6           0       -0.873678    1.067363    0.281491
      2          1           0       -3.818721   -0.598905   -1.614182
      3          6           0       -3.413968   -1.110619   -0.749023
      4          1           0       -3.853461   -2.057036   -0.461849
      5          7           0       -1.835865    0.628400   -0.424289
      6          6           0       -2.400463   -0.581066   -0.060881
      7          1           0       -1.994338   -1.098763    0.810720
      8          1           0       -0.491596    0.519013    1.150984
      9          6           0       -0.203341    2.374741   -0.035801
     10          1           0        0.639914    2.559591    0.630432
     11          1           0        0.156339    2.377767   -1.067158
     12          1           0       -0.913221    3.199212    0.069457
 ---------------------------------------------------------------------
                    Distance matrix (angstroms):
                    1          2          3          4          5
     1  C    0.000000
     2  H    3.878570   0.000000
     3  C    3.501233   1.083594   0.000000
     4  H    4.381042   1.858823   1.082280   0.000000
     5  N    1.271463   2.617984   2.370663   3.359118   0.000000
     6  C    2.272797   2.103454   1.334600   2.109613   1.383345
     7  H    2.495608   3.075448   2.109096   2.448277   2.129191
     8  H    1.096673   4.468293   3.847854   4.532041   2.073767
     9  C    1.503085   4.940125   4.792134   5.757217   2.421934
    10  H    2.153942   5.907099   5.639795   6.534274   3.312313
    11  H    2.144050   4.996090   5.001713   6.009357   2.728084
    12  H    2.142733   5.069740   5.049583   6.046110   2.775632
                    6          7          8          9         10
     6  C    0.000000
     7  H    1.092078   0.000000
     8  H    2.514471   2.234102   0.000000
     9  C    3.683038   3.998687   2.221548   0.000000
    10  H    4.425554   4.511689   2.390658   1.090465   0.000000
    11  H    4.037886   4.498677   2.965626   1.092280   1.774462
    12  H    4.064404   4.493425   2.920776   1.093051   1.770886
                   11         12
    11  H    0.000000
    12  H    1.763695   0.000000
 Stoichiometry    C4H7N
 Framework group  C1[X(C4H7N)]
 Deg. of freedom    30
 Full point group                 C1      NOp   1
 Largest Abelian subgroup         C1      NOp   1
 Largest concise Abelian subgroup C1      NOp   1
                         Standard orientation:                         
 ---------------------------------------------------------------------
 Center     Atomic      Atomic             Coordinates (Angstroms)
 Number     Number       Type             X           Y           Z
 ---------------------------------------------------------------------
      1          6           0       -1.013229    0.402527   -0.002122
      2          1           0        2.435570   -1.372039   -0.000598
      3          6           0        2.419118   -0.288571    0.000845
      4          1           0        3.364716    0.237898    0.002931
      5          7           0        0.048472   -0.297051   -0.002082
      6          6           0        1.259359    0.371820    0.000391
      7          1           0        1.245471    1.463809    0.001874
      8          1           0       -0.988354    1.498917   -0.000912
      9          6           0       -2.372754   -0.238526    0.000652
     10          1           0       -3.163547    0.509263   -0.066969
     11          1           0       -2.469621   -0.929487   -0.839743
     12          1           0       -2.518499   -0.812497    0.919389
 ---------------------------------------------------------------------
 Rotational constants (GHZ):          31.0862359           2.3700322           2.2326334
 Standard basis: 6-31G(d) (6D, 7F)
 There are    89 symmetry adapted cartesian basis functions of A   symmetry.
 There are    89 symmetry adapted basis functions of A   symmetry.
    89 basis functions,   168 primitive gaussians,    89 cartesian basis functions
    19 alpha electrons       19 beta electrons
       nuclear repulsion energy       157.1828654670 Hartrees.
 NAtoms=   12 NActive=   12 NUniq=   12 SFac= 1.00D+00 NAtFMM=   60 NAOKFM=F Big=F
 Integral buffers will be    131072 words long.
 Raffenetti 2 integral format.
 Two-electron integral symmetry is turned on.
 ------------------------------------------------------------------------------
 Polarizable Continuum Model (PCM)
 =================================
 Model                : PCM.
 Atomic radii         : UFF (Universal Force Field).
 Polarization charges : Total charges.
 Charge compensation  : None.
 Solution method      : Matrix inversion.
 Cavity type          : Scaled VdW (van der Waals Surface) (Alpha=1.100).
 Cavity algorithm     : GePol (No added spheres)
                        Default sphere list used, NSphG=   12.
                        Lebedev-Laikov grids with approx.  5.0 points / Ang**2.
                        Smoothing algorithm: York/Karplus (Gamma=1.0000).
                        Polarization charges: spherical gaussians, with
                                              point-specific exponents (IZeta= 3).
                        Self-potential: point-specific (ISelfS= 7).
                        Self-field    : sphere-specific E.n sum rule (ISelfD= 2).
 1st derivatives      : Analytical E(r).r(x)/FMM algorithm (CHGder, D1EAlg=3).
                        Cavity 1st derivative terms included.
 Solvent              : Benzene, Eps=   2.270600 Eps(inf)=   2.253301
 ------------------------------------------------------------------------------
 Spheres list:
 ISph  on   Nord     Re0    Alpha      Xe            Ye            Ze
    1   C      1    1.9255  1.100     -1.013229      0.402527     -0.002122
    2   H      2    1.4430  1.100      2.435570     -1.372039     -0.000598
    3   C      3    1.9255  1.100      2.419118     -0.288571      0.000845
    4   H      4    1.4430  1.100      3.364716      0.237898      0.002931
    5   N      5    1.8300  1.100      0.048472     -0.297051     -0.002082
    6   C      6    1.9255  1.100      1.259359      0.371820      0.000391
    7   H      7    1.4430  1.100      1.245471      1.463809      0.001874
    8   H      8    1.4430  1.100     -0.988354      1.498917     -0.000912
    9   C      9    1.9255  1.100     -2.372754     -0.238526      0.000652
   10   H     10    1.4430  1.100     -3.163547      0.509263     -0.066969
   11   H     11    1.4430  1.100     -2.469621     -0.929487     -0.839743
   12   H     12    1.4430  1.100     -2.518499     -0.812497      0.919389
 ------------------------------------------------------------------------------
 One-electron integrals computed using PRISM.
 NBasis=    89 RedAO= T EigKep=  3.49D-03  NBF=    89
 NBsUse=    89 1.00D-06 EigRej= -1.00D+00 NBFU=    89
 Initial guess from the checkpoint file:  "2g_gs_2_opt_hess.chk"
 B after Tr=    -0.000000    0.000000   -0.000000
         Rot=    0.999968    0.007917    0.000340    0.000767 Ang=   0.91 deg.
 ExpMin= 1.61D-01 ExpMax= 4.17D+03 ExpMxC= 6.27D+02 IAcc=3 IRadAn=         5 AccDes= 0.00D+00
 Harris functional with IExCor= 1009 and IRadAn=       5 diagonalized for initial guess.
 HarFok:  IExCor= 1009 AccDes= 0.00D+00 IRadAn=         5 IDoV= 1 UseB2=F ITyADJ=14
 ICtDFT=  3500011 ScaDFX=  1.000000  1.000000  1.000000  1.000000
 FoFCou: FMM=F IPFlag=           0 FMFlag=      100000 FMFlg1=           0
         NFxFlg=           0 DoJE=T BraDBF=F KetDBF=T FulRan=T
         wScrn=  0.000000 ICntrl=       500 IOpCl=  0 I1Cent=   200000004 NGrid=           0
         NMat0=    1 NMatS0=      1 NMatT0=    0 NMatD0=    1 NMtDS0=    0 NMtDT0=    0
 Petite list used in FoFCou.
 Keep R1 ints in memory in canonical form, NReq=19002712.
 Requested convergence on RMS density matrix=1.00D-08 within 128 cycles.
 Requested convergence on MAX density matrix=1.00D-06.
 Requested convergence on             energy=1.00D-06.
 No special actions if energy rises.
 Inv3:  Mode=1 IEnd=     3441123.
 Iteration    1 A*A^-1 deviation from unit magnitude is 3.33D-15 for    562.
 Iteration    1 A*A^-1 deviation from orthogonality  is 1.44D-15 for    782     36.
 Iteration    1 A^-1*A deviation from unit magnitude is 2.89D-15 for    562.
 Iteration    1 A^-1*A deviation from orthogonality  is 2.10D-15 for    650    456.
 Error on total polarization charges =  0.00424
 SCF Done:  E(RM062X) =  -211.240947456     A.U. after   12 cycles
            NFock= 12  Conv=0.29D-08     -V/T= 2.0085
 D1PCM: PCM CHGder 1st derivatives, ID1Alg=3 FixD1E=F DoIter=F DoCFld=F I1PDM=0.
 Calling FoFJK, ICntrl=      2127 FMM=F ISym2X=0 I1Cent= 0 IOpClX= 0 NMat=1 NMatS=1 NMatT=0.
 ***** Axes restored to original set *****
 -------------------------------------------------------------------
 Center     Atomic                   Forces (Hartrees/Bohr)
 Number     Number              X              Y              Z
 -------------------------------------------------------------------
      1        6           0.002887230    0.005104356   -0.000969946
      2        1          -0.000110418    0.000820251   -0.000795162
      3        6           0.001530268    0.000620036    0.001212060
      4        1          -0.000335294   -0.001031992    0.000468212
      5        7           0.004682666    0.011732846   -0.004761424
      6        6          -0.008407425   -0.012825028    0.001175175
      7        1           0.001237262   -0.000776270    0.002011475
      8        1          -0.000972476   -0.003298653    0.001938943
      9        6           0.000063634   -0.000882916    0.000617945
     10        1           0.000533073   -0.000078627    0.000372387
     11        1          -0.000277075    0.000025156   -0.001101768
     12        1          -0.000831446    0.000590841   -0.000167895
 -------------------------------------------------------------------
 Cartesian Forces:  Max     0.012825028 RMS     0.003677129

 GradGradGradGradGradGradGradGradGradGradGradGradGradGradGradGradGradGrad
 Berny optimization.
 Using GEDIIS/GDIIS optimizer.
 FormGI is forming the generalized inverse of G from B-inverse, IUseBI=4.
 Internal  Forces:  Max     0.015090626 RMS     0.002581093
 Search for a local minimum.
 Step number   2 out of a maximum of   50
 All quantities printed in internal units (Hartrees-Bohrs-Radians)
 Mixed Optimization -- RFO/linear search
 Update second derivatives using D2CorX and points    1    2
 DE= -2.58D-03 DEPred=-2.53D-03 R= 1.02D+00
 TightC=F SS=  1.41D+00  RLast= 2.00D-01 DXNew= 1.6818D-01 6.0118D-01
 Trust test= 1.02D+00 RLast= 2.00D-01 DXMaxT set to 1.68D-01
 ITU=  1  0
 Use linear search instead of GDIIS.
     Eigenvalues ---   -0.00175   0.00933   0.03045   0.03148   0.03686
     Eigenvalues ---    0.04331   0.04835   0.05743   0.05814   0.10254
     Eigenvalues ---    0.10969   0.12229   0.13225   0.13914   0.14150
     Eigenvalues ---    0.14938   0.20007   0.20976   0.24712   0.32291
     Eigenvalues ---    0.35669   0.35724   0.35968   0.36444   0.36744
     Eigenvalues ---    0.38411   0.38763   0.48691   0.64961   0.79355
 RFO step:  Lambda=-2.22620579D-03 EMin=-1.75081404D-03
 Quartic linear search produced a step of  0.62641.
 Iteration  1 RMS(Cart)=  0.09055168 RMS(Int)=  0.03286418
 Iteration  2 RMS(Cart)=  0.03703128 RMS(Int)=  0.00096619
 Iteration  3 RMS(Cart)=  0.00100670 RMS(Int)=  0.00004520
 Iteration  4 RMS(Cart)=  0.00000074 RMS(Int)=  0.00004520
 Variable       Old X    -DE/DX   Delta X   Delta X   Delta X     New X
                                 (Linear)    (Quad)   (Total)
    R1        2.40272   0.00195   0.00395  -0.00060   0.00336   2.40607
    R2        2.07241   0.00285   0.01007  -0.00203   0.00804   2.08045
    R3        2.84042  -0.00047  -0.00510   0.00133  -0.00377   2.83665
    R4        2.04770   0.00106   0.00364  -0.00089   0.00275   2.05045
    R5        2.04521   0.00116   0.00376  -0.00080   0.00296   2.04817
    R6        2.52203  -0.00144  -0.00651   0.00148  -0.00503   2.51700
    R7        2.61414   0.01509   0.03638  -0.00157   0.03480   2.64895
    R8        2.06373   0.00243   0.00724  -0.00175   0.00548   2.06921
    R9        2.06068   0.00063   0.00163  -0.00034   0.00129   2.06197
   R10        2.06411   0.00095   0.00295  -0.00316  -0.00021   2.06389
   R11        2.06557   0.00097   0.00387   0.00176   0.00564   2.07120
    A1        2.13073  -0.00308  -0.02757   0.00669  -0.02090   2.10983
    A2        2.11836   0.00051   0.00235  -0.00162   0.00070   2.11906
    A3        2.03409   0.00257   0.02522  -0.00510   0.02009   2.05418
    A4        2.06363   0.00044   0.00449  -0.00065   0.00384   2.06747
    A5        2.10361  -0.00044  -0.00452   0.00078  -0.00374   2.09987
    A6        2.11594   0.00000   0.00003  -0.00013  -0.00010   2.11584
    A7        2.05430  -0.00151  -0.01952   0.00438  -0.01514   2.03916
    A8        2.11929   0.00042  -0.00094  -0.00038  -0.00131   2.11798
    A9        2.10114   0.00031   0.01186  -0.00031   0.01155   2.11269
   A10        2.06275  -0.00073  -0.01092   0.00069  -0.01023   2.05252
   A11        1.94265   0.00005   0.00288  -0.00001   0.00282   1.94547
   A12        1.92686  -0.00032  -0.00303   0.00414   0.00104   1.92790
   A13        1.92422  -0.00024  -0.00468  -0.00377  -0.00850   1.91571
   A14        1.89840   0.00035   0.00661   0.01084   0.01739   1.91579
   A15        1.89180   0.00031   0.00247  -0.01124  -0.00880   1.88301
   A16        1.87832  -0.00013  -0.00415  -0.00004  -0.00426   1.87405
    D1        0.00068   0.00002   0.00043   0.00296   0.00355   0.00423
    D2       -3.13741   0.00002   0.00261   0.01442   0.01688  -3.12053
    D3       -3.07542   0.00013   0.04125   0.22178   0.26297  -2.81246
    D4       -0.96533   0.00038   0.04946   0.23828   0.28768  -0.67764
    D5        1.10776  -0.00014   0.03938   0.23844   0.27779   1.38554
    D6        0.06949   0.00013   0.04331   0.23261   0.27596   0.34545
    D7        2.17958   0.00038   0.05152   0.24911   0.30068   2.48026
    D8       -2.03052  -0.00013   0.04143   0.24928   0.29078  -1.73974
    D9       -0.00014   0.00001  -0.00005  -0.00011  -0.00016  -0.00030
   D10        3.14157  -0.00000  -0.00002  -0.00020  -0.00021   3.14135
   D11       -3.14143   0.00000   0.00015   0.00071   0.00087  -3.14057
   D12        0.00027  -0.00001   0.00018   0.00063   0.00081   0.00108
   D13        3.14138  -0.00001  -0.00016  -0.00152  -0.00168   3.13970
   D14       -0.00032   0.00000  -0.00019  -0.00144  -0.00163  -0.00195
         Item               Value     Threshold  Converged?
 Maximum Force            0.015091     0.000450     NO 
 RMS     Force            0.002581     0.000300     NO 
 Maximum Displacement     0.359314     0.001800     NO 
 RMS     Displacement     0.125805     0.001200     NO 
 Predicted change in Energy=-1.003260D-03
 GradGradGradGradGradGradGradGradGradGradGradGradGradGradGradGradGradGrad

                          Input orientation:                          
 ---------------------------------------------------------------------
 Center     Atomic      Atomic             Coordinates (Angstroms)
 Number     Number       Type             X           Y           Z
 ---------------------------------------------------------------------
      1          6           0       -0.888759    1.084122    0.285157
      2          1           0       -3.731279   -0.674742   -1.687799
      3          6           0       -3.387451   -1.138614   -0.769139
      4          1           0       -3.854731   -2.063447   -0.451242
      5          7           0       -1.808812    0.620969   -0.463263
      6          6           0       -2.414094   -0.575703   -0.055159
      7          1           0       -2.058020   -1.033287    0.873718
      8          1           0       -0.589490    0.557558    1.204509
      9          6           0       -0.190211    2.372412   -0.039823
     10          1           0        0.760457    2.455677    0.489230
     11          1           0       -0.022536    2.454887   -1.115885
     12          1           0       -0.817474    3.219867    0.259597
 ---------------------------------------------------------------------
                    Distance matrix (angstroms):
                    1          2          3          4          5
     1  C    0.000000
     2  H    3.881504   0.000000
     3  C    3.506502   1.085049   0.000000
     4  H    4.387079   1.863549   1.083847   0.000000
     5  N    1.273240   2.621877   2.383652   3.375207   0.000000
     6  C    2.279798   2.100072   1.331939   2.108483   1.401763
     7  H    2.489376   3.080539   2.116001   2.458642   2.141537
     8  H    1.100926   4.444642   3.821109   4.502552   2.066937
     9  C    1.501091   4.953801   4.804327   5.768433   2.422132
    10  H    2.154699   5.891916   5.630947   6.527399   3.297657
    11  H    2.142956   4.886352   4.935194   5.961779   2.641960
    12  H    2.137088   5.239332   5.163278   6.135441   2.873943
                    6          7          8          9         10
     6  C    0.000000
     7  H    1.094981   0.000000
     8  H    2.490024   2.190157   0.000000
     9  C    3.692868   3.990245   2.236399   0.000000
    10  H    4.423053   4.501612   2.436563   1.091146   0.000000
    11  H    4.003644   4.502118   3.050495   1.092166   1.785910
    12  H    4.129724   4.472742   2.834206   1.096034   1.768215
                   11         12
    11  H    0.000000
    12  H    1.763256   0.000000
 Stoichiometry    C4H7N
 Framework group  C1[X(C4H7N)]
 Deg. of freedom    30
 Full point group                 C1      NOp   1
 Largest Abelian subgroup         C1      NOp   1
 Largest concise Abelian subgroup C1      NOp   1
                         Standard orientation:                         
 ---------------------------------------------------------------------
 Center     Atomic      Atomic             Coordinates (Angstroms)
 Number     Number       Type             X           Y           Z
 ---------------------------------------------------------------------
      1          6           0       -1.014549    0.396963   -0.010374
      2          1           0        2.443033   -1.366885   -0.003473
      3          6           0        2.425559   -0.282005    0.004363
      4          1           0        3.369981    0.249663    0.015394
      5          7           0        0.042163   -0.313317   -0.011142
      6          6           0        1.265076    0.371704    0.001886
      7          1           0        1.233410    1.466197    0.009928
      8          1           0       -0.956497    1.496338   -0.003900
      9          6           0       -2.378484   -0.229750    0.003342
     10          1           0       -3.144630    0.473972   -0.325893
     11          1           0       -2.396528   -1.118778   -0.630796
     12          1           0       -2.629524   -0.548753    1.021432
 ---------------------------------------------------------------------
 Rotational constants (GHZ):          31.1433678           2.3592751           2.2232977
 Standard basis: 6-31G(d) (6D, 7F)
 There are    89 symmetry adapted cartesian basis functions of A   symmetry.
 There are    89 symmetry adapted basis functions of A   symmetry.
    89 basis functions,   168 primitive gaussians,    89 cartesian basis functions
    19 alpha electrons       19 beta electrons
       nuclear repulsion energy       156.8393769351 Hartrees.
 NAtoms=   12 NActive=   12 NUniq=   12 SFac= 1.00D+00 NAtFMM=   60 NAOKFM=F Big=F
 Integral buffers will be    131072 words long.
 Raffenetti 2 integral format.
 Two-electron integral symmetry is turned on.
 ------------------------------------------------------------------------------
 Polarizable Continuum Model (PCM)
 =================================
 Model                : PCM.
 Atomic radii         : UFF (Universal Force Field).
 Polarization charges : Total charges.
 Charge compensation  : None.
 Solution method      : Matrix inversion.
 Cavity type          : Scaled VdW (van der Waals Surface) (Alpha=1.100).
 Cavity algorithm     : GePol (No added spheres)
                        Default sphere list used, NSphG=   12.
                        Lebedev-Laikov grids with approx.  5.0 points / Ang**2.
                        Smoothing algorithm: York/Karplus (Gamma=1.0000).
                        Polarization charges: spherical gaussians, with
                                              point-specific exponents (IZeta= 3).
                        Self-potential: point-specific (ISelfS= 7).
                        Self-field    : sphere-specific E.n sum rule (ISelfD= 2).
 1st derivatives      : Analytical E(r).r(x)/FMM algorithm (CHGder, D1EAlg=3).
                        Cavity 1st derivative terms included.
 Solvent              : Benzene, Eps=   2.270600 Eps(inf)=   2.253301
 ------------------------------------------------------------------------------
 Spheres list:
 ISph  on   Nord     Re0    Alpha      Xe            Ye            Ze
    1   C      1    1.9255  1.100     -1.014549      0.396963     -0.010374
    2   H      2    1.4430  1.100      2.443033     -1.366885     -0.003473
    3   C      3    1.9255  1.100      2.425559     -0.282005      0.004363
    4   H      4    1.4430  1.100      3.369981      0.249663      0.015394
    5   N      5    1.8300  1.100      0.042163     -0.313317     -0.011142
    6   C      6    1.9255  1.100      1.265076      0.371704      0.001886
    7   H      7    1.4430  1.100      1.233410      1.466197      0.009928
    8   H      8    1.4430  1.100     -0.956497      1.496338     -0.003900
    9   C      9    1.9255  1.100     -2.378484     -0.229750      0.003342
   10   H     10    1.4430  1.100     -3.144630      0.473972     -0.325893
   11   H     11    1.4430  1.100     -2.396528     -1.118778     -0.630796
   12   H     12    1.4430  1.100     -2.629524     -0.548753      1.021432
 ------------------------------------------------------------------------------
 One-electron integrals computed using PRISM.
 NBasis=    89 RedAO= T EigKep=  3.50D-03  NBF=    89
 NBsUse=    89 1.00D-06 EigRej= -1.00D+00 NBFU=    89
 Initial guess from the checkpoint file:  "2g_gs_2_opt_hess.chk"
 B after Tr=    -0.000000    0.000000   -0.000000
         Rot=    0.999504    0.031469    0.001287    0.000370 Ang=   3.61 deg.
 ExpMin= 1.61D-01 ExpMax= 4.17D+03 ExpMxC= 6.27D+02 IAcc=3 IRadAn=         5 AccDes= 0.00D+00
 Harris functional with IExCor= 1009 and IRadAn=       5 diagonalized for initial guess.
 HarFok:  IExCor= 1009 AccDes= 0.00D+00 IRadAn=         5 IDoV= 1 UseB2=F ITyADJ=14
 ICtDFT=  3500011 ScaDFX=  1.000000  1.000000  1.000000  1.000000
 FoFCou: FMM=F IPFlag=           0 FMFlag=      100000 FMFlg1=           0
         NFxFlg=           0 DoJE=T BraDBF=F KetDBF=T FulRan=T
         wScrn=  0.000000 ICntrl=       500 IOpCl=  0 I1Cent=   200000004 NGrid=           0
         NMat0=    1 NMatS0=      1 NMatT0=    0 NMatD0=    1 NMtDS0=    0 NMtDT0=    0
 Petite list used in FoFCou.
 Keep R1 ints in memory in canonical form, NReq=19002712.
 Requested convergence on RMS density matrix=1.00D-08 within 128 cycles.
 Requested convergence on MAX density matrix=1.00D-06.
 Requested convergence on             energy=1.00D-06.
 No special actions if energy rises.
 Inv3:  Mode=1 IEnd=     3460428.
 Iteration    1 A*A^-1 deviation from unit magnitude is 2.89D-15 for    733.
 Iteration    1 A*A^-1 deviation from orthogonality  is 2.22D-15 for    740     63.
 Iteration    1 A^-1*A deviation from unit magnitude is 2.89D-15 for    390.
 Iteration    1 A^-1*A deviation from orthogonality  is 2.00D-15 for    772     50.
 Error on total polarization charges =  0.00429
 SCF Done:  E(RM062X) =  -211.241928331     A.U. after   12 cycles
            NFock= 12  Conv=0.66D-08     -V/T= 2.0087
 D1PCM: PCM CHGder 1st derivatives, ID1Alg=3 FixD1E=F DoIter=F DoCFld=F I1PDM=0.
 Calling FoFJK, ICntrl=      2127 FMM=F ISym2X=0 I1Cent= 0 IOpClX= 0 NMat=1 NMatS=1 NMatT=0.
 ***** Axes restored to original set *****
 -------------------------------------------------------------------
 Center     Atomic                   Forces (Hartrees/Bohr)
 Number     Number              X              Y              Z
 -------------------------------------------------------------------
      1        6           0.000216081    0.000901048   -0.000681011
      2        1          -0.000007638   -0.000032304    0.000011179
      3        6          -0.000174553   -0.000062933   -0.000047453
      4        1           0.000001941   -0.000002028   -0.000024863
      5        7           0.001294438    0.001204200   -0.001154288
      6        6          -0.000823213   -0.001798601    0.000610150
      7        1          -0.000089905   -0.000095890    0.000011039
      8        1          -0.000131015    0.000824194    0.000470895
      9        6          -0.000920627   -0.000266677    0.000387272
     10        1           0.000631623   -0.000281126   -0.000297423
     11        1          -0.000269614   -0.000330965   -0.000102899
     12        1           0.000272481   -0.000058920    0.000817402
 -------------------------------------------------------------------
 Cartesian Forces:  Max     0.001798601 RMS     0.000614935

 GradGradGradGradGradGradGradGradGradGradGradGradGradGradGradGradGradGrad
 Berny optimization.
 Using GEDIIS/GDIIS optimizer.
 FormGI is forming the generalized inverse of G from B-inverse, IUseBI=4.
 Internal  Forces:  Max     0.002341413 RMS     0.000516153
 Search for a local minimum.
 Step number   3 out of a maximum of   50
 All quantities printed in internal units (Hartrees-Bohrs-Radians)
 Mixed Optimization -- En-DIIS/RFO-DIIS
 Update second derivatives using D2CorX and points    2    3
 DE= -9.81D-04 DEPred=-1.00D-03 R= 9.78D-01
 TightC=F SS=  1.41D+00  RLast= 6.96D-01 DXNew= 2.8284D-01 2.0865D+00
 Trust test= 9.78D-01 RLast= 6.96D-01 DXMaxT set to 2.83D-01
 ITU=  1  1  0
 Use linear search instead of GDIIS.
     Eigenvalues ---    0.00005   0.00934   0.03054   0.03154   0.03687
     Eigenvalues ---    0.04333   0.04844   0.05811   0.06048   0.10313
     Eigenvalues ---    0.10979   0.12299   0.13549   0.14248   0.14384
     Eigenvalues ---    0.17373   0.20039   0.21470   0.27444   0.33478
     Eigenvalues ---    0.35669   0.35841   0.36248   0.36486   0.38121
     Eigenvalues ---    0.38614   0.40545   0.64633   0.78035   8.32527
 RFO step:  Lambda=-1.31648063D-03 EMin= 4.55040347D-05
 Skip linear search -- no minimum in search direction.
 Iteration  1 RMS(Cart)=  0.09066738 RMS(Int)=  0.07594454
 Iteration  2 RMS(Cart)=  0.08686851 RMS(Int)=  0.00535465
 Iteration  3 RMS(Cart)=  0.00561725 RMS(Int)=  0.00003833
 Iteration  4 RMS(Cart)=  0.00002273 RMS(Int)=  0.00003434
 Iteration  5 RMS(Cart)=  0.00000000 RMS(Int)=  0.00003434
 Variable       Old X    -DE/DX   Delta X   Delta X   Delta X     New X
                                 (Linear)    (Quad)   (Total)
    R1        2.40607   0.00048   0.00000   0.00460   0.00460   2.41067
    R2        2.08045  -0.00004   0.00000   0.01057   0.01057   2.09102
    R3        2.83665  -0.00111   0.00000  -0.00892  -0.00892   2.82773
    R4        2.05045  -0.00002   0.00000   0.00347   0.00347   2.05392
    R5        2.04817  -0.00000   0.00000   0.00384   0.00384   2.05202
    R6        2.51700   0.00020   0.00000  -0.00649  -0.00649   2.51051
    R7        2.64895   0.00234   0.00000   0.05145   0.05145   2.70039
    R8        2.06921   0.00002   0.00000   0.00685   0.00685   2.07606
    R9        2.06197   0.00038   0.00000   0.00329   0.00329   2.06526
   R10        2.06389   0.00004   0.00000  -0.00026  -0.00026   2.06363
   R11        2.07120   0.00002   0.00000   0.00733   0.00733   2.07853
    A1        2.10983   0.00038   0.00000  -0.02314  -0.02317   2.08666
    A2        2.11906   0.00049   0.00000   0.00434   0.00431   2.12337
    A3        2.05418  -0.00087   0.00000   0.01862   0.01859   2.07277
    A4        2.06747  -0.00003   0.00000   0.00466   0.00466   2.07213
    A5        2.09987   0.00003   0.00000  -0.00432  -0.00432   2.09555
    A6        2.11584   0.00000   0.00000  -0.00034  -0.00034   2.11551
    A7        2.03916   0.00047   0.00000  -0.01897  -0.01897   2.02019
    A8        2.11798   0.00002   0.00000  -0.00262  -0.00262   2.11536
    A9        2.11269  -0.00014   0.00000   0.01513   0.01513   2.12782
   A10        2.05252   0.00012   0.00000  -0.01252  -0.01252   2.04000
   A11        1.94547  -0.00001   0.00000   0.00152   0.00148   1.94695
   A12        1.92790  -0.00059   0.00000  -0.00361  -0.00364   1.92425
   A13        1.91571   0.00004   0.00000  -0.00810  -0.00814   1.90757
   A14        1.91579   0.00006   0.00000   0.02055   0.02052   1.93630
   A15        1.88301   0.00001   0.00000  -0.01258  -0.01262   1.87038
   A16        1.87405   0.00054   0.00000   0.00201   0.00198   1.87604
    D1        0.00423   0.00005   0.00000   0.00730   0.00742   0.01165
    D2       -3.12053  -0.00001   0.00000   0.02092   0.02081  -3.09973
    D3       -2.81246   0.00067   0.00000   0.37441   0.37438  -2.43807
    D4       -0.67764   0.00032   0.00000   0.39917   0.39913  -0.27852
    D5        1.38554   0.00065   0.00000   0.39445   0.39441   1.77995
    D6        0.34545   0.00061   0.00000   0.38801   0.38805   0.73350
    D7        2.48026   0.00026   0.00000   0.41276   0.41280   2.89306
    D8       -1.73974   0.00058   0.00000   0.40804   0.40808  -1.33166
    D9       -0.00030   0.00002   0.00000   0.00062   0.00063   0.00033
   D10        3.14135  -0.00001   0.00000  -0.00069  -0.00069   3.14066
   D11       -3.14057   0.00001   0.00000   0.00129   0.00129  -3.13928
   D12        0.00108  -0.00003   0.00000  -0.00002  -0.00003   0.00106
   D13        3.13970  -0.00004   0.00000  -0.00540  -0.00539   3.13431
   D14       -0.00195  -0.00000   0.00000  -0.00413  -0.00414  -0.00608
         Item               Value     Threshold  Converged?
 Maximum Force            0.002341     0.000450     NO 
 RMS     Force            0.000516     0.000300     NO 
 Maximum Displacement     0.456116     0.001800     NO 
 RMS     Displacement     0.175619     0.001200     NO 
 Predicted change in Energy=-1.282553D-03
 GradGradGradGradGradGradGradGradGradGradGradGradGradGradGradGradGradGrad

                          Input orientation:                          
 ---------------------------------------------------------------------
 Center     Atomic      Atomic             Coordinates (Angstroms)
 Number     Number       Type             X           Y           Z
 ---------------------------------------------------------------------
      1          6           0       -0.912656    1.111413    0.285653
      2          1           0       -3.604183   -0.790495   -1.774296
      3          6           0       -3.350166   -1.181093   -0.792343
      4          1           0       -3.859223   -2.072201   -0.437482
      5          7           0       -1.766524    0.604738   -0.515302
      6          6           0       -2.434300   -0.569536   -0.049297
      7          1           0       -2.154852   -0.937413    0.947451
      8          1           0       -0.727898    0.628126    1.263753
      9          6           0       -0.175737    2.370874   -0.045750
     10          1           0        0.872343    2.314768    0.258859
     11          1           0       -0.261071    2.589257   -1.112310
     12          1           0       -0.628133    3.211262    0.500963
 ---------------------------------------------------------------------
                    Distance matrix (angstroms):
                    1          2          3          4          5
     1  C    0.000000
     2  H    3.886510   0.000000
     3  C    3.515553   1.086887   0.000000
     4  H    4.397793   1.869462   1.085882   0.000000
     5  N    1.275672   2.628446   2.402887   3.398742   0.000000
     6  C    2.291982   2.095965   1.328506   2.106916   1.428987
     7  H    2.485702   3.087077   2.124862   2.471976   2.160711
     8  H    1.106518   4.417606   3.791714   4.471148   2.060177
     9  C    1.496369   4.973567   4.821915   5.784673   2.422874
    10  H    2.152905   5.815123   5.581724   6.489846   3.238386
    11  H    2.136091   4.799723   4.884713   5.927165   2.561468
    12  H    2.129948   5.481581   5.326808   6.263833   3.020380
                    6          7          8          9         10
     6  C    0.000000
     7  H    1.098604   0.000000
     8  H    2.463798   2.141765   0.000000
     9  C    3.707712   3.980968   2.248744   0.000000
    10  H    4.398642   4.496081   2.532853   1.092888   0.000000
    11  H    3.978805   4.501824   3.116029   1.092027   1.800020
    12  H    4.226045   4.443166   2.695254   1.099913   1.764580
                   11         12
    11  H    0.000000
    12  H    1.767562   0.000000
 Stoichiometry    C4H7N
 Framework group  C1[X(C4H7N)]
 Deg. of freedom    30
 Full point group                 C1      NOp   1
 Largest Abelian subgroup         C1      NOp   1
 Largest concise Abelian subgroup C1      NOp   1
                         Standard orientation:                         
 ---------------------------------------------------------------------
 Center     Atomic      Atomic             Coordinates (Angstroms)
 Number     Number       Type             X           Y           Z
 ---------------------------------------------------------------------
      1          6           0       -1.017665    0.385796   -0.018959
      2          1           0        2.455327   -1.358668   -0.007258
      3          6           0        2.435671   -0.272082    0.009097
      4          1           0        3.378219    0.266638    0.031969
      5          7           0        0.033874   -0.336410   -0.024070
      6          6           0        1.274173    0.372758    0.003202
      7          1           0        1.218859    1.469838    0.020100
      8          1           0       -0.922671    1.488149   -0.005727
      9          6           0       -2.385956   -0.219322    0.008057
     10          1           0       -3.075792    0.318519   -0.647121
     11          1           0       -2.337015   -1.276703   -0.260408
     12          1           0       -2.791382   -0.155805    1.028549
 ---------------------------------------------------------------------
 Rotational constants (GHZ):          31.2394518           2.3422640           2.2088351
 Standard basis: 6-31G(d) (6D, 7F)
 There are    89 symmetry adapted cartesian basis functions of A   symmetry.
 There are    89 symmetry adapted basis functions of A   symmetry.
    89 basis functions,   168 primitive gaussians,    89 cartesian basis functions
    19 alpha electrons       19 beta electrons
       nuclear repulsion energy       156.3432361559 Hartrees.
 NAtoms=   12 NActive=   12 NUniq=   12 SFac= 1.00D+00 NAtFMM=   60 NAOKFM=F Big=F
 Integral buffers will be    131072 words long.
 Raffenetti 2 integral format.
 Two-electron integral symmetry is turned on.
 ------------------------------------------------------------------------------
 Polarizable Continuum Model (PCM)
 =================================
 Model                : PCM.
 Atomic radii         : UFF (Universal Force Field).
 Polarization charges : Total charges.
 Charge compensation  : None.
 Solution method      : Matrix inversion.
 Cavity type          : Scaled VdW (van der Waals Surface) (Alpha=1.100).
 Cavity algorithm     : GePol (No added spheres)
                        Default sphere list used, NSphG=   12.
                        Lebedev-Laikov grids with approx.  5.0 points / Ang**2.
                        Smoothing algorithm: York/Karplus (Gamma=1.0000).
                        Polarization charges: spherical gaussians, with
                                              point-specific exponents (IZeta= 3).
                        Self-potential: point-specific (ISelfS= 7).
                        Self-field    : sphere-specific E.n sum rule (ISelfD= 2).
 1st derivatives      : Analytical E(r).r(x)/FMM algorithm (CHGder, D1EAlg=3).
                        Cavity 1st derivative terms included.
 Solvent              : Benzene, Eps=   2.270600 Eps(inf)=   2.253301
 ------------------------------------------------------------------------------
 Spheres list:
 ISph  on   Nord     Re0    Alpha      Xe            Ye            Ze
    1   C      1    1.9255  1.100     -1.017665      0.385796     -0.018959
    2   H      2    1.4430  1.100      2.455327     -1.358668     -0.007258
    3   C      3    1.9255  1.100      2.435671     -0.272082      0.009097
    4   H      4    1.4430  1.100      3.378219      0.266638      0.031969
    5   N      5    1.8300  1.100      0.033874     -0.336410     -0.024070
    6   C      6    1.9255  1.100      1.274173      0.372758      0.003202
    7   H      7    1.4430  1.100      1.218859      1.469838      0.020100
    8   H      8    1.4430  1.100     -0.922671      1.488149     -0.005727
    9   C      9    1.9255  1.100     -2.385956     -0.219322      0.008057
   10   H     10    1.4430  1.100     -3.075792      0.318519     -0.647121
   11   H     11    1.4430  1.100     -2.337015     -1.276703     -0.260408
   12   H     12    1.4430  1.100     -2.791382     -0.155805      1.028549
 ------------------------------------------------------------------------------
 One-electron integrals computed using PRISM.
 NBasis=    89 RedAO= T EigKep=  3.49D-03  NBF=    89
 NBsUse=    89 1.00D-06 EigRej= -1.00D+00 NBFU=    89
 Initial guess from the checkpoint file:  "2g_gs_2_opt_hess.chk"
 B after Tr=    -0.000000   -0.000000    0.000000
         Rot=    0.999045    0.043656    0.001750    0.000378 Ang=   5.01 deg.
 ExpMin= 1.61D-01 ExpMax= 4.17D+03 ExpMxC= 6.27D+02 IAcc=3 IRadAn=         5 AccDes= 0.00D+00
 Harris functional with IExCor= 1009 and IRadAn=       5 diagonalized for initial guess.
 HarFok:  IExCor= 1009 AccDes= 0.00D+00 IRadAn=         5 IDoV= 1 UseB2=F ITyADJ=14
 ICtDFT=  3500011 ScaDFX=  1.000000  1.000000  1.000000  1.000000
 FoFCou: FMM=F IPFlag=           0 FMFlag=      100000 FMFlg1=           0
         NFxFlg=           0 DoJE=T BraDBF=F KetDBF=T FulRan=T
         wScrn=  0.000000 ICntrl=       500 IOpCl=  0 I1Cent=   200000004 NGrid=           0
         NMat0=    1 NMatS0=      1 NMatT0=    0 NMatD0=    1 NMtDS0=    0 NMtDT0=    0
 Petite list used in FoFCou.
 Keep R1 ints in memory in canonical form, NReq=19002712.
 Requested convergence on RMS density matrix=1.00D-08 within 128 cycles.
 Requested convergence on MAX density matrix=1.00D-06.
 Requested convergence on             energy=1.00D-06.
 No special actions if energy rises.
 Inv3:  Mode=1 IEnd=     3428283.
 Iteration    1 A*A^-1 deviation from unit magnitude is 2.89D-15 for    361.
 Iteration    1 A*A^-1 deviation from orthogonality  is 1.78D-15 for    757    184.
 Iteration    1 A^-1*A deviation from unit magnitude is 2.89D-15 for    361.
 Iteration    1 A^-1*A deviation from orthogonality  is 2.00D-15 for    764     50.
 Error on total polarization charges =  0.00424
 SCF Done:  E(RM062X) =  -211.242648273     A.U. after   13 cycles
            NFock= 13  Conv=0.90D-08     -V/T= 2.0090
 D1PCM: PCM CHGder 1st derivatives, ID1Alg=3 FixD1E=F DoIter=F DoCFld=F I1PDM=0.
 Calling FoFJK, ICntrl=      2127 FMM=F ISym2X=0 I1Cent= 0 IOpClX= 0 NMat=1 NMatS=1 NMatT=0.
 ***** Axes restored to original set *****
 -------------------------------------------------------------------
 Center     Atomic                   Forces (Hartrees/Bohr)
 Number     Number              X              Y              Z
 -------------------------------------------------------------------
      1        6          -0.003883900   -0.004430654   -0.000123991
      2        1          -0.000044221   -0.000927275    0.001155844
      3        6          -0.002046354   -0.001121087   -0.001815130
      4        1           0.000537277    0.001203452   -0.000742865
      5        7          -0.004949326   -0.010503379    0.005409080
      6        6           0.009610191    0.011658419   -0.000925479
      7        1          -0.001340273    0.000379981   -0.002849935
      8        1           0.001971320    0.005044282   -0.002076400
      9        6          -0.003117907    0.002127280    0.002538987
     10        1           0.000489886   -0.000371632   -0.001254764
     11        1           0.001173787   -0.001425963    0.000364652
     12        1           0.001599521   -0.001633424    0.000320002
 -------------------------------------------------------------------
 Cartesian Forces:  Max     0.011658419 RMS     0.003787356

 GradGradGradGradGradGradGradGradGradGradGradGradGradGradGradGradGradGrad
 Berny optimization.
 Using GEDIIS/GDIIS optimizer.
 FormGI is forming the generalized inverse of G from B-inverse, IUseBI=4.
 Internal  Forces:  Max     0.014023380 RMS     0.002711400
 Search for a local minimum.
 Step number   4 out of a maximum of   50
 All quantities printed in internal units (Hartrees-Bohrs-Radians)
 Mixed Optimization -- RFO/linear search
 Update second derivatives using D2CorX and points    3    4
 DE= -7.20D-04 DEPred=-1.28D-03 R= 5.61D-01
 TightC=F SS=  1.41D+00  RLast= 9.74D-01 DXNew= 4.7568D-01 2.9217D+00
 Trust test= 5.61D-01 RLast= 9.74D-01 DXMaxT set to 4.76D-01
 ITU=  1  1  1  0
 Use linear search instead of GDIIS.
     Eigenvalues ---    0.00153   0.00933   0.03034   0.03146   0.03684
     Eigenvalues ---    0.04365   0.04875   0.05560   0.05823   0.10311
     Eigenvalues ---    0.10978   0.12283   0.13041   0.14034   0.14382
     Eigenvalues ---    0.15753   0.19981   0.20683   0.27123   0.31309
     Eigenvalues ---    0.35693   0.35788   0.36022   0.36461   0.37755
     Eigenvalues ---    0.38580   0.39153   0.64172   0.77828   8.50743
 RFO step:  Lambda=-1.52291020D-04 EMin= 1.53234720D-03
 Quartic linear search produced a step of -0.08804.
 Iteration  1 RMS(Cart)=  0.01326466 RMS(Int)=  0.00012361
 Iteration  2 RMS(Cart)=  0.00015066 RMS(Int)=  0.00002992
 Iteration  3 RMS(Cart)=  0.00000002 RMS(Int)=  0.00002992
 Variable       Old X    -DE/DX   Delta X   Delta X   Delta X     New X
                                 (Linear)    (Quad)   (Total)
    R1        2.41067  -0.00161  -0.00040   0.00012  -0.00028   2.41039
    R2        2.09102  -0.00371  -0.00093  -0.00022  -0.00115   2.08986
    R3        2.82773  -0.00146   0.00079  -0.00455  -0.00376   2.82397
    R4        2.05392  -0.00137  -0.00031  -0.00016  -0.00047   2.05345
    R5        2.05202  -0.00148  -0.00034  -0.00009  -0.00043   2.05159
    R6        2.51051   0.00224   0.00057   0.00018   0.00075   2.51126
    R7        2.70039  -0.01402  -0.00453   0.00795   0.00343   2.70382
    R8        2.07606  -0.00305  -0.00060  -0.00061  -0.00122   2.07485
    R9        2.06526   0.00014  -0.00029   0.00272   0.00243   2.06769
   R10        2.06363  -0.00073   0.00002   0.00124   0.00126   2.06489
   R11        2.07853  -0.00174  -0.00065  -0.00204  -0.00269   2.07584
    A1        2.08666   0.00460   0.00204   0.00571   0.00773   2.09439
    A2        2.12337   0.00007  -0.00038   0.00325   0.00284   2.12621
    A3        2.07277  -0.00467  -0.00164  -0.00863  -0.01029   2.06248
    A4        2.07213  -0.00060  -0.00041  -0.00038  -0.00079   2.07134
    A5        2.09555   0.00058   0.00038   0.00037   0.00075   2.09630
    A6        2.11551   0.00002   0.00003   0.00001   0.00004   2.11555
    A7        2.02019   0.00299   0.00167   0.00181   0.00348   2.02368
    A8        2.11536  -0.00061   0.00023  -0.00184  -0.00161   2.11375
    A9        2.12782  -0.00059  -0.00133   0.00054  -0.00079   2.12703
   A10        2.04000   0.00119   0.00110   0.00129   0.00240   2.04240
   A11        1.94695  -0.00014  -0.00013  -0.00363  -0.00382   1.94313
   A12        1.92425  -0.00077   0.00032  -0.00910  -0.00884   1.91541
   A13        1.90757   0.00049   0.00072   0.00797   0.00869   1.91626
   A14        1.93630  -0.00084  -0.00181  -0.01020  -0.01212   1.92418
   A15        1.87038  -0.00006   0.00111   0.00313   0.00424   1.87462
   A16        1.87604   0.00142  -0.00017   0.01321   0.01304   1.88908
    D1        0.01165  -0.00048  -0.00065  -0.00582  -0.00643   0.00521
    D2       -3.09973  -0.00085  -0.00183  -0.01877  -0.02064  -3.12037
    D3       -2.43807   0.00128  -0.03296   0.04180   0.00878  -2.42929
    D4       -0.27852  -0.00044  -0.03514   0.01954  -0.01556  -0.29408
    D5        1.77995   0.00113  -0.03472   0.03507   0.00033   1.78027
    D6        0.73350   0.00076  -0.03416   0.02872  -0.00547   0.72803
    D7        2.89306  -0.00096  -0.03634   0.00646  -0.02982   2.86324
    D8       -1.33166   0.00061  -0.03593   0.02198  -0.01393  -1.34559
    D9        0.00033   0.00003  -0.00006   0.00012   0.00006   0.00039
   D10        3.14066   0.00001   0.00006   0.00048   0.00054   3.14120
   D11       -3.13928   0.00001  -0.00011  -0.00118  -0.00129  -3.14057
   D12        0.00106  -0.00002   0.00000  -0.00082  -0.00081   0.00024
   D13        3.13431  -0.00003   0.00047   0.00062   0.00109   3.13540
   D14       -0.00608  -0.00001   0.00036   0.00028   0.00064  -0.00544
         Item               Value     Threshold  Converged?
 Maximum Force            0.014023     0.000450     NO 
 RMS     Force            0.002711     0.000300     NO 
 Maximum Displacement     0.032990     0.001800     NO 
 RMS     Displacement     0.013283     0.001200     NO 
 Predicted change in Energy=-8.493028D-05
[...]
   A14        1.91030  -0.00000   0.00000   0.00000   0.00000   1.91030
   A15        1.86690   0.00000   0.00000   0.00000   0.00000   1.86690
   A16        1.91030  -0.00000   0.00000  -0.00000  -0.00000   1.91030
    D1       -0.00000  -0.00000   0.00000   0.00000   0.00000   0.00000
    D2       -3.14159  -0.00000   0.00000   0.00000   0.00000  -3.14159
    D3       -2.11130  -0.00000   0.00000  -0.00004  -0.00004  -2.11134
    D4        0.00003   0.00000   0.00000  -0.00002  -0.00002   0.00000
    D5        2.11137   0.00000   0.00000  -0.00002  -0.00002   2.11134
    D6        1.03029  -0.00000   0.00000  -0.00004  -0.00004   1.03025
    D7       -3.14156   0.00000   0.00000  -0.00003  -0.00003  -3.14159
    D8       -1.03022   0.00000   0.00000  -0.00002  -0.00002  -1.03025
    D9        0.00000  -0.00000   0.00000  -0.00000  -0.00000   0.00000
   D10       -3.14159   0.00000   0.00000  -0.00000  -0.00000   3.14159
   D11       -3.14159  -0.00000   0.00000  -0.00000  -0.00000  -3.14159
   D12        0.00000  -0.00000   0.00000  -0.00000  -0.00000  -0.00000
   D13        3.14159   0.00000   0.00000   0.00000   0.00000   3.14159
   D14        0.00000  -0.00000   0.00000  -0.00000  -0.00000  -0.00000
         Item               Value     Threshold  Converged?
 Maximum Force            0.000003     0.000450     YES
 RMS     Force            0.000001     0.000300     YES
 Maximum Displacement     0.000077     0.001800     YES
 RMS     Displacement     0.000023     0.001200     YES
 Predicted change in Energy=-1.343792D-10
 Optimization completed.
    -- Stationary point found.
                           ----------------------------
                           !   Optimized Parameters   !
                           ! (Angstroms and Degrees)  !
 --------------------------                            --------------------------
 ! Name  Definition              Value          Derivative Info.                !
 --------------------------------------------------------------------------------
 ! R1    R(1,5)                  1.2736         -DE/DX =    0.0                 !
 ! R2    R(1,8)                  1.1014         -DE/DX =    0.0                 !
 ! R3    R(1,9)                  1.4941         -DE/DX =    0.0                 !
 ! R4    R(2,3)                  1.085          -DE/DX =    0.0                 !
 ! R5    R(3,4)                  1.0839         -DE/DX =    0.0                 !
 ! R6    R(3,6)                  1.3318         -DE/DX =    0.0                 !
 ! R7    R(5,6)                  1.4059         -DE/DX =    0.0                 !
 ! R8    R(6,7)                  1.0947         -DE/DX =    0.0                 !
 ! R9    R(9,10)                 1.0955         -DE/DX =    0.0                 !
 ! R10   R(9,11)                 1.0908         -DE/DX =    0.0                 !
 ! R11   R(9,12)                 1.0955         -DE/DX =    0.0                 !
 ! A1    A(5,1,8)              121.1615         -DE/DX =    0.0                 !
 ! A2    A(5,1,9)              122.1276         -DE/DX =    0.0                 !
 ! A3    A(8,1,9)              116.7108         -DE/DX =    0.0                 !
 ! A4    A(2,3,4)              118.4409         -DE/DX =    0.0                 !
 ! A5    A(2,3,6)              120.3436         -DE/DX =    0.0                 !
 ! A6    A(4,3,6)              121.2156         -DE/DX =    0.0                 !
 ! A7    A(1,5,6)              116.7574         -DE/DX =    0.0                 !
 ! A8    A(3,6,5)              121.2548         -DE/DX =    0.0                 !
 ! A9    A(3,6,7)              121.0776         -DE/DX =    0.0                 !
 ! A10   A(5,6,7)              117.6676         -DE/DX =    0.0                 !
 ! A11   A(1,9,10)             110.3953         -DE/DX =    0.0                 !
 ! A12   A(1,9,11)             110.1202         -DE/DX =    0.0                 !
 ! A13   A(1,9,12)             110.3962         -DE/DX =    0.0                 !
 ! A14   A(10,9,11)            109.4521         -DE/DX =    0.0                 !
 ! A15   A(10,9,12)            106.9654         -DE/DX =    0.0                 !
 ! A16   A(11,9,12)            109.4522         -DE/DX =    0.0                 !
 ! D1    D(8,1,5,6)             -0.0001         -DE/DX =    0.0                 !
 ! D2    D(9,1,5,6)           -180.0            -DE/DX =    0.0                 !
 ! D3    D(5,1,9,10)          -120.9687         -DE/DX =    0.0                 !
 ! D4    D(5,1,9,11)             0.0015         -DE/DX =    0.0                 !
 ! D5    D(5,1,9,12)           120.9725         -DE/DX =    0.0                 !
 ! D6    D(8,1,9,10)            59.0314         -DE/DX =    0.0                 !
 ! D7    D(8,1,9,11)          -179.9984         -DE/DX =    0.0                 !
 ! D8    D(8,1,9,12)           -59.0274         -DE/DX =    0.0                 !
 ! D9    D(2,3,6,5)              0.0003         -DE/DX =    0.0                 !
 ! D10   D(2,3,6,7)            180.0            -DE/DX =    0.0                 !
 ! D11   D(4,3,6,5)           -179.9997         -DE/DX =    0.0                 !
 ! D12   D(4,3,6,7)              0.0            -DE/DX =    0.0                 !
 ! D13   D(1,5,6,3)            179.9999         -DE/DX =    0.0                 !
 ! D14   D(1,5,6,7)              0.0002         -DE/DX =    0.0                 !
 --------------------------------------------------------------------------------
 GradGradGradGradGradGradGradGradGradGradGradGradGradGradGradGradGradGrad


 ----------------------------------------------------------------------

 Electric dipole moment (input orientation):
 (Debye = 10**-18 statcoulomb cm , SI units = C m)
                  (au)            (Debye)         (10**-30 SI)
   Tot        0.735580D+00      0.186966D+01      0.623651D+01
   x          0.358878D+00      0.912177D+00      0.304270D+01
   y          0.835788D-01      0.212436D+00      0.708611D+00
   z          0.636631D+00      0.161816D+01      0.539758D+01

 Dipole polarizability, Alpha (input orientation).
 (esu units = cm**3 , SI units = C**2 m**2 J**-1)
 Alpha(0;0):
               (au)            (10**-24 esu)      (10**-40 SI)
   iso        0.588854D+02      0.872592D+01      0.970889D+01
   aniso      0.651564D+02      0.965518D+01      0.107428D+02
   xx         0.600488D+02      0.889831D+01      0.990071D+01
   yx         0.320522D+02      0.474965D+01      0.528470D+01
   yy         0.642893D+02      0.952670D+01      0.105999D+02
   zx         0.172442D+02      0.255533D+01      0.284319D+01
   zy         0.731889D+01      0.108455D+01      0.120672D+01
   zz         0.523181D+02      0.775274D+01      0.862609D+01

 ----------------------------------------------------------------------

 Dipole orientation:
     6         -1.94327065          2.13763206         -0.12978641
     1         -4.05023260         -1.02732407         -6.40459992
     6         -4.63352665         -1.90348609         -4.64503282
     1         -5.76752646         -3.60688050         -4.73247458
     7         -2.49148208          1.31413865         -2.32372306
     6         -3.96231493         -0.89523697         -2.43895822
     1         -4.53818718         -1.76025115         -0.65015456
     1         -2.59765293          1.15468384          1.58405446
     6         -0.39333772          4.46582744          0.25614333
     1          1.31212059          4.02510109          1.34391865
     1          0.14249373          5.27079542         -1.56431864
     1         -1.45787535          5.86917605          1.34401589

 Electric dipole moment (dipole orientation):
 (Debye = 10**-18 statcoulomb cm , SI units = C m)
                  (au)            (Debye)         (10**-30 SI)
   Tot        0.735580D+00      0.186966D+01      0.623651D+01
   x          0.000000D+00      0.000000D+00      0.000000D+00
   y          0.000000D+00      0.000000D+00      0.000000D+00
   z          0.735580D+00      0.186966D+01      0.623651D+01

 Dipole polarizability, Alpha (dipole orientation).
 (esu units = cm**3 , SI units = C**2 m**2 J**-1)
 Alpha(0;0):
               (au)            (10**-24 esu)      (10**-40 SI)
   iso        0.588854D+02      0.872592D+01      0.970889D+01
   aniso      0.651564D+02      0.965518D+01      0.107428D+02
   xx         0.420834D+02      0.623611D+01      0.693861D+01
   yx         0.222629D+02      0.329902D+01      0.367065D+01
   yy         0.607041D+02      0.899541D+01      0.100087D+02
   zx         0.142841D+02      0.211668D+01      0.235513D+01
   zy         0.214567D+02      0.317955D+01      0.353773D+01
   zz         0.738688D+02      0.109462D+02      0.121793D+02

 ----------------------------------------------------------------------
 Unable to Open any file for archive entry.
 1\1\GINC-NODE-003\Freq\RM062X\6-31G(d)\C4H7N1\JP2658\09-Dec-2023\0\\#N
  Geom=AllCheck Guess=TCheck SCRF=Check GenChk RM062X/6-31G(d) Freq\\**
 ***\\0,1\C,-0.9642437747,1.1461122111,0.3137383739\H,-3.5071794,-0.861
 2712558,-1.8258155554\C,-3.3084022315,-1.2067382759,-0.8166717708\H,-3
 .8277088301,-2.0893229354,-0.4615270425\N,-1.7708036987,0.5900606199,-
 0.5000200449\C,-2.444830116,-0.5547991577,-0.0402188848\H,-2.235253724
 3,-0.8927666304,0.9797286227\H,-0.8084111253,0.7428959436,1.3267139261
 \C,-0.1856816281,2.3684456669,-0.0496525851\H,0.8894217935,2.175423182
 3,0.0347299029\H,-0.420972301,2.6735840971,-1.070151377\H,-0.418334964
 ,3.1880765342,0.6390464347\\Version=ES64L-G16RevC.01\State=1-A\HF=-211
 .2437073\RMSD=3.087e-09\RMSF=3.821e-06\ZeroPoint=0.1027877\Thermal=0.1
 087552\ETot=-211.1349521\HTot=-211.1340079\GTot=-211.1696655\Dipole=0.
 3588781,0.0835788,0.6366313\DipoleDeriv=0.3950844,0.4033877,0.2123644,
 0.383399,0.5284915,-0.0816744,0.2458532,-0.0384189,0.5810796,0.1199887
 ,-0.0430881,-0.0271311,-0.0340779,0.0766138,0.0758556,-0.0422306,0.056
 3549,-0.0199492,-0.2852037,0.0497469,0.0235258,0.0230007,-0.2058836,-0
 .1659177,0.0683455,-0.1080336,-0.0056333,0.0755745,-0.0811809,-0.01117
 06,-0.0898255,-0.0000378,0.0462988,0.003316,0.0650078,0.0418313,-0.574
 8133,-0.3021348,-0.1473281,-0.2445426,-0.617709,0.0487646,-0.2438494,-
 0.0758898,-0.6733674,0.224272,0.2451447,0.1299557,0.3184431,0.4037988,
 -0.0303897,0.0071279,-0.1890198,0.3065961,0.0500965,-0.0331371,-0.0984
 344,-0.0885152,-0.004282,0.0187769,-0.0056318,0.1386293,-0.1232679,0.0
 557502,-0.0788597,-0.018877,-0.0538613,-0.0291466,0.1426447,-0.0607706
 ,0.0885419,-0.1543673,-0.0755896,-0.1688198,-0.0273601,-0.1573923,-0.1
 425226,0.0117932,-0.0464743,-0.0129028,-0.0111818,-0.1138805,-0.011969
 5,-0.0203028,0.0056439,0.0163678,0.0007943,0.010921,0.0597813,0.099917
 3,0.0645973,0.0077341,-0.0495405,-0.0195894,0.0467146,0.0158962,-0.003
 76,0.0750219,-0.0523483,0.0641235,0.0131766,0.0342987,-0.0426826,-0.07
 2405,-0.0828426,0.067153,-0.0590722,0.0106909\Polar=60.0487822,32.0522
 362,64.289342,17.2442328,7.3188949,52.3180822\Quadrupole=-0.0626203,0.
 638698,-0.5760778,2.4432209,0.98578,0.178786\PG=C01 [X(C4H7N1)]\NImag=
 0\\0.50190975,0.27818276,0.53617354,0.23700137,0.00015190,0.68967605,-
 0.00035587,-0.00008126,0.00002240,0.04698169,-0.00014756,-0.00023982,-
 0.00042572,-0.00719995,0.07423094,0.00013353,-0.00028221,0.00045863,0.
 06228794,-0.10013531,0.32639161,0.00537552,0.00131397,0.00453065,-0.05
 530141,0.00839067,-0.05608203,0.45699265,0.00127451,0.00028016,0.00608
 393,0.00652425,-0.08205652,0.09149420,0.31775237,0.54777501,0.00459681
 ,0.00616943,0.00187459,-0.05295412,0.09553367,-0.31058878,0.22414326,-
 0.05031912,0.67681235,0.00005487,-0.00074372,0.00067922,0.00533604,0.0
 0551796,-0.00218521,-0.11219622,-0.12493032,0.03947016,0.11058696,-0.0
 0022672,-0.00024167,0.00044539,-0.00367823,-0.00290804,0.00038684,-0.1
 2692860,-0.24827279,0.08488433,0.13848075,0.25714987,-0.00018722,-0.00
 067357,0.00104046,0.01322590,0.02028964,-0.00330454,0.04281900,0.08920
 923,-0.09052514,-0.04335640,-0.09202984,0.08378300,-0.28878656,-0.1574
 5598,-0.24167680,-0.00348650,0.00464999,0.00379871,-0.02239464,-0.0370
 5161,0.00167423,0.00533232,-0.00742075,-0.00562015,0.42814494,-0.17354
 379,-0.18969969,-0.15019390,0.00518017,-0.00167863,-0.00079369,-0.0294
 0049,-0.03012111,-0.00389989,-0.00690997,0.00399384,0.00126910,0.31189
 223,0.43677418,-0.21471685,-0.11537620,-0.32655010,0.00291021,-0.00194
 122,0.00070920,-0.01114750,-0.02045865,0.01568029,-0.00647604,0.000163
 83,-0.00061502,0.23367168,0.07490436,0.45887127,-0.03525899,-0.0468126
 5,-0.00341750,0.00255966,-0.00470589,-0.00321923,-0.27342286,-0.167362
 08,-0.19760439,-0.00488817,-0.00336640,-0.00897655,-0.10832758,-0.0598
 3123,0.01338138,0.47699488,-0.03473744,-0.04193227,-0.00060715,0.00614
 756,0.01027805,0.00896943,-0.16527694,-0.19558080,-0.11796864,-0.01487
 702,-0.00746494,-0.01656039,-0.07785687,-0.19731035,0.04789163,0.27468
 776,0.50113756,-0.02365286,-0.02674060,-0.00381112,-0.02140767,-0.0145
 2009,-0.01430735,-0.20109883,-0.12248161,-0.28249820,0.01031313,0.0083
 5141,0.01019078,0.04358889,0.08690385,-0.11947917,0.25266709,0.0019525
 1,0.69111556,0.00182635,0.00003916,0.00620080,0.00367408,-0.00623222,-
 0.00469971,0.00186917,0.00567814,-0.02057436,-0.00313276,0.00274764,0.
 00196791,0.00464886,-0.01241790,0.01150814,-0.06220522,0.00974610,-0.0
 5307348,0.05389336,0.00468950,0.00148475,0.00586952,-0.00647804,0.0022
 9326,0.00001999,-0.00491635,0.00953472,-0.01492323,0.00300043,-0.00165
 003,-0.00108026,-0.00499136,-0.01368248,0.02711992,0.01025396,-0.07622
 718,0.07413937,-0.00033108,0.07826774,-0.00159228,-0.00419497,0.002514
 81,-0.00428774,0.00055203,0.00046648,-0.00281993,0.00800587,-0.0125404
 9,0.00154425,-0.00162740,-0.00010022,-0.00093749,0.01104683,-0.0115944
 7,-0.05392451,0.07304044,-0.28433754,0.06029228,-0.08781906,0.30394771
 ,-0.06057279,0.00646218,-0.02430423,0.00032818,-0.00016184,0.00010471,
 -0.00008005,-0.00046661,0.00031233,-0.00004177,-0.00007500,0.00002609,
 0.00796004,-0.00680019,-0.03335873,-0.00423958,0.00781302,-0.00110319,
 -0.00002653,-0.00069821,0.00129278,0.04907821,0.00745235,-0.09807204,0
 .08940427,-0.00020380,-0.00003509,0.00029663,-0.00022295,-0.00016530,0
 .00002398,0.00002042,-0.00001536,0.00007705,-0.01429568,0.01546801,-0.
 00886734,0.00321768,-0.00068221,-0.00828153,0.00071941,0.00024913,0.00
 100002,0.00425450,0.08932180,-0.02596366,0.08726146,-0.25677213,0.0001
 7502,0.00038743,0.00013464,-0.00009600,-0.00050337,0.00077273,-0.00013
 382,-0.00012946,-0.00006842,-0.02079750,0.00735497,-0.02869739,0.00659
 760,0.00166381,0.00171106,-0.00108289,-0.00206806,0.00103881,0.0440152
 0,-0.09783469,0.28465878,-0.11524478,-0.06289097,0.01985523,0.00034471
 ,-0.00015168,-0.00012939,-0.00094460,-0.00123369,0.00053303,-0.0010834
 6,0.00059807,0.00022053,-0.02192292,-0.02653368,0.00086547,0.01074646,
 -0.00489199,-0.00615142,-0.00048390,-0.00038122,0.00052892,0.00751844,
 0.00251098,-0.00336946,0.54756849,-0.06546482,-0.18659633,0.04412133,-
 0.00022777,0.00018037,0.00007947,-0.00056139,-0.00083640,-0.00020820,0
 .00062838,-0.00058169,-0.00042771,-0.01763722,-0.02094009,-0.00605773,
 -0.00504251,0.00921141,0.00277017,0.00006204,-0.00033992,-0.00002189,-
 0.00762442,-0.00378625,0.00179366,-0.01701395,0.52635613,0.02416790,0.
 04969077,-0.10668926,-0.00000190,0.00024417,0.00010871,-0.00059348,-0.
 00166300,0.00126681,0.00016974,-0.00049335,-0.00045441,-0.01404325,-0.
 02531206,0.01024761,-0.00589950,0.00309550,-0.00057824,-0.00021393,-0.
 00098124,0.00074824,0.01361532,0.02372883,-0.00316732,0.02611434,0.000
 58871,0.60420294,-0.01585789,0.00209879,-0.00353161,0.00003672,-0.0000
 0502,-0.00001661,0.00009593,-0.00013822,0.00032611,-0.00015445,0.00004
 685,0.00000809,-0.00125676,-0.00077958,0.00234926,0.00046766,-0.001394
 56,-0.00081497,-0.00005108,-0.00011345,0.00014305,0.00072940,-0.000838
 28,0.00016795,-0.30816689,0.05030091,-0.02060666,0.33490266,-0.0305890
 2,0.00680583,-0.00500359,0.00009076,-0.00004913,-0.00003718,-0.0001233
 3,-0.00033831,0.00036521,-0.00030935,0.00014147,0.00005110,-0.00223859
 ,-0.00260647,0.00188037,0.00161213,-0.00202027,-0.00170837,-0.00008888
 ,-0.00008800,0.00016842,0.00172189,0.00005647,0.00004978,0.04752387,-0
 .05343535,0.00759371,-0.05129952,0.05870014,0.00715233,-0.00455502,0.0
 0006739,-0.00000584,0.00000683,-0.00002348,0.00013562,0.00025668,-0.00
 014623,0.00005022,-0.00002607,-0.00000315,-0.00012017,0.00046406,0.000
 05360,-0.00020764,-0.00028388,0.00085925,-0.00004318,-0.00001489,-0.00
 005902,-0.00073736,-0.00004273,-0.00007636,-0.01977757,0.00807062,-0.0
 4993315,0.02230222,-0.00530261,0.04735564,0.00393989,-0.00494479,0.019
 52222,-0.00005617,-0.00001861,-0.00001165,0.00002079,0.00012176,-0.000
 11214,0.00005495,-0.00000590,-0.00000464,0.00082052,0.00191518,0.00013
 556,-0.00034775,-0.00018930,0.00014505,-0.00001163,0.00010812,-0.00029
 586,-0.00063782,-0.00352926,0.00002286,-0.06343061,0.01856261,-0.06001
 075,-0.00403520,0.00818652,-0.03025828,0.06302946,0.00773484,-0.009002
 03,0.02972489,-0.00003793,-0.00006930,-0.00002694,0.00002246,0.0000873
 7,-0.00013413,-0.00000085,0.00004524,0.00002568,0.00236461,0.00294820,
 -0.00103771,-0.00021642,-0.00032629,-0.00037085,0.00007173,0.00032727,
 -0.00032391,-0.00378728,-0.00331247,0.00084747,0.01689381,-0.07031460,
 0.07047618,0.00069313,-0.00279544,0.00476534,-0.01699555,0.07343579,-0
 .00172468,0.00228608,-0.00881561,0.00002073,0.00001488,-0.00001645,0.0
 0005425,0.00008074,-0.00003958,-0.00001310,0.00001476,0.00000859,-0.00
 061792,-0.00201073,0.00130709,0.00019048,-0.00031222,0.00066711,-0.000
 23487,-0.00024515,-0.00005613,0.00045533,0.00140614,0.00071360,-0.0572
 1451,0.07408747,-0.29803594,0.00034471,-0.00076470,0.00078641,0.063033
 14,-0.08097305,0.31915492,0.00297052,-0.01516750,-0.01488175,-0.000061
 13,0.00006417,0.00001892,-0.00001426,-0.00016850,0.00018908,0.00013169
 ,-0.00017171,-0.00012255,-0.00073172,-0.00277075,0.00087743,-0.0020784
 9,0.00082967,0.00058827,-0.00000068,-0.00014229,0.00005653,-0.00001571
 ,0.00091463,0.00046469,-0.05490095,0.04401813,0.03730218,-0.00671010,0
 .02551352,0.02150964,0.00065358,-0.00674256,-0.00429356,0.06075725,0.0
 0537537,-0.01896042,-0.01957085,-0.00003574,0.00005392,0.00002877,-0.0
 0004945,-0.00030602,0.00047659,0.00012330,-0.00019588,-0.00015003,0.00
 004122,-0.00314542,0.00177873,-0.00243434,0.00091731,-0.00001426,0.000
 00586,-0.00016926,0.00017362,-0.00063804,0.00097332,0.00117700,0.04557
 045,-0.19891727,-0.12696821,0.00142896,-0.00437094,-0.00333834,-0.0032
 1078,0.00897626,0.00641577,-0.04617681,0.21514440,-0.00521440,0.006262
 92,0.00700629,0.00001508,-0.00000632,-0.00002867,0.00015499,0.00029511
 ,-0.00006834,-0.00006215,0.00005955,0.00004805,0.00107977,0.00026710,0
 .00006708,0.00041276,-0.00088103,0.00046786,-0.00004670,-0.00001689,-0
 .00002817,-0.00031824,-0.00091064,-0.00024800,0.03852484,-0.12479591,-
 0.15771598,-0.00067154,0.00270786,0.00111912,0.00783449,-0.02297296,-0
 .01567401,-0.04170888,0.13999121,0.16505477\\0.00000092,0.00000013,-0.
 00000183,-0.00000133,-0.00000552,0.00000612,0.00000064,-0.00000295,0.0
 0000650,0.00000203,-0.00000264,0.00000915,-0.00000134,-0.00000136,0.00
 000004,0.00000276,0.00000059,0.00000422,0.00000304,0.00000165,0.000003
 98,0.00000102,0.00000300,-0.00000213,-0.00000086,0.00000223,-0.0000056
 0,-0.00000209,0.00000317,-0.00000740,-0.00000439,-0.00000223,-0.000005
 44,-0.00000040,0.00000394,-0.00000762\\\@
 The archive entry for this job was punched.


 IT PROBABLY IS NOT POSSIBLE FOR A SCIENTIST TO INTERROGATE NATURE 
 FROM A WHOLLY DISINTERESTED VIEWPOINT.
 EVEN IF HE HAS NO PARTICULAR AXE TO GRIND, HE IS LIKELY TO HAVE 
 A DISTINCTIVE WAY OF VIEWING NATURE.

                                                   -- JOHN LOSEE
 Job cpu time:       0 days  0 hours  2 minutes 54.7 seconds.
 Elapsed time:       0 days  0 hours  0 minutes 14.9 seconds.
 File lengths (MBytes):  RWF=     52 Int=      0 D2E=      0 Chk=      8 Scr=      1
 Normal termination of Gaussian 16 at Sat Dec  9 14:58:49 2023.
