Unloading slurm/anatra/current
  ERROR: No such file or directory on
    '/cm/local/modulefiles/slurm/anatra/current'
environment: line 0: unalias: gv: not found
environment: line 0: unalias: sl: not found
 Entering Gaussian System, Link 0=g16
 Initial command:
 /apps/gaussian/g16/C.01/g16/l1.exe "/local/jobs/1149506/Gau-391548.inp" -scrdir="/local/jobs/1149506/"
 Entering Link 1 = /apps/gaussian/g16/C.01/g16/l1.exe PID=    391550.
  
 Copyright (c) 1988-2019, Gaussian, Inc.  All Rights Reserved.
  
 This is part of the Gaussian(R) 16 program.  It is based on
 the Gaussian(R) 09 system (copyright 2009, Gaussian, Inc.),
 the Gaussian(R) 03 system (copyright 2003, Gaussian, Inc.),
 the Gaussian(R) 98 system (copyright 1998, Gaussian, Inc.),
 the Gaussian(R) 94 system (copyright 1995, Gaussian, Inc.),
 the Gaussian 92(TM) system (copyright 1992, Gaussian, Inc.),
 the Gaussian 90(TM) system (copyright 1990, Gaussian, Inc.),
 the Gaussian 88(TM) system (copyright 1988, Gaussian, Inc.),
 the Gaussian 86(TM) system (copyright 1986, Carnegie Mellon
 University), and the Gaussian 82(TM) system (copyright 1983,
 Carnegie Mellon University). Gaussian is a federally registered
 trademark of Gaussian, Inc.
  
 This software contains proprietary and confidential information,
 including trade secrets, belonging to Gaussian, Inc.
  
 This software is provided under written license and may be
 used, copied, transmitted, or stored only in accord with that
 written license.
  
 The following legend is applicable only to US Government
 contracts under FAR:
  
                    RESTRICTED RIGHTS LEGEND
  
 Use, reproduction and disclosure by the US Government is
 subject to restrictions as set forth in subparagraphs (a)
 and (c) of the Commercial Computer Software - Restricted
 Rights clause in FAR 52.227-19.
  
 Gaussian, Inc.
 340 Quinnipiac St., Bldg. 40, Wallingford CT 06492
  
  
 ---------------------------------------------------------------
 Warning -- This program may not be used in any manner that
 competes with the business of Gaussian, Inc. or will provide
 assistance to any competitor of Gaussian, Inc.  The licensee
 of this program is prohibited from giving any competitor of
 Gaussian, Inc. access to this program.  By using this program,
 the user acknowledges that Gaussian, Inc. is engaged in the
 business of creating and licensing software in the field of
 computational chemistry and represents and warrants to the
 licensee that it is not a competitor of Gaussian, Inc. and that
 it will not use this program in any manner prohibited above.
 ---------------------------------------------------------------
  

 Cite this work as:
 Gaussian 16, Revision C.01,
 M. J. Frisch, G. W. Trucks, H. B. Schlegel, G. E. Scuseria, 
 M. A. Robb, J. R. Cheeseman, G. Scalmani, V. Barone, 
 G. A. Petersson, H. Nakatsuji, X. Li, M. Caricato, A. V. Marenich, 
 J. Bloino, B. G. Janesko, R. Gomperts, B. Mennucci, H. P. Hratchian, 
 J. V. Ortiz, A. F. Izmaylov, J. L. Sonnenberg, D. Williams-Young, 
 F. Ding, F. Lipparini, F. Egidi, J. Goings, B. Peng, A. Petrone, 
 T. Henderson, D. Ranasinghe, V. G. Zakrzewski, J. Gao, N. Rega, 
 G. Zheng, W. Liang, M. Hada, M. Ehara, K. Toyota, R. Fukuda, 
 J. Hasegawa, M. Ishida, T. Nakajima, Y. Honda, O. Kitao, H. Nakai, 
 T. Vreven, K. Throssell, J. A. Montgomery, Jr., J. E. Peralta, 
 F. Ogliaro, M. J. Bearpark, J. J. Heyd, E. N. Brothers, K. N. Kudin, 
 V. N. Staroverov, T. A. Keith, R. Kobayashi, J. Normand, 
 K. Raghavachari, A. P. Rendell, J. C. Burant, S. S. Iyengar, 
 J. Tomasi, M. Cossi, J. M. Millam, M. Klene, C. Adamo, R. Cammi, 
 J. W. Ochterski, R. L. Martin, K. Morokuma, O. Farkas, 
 J. B. Foresman, and D. J. Fox, Gaussian, Inc., Wallingford CT, 2019.
 
 ******************************************
 Gaussian 16:  ES64L-G16RevC.01  3-Jul-2019
                11-Dec-2023 
 ******************************************
 %chk=2g_gs_2_opt_freq.chk
 %nprocshared=12
 Will use up to   12 processors via shared memory.
 %mem=48GB
 ----------------------------------------------------------------------
 # m062x 6-31g(d) scrf=(iefpcm,solvent=benzene) opt=(maxcycles=50,maxst
 ep=10) freq=noraman
 ----------------------------------------------------------------------
 1/6=50,8=10,18=20,19=15,26=3,38=1/1,3;
 2/9=110,12=2,17=6,18=5,40=1/2;
 3/5=1,6=6,7=1,11=2,25=1,30=1,70=2201,71=1,72=12,74=-55/1,2,3;
 4//1;
 5/5=2,38=5,53=12/2;
 6/7=2,8=2,9=2,10=2,28=1/1;
 7//1,2,3,16;
 1/6=50,8=10,18=20,19=15,26=3/3(2);
 2/9=110/2;
 99//99;
 2/9=110/2;
 3/5=1,6=6,7=1,11=2,25=1,30=1,70=2205,71=1,72=12,74=-55/1,2,3;
 4/5=5,16=3,69=1/1;
 5/5=2,38=5,53=12/2;
 7//1,2,3,16;
 1/6=50,8=10,18=20,19=15,26=3/3(-5);
 2/9=110/2;
 6/7=2,8=2,9=2,10=2,19=2,28=1/1;
 99/9=1/99;
 -----
 *****
 -----
 Symbolic Z-matrix:
 Charge =  0 Multiplicity = 1
 C                    -0.8651    1.0515    0.2944 
 H                    -3.833    -0.5667   -1.5984 
 C                    -3.4191   -1.0931   -0.7504 
 H                    -3.8596   -2.0409   -0.4819 
 N                    -1.8357    0.6046   -0.3885 
 C                    -2.3922   -0.5828   -0.0569 
 H                    -1.997    -1.1345    0.7909 
 H                    -0.4278    0.5445    1.1522 
 C                    -0.2168    2.3702   -0.0417 
 H                     0.5964    2.5931    0.6476 
 H                     0.1899    2.3525   -1.0526 
 H                    -0.9424    3.1813    0.0152 
 

 GradGradGradGradGradGradGradGradGradGradGradGradGradGradGradGradGradGrad
 Berny optimization.
 Initialization pass.
                           ----------------------------
                           !    Initial Parameters    !
                           ! (Angstroms and Degrees)  !
 --------------------------                            --------------------------
 ! Name  Definition              Value          Derivative Info.                !
 --------------------------------------------------------------------------------
 ! R1    R(1,5)                  1.2681         estimate D2E/DX2                !
 ! R2    R(1,8)                  1.0882         estimate D2E/DX2                !
 ! R3    R(1,9)                  1.5074         estimate D2E/DX2                !
 ! R4    R(2,3)                  1.0805         estimate D2E/DX2                !
 ! R5    R(3,4)                  1.0791         estimate D2E/DX2                !
 ! R6    R(3,6)                  1.3401         estimate D2E/DX2                !
 ! R7    R(5,6)                  1.3526         estimate D2E/DX2                !
 ! R8    R(6,7)                  1.086          estimate D2E/DX2                !
 ! R9    R(9,10)                 1.0891         estimate D2E/DX2                !
 ! R10   R(9,11)                 1.0898         estimate D2E/DX2                !
 ! R11   R(9,12)                 1.0898         estimate D2E/DX2                !
 ! A1    A(5,1,8)              124.6037         estimate D2E/DX2                !
 ! A2    A(5,1,9)              121.1582         estimate D2E/DX2                !
 ! A3    A(8,1,9)              114.2381         estimate D2E/DX2                !
 ! A4    A(2,3,4)              117.8271         estimate D2E/DX2                !
 ! A5    A(2,3,6)              120.9411         estimate D2E/DX2                !
 ! A6    A(4,3,6)              121.2318         estimate D2E/DX2                !
 ! A7    A(1,5,6)              119.4882         estimate D2E/DX2                !
 ! A8    A(3,6,5)              121.5123         estimate D2E/DX2                !
 ! A9    A(3,6,7)              119.3021         estimate D2E/DX2                !
 ! A10   A(5,6,7)              119.1855         estimate D2E/DX2                !
 ! A11   A(1,9,10)             111.0425         estimate D2E/DX2                !
 ! A12   A(1,9,11)             110.6784         estimate D2E/DX2                !
 ! A13   A(1,9,12)             110.6779         estimate D2E/DX2                !
 ! A14   A(10,9,11)            108.1658         estimate D2E/DX2                !
 ! A15   A(10,9,12)            108.1666         estimate D2E/DX2                !
 ! A16   A(11,9,12)            107.9991         estimate D2E/DX2                !
 ! D1    D(8,1,5,6)             -0.0007         estimate D2E/DX2                !
 ! D2    D(9,1,5,6)           -179.9986         estimate D2E/DX2                !
 ! D3    D(5,1,9,10)          -179.9821         estimate D2E/DX2                !
 ! D4    D(5,1,9,11)           -59.833          estimate D2E/DX2                !
 ! D5    D(5,1,9,12)            59.8681         estimate D2E/DX2                !
 ! D6    D(8,1,9,10)             0.0198         estimate D2E/DX2                !
 ! D7    D(8,1,9,11)           120.1689         estimate D2E/DX2                !
 ! D8    D(8,1,9,12)          -120.13           estimate D2E/DX2                !
 ! D9    D(2,3,6,5)             -0.0036         estimate D2E/DX2                !
 ! D10   D(2,3,6,7)           -179.9999         estimate D2E/DX2                !
 ! D11   D(4,3,6,5)            179.9954         estimate D2E/DX2                !
 ! D12   D(4,3,6,7)             -0.0009         estimate D2E/DX2                !
 ! D13   D(1,5,6,3)           -179.9972         estimate D2E/DX2                !
 ! D14   D(1,5,6,7)             -0.0008         estimate D2E/DX2                !
 --------------------------------------------------------------------------------
 Trust Radius=1.00D-01 FncErr=1.00D-07 GrdErr=1.00D-06 EigMax=2.50D+02 EigMin=1.00D-04
 Number of steps in this run=     50 maximum allowed number of steps=    100.
 GradGradGradGradGradGradGradGradGradGradGradGradGradGradGradGradGradGrad

                          Input orientation:                          
 ---------------------------------------------------------------------
 Center     Atomic      Atomic             Coordinates (Angstroms)
 Number     Number       Type             X           Y           Z
 ---------------------------------------------------------------------
      1          6           0       -0.865100    1.051500    0.294400
      2          1           0       -3.833000   -0.566700   -1.598400
      3          6           0       -3.419100   -1.093100   -0.750400
      4          1           0       -3.859600   -2.040900   -0.481900
      5          7           0       -1.835700    0.604600   -0.388500
      6          6           0       -2.392200   -0.582800   -0.056900
      7          1           0       -1.997000   -1.134500    0.790900
      8          1           0       -0.427800    0.544500    1.152200
      9          6           0       -0.216800    2.370200   -0.041700
     10          1           0        0.596400    2.593100    0.647600
     11          1           0        0.189900    2.352500   -1.052600
     12          1           0       -0.942400    3.181300    0.015200
 ---------------------------------------------------------------------
                    Distance matrix (angstroms):
                    1          2          3          4          5
     1  C    0.000000
     2  H    3.874235   0.000000
     3  C    3.494829   1.080516   0.000000
     4  H    4.374084   1.849472   1.079100   0.000000
     5  N    1.268123   2.612472   2.349535   3.332201   0.000000
     6  C    2.264152   2.110068   1.340101   2.111858   1.352616
     7  H    2.511236   3.066276   2.097543   2.431226   2.107480
     8  H    1.088164   4.516188   3.905060   4.596937   2.087954
     9  C    1.507390   4.911782   4.769846   5.737732   2.420424
    10  H    2.153431   5.886292   5.627319   6.527301   3.307982
    11  H    2.149427   5.000335   4.998836   6.002176   2.756672
    12  H    2.149413   5.000678   4.999068   6.002378   2.756872
                    6          7          8          9         10
     6  C    0.000000
     7  H    1.085965   0.000000
     8  H    2.567410   2.326364   0.000000
     9  C    3.667807   4.018116   2.191597   0.000000
    10  H    4.417510   4.543265   2.345286   1.089088   0.000000
    11  H    4.034185   4.510010   2.917458   1.089788   1.764599
    12  H    4.034299   4.509991   2.917241   1.089778   1.764600
                   11         12
    11  H    0.000000
    12  H    1.763295   0.000000
 Stoichiometry    C4H7N
 Framework group  C1[X(C4H7N)]
 Deg. of freedom    30
 Full point group                 C1      NOp   1
 Largest Abelian subgroup         C1      NOp   1
 Largest concise Abelian subgroup C1      NOp   1
                         Standard orientation:                         
 ---------------------------------------------------------------------
 Center     Atomic      Atomic             Coordinates (Angstroms)
 Number     Number       Type             X           Y           Z
 ---------------------------------------------------------------------
      1          6           0       -1.012380    0.414033   -0.000014
      2          1           0        2.419847   -1.383051    0.000008
      3          6           0        2.408186   -0.302598   -0.000008
      4          1           0        3.357008    0.211400   -0.000068
      5          7           0        0.058961   -0.264469    0.000008
      6          6           0        1.251417    0.373980    0.000025
      7          1           0        1.270761    1.459773    0.000006
      8          1           0       -1.055231    1.501353   -0.000010
      9          6           0       -2.361456   -0.258441   -0.000001
     10          1           0       -3.164895    0.476812   -0.000341
     11          1           0       -2.477290   -0.888694   -0.881477
     12          1           0       -2.477527   -0.888155    0.881818
 ---------------------------------------------------------------------
 Rotational constants (GHZ):          30.8357530           2.3880460           2.2472823
 Standard basis: 6-31G(d) (6D, 7F)
 There are    89 symmetry adapted cartesian basis functions of A   symmetry.
 There are    89 symmetry adapted basis functions of A   symmetry.
    89 basis functions,   168 primitive gaussians,    89 cartesian basis functions
    19 alpha electrons       19 beta electrons
       nuclear repulsion energy       157.7498742387 Hartrees.
 NAtoms=   12 NActive=   12 NUniq=   12 SFac= 1.00D+00 NAtFMM=   60 NAOKFM=F Big=F
 Integral buffers will be    131072 words long.
 Raffenetti 2 integral format.
 Two-electron integral symmetry is turned on.
 ------------------------------------------------------------------------------
 Polarizable Continuum Model (PCM)
 =================================
 Model                : PCM.
 Atomic radii         : UFF (Universal Force Field).
 Polarization charges : Total charges.
 Charge compensation  : None.
 Solution method      : On-the-fly selection.
 Cavity type          : Scaled VdW (van der Waals Surface) (Alpha=1.100).
 Cavity algorithm     : GePol (No added spheres)
                        Default sphere list used, NSphG=   12.
                        Lebedev-Laikov grids with approx.  5.0 points / Ang**2.
                        Smoothing algorithm: York/Karplus (Gamma=1.0000).
                        Polarization charges: spherical gaussians, with
                                              point-specific exponents (IZeta= 3).
                        Self-potential: point-specific (ISelfS= 7).
                        Self-field    : sphere-specific E.n sum rule (ISelfD= 2).
 1st derivatives      : Analytical E(r).r(x)/FMM algorithm (CHGder, D1EAlg=3).
                        Cavity 1st derivative terms included.
 Solvent              : Benzene, Eps=   2.270600 Eps(inf)=   2.253301
 ------------------------------------------------------------------------------
 Spheres list:
 ISph  on   Nord     Re0    Alpha      Xe            Ye            Ze
    1   C      1    1.9255  1.100     -1.012380      0.414033     -0.000014
    2   H      2    1.4430  1.100      2.419847     -1.383051      0.000008
    3   C      3    1.9255  1.100      2.408186     -0.302598     -0.000008
    4   H      4    1.4430  1.100      3.357008      0.211400     -0.000068
    5   N      5    1.8300  1.100      0.058961     -0.264469      0.000008
    6   C      6    1.9255  1.100      1.251417      0.373980      0.000025
    7   H      7    1.4430  1.100      1.270761      1.459773      0.000006
    8   H      8    1.4430  1.100     -1.055231      1.501353     -0.000010
    9   C      9    1.9255  1.100     -2.361456     -0.258441     -0.000001
   10   H     10    1.4430  1.100     -3.164895      0.476812     -0.000341
   11   H     11    1.4430  1.100     -2.477290     -0.888694     -0.881477
   12   H     12    1.4430  1.100     -2.477527     -0.888155      0.881818
 ------------------------------------------------------------------------------
 One-electron integrals computed using PRISM.
 NBasis=    89 RedAO= T EigKep=  3.48D-03  NBF=    89
 NBsUse=    89 1.00D-06 EigRej= -1.00D+00 NBFU=    89
 ExpMin= 1.61D-01 ExpMax= 4.17D+03 ExpMxC= 6.27D+02 IAcc=3 IRadAn=         5 AccDes= 0.00D+00
 Harris functional with IExCor= 1009 and IRadAn=       5 diagonalized for initial guess.
 HarFok:  IExCor= 1009 AccDes= 0.00D+00 IRadAn=         5 IDoV= 1 UseB2=F ITyADJ=14
 ICtDFT=  3500011 ScaDFX=  1.000000  1.000000  1.000000  1.000000
 FoFCou: FMM=F IPFlag=           0 FMFlag=      100000 FMFlg1=           0
         NFxFlg=           0 DoJE=T BraDBF=F KetDBF=T FulRan=T
         wScrn=  0.000000 ICntrl=       500 IOpCl=  0 I1Cent=   200000004 NGrid=           0
         NMat0=    1 NMatS0=      1 NMatT0=    0 NMatD0=    1 NMtDS0=    0 NMtDT0=    0
 Petite list used in FoFCou.
 Keep R1 ints in memory in canonical form, NReq=19002712.
 Requested convergence on RMS density matrix=1.00D-08 within 128 cycles.
 Requested convergence on MAX density matrix=1.00D-06.
 Requested convergence on             energy=1.00D-06.
 No special actions if energy rises.
 Inv3:  Mode=1 IEnd=     3499200.
 Iteration    1 A*A^-1 deviation from unit magnitude is 3.11D-15 for    801.
 Iteration    1 A*A^-1 deviation from orthogonality  is 1.89D-15 for    770    179.
 Iteration    1 A^-1*A deviation from unit magnitude is 2.89D-15 for    801.
 Iteration    1 A^-1*A deviation from orthogonality  is 1.93D-15 for    647    451.
 Error on total polarization charges =  0.00407
 SCF Done:  E(RM062X) =  -211.238371417     A.U. after   12 cycles
            NFock= 12  Conv=0.60D-08     -V/T= 2.0080

 **********************************************************************

            Population analysis using the SCF Density.

 **********************************************************************

 Orbital symmetries:
       Occupied  (A) (A) (A) (A) (A) (A) (A) (A) (A) (A) (A) (A)
                 (A) (A) (A) (A) (A) (A) (A)
       Virtual   (A) (A) (A) (A) (A) (A) (A) (A) (A) (A) (A) (A)
                 (A) (A) (A) (A) (A) (A) (A) (A) (A) (A) (A) (A)
                 (A) (A) (A) (A) (A) (A) (A) (A) (A) (A) (A) (A)
                 (A) (A) (A) (A) (A) (A) (A) (A) (A) (A) (A) (A)
                 (A) (A) (A) (A) (A) (A) (A) (A) (A) (A) (A) (A)
                 (A) (A) (A) (A) (A) (A) (A) (A) (A) (A)
 The electronic state is 1-A.
 Alpha  occ. eigenvalues --  -14.75361 -10.59563 -10.56873 -10.54041 -10.53778
 Alpha  occ. eigenvalues --   -1.04813  -0.87070  -0.80834  -0.68307  -0.63657
 Alpha  occ. eigenvalues --   -0.57364  -0.52289  -0.49495  -0.46014  -0.44569
 Alpha  occ. eigenvalues --   -0.43562  -0.42570  -0.32052  -0.28875
 Alpha virt. eigenvalues --    0.00487   0.11723   0.16014   0.17088   0.18874
 Alpha virt. eigenvalues --    0.20827   0.23604   0.23661   0.26220   0.29010
 Alpha virt. eigenvalues --    0.31738   0.38758   0.47062   0.56490   0.57695
 Alpha virt. eigenvalues --    0.58118   0.61414   0.62735   0.64699   0.65154
 Alpha virt. eigenvalues --    0.70804   0.75727   0.75812   0.79888   0.83137
 Alpha virt. eigenvalues --    0.87799   0.90687   0.93070   0.93859   0.94902
 Alpha virt. eigenvalues --    0.97030   1.00117   1.01945   1.03364   1.05992
 Alpha virt. eigenvalues --    1.14630   1.23392   1.35473   1.38898   1.40571
 Alpha virt. eigenvalues --    1.45695   1.48542   1.51929   1.66678   1.78404
 Alpha virt. eigenvalues --    1.79276   1.89986   1.93331   2.02841   2.04771
 Alpha virt. eigenvalues --    2.07998   2.16570   2.21272   2.27105   2.29070
 Alpha virt. eigenvalues --    2.33750   2.39571   2.43230   2.54578   2.60062
 Alpha virt. eigenvalues --    2.65540   2.71253   2.79657   3.08121   3.15560
 Alpha virt. eigenvalues --    3.96955   4.12272   4.16123   4.34138   4.41528
          Condensed to atoms (all electrons):
               1          2          3          4          5          6
     1  C    4.825082   0.000331   0.004085  -0.000225   0.552432  -0.066188
     2  H    0.000331   0.513762   0.366776  -0.030828  -0.000745  -0.029586
     3  C    0.004085   0.366776   5.143624   0.368555  -0.063720   0.639868
     4  H   -0.000225  -0.030828   0.368555   0.515175   0.003299  -0.022944
     5  N    0.552432  -0.000745  -0.063720   0.003299   6.711459   0.374142
     6  C   -0.066188  -0.029586   0.639868  -0.022944   0.374142   4.681694
     7  H   -0.005276   0.005545  -0.061754  -0.002226  -0.063049   0.365679
     8  H    0.368189   0.000060   0.000098   0.000008  -0.051945  -0.009860
     9  C    0.356280  -0.000016  -0.000341   0.000003  -0.072811   0.006376
    10  H   -0.025497   0.000000   0.000002  -0.000000   0.003923  -0.000194
    11  H   -0.027192   0.000002   0.000012   0.000000  -0.002791   0.000040
    12  H   -0.027191   0.000002   0.000012   0.000000  -0.002794   0.000039
               7          8          9         10         11         12
     1  C   -0.005276   0.368189   0.356280  -0.025497  -0.027192  -0.027191
     2  H    0.005545   0.000060  -0.000016   0.000000   0.000002   0.000002
     3  C   -0.061754   0.000098  -0.000341   0.000002   0.000012   0.000012
     4  H   -0.002226   0.000008   0.000003  -0.000000   0.000000   0.000000
     5  N   -0.063049  -0.051945  -0.072811   0.003923  -0.002791  -0.002794
     6  C    0.365679  -0.009860   0.006376  -0.000194   0.000040   0.000039
     7  H    0.603007   0.016562  -0.000402   0.000040   0.000025   0.000025
     8  H    0.016562   0.586951  -0.073572   0.000046   0.003842   0.003841
     9  C   -0.000402  -0.073572   5.197089   0.367820   0.374667   0.374668
    10  H    0.000040   0.000046   0.367820   0.533058  -0.025190  -0.025191
    11  H    0.000025   0.003842   0.374667  -0.025190   0.498488  -0.019707
    12  H    0.000025   0.003841   0.374668  -0.025191  -0.019707   0.498486
 Mulliken charges:
               1
     1  C    0.045171
     2  H    0.174695
     3  C   -0.397217
     4  H    0.169182
     5  N   -0.387401
     6  C    0.060934
     7  H    0.141825
     8  H    0.155779
     9  C   -0.529762
    10  H    0.171183
    11  H    0.197803
    12  H    0.197809
 Sum of Mulliken charges =  -0.00000
 Mulliken charges with hydrogens summed into heavy atoms:
               1
     1  C    0.200949
     3  C   -0.053340
     5  N   -0.387401
     6  C    0.202758
     9  C    0.037033
 Electronic spatial extent (au):  <R**2>=            561.9112
 Charge=             -0.0000 electrons
 Dipole moment (field-independent basis, Debye):
    X=             -0.9843    Y=              1.3922    Z=              0.0000  Tot=              1.7050
 Quadrupole moment (field-independent basis, Debye-Ang):
   XX=            -25.8870   YY=            -29.8841   ZZ=            -32.4657
   XY=             -0.1899   XZ=             -0.0003   YZ=             -0.0000
 Traceless Quadrupole moment (field-independent basis, Debye-Ang):
   XX=              3.5253   YY=             -0.4719   ZZ=             -3.0534
   XY=             -0.1899   XZ=             -0.0003   YZ=             -0.0000
 Octapole moment (field-independent basis, Debye-Ang**2):
  XXX=              1.0238  YYY=              1.4032  ZZZ=              0.0007  XYY=              0.2235
  XXY=             -0.2234  XXZ=             -0.0004  XZZ=             -4.1100  YZZ=             -0.8986
  YYZ=             -0.0005  XYZ=              0.0001
 Hexadecapole moment (field-independent basis, Debye-Ang**3):
 XXXX=           -603.3401 YYYY=            -79.8446 ZZZZ=            -38.5470 XXXY=              0.1243
 XXXZ=             -0.0021 YYYX=             -2.8125 YYYZ=              0.0007 ZZZX=             -0.0022
 ZZZY=             -0.0004 XXYY=           -113.5533 XXZZ=           -119.8326 YYZZ=            -20.3262
 XXYZ=             -0.0016 YYXZ=              0.0011 ZZXY=              2.4849
 N-N= 1.577498742387D+02 E-N=-8.052519530189D+02  KE= 2.095598443152D+02
 D1PCM: PCM CHGder 1st derivatives, ID1Alg=3 FixD1E=F DoIter=F DoCFld=F I1PDM=0.
 Calling FoFJK, ICntrl=      2127 FMM=F ISym2X=0 I1Cent= 0 IOpClX= 0 NMat=1 NMatS=1 NMatT=0.
 ***** Axes restored to original set *****
 -------------------------------------------------------------------
 Center     Atomic                   Forces (Hartrees/Bohr)
 Number     Number              X              Y              Z
 -------------------------------------------------------------------
      1        6           0.007827865    0.015540048   -0.003758163
      2        1          -0.000394981    0.002626655   -0.002460510
      3        6           0.005460411    0.002116361    0.004151891
      4        1          -0.001040108   -0.003205282    0.001388799
      5        7           0.011756683    0.031541117   -0.012015713
      6        6          -0.023477748   -0.034082231    0.001544836
      7        1           0.003655011   -0.002777623    0.006037017
      8        1          -0.002183084   -0.010592234    0.005909613
      9        6          -0.000107691   -0.002722284    0.001980675
     10        1           0.001327906    0.000010279    0.001403051
     11        1          -0.000182430   -0.000129680   -0.003250360
     12        1          -0.002641833    0.001674873   -0.000931135
 -------------------------------------------------------------------
 Cartesian Forces:  Max     0.034082231 RMS     0.010046001

 GradGradGradGradGradGradGradGradGradGradGradGradGradGradGradGradGradGrad
 Berny optimization.
 FormGI is forming the generalized inverse of G from B-inverse, IUseBI=4.
 Internal  Forces:  Max     0.040133431 RMS     0.007086464
 Search for a local minimum.
 Step number   1 out of a maximum of   50
 All quantities printed in internal units (Hartrees-Bohrs-Radians)
 Mixed Optimization -- RFO/linear search
 Second derivative matrix not updated -- first step.
 ITU=  0
     Eigenvalues ---    0.00668   0.01472   0.02319   0.02694   0.02881
     Eigenvalues ---    0.02881   0.03436   0.07193   0.07247   0.16000
     Eigenvalues ---    0.16000   0.16000   0.16000   0.16000   0.16000
     Eigenvalues ---    0.16000   0.22000   0.22000   0.25000   0.31614
     Eigenvalues ---    0.34837   0.34838   0.34918   0.35026   0.35283
     Eigenvalues ---    0.35932   0.36103   0.54469   0.57182   0.76884
 RFO step:  Lambda=-4.76093848D-03 EMin= 6.68186825D-03
 Linear search not attempted -- first point.
 Maximum step size (   0.100) exceeded in Quadratic search.
    -- Step size scaled by   0.843
 Iteration  1 RMS(Cart)=  0.02696391 RMS(Int)=  0.00059504
 Iteration  2 RMS(Cart)=  0.00070114 RMS(Int)=  0.00001433
 Iteration  3 RMS(Cart)=  0.00000050 RMS(Int)=  0.00001433
 Variable       Old X    -DE/DX   Delta X   Delta X   Delta X     New X
                                 (Linear)    (Quad)   (Total)
    R1        2.39641   0.00514   0.00000   0.00560   0.00560   2.40201
    R2        2.05633   0.00871   0.00000   0.02070   0.02070   2.07703
    R3        2.84856  -0.00153   0.00000  -0.00401  -0.00401   2.84455
    R4        2.04188   0.00336   0.00000   0.00777   0.00777   2.04965
    R5        2.03920   0.00359   0.00000   0.00827   0.00827   2.04748
    R6        2.53242  -0.00527   0.00000  -0.00771  -0.00771   2.52472
    R7        2.55607   0.04013   0.00000   0.06159   0.06159   2.61766
    R8        2.05218   0.00746   0.00000   0.01758   0.01758   2.06976
    R9        2.05808   0.00188   0.00000   0.00447   0.00447   2.06255
   R10        2.05940   0.00295   0.00000   0.00705   0.00705   2.06645
   R11        2.05938   0.00296   0.00000   0.00707   0.00707   2.06645
    A1        2.17475  -0.00989   0.00000  -0.04933  -0.04933   2.12542
    A2        2.11461   0.00187   0.00000   0.00701   0.00701   2.12161
    A3        1.99383   0.00802   0.00000   0.04232   0.04232   2.03615
    A4        2.05647   0.00136   0.00000   0.00697   0.00697   2.06344
    A5        2.11082  -0.00137   0.00000  -0.00703  -0.00703   2.10379
    A6        2.11589   0.00001   0.00000   0.00006   0.00006   2.11595
    A7        2.08546  -0.00588   0.00000  -0.01947  -0.01947   2.06599
    A8        2.12079   0.00106   0.00000   0.00397   0.00397   2.12476
    A9        2.08222   0.00091   0.00000   0.00537   0.00537   2.08759
   A10        2.08018  -0.00197   0.00000  -0.00934  -0.00934   2.07084
   A11        1.93806   0.00010   0.00000   0.00326   0.00326   1.94131
   A12        1.93170  -0.00079   0.00000  -0.00543  -0.00546   1.92624
   A13        1.93169  -0.00079   0.00000  -0.00543  -0.00546   1.92623
   A14        1.88785   0.00094   0.00000   0.00745   0.00745   1.89530
   A15        1.88786   0.00094   0.00000   0.00742   0.00743   1.89529
   A16        1.88494  -0.00033   0.00000  -0.00699  -0.00705   1.87789
    D1       -0.00001   0.00000   0.00000   0.00001   0.00001   0.00000
    D2       -3.14157  -0.00000   0.00000  -0.00002  -0.00002  -3.14158
    D3       -3.14128  -0.00000   0.00000   0.00004   0.00004  -3.14124
    D4       -1.04428   0.00072   0.00000   0.00796   0.00793  -1.03635
    D5        1.04490  -0.00072   0.00000  -0.00784  -0.00782   1.03708
    D6        0.00035  -0.00000   0.00000   0.00001   0.00001   0.00036
    D7        2.09734   0.00072   0.00000   0.00793   0.00791   2.10525
    D8       -2.09666  -0.00072   0.00000  -0.00787  -0.00784  -2.10451
    D9       -0.00006   0.00000   0.00000   0.00006   0.00006  -0.00000
   D10       -3.14159  -0.00000   0.00000  -0.00002  -0.00002   3.14158
   D11        3.14151   0.00000   0.00000   0.00009   0.00009  -3.14159
   D12       -0.00002   0.00000   0.00000   0.00001   0.00001  -0.00001
   D13       -3.14154  -0.00000   0.00000  -0.00004  -0.00004  -3.14158
   D14       -0.00001   0.00000   0.00000   0.00004   0.00004   0.00003
         Item               Value     Threshold  Converged?
 Maximum Force            0.040133     0.000450     NO 
 RMS     Force            0.007086     0.000300     NO 
 Maximum Displacement     0.076337     0.001800     NO 
 RMS     Displacement     0.027169     0.001200     NO 
 Predicted change in Energy=-2.346186D-03
 GradGradGradGradGradGradGradGradGradGradGradGradGradGradGradGradGradGrad

                          Input orientation:                          
 ---------------------------------------------------------------------
 Center     Atomic      Atomic             Coordinates (Angstroms)
 Number     Number       Type             X           Y           Z
 ---------------------------------------------------------------------
      1          6           0       -0.866205    1.068318    0.280173
      2          1           0       -3.843942   -0.584644   -1.596149
      3          6           0       -3.424258   -1.108327   -0.744069
      4          1           0       -3.857517   -2.061077   -0.463927
      5          7           0       -1.838473    0.631213   -0.412139
      6          6           0       -2.400337   -0.585890   -0.063187
      7          1           0       -1.988336   -1.127743    0.794874
      8          1           0       -0.468196    0.507847    1.137796
      9          6           0       -0.202176    2.381868   -0.035243
     10          1           0        0.610016    2.591847    0.662988
     11          1           0        0.205127    2.368397   -1.049986
     12          1           0       -0.928103    3.197891    0.018769
 ---------------------------------------------------------------------
                    Distance matrix (angstroms):
                    1          2          3          4          5
     1  C    0.000000
     2  H    3.888417   0.000000
     3  C    3.511480   1.084628   0.000000
     4  H    4.392579   1.860635   1.083478   0.000000
     5  N    1.271088   2.627183   2.377160   3.365656   0.000000
     6  C    2.282074   2.105699   1.336022   2.111905   1.385207
     7  H    2.519282   3.074934   2.104897   2.439165   2.138520
     8  H    1.099116   4.479247   3.858982   4.544490   2.072482
     9  C    1.505269   4.949655   4.802677   5.769319   2.425760
    10  H    2.155671   5.918745   5.652121   6.548167   3.315884
    11  H    2.146457   5.041201   5.035239   6.038938   2.756983
    12  H    2.146449   5.041592   5.035497   6.039139   2.757226
                    6          7          8          9         10
     6  C    0.000000
     7  H    1.095271   0.000000
     8  H    2.524241   2.259110   0.000000
     9  C    3.693274   4.024529   2.226823   0.000000
    10  H    4.437068   4.539183   2.393959   1.091455   0.000000
    11  H    4.060791   4.520817   2.949814   1.093518   1.774301
    12  H    4.060934   4.520791   2.949589   1.093518   1.774293
                   11         12
    11  H    0.000000
    12  H    1.764797   0.000000
 Stoichiometry    C4H7N
 Framework group  C1[X(C4H7N)]
 Deg. of freedom    30
 Full point group                 C1      NOp   1
 Largest Abelian subgroup         C1      NOp   1
 Largest concise Abelian subgroup C1      NOp   1
                         Standard orientation:                         
 ---------------------------------------------------------------------
 Center     Atomic      Atomic             Coordinates (Angstroms)
 Number     Number       Type             X           Y           Z
 ---------------------------------------------------------------------
      1          6           0       -1.017756    0.403449   -0.000009
      2          1           0        2.439432   -1.376338   -0.000007
      3          6           0        2.424206   -0.291816   -0.000003
      4          1           0        3.371552    0.233978    0.000006
      5          7           0        0.047046   -0.290713    0.000001
      6          6           0        1.264084    0.370811    0.000003
      7          1           0        1.266450    1.466079    0.000022
      8          1           0       -0.992370    1.502272   -0.000018
      9          6           0       -2.378200   -0.240776    0.000001
     10          1           0       -3.170813    0.509584   -0.000368
     11          1           0       -2.498655   -0.875598   -0.882196
     12          1           0       -2.498918   -0.874989    0.882600
 ---------------------------------------------------------------------
 Rotational constants (GHZ):          31.0460891           2.3580897           2.2218702
 Standard basis: 6-31G(d) (6D, 7F)
 There are    89 symmetry adapted cartesian basis functions of A   symmetry.
 There are    89 symmetry adapted basis functions of A   symmetry.
    89 basis functions,   168 primitive gaussians,    89 cartesian basis functions
    19 alpha electrons       19 beta electrons
       nuclear repulsion energy       156.9149059463 Hartrees.
 NAtoms=   12 NActive=   12 NUniq=   12 SFac= 1.00D+00 NAtFMM=   60 NAOKFM=F Big=F
 Integral buffers will be    131072 words long.
 Raffenetti 2 integral format.
 Two-electron integral symmetry is turned on.
 ------------------------------------------------------------------------------
 Polarizable Continuum Model (PCM)
 =================================
 Model                : PCM.
 Atomic radii         : UFF (Universal Force Field).
 Polarization charges : Total charges.
 Charge compensation  : None.
 Solution method      : On-the-fly selection.
 Cavity type          : Scaled VdW (van der Waals Surface) (Alpha=1.100).
 Cavity algorithm     : GePol (No added spheres)
                        Default sphere list used, NSphG=   12.
                        Lebedev-Laikov grids with approx.  5.0 points / Ang**2.
                        Smoothing algorithm: York/Karplus (Gamma=1.0000).
                        Polarization charges: spherical gaussians, with
                                              point-specific exponents (IZeta= 3).
                        Self-potential: point-specific (ISelfS= 7).
                        Self-field    : sphere-specific E.n sum rule (ISelfD= 2).
 1st derivatives      : Analytical E(r).r(x)/FMM algorithm (CHGder, D1EAlg=3).
                        Cavity 1st derivative terms included.
 Solvent              : Benzene, Eps=   2.270600 Eps(inf)=   2.253301
 ------------------------------------------------------------------------------
 Spheres list:
 ISph  on   Nord     Re0    Alpha      Xe            Ye            Ze
    1   C      1    1.9255  1.100     -1.017756      0.403449     -0.000009
    2   H      2    1.4430  1.100      2.439432     -1.376338     -0.000007
    3   C      3    1.9255  1.100      2.424206     -0.291816     -0.000003
    4   H      4    1.4430  1.100      3.371552      0.233978      0.000006
    5   N      5    1.8300  1.100      0.047046     -0.290713      0.000001
    6   C      6    1.9255  1.100      1.264084      0.370811      0.000003
    7   H      7    1.4430  1.100      1.266450      1.466079      0.000022
    8   H      8    1.4430  1.100     -0.992370      1.502272     -0.000018
    9   C      9    1.9255  1.100     -2.378200     -0.240776      0.000001
   10   H     10    1.4430  1.100     -3.170813      0.509584     -0.000368
   11   H     11    1.4430  1.100     -2.498655     -0.875598     -0.882196
   12   H     12    1.4430  1.100     -2.498918     -0.874989      0.882600
 ------------------------------------------------------------------------------
 One-electron integrals computed using PRISM.
 NBasis=    89 RedAO= T EigKep=  3.53D-03  NBF=    89
 NBsUse=    89 1.00D-06 EigRej= -1.00D+00 NBFU=    89
 Initial guess from the checkpoint file:  "2g_gs_2_opt_freq.chk"
 B after Tr=    -0.000000    0.000000    0.000000
         Rot=    1.000000    0.000004    0.000000    0.000969 Ang=   0.11 deg.
 ExpMin= 1.61D-01 ExpMax= 4.17D+03 ExpMxC= 6.27D+02 IAcc=3 IRadAn=         5 AccDes= 0.00D+00
 Harris functional with IExCor= 1009 and IRadAn=       5 diagonalized for initial guess.
 HarFok:  IExCor= 1009 AccDes= 0.00D+00 IRadAn=         5 IDoV= 1 UseB2=F ITyADJ=14
 ICtDFT=  3500011 ScaDFX=  1.000000  1.000000  1.000000  1.000000
 FoFCou: FMM=F IPFlag=           0 FMFlag=      100000 FMFlg1=           0
         NFxFlg=           0 DoJE=T BraDBF=F KetDBF=T FulRan=T
         wScrn=  0.000000 ICntrl=       500 IOpCl=  0 I1Cent=   200000004 NGrid=           0
         NMat0=    1 NMatS0=      1 NMatT0=    0 NMatD0=    1 NMtDS0=    0 NMtDT0=    0
 Petite list used in FoFCou.
 Keep R1 ints in memory in canonical form, NReq=19002712.
 Requested convergence on RMS density matrix=1.00D-08 within 128 cycles.
 Requested convergence on MAX density matrix=1.00D-06.
 Requested convergence on             energy=1.00D-06.
 No special actions if energy rises.
 Inv3:  Mode=1 IEnd=     3460428.
 Iteration    1 A*A^-1 deviation from unit magnitude is 3.33D-15 for    730.
 Iteration    1 A*A^-1 deviation from orthogonality  is 1.85D-15 for    658    413.
 Iteration    1 A^-1*A deviation from unit magnitude is 3.22D-15 for    946.
 Iteration    1 A^-1*A deviation from orthogonality  is 2.66D-15 for    818    704.
 Error on total polarization charges =  0.00422
 SCF Done:  E(RM062X) =  -211.240929191     A.U. after   10 cycles
            NFock= 10  Conv=0.77D-08     -V/T= 2.0086
 D1PCM: PCM CHGder 1st derivatives, ID1Alg=3 FixD1E=F DoIter=F DoCFld=F I1PDM=0.
 Calling FoFJK, ICntrl=      2127 FMM=F ISym2X=0 I1Cent= 0 IOpClX= 0 NMat=1 NMatS=1 NMatT=0.
 ***** Axes restored to original set *****
 -------------------------------------------------------------------
 Center     Atomic                   Forces (Hartrees/Bohr)
 Number     Number              X              Y              Z
 -------------------------------------------------------------------
      1        6           0.003185307    0.003156168    0.000927999
      2        1           0.000063283    0.000462008   -0.000292154
      3        6           0.002299246    0.002053912    0.000845593
      4        1           0.000138405   -0.000225854    0.000321951
      5        7           0.002675139    0.011156954   -0.005828386
      6        6          -0.007665553   -0.013898682    0.002661520
      7        1           0.001494663    0.001177172    0.000670894
      8        1          -0.000905483   -0.002245040    0.000784522
      9        6          -0.000307198   -0.001376324    0.000737505
     10        1          -0.000107134   -0.000149362    0.000003274
     11        1          -0.000334409   -0.000130514   -0.000512574
     12        1          -0.000536267    0.000019562   -0.000320145
 -------------------------------------------------------------------
 Cartesian Forces:  Max     0.013898682 RMS     0.003613944

 GradGradGradGradGradGradGradGradGradGradGradGradGradGradGradGradGradGrad
 Berny optimization.
 Using GEDIIS/GDIIS optimizer.
 FormGI is forming the generalized inverse of G from B-inverse, IUseBI=4.
 Internal  Forces:  Max     0.011716770 RMS     0.002228614
 Search for a local minimum.
 Step number   2 out of a maximum of   50
 All quantities printed in internal units (Hartrees-Bohrs-Radians)
 Mixed Optimization -- RFO/linear search
 Update second derivatives using D2CorX and points    1    2
 DE= -2.56D-03 DEPred=-2.35D-03 R= 1.09D+00
 TightC=F SS=  1.41D+00  RLast= 1.01D-01 DXNew= 1.6818D-01 3.0368D-01
 Trust test= 1.09D+00 RLast= 1.01D-01 DXMaxT set to 1.68D-01
 ITU=  1  0
 Use linear search instead of GDIIS.
     Eigenvalues ---    0.00668   0.01413   0.02319   0.02696   0.02881
     Eigenvalues ---    0.02881   0.03436   0.07169   0.07299   0.14658
     Eigenvalues ---    0.16000   0.16000   0.16000   0.16000   0.16000
     Eigenvalues ---    0.16605   0.21986   0.22244   0.23741   0.31421
     Eigenvalues ---    0.34838   0.34859   0.34912   0.35103   0.35778
     Eigenvalues ---    0.36007   0.36789   0.49494   0.57506   0.76843
 RFO step:  Lambda=-2.66614563D-04 EMin= 6.68186789D-03
 Quartic linear search produced a step of  0.44126.
 Iteration  1 RMS(Cart)=  0.02145621 RMS(Int)=  0.00027245
 Iteration  2 RMS(Cart)=  0.00038251 RMS(Int)=  0.00001588
 Iteration  3 RMS(Cart)=  0.00000005 RMS(Int)=  0.00001588
 Variable       Old X    -DE/DX   Delta X   Delta X   Delta X     New X
                                 (Linear)    (Quad)   (Total)
    R1        2.40201   0.00139   0.00247   0.00009   0.00256   2.40457
    R2        2.07703   0.00143   0.00913  -0.00317   0.00596   2.08299
    R3        2.84455  -0.00197  -0.00177  -0.00725  -0.00902   2.83553
    R4        2.04965   0.00043   0.00343  -0.00169   0.00174   2.05139
    R5        2.04748   0.00023   0.00365  -0.00271   0.00094   2.04841
    R6        2.52472  -0.00326  -0.00340  -0.00478  -0.00818   2.51654
    R7        2.61766   0.01172   0.02718   0.00358   0.03076   2.64842
    R8        2.06976   0.00051   0.00776  -0.00562   0.00214   2.07190
    R9        2.06255  -0.00011   0.00197  -0.00240  -0.00042   2.06213
   R10        2.06645   0.00035   0.00311  -0.00162   0.00149   2.06794
   R11        2.06645   0.00036   0.00312  -0.00162   0.00150   2.06795
    A1        2.12542  -0.00201  -0.02177   0.00183  -0.01994   2.10548
    A2        2.12161  -0.00036   0.00309  -0.00533  -0.00224   2.11937
    A3        2.03615   0.00237   0.01867   0.00351   0.02218   2.05833
    A4        2.06344   0.00048   0.00308   0.00141   0.00449   2.06794
    A5        2.10379  -0.00023  -0.00310   0.00081  -0.00230   2.10149
    A6        2.11595  -0.00024   0.00003  -0.00222  -0.00219   2.11376
    A7        2.06599  -0.00519  -0.00859  -0.02157  -0.03017   2.03583
    A8        2.12476  -0.00080   0.00175  -0.00690  -0.00515   2.11961
    A9        2.08759   0.00242   0.00237   0.01861   0.02098   2.10857
   A10        2.07084  -0.00162  -0.00412  -0.01171  -0.01583   2.05500
   A11        1.94131   0.00009   0.00144   0.00160   0.00304   1.94436
   A12        1.92624  -0.00041  -0.00241  -0.00251  -0.00495   1.92129
   A13        1.92623  -0.00041  -0.00241  -0.00250  -0.00495   1.92128
   A14        1.89530   0.00038   0.00329   0.00238   0.00567   1.90098
   A15        1.89529   0.00038   0.00328   0.00237   0.00565   1.90094
   A16        1.87789  -0.00000  -0.00311  -0.00128  -0.00446   1.87343
    D1        0.00000   0.00000   0.00001  -0.00000   0.00000   0.00001
    D2       -3.14158   0.00000  -0.00001   0.00004   0.00003  -3.14155
    D3       -3.14124  -0.00000   0.00002   0.00013   0.00014  -3.14110
    D4       -1.03635   0.00026   0.00350   0.00250   0.00597  -1.03038
    D5        1.03708  -0.00026  -0.00345  -0.00223  -0.00565   1.03143
    D6        0.00036   0.00000   0.00001   0.00016   0.00017   0.00053
    D7        2.10525   0.00026   0.00349   0.00254   0.00600   2.11125
    D8       -2.10451  -0.00026  -0.00346  -0.00219  -0.00563  -2.11013
    D9       -0.00000  -0.00000   0.00003  -0.00001   0.00001   0.00001
   D10        3.14158   0.00000  -0.00001   0.00003   0.00002  -3.14158
   D11       -3.14159  -0.00000   0.00004  -0.00004  -0.00000  -3.14159
   D12       -0.00001   0.00000   0.00000   0.00000   0.00001   0.00000
   D13       -3.14158   0.00000  -0.00002   0.00001  -0.00001  -3.14159
   D14        0.00003  -0.00000   0.00002  -0.00004  -0.00002   0.00001
         Item               Value     Threshold  Converged?
 Maximum Force            0.011717     0.000450     NO 
 RMS     Force            0.002229     0.000300     NO 
 Maximum Displacement     0.061787     0.001800     NO 
 RMS     Displacement     0.021624     0.001200     NO 
 Predicted change in Energy=-3.572707D-04
 GradGradGradGradGradGradGradGradGradGradGradGradGradGradGradGradGradGrad

                          Input orientation:                          
 ---------------------------------------------------------------------
 Center     Atomic      Atomic             Coordinates (Angstroms)
 Number     Number       Type             X           Y           Z
 ---------------------------------------------------------------------
      1          6           0       -0.873081    1.072705    0.269466
      2          1           0       -3.846168   -0.593092   -1.592097
      3          6           0       -3.421275   -1.111691   -0.738319
      4          1           0       -3.846701   -2.065730   -0.448802
      5          7           0       -1.845271    0.651598   -0.435252
      6          6           0       -2.400695   -0.581333   -0.067091
      7          1           0       -1.966445   -1.099347    0.796150
      8          1           0       -0.500892    0.482577    1.122828
      9          6           0       -0.198388    2.379255   -0.029205
     10          1           0        0.611530    2.579164    0.674254
     11          1           0        0.208524    2.368443   -1.044987
     12          1           0       -0.923538    3.197151    0.022956
 ---------------------------------------------------------------------
                    Distance matrix (angstroms):
                    1          2          3          4          5
     1  C    0.000000
     2  H    3.883239   0.000000
     3  C    3.504356   1.085549   0.000000
     4  H    4.382705   1.864347   1.083973   0.000000
     5  N    1.272444   2.625097   2.384288   3.374875   0.000000
     6  C    2.276558   2.101232   1.331695   2.107148   1.401484
     7  H    2.488102   3.081133   2.114540   2.453399   2.144025
     8  H    1.102271   4.440580   3.812374   4.489803   2.064833
     9  C    1.500496   4.958203   4.803805   5.765773   2.421135
    10  H    2.153449   5.922046   5.646352   6.535452   3.313968
    11  H    2.139297   5.050796   5.037938   6.038392   2.745434
    12  H    2.139295   5.051346   5.038288   6.038655   2.745794
                    6          7          8          9         10
     6  C    0.000000
     7  H    1.096402   0.000000
     8  H    2.481343   2.181065   0.000000
     9  C    3.690077   3.988472   2.239660   0.000000
    10  H    4.428525   4.493580   2.415447   1.091231   0.000000
    11  H    4.057768   4.488412   2.959592   1.094307   1.778372
    12  H    4.057960   4.488360   2.959267   1.094312   1.778351
                   11         12
    11  H    0.000000
    12  H    1.763185   0.000000
 Stoichiometry    C4H7N
 Framework group  C1[X(C4H7N)]
 Deg. of freedom    30
 Full point group                 C1      NOp   1
 Largest Abelian subgroup         C1      NOp   1
 Largest concise Abelian subgroup C1      NOp   1
                         Standard orientation:                         
 ---------------------------------------------------------------------
 Center     Atomic      Atomic             Coordinates (Angstroms)
 Number     Number       Type             X           Y           Z
 ---------------------------------------------------------------------
      1          6           0       -1.013347    0.396216   -0.000022
      2          1           0        2.447108   -1.365827   -0.000021
      3          6           0        2.425049   -0.280502    0.000007
      4          1           0        3.367106    0.255714    0.000029
      5          7           0        0.041027   -0.316110   -0.000016
      6          6           0        1.263061    0.370032    0.000005
      7          1           0        1.233020    1.466022    0.000024
      8          1           0       -0.947831    1.496538   -0.000017
      9          6           0       -2.378455   -0.226655    0.000008
     10          1           0       -3.162489    0.532342   -0.000505
     11          1           0       -2.500800   -0.863724   -0.881287
     12          1           0       -2.501156   -0.862841    0.881898
 ---------------------------------------------------------------------
 Rotational constants (GHZ):          31.1908227           2.3611629           2.2252821
 Standard basis: 6-31G(d) (6D, 7F)
 There are    89 symmetry adapted cartesian basis functions of A   symmetry.
 There are    89 symmetry adapted basis functions of A   symmetry.
    89 basis functions,   168 primitive gaussians,    89 cartesian basis functions
    19 alpha electrons       19 beta electrons
       nuclear repulsion energy       156.8834463880 Hartrees.
 NAtoms=   12 NActive=   12 NUniq=   12 SFac= 1.00D+00 NAtFMM=   60 NAOKFM=F Big=F
 Integral buffers will be    131072 words long.
 Raffenetti 2 integral format.
 Two-electron integral symmetry is turned on.
 ------------------------------------------------------------------------------
 Polarizable Continuum Model (PCM)
 =================================
 Model                : PCM.
 Atomic radii         : UFF (Universal Force Field).
 Polarization charges : Total charges.
 Charge compensation  : None.
 Solution method      : On-the-fly selection.
 Cavity type          : Scaled VdW (van der Waals Surface) (Alpha=1.100).
 Cavity algorithm     : GePol (No added spheres)
                        Default sphere list used, NSphG=   12.
                        Lebedev-Laikov grids with approx.  5.0 points / Ang**2.
                        Smoothing algorithm: York/Karplus (Gamma=1.0000).
                        Polarization charges: spherical gaussians, with
                                              point-specific exponents (IZeta= 3).
                        Self-potential: point-specific (ISelfS= 7).
                        Self-field    : sphere-specific E.n sum rule (ISelfD= 2).
 1st derivatives      : Analytical E(r).r(x)/FMM algorithm (CHGder, D1EAlg=3).
                        Cavity 1st derivative terms included.
 Solvent              : Benzene, Eps=   2.270600 Eps(inf)=   2.253301
 ------------------------------------------------------------------------------
 Spheres list:
 ISph  on   Nord     Re0    Alpha      Xe            Ye            Ze
    1   C      1    1.9255  1.100     -1.013347      0.396216     -0.000022
    2   H      2    1.4430  1.100      2.447108     -1.365827     -0.000021
    3   C      3    1.9255  1.100      2.425049     -0.280502      0.000007
    4   H      4    1.4430  1.100      3.367106      0.255714      0.000029
    5   N      5    1.8300  1.100      0.041027     -0.316110     -0.000016
    6   C      6    1.9255  1.100      1.263061      0.370032      0.000005
    7   H      7    1.4430  1.100      1.233020      1.466022      0.000024
    8   H      8    1.4430  1.100     -0.947831      1.496538     -0.000017
    9   C      9    1.9255  1.100     -2.378455     -0.226655      0.000008
   10   H     10    1.4430  1.100     -3.162489      0.532342     -0.000505
   11   H     11    1.4430  1.100     -2.500800     -0.863724     -0.881287
   12   H     12    1.4430  1.100     -2.501156     -0.862841      0.881898
 ------------------------------------------------------------------------------
 One-electron integrals computed using PRISM.
 NBasis=    89 RedAO= T EigKep=  3.50D-03  NBF=    89
 NBsUse=    89 1.00D-06 EigRej= -1.00D+00 NBFU=    89
 Initial guess from the checkpoint file:  "2g_gs_2_opt_freq.chk"
 B after Tr=    -0.000000    0.000000   -0.000000
         Rot=    1.000000    0.000019    0.000001    0.000247 Ang=   0.03 deg.
 ExpMin= 1.61D-01 ExpMax= 4.17D+03 ExpMxC= 6.27D+02 IAcc=3 IRadAn=         5 AccDes= 0.00D+00
 Harris functional with IExCor= 1009 and IRadAn=       5 diagonalized for initial guess.
 HarFok:  IExCor= 1009 AccDes= 0.00D+00 IRadAn=         5 IDoV= 1 UseB2=F ITyADJ=14
 ICtDFT=  3500011 ScaDFX=  1.000000  1.000000  1.000000  1.000000
 FoFCou: FMM=F IPFlag=           0 FMFlag=      100000 FMFlg1=           0
         NFxFlg=           0 DoJE=T BraDBF=F KetDBF=T FulRan=T
         wScrn=  0.000000 ICntrl=       500 IOpCl=  0 I1Cent=   200000004 NGrid=           0
         NMat0=    1 NMatS0=      1 NMatT0=    0 NMatD0=    1 NMtDS0=    0 NMtDT0=    0
 Petite list used in FoFCou.
 Keep R1 ints in memory in canonical form, NReq=19002712.
 Requested convergence on RMS density matrix=1.00D-08 within 128 cycles.
 Requested convergence on MAX density matrix=1.00D-06.
 Requested convergence on             energy=1.00D-06.
 No special actions if energy rises.
 Inv3:  Mode=1 IEnd=     3479787.
 Iteration    1 A*A^-1 deviation from unit magnitude is 2.44D-15 for    579.
 Iteration    1 A*A^-1 deviation from orthogonality  is 2.00D-15 for    738     63.
 Iteration    1 A^-1*A deviation from unit magnitude is 2.44D-15 for    187.
 Iteration    1 A^-1*A deviation from orthogonality  is 1.55D-15 for    732    531.
 Error on total polarization charges =  0.00438
 SCF Done:  E(RM062X) =  -211.241302597     A.U. after   10 cycles
            NFock= 10  Conv=0.45D-08     -V/T= 2.0087
 D1PCM: PCM CHGder 1st derivatives, ID1Alg=3 FixD1E=F DoIter=F DoCFld=F I1PDM=0.
 Calling FoFJK, ICntrl=      2127 FMM=F ISym2X=0 I1Cent= 0 IOpClX= 0 NMat=1 NMatS=1 NMatT=0.
 ***** Axes restored to original set *****
 -------------------------------------------------------------------
 Center     Atomic                   Forces (Hartrees/Bohr)
 Number     Number              X              Y              Z
 -------------------------------------------------------------------
      1        6           0.000751040   -0.000617726    0.001278837
      2        1           0.000144291   -0.000193491    0.000304212
      3        6          -0.000553274   -0.000139392   -0.000479726
      4        1          -0.000078726    0.000084327   -0.000149252
      5        7           0.000051562    0.001190031   -0.000872946
      6        6          -0.000877658   -0.002465230    0.000983747
      7        1          -0.000129301    0.000662716   -0.000651788
      8        1           0.000287689    0.001072342   -0.000525484
      9        6           0.000130023    0.000210558   -0.000028409
     10        1          -0.000050825    0.000193204   -0.000204489
     11        1           0.000103991    0.000043932    0.000226604
     12        1           0.000221189   -0.000041271    0.000118695
 -------------------------------------------------------------------
 Cartesian Forces:  Max     0.002465230 RMS     0.000666282

 GradGradGradGradGradGradGradGradGradGradGradGradGradGradGradGradGradGrad
 Berny optimization.
 Using GEDIIS/GDIIS optimizer.
 FormGI is forming the generalized inverse of G from B-inverse, IUseBI=4.
 Internal  Forces:  Max     0.002400385 RMS     0.000647193
 Search for a local minimum.
 Step number   3 out of a maximum of   50
 All quantities printed in internal units (Hartrees-Bohrs-Radians)
 Mixed Optimization -- En-DIIS/RFO-DIIS
 Update second derivatives using D2CorX and points    1    2    3
 DE= -3.73D-04 DEPred=-3.57D-04 R= 1.05D+00
 TightC=F SS=  1.41D+00  RLast= 6.31D-02 DXNew= 2.8284D-01 1.8925D-01
 Trust test= 1.05D+00 RLast= 6.31D-02 DXMaxT set to 1.89D-01
 ITU=  1  1  0
 Use linear search instead of GDIIS.
     Eigenvalues ---    0.00668   0.01388   0.02319   0.02701   0.02881
     Eigenvalues ---    0.02881   0.03436   0.07151   0.07333   0.14244
     Eigenvalues ---    0.16000   0.16000   0.16000   0.16000   0.16058
     Eigenvalues ---    0.17137   0.22001   0.22215   0.25774   0.31529
     Eigenvalues ---    0.34838   0.34850   0.34916   0.35087   0.35825
     Eigenvalues ---    0.36077   0.37362   0.42140   0.57686   0.76984
 RFO step:  Lambda=-4.56926518D-05 EMin= 6.68184873D-03
 Quartic linear search produced a step of -0.02987.
 Iteration  1 RMS(Cart)=  0.00571987 RMS(Int)=  0.00001149
 Iteration  2 RMS(Cart)=  0.00001375 RMS(Int)=  0.00000023
 Iteration  3 RMS(Cart)=  0.00000000 RMS(Int)=  0.00000023
 Variable       Old X    -DE/DX   Delta X   Delta X   Delta X     New X
                                 (Linear)    (Quad)   (Total)
    R1        2.40457   0.00186  -0.00008   0.00257   0.00249   2.40706
    R2        2.08299  -0.00088  -0.00018  -0.00195  -0.00213   2.08086
    R3        2.83553   0.00051   0.00027   0.00093   0.00120   2.83672
    R4        2.05139  -0.00039  -0.00005  -0.00090  -0.00095   2.05044
    R5        2.04841  -0.00008  -0.00003  -0.00012  -0.00015   2.04826
    R6        2.51654   0.00064   0.00024   0.00047   0.00071   2.51725
    R7        2.64842   0.00240  -0.00092   0.00674   0.00582   2.65424
    R8        2.07190  -0.00088  -0.00006  -0.00220  -0.00226   2.06963
    R9        2.06213  -0.00013   0.00001  -0.00039  -0.00038   2.06175
   R10        2.06794  -0.00017  -0.00004  -0.00035  -0.00039   2.06755
   R11        2.06795  -0.00017  -0.00004  -0.00034  -0.00039   2.06756
    A1        2.10548   0.00096   0.00060   0.00416   0.00475   2.11023
    A2        2.11937  -0.00015   0.00007  -0.00078  -0.00071   2.11866
    A3        2.05833  -0.00082  -0.00066  -0.00338  -0.00404   2.05429
    A4        2.06794  -0.00012  -0.00013  -0.00041  -0.00054   2.06740
    A5        2.10149  -0.00010   0.00007  -0.00079  -0.00072   2.10077
    A6        2.11376   0.00022   0.00007   0.00120   0.00126   2.11502
    A7        2.03583   0.00183   0.00090   0.00490   0.00580   2.04163
    A8        2.11961   0.00001   0.00015  -0.00031  -0.00015   2.11946
    A9        2.10857   0.00034  -0.00063   0.00359   0.00296   2.11153
   A10        2.05500  -0.00035   0.00047  -0.00328  -0.00281   2.05219
   A11        1.94436   0.00027  -0.00009   0.00163   0.00154   1.94590
   A12        1.92129   0.00009   0.00015   0.00031   0.00046   1.92175
   A13        1.92128   0.00009   0.00015   0.00031   0.00046   1.92174
   A14        1.90098  -0.00024  -0.00017  -0.00126  -0.00143   1.89955
   A15        1.90094  -0.00024  -0.00017  -0.00127  -0.00144   1.89950
   A16        1.87343  -0.00000   0.00013   0.00019   0.00032   1.87375
    D1        0.00001   0.00000  -0.00000   0.00001   0.00001   0.00001
    D2       -3.14155  -0.00000  -0.00000  -0.00001  -0.00001  -3.14156
    D3       -3.14110   0.00000  -0.00000   0.00015   0.00015  -3.14095
    D4       -1.03038  -0.00005  -0.00018  -0.00014  -0.00032  -1.03070
    D5        1.03143   0.00006   0.00017   0.00047   0.00063   1.03206
    D6        0.00053   0.00000  -0.00001   0.00013   0.00013   0.00066
    D7        2.11125  -0.00005  -0.00018  -0.00016  -0.00034   2.11091
    D8       -2.11013   0.00006   0.00017   0.00045   0.00061  -2.10952
    D9        0.00001  -0.00000  -0.00000  -0.00001  -0.00002  -0.00000
   D10       -3.14158  -0.00000  -0.00000  -0.00001  -0.00001   3.14159
   D11       -3.14159  -0.00000   0.00000  -0.00001  -0.00001  -3.14159
   D12        0.00000  -0.00000  -0.00000  -0.00000  -0.00000   0.00000
   D13       -3.14159  -0.00000   0.00000  -0.00001  -0.00001  -3.14159
   D14        0.00001  -0.00000   0.00000  -0.00001  -0.00001  -0.00000
         Item               Value     Threshold  Converged?
 Maximum Force            0.002400     0.000450     NO 
 RMS     Force            0.000647     0.000300     NO 
 Maximum Displacement     0.015302     0.001800     NO 
 RMS     Displacement     0.005715     0.001200     NO 
 Predicted change in Energy=-2.320579D-05
 GradGradGradGradGradGradGradGradGradGradGradGradGradGradGradGradGradGrad

                          Input orientation:                          
 ---------------------------------------------------------------------
 Center     Atomic      Atomic             Coordinates (Angstroms)
 Number     Number       Type             X           Y           Z
 ---------------------------------------------------------------------
      1          6           0       -0.869991    1.072857    0.272671
      2          1           0       -3.845610   -0.591517   -1.592818
      3          6           0       -3.423990   -1.113296   -0.739996
      4          1           0       -3.852818   -2.066904   -0.454406
      5          7           0       -1.843345    0.648785   -0.431045
      6          6           0       -2.403128   -0.586499   -0.065649
      7          1           0       -1.969799   -1.104406    0.796597
      8          1           0       -0.492795    0.488899    1.126623
      9          6           0       -0.197903    2.380612   -0.029757
     10          1           0        0.612906    2.584826    0.671127
     11          1           0        0.207962    2.368844   -1.045724
     12          1           0       -0.923889    3.197499    0.022277
 ---------------------------------------------------------------------
                    Distance matrix (angstroms):
                    1          2          3          4          5
     1  C    0.000000
     2  H    3.886451   0.000000
     3  C    3.511077   1.085045   0.000000
     4  H    4.391355   1.863545   1.083893   0.000000
     5  N    1.273763   2.626238   2.387219   3.378386   0.000000
     6  C    2.284388   2.100720   1.332073   2.108159   1.404563
     7  H    2.494904   3.080751   2.115625   2.457066   2.144009
     8  H    1.101143   4.450171   3.826643   4.507942   2.067820
     9  C    1.501130   4.958072   4.808270   5.772273   2.422342
    10  H    2.154948   5.923931   5.653662   6.545847   3.316053
    11  H    2.140031   5.049207   5.040817   6.042802   2.746688
    12  H    2.140025   5.049914   5.041281   6.043161   2.747152
                    6          7          8          9         10
     6  C    0.000000
     7  H    1.095204   0.000000
     8  H    2.495469   2.197517   0.000000
     9  C    3.697033   3.995977   2.236683   0.000000
    10  H    4.438085   4.505168   2.413081   1.091033   0.000000
    11  H    4.063544   4.494469   2.957083   1.094100   1.777134
    12  H    4.063806   4.494429   2.956676   1.094105   1.777107
                   11         12
    11  H    0.000000
    12  H    1.763061   0.000000
 Stoichiometry    C4H7N
 Framework group  C1[X(C4H7N)]
 Deg. of freedom    30
 Full point group                 C1      NOp   1
 Largest Abelian subgroup         C1      NOp   1
 Largest concise Abelian subgroup C1      NOp   1
                         Standard orientation:                         
 ---------------------------------------------------------------------
 Center     Atomic      Atomic             Coordinates (Angstroms)
 Number     Number       Type             X           Y           Z
 ---------------------------------------------------------------------
      1          6           0       -1.016659    0.398288   -0.000014
      2          1           0        2.445276   -1.367924   -0.000007
      3          6           0        2.427682   -0.283022    0.000005
      4          1           0        3.372150    0.248771    0.000020
      5          7           0        0.040639   -0.312059   -0.000015
      6          6           0        1.267574    0.371628    0.000004
      7          1           0        1.238028    1.466433    0.000018
      8          1           0       -0.959262    1.497934   -0.000013
      9          6           0       -2.380289   -0.229328    0.000003
     10          1           0       -3.167835    0.525737   -0.000652
     11          1           0       -2.501103   -0.866523   -0.881156
     12          1           0       -2.501577   -0.865415    0.881904
 ---------------------------------------------------------------------
 Rotational constants (GHZ):          31.1137185           2.3548699           2.2192959
 Standard basis: 6-31G(d) (6D, 7F)
 There are    89 symmetry adapted cartesian basis functions of A   symmetry.
 There are    89 symmetry adapted basis functions of A   symmetry.
    89 basis functions,   168 primitive gaussians,    89 cartesian basis functions
    19 alpha electrons       19 beta electrons
       nuclear repulsion energy       156.7285066669 Hartrees.
 NAtoms=   12 NActive=   12 NUniq=   12 SFac= 1.00D+00 NAtFMM=   60 NAOKFM=F Big=F
 Integral buffers will be    131072 words long.
 Raffenetti 2 integral format.
 Two-electron integral symmetry is turned on.
 ------------------------------------------------------------------------------
 Polarizable Continuum Model (PCM)
 =================================
 Model                : PCM.
 Atomic radii         : UFF (Universal Force Field).
 Polarization charges : Total charges.
 Charge compensation  : None.
 Solution method      : On-the-fly selection.
 Cavity type          : Scaled VdW (van der Waals Surface) (Alpha=1.100).
 Cavity algorithm     : GePol (No added spheres)
                        Default sphere list used, NSphG=   12.
                        Lebedev-Laikov grids with approx.  5.0 points / Ang**2.
                        Smoothing algorithm: York/Karplus (Gamma=1.0000).
                        Polarization charges: spherical gaussians, with
                                              point-specific exponents (IZeta= 3).
                        Self-potential: point-specific (ISelfS= 7).
                        Self-field    : sphere-specific E.n sum rule (ISelfD= 2).
 1st derivatives      : Analytical E(r).r(x)/FMM algorithm (CHGder, D1EAlg=3).
                        Cavity 1st derivative terms included.
 Solvent              : Benzene, Eps=   2.270600 Eps(inf)=   2.253301
 ------------------------------------------------------------------------------
 Spheres list:
 ISph  on   Nord     Re0    Alpha      Xe            Ye            Ze
    1   C      1    1.9255  1.100     -1.016659      0.398288     -0.000014
    2   H      2    1.4430  1.100      2.445276     -1.367924     -0.000007
    3   C      3    1.9255  1.100      2.427682     -0.283022      0.000005
    4   H      4    1.4430  1.100      3.372150      0.248771      0.000020
    5   N      5    1.8300  1.100      0.040639     -0.312059     -0.000015
    6   C      6    1.9255  1.100      1.267574      0.371628      0.000004
    7   H      7    1.4430  1.100      1.238028      1.466433      0.000018
    8   H      8    1.4430  1.100     -0.959262      1.497934     -0.000013
    9   C      9    1.9255  1.100     -2.380289     -0.229328      0.000003
   10   H     10    1.4430  1.100     -3.167835      0.525737     -0.000652
   11   H     11    1.4430  1.100     -2.501103     -0.866523     -0.881156
   12   H     12    1.4430  1.100     -2.501577     -0.865415      0.881904
 ------------------------------------------------------------------------------
 One-electron integrals computed using PRISM.
 NBasis=    89 RedAO= T EigKep=  3.53D-03  NBF=    89
 NBsUse=    89 1.00D-06 EigRej= -1.00D+00 NBFU=    89
 Initial guess from the checkpoint file:  "2g_gs_2_opt_freq.chk"
 B after Tr=     0.000000   -0.000000    0.000000
         Rot=    1.000000    0.000015    0.000001   -0.000051 Ang=   0.01 deg.
 Keep R1 ints in memory in canonical form, NReq=19002712.
 Requested convergence on RMS density matrix=1.00D-08 within 128 cycles.
 Requested convergence on MAX density matrix=1.00D-06.
 Requested convergence on             energy=1.00D-06.
 No special actions if energy rises.
 Inv3:  Mode=1 IEnd=     3479787.
 Iteration    1 A*A^-1 deviation from unit magnitude is 2.89D-15 for    207.
 Iteration    1 A*A^-1 deviation from orthogonality  is 1.89D-15 for    885    374.
 Iteration    1 A^-1*A deviation from unit magnitude is 3.11D-15 for    426.
 Iteration    1 A^-1*A deviation from orthogonality  is 1.77D-15 for    650    456.
 Error on total polarization charges =  0.00435
 SCF Done:  E(RM062X) =  -211.241323212     A.U. after    9 cycles
            NFock=  9  Conv=0.52D-08     -V/T= 2.0088
 D1PCM: PCM CHGder 1st derivatives, ID1Alg=3 FixD1E=F DoIter=F DoCFld=F I1PDM=0.
 Calling FoFJK, ICntrl=      2127 FMM=F ISym2X=0 I1Cent= 0 IOpClX= 0 NMat=1 NMatS=1 NMatT=0.
 ***** Axes restored to original set *****
 -------------------------------------------------------------------
 Center     Atomic                   Forces (Hartrees/Bohr)
 Number     Number              X              Y              Z
 -------------------------------------------------------------------
      1        6          -0.000815395   -0.001057694   -0.000046337
      2        1           0.000009869   -0.000003263    0.000012916
      3        6           0.000109878    0.000212258   -0.000047979
      4        1           0.000003526    0.000041848   -0.000028804
      5        7           0.000313833    0.000528240   -0.000079992
      6        6           0.000299517   -0.000191805    0.000467344
      7        1          -0.000012126    0.000118764   -0.000105177
      8        1           0.000065738    0.000206806   -0.000087056
      9        6          -0.000092494    0.000114004   -0.000188944
     10        1           0.000013351   -0.000004005    0.000016697
     11        1           0.000048824    0.000019023    0.000045062
     12        1           0.000055478    0.000015823    0.000042268
 -------------------------------------------------------------------
 Cartesian Forces:  Max     0.001057694 RMS     0.000275099

 GradGradGradGradGradGradGradGradGradGradGradGradGradGradGradGradGradGrad
 Berny optimization.
 Using GEDIIS/GDIIS optimizer.
 FormGI is forming the generalized inverse of G from B-inverse, IUseBI=4.
 Internal  Forces:  Max     0.000910953 RMS     0.000217621
 Search for a local minimum.
 Step number   4 out of a maximum of   50
 All quantities printed in internal units (Hartrees-Bohrs-Radians)
 Mixed Optimization -- En-DIIS/RFO-DIIS
 Swapping is turned off.
 Update second derivatives using D2CorX and points    1    2    3    4
 DE= -2.06D-05 DEPred=-2.32D-05 R= 8.88D-01
 TightC=F SS=  1.41D+00  RLast= 1.24D-02 DXNew= 3.1827D-01 3.7145D-02
 Trust test= 8.88D-01 RLast= 1.24D-02 DXMaxT set to 1.89D-01
 ITU=  1  1  1  0
     Eigenvalues ---    0.00668   0.01393   0.02319   0.02702   0.02881
     Eigenvalues ---    0.02881   0.03436   0.07140   0.07322   0.13962
     Eigenvalues ---    0.15510   0.16000   0.16000   0.16000   0.16036
     Eigenvalues ---    0.16216   0.21611   0.22049   0.27019   0.31550
     Eigenvalues ---    0.34838   0.34855   0.34900   0.35110   0.35618
     Eigenvalues ---    0.36065   0.36454   0.46351   0.58400   0.86229
 En-DIIS/RFO-DIIS/Sim-DIIS IScMMF=       -3 using points:     4    3
 RFO step:  Lambda=-4.36742990D-06.
 DidBck=F Rises=F RFO-DIIS coefs:    1.05244   -0.05244
 Iteration  1 RMS(Cart)=  0.00100791 RMS(Int)=  0.00000049
 Iteration  2 RMS(Cart)=  0.00000077 RMS(Int)=  0.00000008
 Variable       Old X    -DE/DX   Delta X   Delta X   Delta X     New X
                                 (Linear)    (Quad)   (Total)
    R1        2.40706  -0.00091   0.00013  -0.00096  -0.00083   2.40623
    R2        2.08086  -0.00015  -0.00011  -0.00038  -0.00049   2.08036
    R3        2.83672   0.00016   0.00006   0.00055   0.00061   2.83733
    R4        2.05044  -0.00002  -0.00005  -0.00004  -0.00009   2.05035
    R5        2.04826  -0.00005  -0.00001  -0.00007  -0.00007   2.04819
    R6        2.51725  -0.00016   0.00004  -0.00021  -0.00017   2.51708
    R7        2.65424  -0.00024   0.00031  -0.00003   0.00028   2.65451
    R8        2.06963  -0.00014  -0.00012  -0.00034  -0.00046   2.06917
    R9        2.06175   0.00002  -0.00002   0.00007   0.00005   2.06181
   R10        2.06755  -0.00002  -0.00002  -0.00004  -0.00006   2.06749
   R11        2.06756  -0.00002  -0.00002  -0.00003  -0.00006   2.06750
    A1        2.11023   0.00026   0.00025   0.00130   0.00155   2.11178
    A2        2.11866  -0.00015  -0.00004  -0.00056  -0.00060   2.11806
    A3        2.05429  -0.00011  -0.00021  -0.00074  -0.00095   2.05334
    A4        2.06740  -0.00001  -0.00003  -0.00007  -0.00010   2.06730
    A5        2.10077  -0.00002  -0.00004  -0.00019  -0.00023   2.10054
    A6        2.11502   0.00003   0.00007   0.00026   0.00032   2.11534
    A7        2.04163  -0.00078   0.00030  -0.00245  -0.00215   2.03948
    A8        2.11946  -0.00038  -0.00001  -0.00150  -0.00151   2.11795
    A9        2.11153   0.00026   0.00016   0.00114   0.00130   2.11283
   A10        2.05219   0.00012  -0.00015   0.00036   0.00021   2.05240
   A11        1.94590  -0.00005   0.00008  -0.00040  -0.00032   1.94558
   A12        1.92175   0.00006   0.00002   0.00045   0.00047   1.92223
   A13        1.92174   0.00006   0.00002   0.00045   0.00047   1.92221
   A14        1.89955  -0.00003  -0.00007  -0.00038  -0.00046   1.89909
   A15        1.89950  -0.00004  -0.00008  -0.00040  -0.00047   1.89903
   A16        1.87375  -0.00000   0.00002   0.00029   0.00030   1.87405
    D1        0.00001   0.00000   0.00000  -0.00001  -0.00001   0.00001
    D2       -3.14156   0.00000  -0.00000   0.00003   0.00003  -3.14154
    D3       -3.14095   0.00000   0.00001   0.00014   0.00015  -3.14080
    D4       -1.03070  -0.00004  -0.00002  -0.00030  -0.00032  -1.03102
    D5        1.03206   0.00004   0.00003   0.00060   0.00063   1.03269
    D6        0.00066   0.00000   0.00001   0.00018   0.00018   0.00084
    D7        2.11091  -0.00004  -0.00002  -0.00027  -0.00029   2.11062
    D8       -2.10952   0.00004   0.00003   0.00064   0.00067  -2.10885
    D9       -0.00000   0.00000  -0.00000   0.00000   0.00000  -0.00000
   D10        3.14159   0.00000  -0.00000   0.00000  -0.00000   3.14159
   D11       -3.14159  -0.00000  -0.00000   0.00000   0.00000  -3.14159
   D12        0.00000  -0.00000  -0.00000  -0.00000  -0.00000  -0.00000
   D13       -3.14159  -0.00000  -0.00000  -0.00000  -0.00000   3.14159
   D14       -0.00000  -0.00000  -0.00000  -0.00000  -0.00000  -0.00000
         Item               Value     Threshold  Converged?
 Maximum Force            0.000911     0.000450     NO 
 RMS     Force            0.000218     0.000300     YES
 Maximum Displacement     0.002216     0.001800     NO 
 RMS     Displacement     0.001008     0.001200     YES
 Predicted change in Energy=-2.183789D-06
 GradGradGradGradGradGradGradGradGradGradGradGradGradGradGradGradGradGrad

                          Input orientation:                          
 ---------------------------------------------------------------------
 Center     Atomic      Atomic             Coordinates (Angstroms)
 Number     Number       Type             X           Y           Z
 ---------------------------------------------------------------------
      1          6           0       -0.870996    1.072083    0.272204
      2          1           0       -3.844633   -0.590874   -1.592417
      3          6           0       -3.423405   -1.112980   -0.739658
      4          1           0       -3.852643   -2.066494   -0.454519
      5          7           0       -1.843925    0.649061   -0.431937
      6          6           0       -2.402630   -0.586461   -0.065140
      7          1           0       -1.968677   -1.103363    0.797087
      8          1           0       -0.493433    0.488813    1.126125
      9          6           0       -0.198496    2.380057   -0.029963
     10          1           0        0.612284    2.583654    0.671177
     11          1           0        0.207984    2.368753   -1.045657
     12          1           0       -0.923828    3.197451    0.022599
 ---------------------------------------------------------------------
                    Distance matrix (angstroms):
                    1          2          3          4          5
     1  C    0.000000
     2  H    3.883909   0.000000
     3  C    3.509011   1.085000   0.000000
     4  H    4.389648   1.863419   1.083854   0.000000
     5  N    1.273323   2.624307   2.386260   3.377824   0.000000
     6  C    2.282646   2.100468   1.331983   2.108234   1.404709
     7  H    2.492583   3.080841   2.116108   2.458345   2.144074
     8  H    1.100882   4.448228   3.825131   4.506919   2.068107
     9  C    1.501451   4.956007   4.806767   5.771035   2.421851
    10  H    2.155028   5.921621   5.651756   6.544206   3.315490
    11  H    2.140632   5.047974   5.040147   6.042313   2.746693
    12  H    2.140627   5.048840   5.040708   6.042740   2.747266
                    6          7          8          9         10
     6  C    0.000000
     7  H    1.094960   0.000000
     8  H    2.494065   2.195367   0.000000
     9  C    3.695899   3.993966   2.236142   0.000000
    10  H    4.436384   4.502367   2.412042   1.091061   0.000000
    11  H    4.063251   4.493233   2.956822   1.094069   1.776840
    12  H    4.063563   4.493166   2.956304   1.094076   1.776807
                   11         12
    11  H    0.000000
    12  H    1.763210   0.000000
 Stoichiometry    C4H7N
 Framework group  C1[X(C4H7N)]
 Deg. of freedom    30
 Full point group                 C1      NOp   1
 Largest Abelian subgroup         C1      NOp   1
 Largest concise Abelian subgroup C1      NOp   1
                         Standard orientation:                         
 ---------------------------------------------------------------------
 Center     Atomic      Atomic             Coordinates (Angstroms)
 Number     Number       Type             X           Y           Z
 ---------------------------------------------------------------------
      1          6           0       -1.015495    0.398154   -0.000028
      2          1           0        2.443752   -1.367734   -0.000009
      3          6           0        2.426796   -0.282867    0.000011
      4          1           0        3.371593    0.248262    0.000038
      5          7           0        0.040726   -0.313007   -0.000028
      6          6           0        1.267003    0.372159    0.000005
      7          1           0        1.236437    1.466692    0.000028
      8          1           0       -0.958713    1.497570   -0.000008
      9          6           0       -2.379670   -0.229049    0.000011
     10          1           0       -3.166692    0.526603   -0.000798
     11          1           0       -2.501344   -0.866052   -0.881130
[...]
   A16        1.87405   0.00001   0.00000   0.00023   0.00023   1.87428
    D1        0.00001   0.00000   0.00000   0.00002   0.00002   0.00003
    D2       -3.14154   0.00000   0.00000   0.00005   0.00005  -3.14149
    D3       -3.14080   0.00000   0.00000   0.00079   0.00079  -3.14001
    D4       -1.03102  -0.00001   0.00000   0.00069   0.00069  -1.03034
    D5        1.03269   0.00001   0.00000   0.00104   0.00104   1.03373
    D6        0.00084   0.00000   0.00000   0.00082   0.00082   0.00166
    D7        2.11062  -0.00001   0.00000   0.00071   0.00071   2.11133
    D8       -2.10885   0.00001   0.00000   0.00106   0.00106  -2.10779
    D9       -0.00000   0.00000   0.00000  -0.00000  -0.00000  -0.00000
   D10        3.14159   0.00000   0.00000   0.00000   0.00000   3.14159
   D11       -3.14159   0.00000   0.00000   0.00000   0.00000  -3.14159
   D12       -0.00000   0.00000   0.00000   0.00000   0.00000   0.00000
   D13        3.14159  -0.00000   0.00000  -0.00001  -0.00001   3.14158
   D14       -0.00000  -0.00000   0.00000  -0.00001  -0.00001  -0.00001
         Item               Value     Threshold  Converged?
 Maximum Force            0.000150     0.000450     YES
 RMS     Force            0.000034     0.000300     YES
 Maximum Displacement     0.001442     0.001800     YES
 RMS     Displacement     0.000514     0.001200     YES
 Predicted change in Energy=-1.042489D-07
 Optimization completed.
    -- Stationary point found.
                           ----------------------------
                           !   Optimized Parameters   !
                           ! (Angstroms and Degrees)  !
 --------------------------                            --------------------------
 ! Name  Definition              Value          Derivative Info.                !
 --------------------------------------------------------------------------------
 ! R1    R(1,5)                  1.2733         -DE/DX =   -0.0002              !
 ! R2    R(1,8)                  1.1009         -DE/DX =    0.0                 !
 ! R3    R(1,9)                  1.5015         -DE/DX =    0.0                 !
 ! R4    R(2,3)                  1.085          -DE/DX =    0.0                 !
 ! R5    R(3,4)                  1.0839         -DE/DX =    0.0                 !
 ! R6    R(3,6)                  1.332          -DE/DX =    0.0                 !
 ! R7    R(5,6)                  1.4047         -DE/DX =    0.0                 !
 ! R8    R(6,7)                  1.095          -DE/DX =    0.0                 !
 ! R9    R(9,10)                 1.0911         -DE/DX =    0.0                 !
 ! R10   R(9,11)                 1.0941         -DE/DX =    0.0                 !
 ! R11   R(9,12)                 1.0941         -DE/DX =    0.0                 !
 ! A1    A(5,1,8)              120.9961         -DE/DX =    0.0                 !
 ! A2    A(5,1,9)              121.356          -DE/DX =    0.0                 !
 ! A3    A(8,1,9)              117.648          -DE/DX =   -0.0001              !
 ! A4    A(2,3,4)              118.4476         -DE/DX =    0.0                 !
 ! A5    A(2,3,6)              120.3523         -DE/DX =    0.0                 !
 ! A6    A(4,3,6)              121.2001         -DE/DX =    0.0                 !
 ! A7    A(1,5,6)              116.8537         -DE/DX =    0.0                 !
 ! A8    A(3,6,5)              121.3495         -DE/DX =   -0.0001              !
 ! A9    A(3,6,7)              121.0564         -DE/DX =    0.0001              !
 ! A10   A(5,6,7)              117.5941         -DE/DX =    0.0                 !
 ! A11   A(1,9,10)             111.4735         -DE/DX =    0.0                 !
 ! A12   A(1,9,11)             110.1355         -DE/DX =    0.0                 !
 ! A13   A(1,9,12)             110.1346         -DE/DX =    0.0                 !
 ! A14   A(10,9,11)            108.8097         -DE/DX =    0.0                 !
 ! A15   A(10,9,12)            108.8062         -DE/DX =    0.0                 !
 ! A16   A(11,9,12)            107.3754         -DE/DX =    0.0                 !
 ! D1    D(8,1,5,6)              0.0004         -DE/DX =    0.0                 !
 ! D2    D(9,1,5,6)           -179.9968         -DE/DX =    0.0                 !
 ! D3    D(5,1,9,10)          -179.9546         -DE/DX =    0.0                 !
 ! D4    D(5,1,9,11)           -59.0732         -DE/DX =    0.0                 !
 ! D5    D(5,1,9,12)            59.169          -DE/DX =    0.0                 !
 ! D6    D(8,1,9,10)             0.0482         -DE/DX =    0.0                 !
 ! D7    D(8,1,9,11)           120.9295         -DE/DX =    0.0                 !
 ! D8    D(8,1,9,12)          -120.8282         -DE/DX =    0.0                 !
 ! D9    D(2,3,6,5)              0.0            -DE/DX =    0.0                 !
 ! D10   D(2,3,6,7)            179.9999         -DE/DX =    0.0                 !
 ! D11   D(4,3,6,5)           -179.9999         -DE/DX =    0.0                 !
 ! D12   D(4,3,6,7)              0.0            -DE/DX =    0.0                 !
 ! D13   D(1,5,6,3)            179.9998         -DE/DX =    0.0                 !
 ! D14   D(1,5,6,7)             -0.0001         -DE/DX =    0.0                 !
 --------------------------------------------------------------------------------
 GradGradGradGradGradGradGradGradGradGradGradGradGradGradGradGradGradGrad


 ----------------------------------------------------------------------

 Electric dipole moment (input orientation):
 (Debye = 10**-18 statcoulomb cm , SI units = C m)
                  (au)            (Debye)         (10**-30 SI)
   Tot        0.691778D+00      0.175833D+01      0.586514D+01
   x          0.473961D+00      0.120469D+01      0.401841D+01
   y         -0.837865D-03     -0.212964D-02     -0.710372D-02
   z          0.503903D+00      0.128079D+01      0.427227D+01

 Dipole polarizability, Alpha (input orientation).
 (esu units = cm**3 , SI units = C**2 m**2 J**-1)
 Alpha(0;0):
               (au)            (10**-24 esu)      (10**-40 SI)
   iso        0.583695D+02      0.864947D+01      0.962383D+01
   aniso      0.632556D+02      0.937351D+01      0.104294D+02
   xx         0.662921D+02      0.982348D+01      0.109301D+02
   yx         0.289210D+02      0.428566D+01      0.476844D+01
   yy         0.634055D+02      0.939573D+01      0.104542D+02
   zx         0.190454D+02      0.282224D+01      0.314017D+01
   zy         0.256381D+01      0.379917D+00      0.422715D+00
   zz         0.454109D+02      0.672920D+01      0.748724D+01

 ----------------------------------------------------------------------

 Dipole orientation:
     6         -1.55038772          2.02577467         -0.75545542
     1         -3.23098363         -1.12372096         -7.16832524
     6         -3.75571205         -2.10802356         -5.44793182
     1         -4.71660057         -3.90964010         -5.60899218
     7         -1.97835666          1.22388567         -2.98340717
     6         -3.22343658         -1.11057913         -3.19904448
     1         -3.74290298         -2.08501414         -1.44915475
     1         -2.13678268          0.92585149          0.91014576
     6         -0.23227829          4.49740276         -0.30368835
     1         -0.02382362          4.88448567          1.71070008
     1          1.64226855          4.47408515         -1.17549696
     1         -1.29801548          6.04151516         -1.17230529

 Electric dipole moment (dipole orientation):
 (Debye = 10**-18 statcoulomb cm , SI units = C m)
                  (au)            (Debye)         (10**-30 SI)
   Tot        0.691778D+00      0.175833D+01      0.586514D+01
   x          0.000000D+00      0.000000D+00      0.000000D+00
   y          0.000000D+00      0.000000D+00      0.000000D+00
   z          0.691778D+00      0.175833D+01      0.586514D+01

 Dipole polarizability, Alpha (dipole orientation).
 (esu units = cm**3 , SI units = C**2 m**2 J**-1)
 Alpha(0;0):
               (au)            (10**-24 esu)      (10**-40 SI)
   iso        0.583695D+02      0.864947D+01      0.962383D+01
   aniso      0.632556D+02      0.937351D+01      0.104294D+02
   xx         0.374991D+02      0.555679D+01      0.618276D+01
   yx         0.193365D+02      0.286537D+01      0.318816D+01
   yy         0.634395D+02      0.940077D+01      0.104598D+02
   zx         0.115733D+02      0.171499D+01      0.190818D+01
   zy         0.216898D+02      0.321410D+01      0.357616D+01
   zz         0.741699D+02      0.109909D+02      0.122290D+02

 ----------------------------------------------------------------------
 Unable to Open any file for archive entry.
 1\1\GINC-NODE-004\Freq\RM062X\6-31G(d)\C4H7N1\JP2658\11-Dec-2023\0\\#N
  Geom=AllCheck Guess=TCheck SCRF=Check GenChk RM062X/6-31G(d) Freq\\**
 ***\\0,1\C,-0.8709963152,1.0720831816,0.27220357\H,-3.8446334852,-0.59
 0873513,-1.5924165712\C,-3.4234054768,-1.1129795308,-0.7396582329\H,-3
 .8526425962,-2.0664940339,-0.4545185313\N,-1.8439254457,0.6490613819,-
 0.431936514\C,-2.4026301328,-0.5864612619,-0.0651400227\H,-1.968677213
 5,-1.1033631502,0.7970865396\H,-0.4934330932,0.4888128898,1.1261251553
 \C,-0.1984961717,2.3800566567,-0.0299634766\H,0.612284308,2.5836538266
 ,0.6711767984\H,0.207983722,2.3687525349,-1.0456572162\H,-0.9238280996
 ,3.1974510182,0.0225985017\\Version=ES64L-G16RevC.01\State=1-A\HF=-211
 .2413257\RMSD=2.094e-09\RMSF=4.655e-05\ZeroPoint=0.1024417\Thermal=0.1
 078082\ETot=-211.1335175\HTot=-211.1325733\GTot=-211.1670796\Dipole=0.
 4739606,-0.0008379,0.5039027\DipoleDeriv=0.4662335,0.3021618,0.2557037
 ,0.3108249,0.6483622,-0.1703175,0.2492308,-0.1794043,0.4081572,0.09582
 91,-0.0177866,-0.0586026,-0.0015669,0.0453798,0.0905334,-0.0712056,0.0
 733164,0.0315094,-0.2516496,0.0080281,0.0835035,-0.0364886,-0.1470906,
 -0.185657,0.1180997,-0.1383853,-0.103315,0.0725028,-0.0606656,-0.03115
 26,-0.075946,-0.0251501,0.0525411,-0.0192783,0.0687604,0.0723653,-0.69
 55532,-0.2990546,-0.2042489,-0.1873326,-0.6543089,0.0885847,-0.2910227
 ,-0.0299559,-0.5699557,0.2619622,0.1698671,0.185123,0.2971352,0.463320
 4,-0.0730808,0.0862262,-0.2082028,0.2165053,0.0164438,0.0252488,-0.130
 2801,-0.0726668,-0.0419417,0.0492151,-0.0542204,0.1531473,-0.0558337,0
 .0350111,-0.0515591,-0.0804077,-0.0106433,-0.0730996,0.1608827,-0.1122
 233,0.1174108,-0.0618271,0.0641565,0.0088436,0.0390841,-0.1449882,-0.2
 158334,0.0298393,0.1580671,0.1927031,0.0389017,-0.0473456,-0.0661411,-
 0.0857182,-0.0326912,0.0311702,0.0047613,-0.11157,-0.0305763,-0.012538
 5,0.0212411,-0.0625619,0.0286314,-0.050486,0.02772,-0.0293186,0.057900
 5,-0.0048891,-0.0550907,-0.0388317,0.0436194,-0.0016357,0.0048495,-0.0
 585283,-0.0179837,-0.010004,-0.0139245,0.0911218\Polar=66.2921088,28.9
 210429,63.4055416,19.0454367,2.5638103,45.4108924\Quadrupole=0.2271419
 ,0.835135,-1.0622769,2.1520158,1.0797783,-0.2011265\PG=C01 [X(C4H7N1)]
 \NImag=1\\0.61344002,0.21278304,0.55505404,0.30045644,-0.06962067,0.54
 770900,-0.00017162,-0.00026615,0.00011139,0.08872572,-0.00035533,-0.00
 005321,-0.00039942,-0.05190945,0.11888696,0.00018087,-0.00030490,0.000
 34694,0.10931483,-0.12902419,0.24001365,0.00758329,0.00210907,0.003902
 46,-0.09230810,0.04991423,-0.09875628,0.56996314,0.00182715,-0.0015309
 2,0.00496551,0.04663472,-0.12354778,0.11766995,0.24392859,0.59187359,0
 .00412215,0.00526406,0.00264791,-0.09620862,0.12115110,-0.23205336,0.3
 0174872,-0.11762611,0.51886792,0.00008242,-0.00090619,0.00078162,0.007
 35580,0.01065669,-0.00264929,-0.09382322,-0.10807201,0.02002453,0.0911
 1073,-0.00001765,-0.00023846,0.00017371,-0.00555907,-0.00676105,0.0009
 4596,-0.11159924,-0.28504435,0.07688769,0.12136223,0.29620883,0.000091
 03,-0.00076937,0.00070366,0.00994864,0.01815913,-0.00149493,0.02276502
 ,0.08063198,-0.07206933,-0.02235664,-0.08315503,0.06422063,-0.39399334
 ,-0.12947848,-0.25709594,-0.00175434,0.00316301,0.00498536,-0.02314657
 ,-0.04219603,0.00241194,0.00223930,-0.00582470,-0.00754781,0.53421517,
 -0.15755102,-0.15302423,-0.09267502,0.00407543,-0.00065995,-0.00197116
 ,-0.02869303,-0.02659978,-0.00554871,-0.00494593,0.00307614,0.00293610
 ,0.27292634,0.43019147,-0.23527977,-0.06286546,-0.25795697,0.00427646,
 -0.00293972,-0.00194235,-0.00807792,-0.01988181,0.01233446,-0.00823065
 ,0.00200293,0.00331974,0.27487119,0.01418398,0.35628655,-0.04025510,-0
 .05227708,-0.00594110,-0.00377273,-0.00656691,-0.00701100,-0.36343851,
 -0.15142477,-0.21240888,-0.00391868,-0.00024928,-0.00591820,-0.0960148
 9,-0.04069693,0.00061165,0.60214783,-0.03132189,-0.03914492,-0.0000386
 2,0.01257713,0.01063313,0.01102373,-0.14760764,-0.16369065,-0.07031488
 ,-0.02053683,-0.00602696,-0.01568958,-0.07246508,-0.22604528,0.0467873
 8,0.20986358,0.52504988,-0.02222277,-0.02228496,-0.00267262,-0.0218837
 7,-0.00929765,-0.00836839,-0.21537480,-0.07436711,-0.22336189,0.009843
 47,0.00584619,0.00774560,0.02529269,0.08050978,-0.10250363,0.31957437,
 -0.07054333,0.54153604,0.00284995,-0.00223162,0.00598733,0.00144773,-0
 .00486225,-0.00599040,-0.00404969,0.01165523,-0.02075009,-0.00216802,0
 .00178436,0.00283672,0.00613003,-0.01108315,0.00547760,-0.09704687,0.0
 4418506,-0.08917654,0.09321334,0.00602038,0.00142759,0.00438294,-0.005
 30082,0.00169977,0.00132612,-0.00701136,0.01021453,-0.00996511,0.00222
 898,-0.00089351,-0.00171473,0.00188730,-0.02177272,0.02597327,0.045140
 48,-0.10942161,0.09767401,-0.04094720,0.11821294,-0.00042342,-0.004377
 21,0.00179326,-0.00564966,0.00179166,0.00326041,-0.00624807,0.00984974
 ,-0.00731697,0.00249128,-0.00218670,-0.00180288,-0.00459856,0.01220536
 ,-0.00528269,-0.08991906,0.09665981,-0.21592113,0.10269430,-0.11476488
 ,0.22461046,-0.08065227,0.03865651,-0.05867557,0.00038316,-0.00007818,
 0.00002976,0.00002263,-0.00064641,0.00037516,-0.00006659,-0.00010616,0
 .00000809,-0.00537727,0.00206643,-0.03958616,-0.00287829,0.00799733,0.
 00156482,0.00003491,-0.00140056,0.00128037,0.08036248,0.04047320,-0.13
 565689,0.10665543,-0.00015873,-0.00017602,0.00028864,-0.00020743,-0.00
 007058,-0.00005483,0.00006510,-0.00000824,0.00007818,-0.01072227,0.014
 29937,0.00112850,-0.00028541,0.00092062,-0.00894664,0.00117454,0.00044
 873,0.00078437,-0.03444027,0.13237192,-0.06008816,0.10472307,-0.198812
 50,0.00009234,0.00037412,0.00021972,0.00003403,-0.00052093,0.00058311,
 -0.00012496,-0.00010360,-0.00004868,-0.02965059,0.01470401,-0.01249518
 ,0.00800015,-0.00015404,-0.00159400,-0.00072017,-0.00194913,0.00060367
 ,0.08706412,-0.12110285,0.21005146,-0.10475000,-0.05947951,0.00936921,
 0.00003550,0.00009966,-0.00006405,-0.00042036,-0.00089594,0.00040976,-
 0.00066965,0.00018992,0.00018825,-0.02207763,-0.03035760,0.00508448,0.
 00500298,-0.00363108,-0.00604234,-0.00033795,-0.00052808,0.00027243,0.
 00899354,0.00526699,-0.00659006,0.57308530,-0.05564740,-0.19901529,0.0
 4111661,-0.00002750,-0.00003106,0.00001255,-0.00085045,-0.00084499,-0.
 00036330,0.00024270,-0.00021497,-0.00034098,-0.01672631,-0.01756348,-0
 .00773327,-0.00129237,0.00800232,0.00278473,0.00020144,0.00005251,0.00
 001135,-0.01027125,-0.00702589,0.00337671,-0.01327878,0.51743398,0.006
 39938,0.03707201,-0.09204834,0.00003547,0.00014717,-0.00005513,0.00037
 276,-0.00041477,0.00056753,0.00014640,-0.00039675,-0.00052056,-0.00550
 418,-0.02220085,0.00674935,-0.00785414,0.00030850,0.00476559,-0.000293
 74,-0.00076305,0.00007324,0.00548162,0.01987725,0.00173495,0.03202270,
 0.01318943,0.57638211,-0.00966670,0.00306881,-0.00924722,0.00004622,-0
 .00000106,-0.00003390,-0.00014425,-0.00032914,0.00013946,-0.00011851,0
 .00000311,-0.00000046,-0.00152046,-0.00444702,0.00063619,0.00026895,0.
 00008248,-0.00059943,-0.00005940,-0.00019701,0.00013811,0.00061618,0.0
 0014655,0.00044215,-0.20412158,-0.03903863,-0.13361780,0.21782208,-0.0
 2109807,-0.00194508,-0.02332301,-0.00001267,0.00004426,0.00001324,-0.0
 0016719,-0.00055417,0.00022602,-0.00008318,-0.00008237,-0.00011709,-0.
 00348793,-0.00642739,0.00217718,-0.00085456,0.00025980,-0.00051418,-0.
 00001542,-0.00022576,0.00012385,0.00065829,0.00081674,0.00013349,-0.03
 559430,-0.05939690,-0.02997449,0.04312660,0.06256493,0.00950281,0.0022
 8309,0.00510589,-0.00002490,0.00002585,0.00003259,0.00001422,0.0000548
 2,-0.00006240,0.00006644,-0.00002613,-0.00002975,-0.00011315,0.0011567
 7,0.00012252,0.00012929,0.00048241,0.00053656,-0.00000312,-0.00006911,
 0.00000489,0.00004645,-0.00040782,0.00045574,-0.13629234,-0.03362441,-
 0.16776826,0.14714345,0.03391070,0.17698603,-0.00659270,0.00105781,0.0
 1255313,-0.00000196,-0.00002818,0.00000270,-0.00004085,-0.00023592,0.0
 0015286,-0.00008306,0.00005644,0.00004970,0.00132022,-0.00072833,-0.00
 046023,0.00028159,-0.00023455,-0.00115880,-0.00000659,0.00010529,0.000
 02599,-0.00061870,-0.00058035,0.00038680,-0.08433508,0.00035109,0.0950
 3525,0.01170060,0.00011096,-0.02385410,0.08655120,-0.01245403,-0.00216
 674,0.02951734,-0.00004124,-0.00000383,0.00002547,0.00002676,-0.000099
 61,0.00011691,-0.00010088,0.00006509,0.00008783,0.00140458,0.00200997,
 0.00059045,0.00087937,-0.00109856,-0.00163246,-0.00001901,0.00015608,0
 .00000108,-0.00055050,-0.00356329,-0.00016037,-0.00069043,-0.04288759,
 -0.00424062,0.00298575,-0.00137103,-0.00504165,0.00022944,0.04888012,0
 .00158203,0.00310142,-0.00482001,0.00000184,0.00000394,0.00001495,-0.0
 0026307,-0.00018550,-0.00014937,0.00001544,0.00000121,-0.00001302,-0.0
 0114910,-0.00231066,0.00027098,0.00019750,0.00126218,0.00042090,-0.000
 04746,-0.00010198,-0.00003867,0.00096395,0.00088567,0.00015183,0.09461
 255,-0.00684776,-0.28579570,0.00858270,-0.00043885,-0.01710756,-0.1042
 3072,0.00483682,0.30759490,0.01212604,-0.01303622,-0.00220175,0.000014
 61,-0.00003222,-0.00000859,-0.00019751,-0.00024547,-0.00001699,0.00005
 949,-0.00003996,-0.00006433,-0.00002021,-0.00056521,0.00067716,-0.0003
 7629,0.00109149,0.00018311,-0.00000745,0.00000260,-0.00006371,-0.00081
 977,-0.00073190,0.00115437,-0.17040507,0.13633746,0.00777629,-0.014823
 14,0.01741747,0.00338496,-0.00817467,0.00833019,-0.00026567,0.18262396
 ,0.01734162,-0.02370588,-0.00075481,-0.00001164,-0.00003122,-0.0000054
 1,0.00015769,-0.00010528,0.00022716,0.00008933,-0.00008014,-0.00010643
 ,0.00151957,0.00251589,0.00057656,-0.00223613,0.00056223,0.00077163,0.
 00015800,0.00010145,-0.00009843,-0.00188522,-0.00235646,0.00067952,0.1
 3889915,-0.19850863,-0.01260383,-0.00540044,0.00631698,0.00125548,-0.0
 0010370,0.00007940,-0.00020650,-0.14852822,0.21521166,-0.00432059,0.00
 777892,-0.00199622,-0.00001401,0.00000800,0.00002590,-0.00011705,-0.00
 017577,0.00001238,-0.00000763,0.00001050,-0.00001048,-0.00190185,-0.00
 098960,0.00109722,0.00053942,0.00021644,-0.00058304,-0.00001442,-0.000
 02835,0.00001640,0.00144741,0.00081410,-0.00085013,0.00702941,-0.01158
 166,-0.04408479,-0.01358326,0.01778314,0.00172375,0.02149741,-0.024100
 79,-0.00052921,-0.01055484,0.01026507,0.04517822\\0.00016616,0.0001415
 6,0.00006448,-0.00000506,-0.00001091,0.00000316,-0.00003266,-0.0000201
 0,-0.00001915,0.00001141,-0.00000617,0.00001685,-0.00007245,-0.0000394
 5,-0.00004183,-0.00002078,0.00004165,-0.00005459,0.00000302,-0.0000338
 5,0.00002960,-0.00002071,-0.00004062,0.00000627,0.00000649,-0.00004588
 ,0.00004739,-0.00001914,0.00000147,-0.00002058,-0.00000704,0.00000608,
 -0.00001474,-0.00000925,0.00000622,-0.00001687\\\@
 The archive entry for this job was punched.


 ACTORS ARE SO FORTUNATE.  THEY CAN CHOOSE WHETHER
 THEY WILL APPEAR IN A TRAGEDY OR IN COMEDY,
 WHETHER THEY WILL SUFFER OF MAKE MERRY,
 LAUGH OR SHED TEARS.  BUT IN REAL LIFE IT IS DIFFERENT.
 MOST MEN AND WOMEN ARE FORCED TO PERFORM
 PARTS FOR WHICH THEY HAVE NO QUALIFICATIONS.
 THE WORLD IS A STAGE, BUT THE PLAY IS BADLY CAST.

                                   -- OSCAR WILDE
 Job cpu time:       0 days  0 hours  3 minutes  0.1 seconds.
 Elapsed time:       0 days  0 hours  0 minutes 15.4 seconds.
 File lengths (MBytes):  RWF=     36 Int=      0 D2E=      0 Chk=      6 Scr=      1
 Normal termination of Gaussian 16 at Mon Dec 11 15:00:27 2023.
