Unloading slurm/anatra/current
  ERROR: No such file or directory on
    '/cm/local/modulefiles/slurm/anatra/current'
environment: line 0: unalias: gv: not found
environment: line 0: unalias: sl: not found
 Entering Gaussian System, Link 0=g16
 Initial command:
 /apps/gaussian/g16/C.01/g16/l1.exe "/local/jobs/1150442/Gau-3680864.inp" -scrdir="/local/jobs/1150442/"
 Entering Link 1 = /apps/gaussian/g16/C.01/g16/l1.exe PID=   3680867.
  
 Copyright (c) 1988-2019, Gaussian, Inc.  All Rights Reserved.
  
 This is part of the Gaussian(R) 16 program.  It is based on
 the Gaussian(R) 09 system (copyright 2009, Gaussian, Inc.),
 the Gaussian(R) 03 system (copyright 2003, Gaussian, Inc.),
 the Gaussian(R) 98 system (copyright 1998, Gaussian, Inc.),
 the Gaussian(R) 94 system (copyright 1995, Gaussian, Inc.),
 the Gaussian 92(TM) system (copyright 1992, Gaussian, Inc.),
 the Gaussian 90(TM) system (copyright 1990, Gaussian, Inc.),
 the Gaussian 88(TM) system (copyright 1988, Gaussian, Inc.),
 the Gaussian 86(TM) system (copyright 1986, Carnegie Mellon
 University), and the Gaussian 82(TM) system (copyright 1983,
 Carnegie Mellon University). Gaussian is a federally registered
 trademark of Gaussian, Inc.
  
 This software contains proprietary and confidential information,
 including trade secrets, belonging to Gaussian, Inc.
  
 This software is provided under written license and may be
 used, copied, transmitted, or stored only in accord with that
 written license.
  
 The following legend is applicable only to US Government
 contracts under FAR:
  
                    RESTRICTED RIGHTS LEGEND
  
 Use, reproduction and disclosure by the US Government is
 subject to restrictions as set forth in subparagraphs (a)
 and (c) of the Commercial Computer Software - Restricted
 Rights clause in FAR 52.227-19.
  
 Gaussian, Inc.
 340 Quinnipiac St., Bldg. 40, Wallingford CT 06492
  
  
 ---------------------------------------------------------------
 Warning -- This program may not be used in any manner that
 competes with the business of Gaussian, Inc. or will provide
 assistance to any competitor of Gaussian, Inc.  The licensee
 of this program is prohibited from giving any competitor of
 Gaussian, Inc. access to this program.  By using this program,
 the user acknowledges that Gaussian, Inc. is engaged in the
 business of creating and licensing software in the field of
 computational chemistry and represents and warrants to the
 licensee that it is not a competitor of Gaussian, Inc. and that
 it will not use this program in any manner prohibited above.
 ---------------------------------------------------------------
  

 Cite this work as:
 Gaussian 16, Revision C.01,
 M. J. Frisch, G. W. Trucks, H. B. Schlegel, G. E. Scuseria, 
 M. A. Robb, J. R. Cheeseman, G. Scalmani, V. Barone, 
 G. A. Petersson, H. Nakatsuji, X. Li, M. Caricato, A. V. Marenich, 
 J. Bloino, B. G. Janesko, R. Gomperts, B. Mennucci, H. P. Hratchian, 
 J. V. Ortiz, A. F. Izmaylov, J. L. Sonnenberg, D. Williams-Young, 
 F. Ding, F. Lipparini, F. Egidi, J. Goings, B. Peng, A. Petrone, 
 T. Henderson, D. Ranasinghe, V. G. Zakrzewski, J. Gao, N. Rega, 
 G. Zheng, W. Liang, M. Hada, M. Ehara, K. Toyota, R. Fukuda, 
 J. Hasegawa, M. Ishida, T. Nakajima, Y. Honda, O. Kitao, H. Nakai, 
 T. Vreven, K. Throssell, J. A. Montgomery, Jr., J. E. Peralta, 
 F. Ogliaro, M. J. Bearpark, J. J. Heyd, E. N. Brothers, K. N. Kudin, 
 V. N. Staroverov, T. A. Keith, R. Kobayashi, J. Normand, 
 K. Raghavachari, A. P. Rendell, J. C. Burant, S. S. Iyengar, 
 J. Tomasi, M. Cossi, J. M. Millam, M. Klene, C. Adamo, R. Cammi, 
 J. W. Ochterski, R. L. Martin, K. Morokuma, O. Farkas, 
 J. B. Foresman, and D. J. Fox, Gaussian, Inc., Wallingford CT, 2019.
 
 ******************************************
 Gaussian 16:  ES64L-G16RevC.01  3-Jul-2019
                18-Dec-2023 
 ******************************************
 %chk=gobel_OPLS3e_1_opt_freq.chk
 %nprocshared=12
 Will use up to   12 processors via shared memory.
 %mem=48GB
 ----------------------------------------------------------------------
 # m062x 6-31g(d) scrf=(iefpcm,solvent=benzene) opt=(maxcycles=50,maxst
 ep=10) freq=noraman
 ----------------------------------------------------------------------
 1/6=50,8=10,18=20,19=15,26=3,38=1/1,3;
 2/9=110,12=2,17=6,18=5,40=1/2;
 3/5=1,6=6,7=1,11=2,25=1,30=1,70=2201,71=1,72=12,74=-55/1,2,3;
 4//1;
 5/5=2,38=5,53=12/2;
 6/7=2,8=2,9=2,10=2,28=1/1;
 7//1,2,3,16;
 1/6=50,8=10,18=20,19=15,26=3/3(2);
 2/9=110/2;
 99//99;
 2/9=110/2;
 3/5=1,6=6,7=1,11=2,25=1,30=1,70=2205,71=1,72=12,74=-55/1,2,3;
 4/5=5,16=3,69=1/1;
 5/5=2,38=5,53=12/2;
 7//1,2,3,16;
 1/6=50,8=10,18=20,19=15,26=3/3(-5);
 2/9=110/2;
 6/7=2,8=2,9=2,10=2,19=2,28=1/1;
 99/9=1/99;
 -------------
 Structure1516
 -------------
 Symbolic Z-matrix:
 Charge =  1 Multiplicity = 1
 C                     7.1356    5.9363    3.9582 
 C                     7.6156    6.1606    5.2465 
 C                     6.9864    5.6129    6.367 
 C                     5.8532    4.816     6.1804 
 H                     7.6502    6.361     3.108 
 H                     8.5037    6.7616    5.3833 
 H                     5.3677    4.3771    7.04 
 C                     5.3301    4.5715    4.8869 
 C                     5.9813    5.1446    3.7566 
 C                     5.4577    4.9017    2.466 
 C                     4.3007    4.1393    2.2984 
 C                     3.6589    3.572     3.4063 
 C                     4.1817    3.7704    4.6859 
 H                     5.965     5.3088    1.6045 
 O                     3.7585    3.9615    1.0462 
 H                     3.7008    3.3171    5.5415 
 C                     0.2543    0.9722    3.0474 
 C                     1.5573    0.5106    2.9677 
 C                     2.6153    1.3959    3.0727 
 C                     2.4188    2.7666    3.2501 
 H                    -0.5646    0.2689    2.9765 
 H                     1.755    -0.5443    2.8315 
 H                     3.6236    1.0058    3.0178 
 C                     1.0672    3.3017    3.2948 
 C                    -0.0127    2.3522    3.2137 
 C                    -1.3552    2.7853    3.2993 
 C                    -1.6562    4.127     3.4598 
 C                    -0.643     5.0682    3.5159 
 C                     0.71      4.7077    3.4215 
 H                    -2.1528    2.0567    3.2408 
 H                    -2.6901    4.4408    3.5241 
 H                    -0.9393    6.1064    3.6115 
 C                     1.6669    5.8037    3.4179 
 N                     1.9411    6.3467    4.5821 
 H                     2.7402    6.9439    4.7094 
 N                     2.1982    6.2594    2.2885 
 H                     1.4968    5.9234    5.3811 
 H                     2.8884    6.9768    2.4181 
 C                     2.0262    5.7251    0.9172 
 C                     1.446     6.8174    0.0043 
 C                     3.3418    5.1326    0.342 
 H                     1.3048    4.902     0.9431 
 H                     2.1202    7.6686   -0.1035 
 H                     1.2527    6.4311   -0.9985 
 H                     0.494     7.1941    0.3823 
 H                     4.1335    5.8817    0.2862 
 H                     3.172     4.8171   -0.6892 
 C                     8.5221    6.3377    10.3351 
 C                     7.1877    6.6018    10.0432 
 C                     6.6898    6.3701    8.7632 
 C                     7.5181    5.867     7.7422 
 C                     8.865     5.6086    8.06 
 C                     9.3587    5.8411    9.341 
 H                     8.9081    6.5175    11.3289 
 H                     6.5493    6.989     10.8233 
 O                     5.3705    6.6667    8.5445 
 O                     9.7374    5.109     7.1321 
 H                     10.3931   5.6385    9.5768 
 H                     4.9784    7.0415    9.335 
 H                     10.5956   4.914     7.512 
 

 GradGradGradGradGradGradGradGradGradGradGradGradGradGradGradGradGradGrad
 Berny optimization.
 Initialization pass.
                           ----------------------------
                           !    Initial Parameters    !
                           ! (Angstroms and Degrees)  !
 --------------------------                            --------------------------
 ! Name  Definition              Value          Derivative Info.                !
 --------------------------------------------------------------------------------
 ! R1    R(1,2)                  1.393          estimate D2E/DX2                !
 ! R2    R(1,5)                  1.0808         estimate D2E/DX2                !
 ! R3    R(1,9)                  1.4142         estimate D2E/DX2                !
 ! R4    R(2,3)                  1.3969         estimate D2E/DX2                !
 ! R5    R(2,6)                  1.081          estimate D2E/DX2                !
 ! R6    R(3,4)                  1.3979         estimate D2E/DX2                !
 ! R7    R(3,51)                 1.4961         estimate D2E/DX2                !
 ! R8    R(4,7)                  1.0804         estimate D2E/DX2                !
 ! R9    R(4,8)                  1.4165         estimate D2E/DX2                !
 ! R10   R(8,9)                  1.4248         estimate D2E/DX2                !
 ! R11   R(8,13)                 1.4146         estimate D2E/DX2                !
 ! R12   R(9,10)                 1.4138         estimate D2E/DX2                !
 ! R13   R(10,11)                1.3957         estimate D2E/DX2                !
 ! R14   R(10,14)                1.0795         estimate D2E/DX2                !
 ! R15   R(11,12)                1.4004         estimate D2E/DX2                !
 ! R16   R(11,15)                1.3761         estimate D2E/DX2                !
 ! R17   R(12,13)                1.3964         estimate D2E/DX2                !
 ! R18   R(12,20)                1.4869         estimate D2E/DX2                !
 ! R19   R(13,16)                1.0811         estimate D2E/DX2                !
 ! R20   R(15,41)                1.4286         estimate D2E/DX2                !
 ! R21   R(17,18)                1.3846         estimate D2E/DX2                !
 ! R22   R(17,21)                1.0818         estimate D2E/DX2                !
 ! R23   R(17,25)                1.4154         estimate D2E/DX2                !
 ! R24   R(18,19)                1.3835         estimate D2E/DX2                !
 ! R25   R(18,22)                1.0819         estimate D2E/DX2                !
 ! R26   R(19,20)                1.396          estimate D2E/DX2                !
 ! R27   R(19,23)                1.0825         estimate D2E/DX2                !
 ! R28   R(20,24)                1.4544         estimate D2E/DX2                !
 ! R29   R(24,25)                1.4402         estimate D2E/DX2                !
 ! R30   R(24,29)                1.4562         estimate D2E/DX2                !
 ! R31   R(25,26)                1.4132         estimate D2E/DX2                !
 ! R32   R(26,27)                1.3844         estimate D2E/DX2                !
 ! R33   R(26,30)                1.0819         estimate D2E/DX2                !
 ! R34   R(27,28)                1.384          estimate D2E/DX2                !
 ! R35   R(27,31)                1.0824         estimate D2E/DX2                !
 ! R36   R(28,29)                1.4034         estimate D2E/DX2                !
 ! R37   R(28,32)                1.0839         estimate D2E/DX2                !
 ! R38   R(29,33)                1.455          estimate D2E/DX2                !
 ! R39   R(33,34)                1.3135         estimate D2E/DX2                !
 ! R40   R(33,36)                1.3287         estimate D2E/DX2                !
 ! R41   R(34,35)                1.0057         estimate D2E/DX2                !
 ! R42   R(34,37)                1.0075         estimate D2E/DX2                !
 ! R43   R(36,38)                1.0039         estimate D2E/DX2                !
 ! R44   R(36,39)                1.4817         estimate D2E/DX2                !
 ! R45   R(39,40)                1.5373         estimate D2E/DX2                !
 ! R46   R(39,41)                1.5533         estimate D2E/DX2                !
 ! R47   R(39,42)                1.0948         estimate D2E/DX2                !
 ! R48   R(40,43)                1.0912         estimate D2E/DX2                !
 ! R49   R(40,44)                1.0919         estimate D2E/DX2                !
 ! R50   R(40,45)                1.0914         estimate D2E/DX2                !
 ! R51   R(41,46)                1.0914         estimate D2E/DX2                !
 ! R52   R(41,47)                1.0917         estimate D2E/DX2                !
 ! R53   R(48,49)                1.3913         estimate D2E/DX2                !
 ! R54   R(48,53)                1.391          estimate D2E/DX2                !
 ! R55   R(48,54)                1.0812         estimate D2E/DX2                !
 ! R56   R(49,50)                1.3928         estimate D2E/DX2                !
 ! R57   R(49,55)                1.0798         estimate D2E/DX2                !
 ! R58   R(50,51)                1.4077         estimate D2E/DX2                !
 ! R59   R(50,56)                1.3698         estimate D2E/DX2                !
 ! R60   R(51,52)                1.4078         estimate D2E/DX2                !
 ! R61   R(52,53)                1.3924         estimate D2E/DX2                !
 ! R62   R(52,57)                1.3681         estimate D2E/DX2                !
 ! R63   R(53,58)                1.0801         estimate D2E/DX2                !
 ! R64   R(56,59)                0.9587         estimate D2E/DX2                !
 ! R65   R(57,60)                0.9586         estimate D2E/DX2                !
 ! A1    A(2,1,5)              120.0134         estimate D2E/DX2                !
 ! A2    A(2,1,9)              120.2155         estimate D2E/DX2                !
 ! A3    A(5,1,9)              119.7692         estimate D2E/DX2                !
 ! A4    A(1,2,3)              121.5672         estimate D2E/DX2                !
 ! A5    A(1,2,6)              119.3167         estimate D2E/DX2                !
 ! A6    A(3,2,6)              119.1109         estimate D2E/DX2                !
 ! A7    A(2,3,4)              118.7888         estimate D2E/DX2                !
 ! A8    A(2,3,51)             120.7052         estimate D2E/DX2                !
 ! A9    A(4,3,51)             120.5051         estimate D2E/DX2                !
 ! A10   A(3,4,7)              119.3192         estimate D2E/DX2                !
 ! A11   A(3,4,8)              121.3095         estimate D2E/DX2                !
 ! A12   A(7,4,8)              119.3713         estimate D2E/DX2                !
 ! A13   A(4,8,9)              119.0907         estimate D2E/DX2                !
 ! A14   A(4,8,13)             121.8233         estimate D2E/DX2                !
 ! A15   A(9,8,13)             119.0856         estimate D2E/DX2                !
 ! A16   A(1,9,8)              119.0224         estimate D2E/DX2                !
 ! A17   A(1,9,10)             121.9122         estimate D2E/DX2                !
 ! A18   A(8,9,10)             119.065          estimate D2E/DX2                !
 ! A19   A(9,10,11)            120.6958         estimate D2E/DX2                !
 ! A20   A(9,10,14)            119.3204         estimate D2E/DX2                !
 ! A21   A(11,10,14)           119.9832         estimate D2E/DX2                !
 ! A22   A(10,11,12)           120.4104         estimate D2E/DX2                !
 ! A23   A(10,11,15)           120.4297         estimate D2E/DX2                !
 ! A24   A(12,11,15)           119.1425         estimate D2E/DX2                !
 ! A25   A(11,12,13)           119.7222         estimate D2E/DX2                !
 ! A26   A(11,12,20)           121.2339         estimate D2E/DX2                !
 ! A27   A(13,12,20)           119.0421         estimate D2E/DX2                !
 ! A28   A(8,13,12)            120.9708         estimate D2E/DX2                !
 ! A29   A(8,13,16)            119.0862         estimate D2E/DX2                !
 ! A30   A(12,13,16)           119.9396         estimate D2E/DX2                !
 ! A31   A(11,15,41)           117.2293         estimate D2E/DX2                !
 ! A32   A(18,17,21)           119.4622         estimate D2E/DX2                !
 ! A33   A(18,17,25)           120.6182         estimate D2E/DX2                !
 ! A34   A(21,17,25)           119.9189         estimate D2E/DX2                !
 ! A35   A(17,18,19)           120.1281         estimate D2E/DX2                !
 ! A36   A(17,18,22)           120.2829         estimate D2E/DX2                !
 ! A37   A(19,18,22)           119.587          estimate D2E/DX2                !
 ! A38   A(18,19,20)           122.0245         estimate D2E/DX2                !
 ! A39   A(18,19,23)           118.5444         estimate D2E/DX2                !
 ! A40   A(20,19,23)           119.4308         estimate D2E/DX2                !
 ! A41   A(12,20,19)           115.3272         estimate D2E/DX2                !
 ! A42   A(12,20,24)           124.9291         estimate D2E/DX2                !
 ! A43   A(19,20,24)           119.7337         estimate D2E/DX2                !
 ! A44   A(20,24,25)           116.9063         estimate D2E/DX2                !
 ! A45   A(20,24,29)           125.8659         estimate D2E/DX2                !
 ! A46   A(25,24,29)           117.2269         estimate D2E/DX2                !
 ! A47   A(17,25,24)           120.5273         estimate D2E/DX2                !
 ! A48   A(17,25,26)           119.0199         estimate D2E/DX2                !
 ! A49   A(24,25,26)           120.4528         estimate D2E/DX2                !
 ! A50   A(25,26,27)           120.7024         estimate D2E/DX2                !
 ! A51   A(25,26,30)           119.3852         estimate D2E/DX2                !
 ! A52   A(27,26,30)           119.9122         estimate D2E/DX2                !
 ! A53   A(26,27,28)           120.3048         estimate D2E/DX2                !
 ! A54   A(26,27,31)           119.706          estimate D2E/DX2                !
 ! A55   A(28,27,31)           119.9805         estimate D2E/DX2                !
 ! A56   A(27,28,29)           121.8949         estimate D2E/DX2                !
 ! A57   A(27,28,32)           117.054          estimate D2E/DX2                !
 ! A58   A(29,28,32)           121.0337         estimate D2E/DX2                !
 ! A59   A(24,29,28)           119.365          estimate D2E/DX2                !
 ! A60   A(24,29,33)           124.4567         estimate D2E/DX2                !
 ! A61   A(28,29,33)           116.1508         estimate D2E/DX2                !
 ! A62   A(29,33,34)           116.5191         estimate D2E/DX2                !
 ! A63   A(29,33,36)           121.5629         estimate D2E/DX2                !
 ! A64   A(34,33,36)           121.8777         estimate D2E/DX2                !
 ! A65   A(33,34,35)           121.5695         estimate D2E/DX2                !
 ! A66   A(33,34,37)           115.9229         estimate D2E/DX2                !
 ! A67   A(35,34,37)           119.9689         estimate D2E/DX2                !
 ! A68   A(33,36,38)           114.2213         estimate D2E/DX2                !
 ! A69   A(33,36,39)           128.0653         estimate D2E/DX2                !
 ! A70   A(38,36,39)           117.1912         estimate D2E/DX2                !
 ! A71   A(36,39,40)           109.7055         estimate D2E/DX2                !
 ! A72   A(36,39,41)           112.454          estimate D2E/DX2                !
 ! A73   A(36,39,42)           109.0079         estimate D2E/DX2                !
 ! A74   A(40,39,41)           111.7651         estimate D2E/DX2                !
 ! A75   A(40,39,42)           107.4314         estimate D2E/DX2                !
 ! A76   A(41,39,42)           106.2649         estimate D2E/DX2                !
 ! A77   A(39,40,43)           112.3181         estimate D2E/DX2                !
 ! A78   A(39,40,44)           111.1513         estimate D2E/DX2                !
 ! A79   A(39,40,45)           111.6418         estimate D2E/DX2                !
 ! A80   A(43,40,44)           107.1354         estimate D2E/DX2                !
 ! A81   A(43,40,45)           107.6933         estimate D2E/DX2                !
 ! A82   A(44,40,45)           106.6059         estimate D2E/DX2                !
 ! A83   A(15,41,39)           112.16           estimate D2E/DX2                !
 ! A84   A(15,41,46)           112.1029         estimate D2E/DX2                !
 ! A85   A(15,41,47)           105.9067         estimate D2E/DX2                !
 ! A86   A(39,41,46)           111.81           estimate D2E/DX2                !
 ! A87   A(39,41,47)           109.1656         estimate D2E/DX2                !
 ! A88   A(46,41,47)           105.2428         estimate D2E/DX2                !
 ! A89   A(49,48,53)           119.6503         estimate D2E/DX2                !
 ! A90   A(49,48,54)           120.2459         estimate D2E/DX2                !
 ! A91   A(53,48,54)           120.1038         estimate D2E/DX2                !
 ! A92   A(48,49,50)           120.2717         estimate D2E/DX2                !
 ! A93   A(48,49,55)           118.9169         estimate D2E/DX2                !
 ! A94   A(50,49,55)           120.8114         estimate D2E/DX2                !
 ! A95   A(49,50,51)           121.041          estimate D2E/DX2                !
 ! A96   A(49,50,56)           117.0648         estimate D2E/DX2                !
 ! A97   A(51,50,56)           121.8905         estimate D2E/DX2                !
 ! A98   A(3,51,50)            121.2152         estimate D2E/DX2                !
 ! A99   A(3,51,52)            121.0862         estimate D2E/DX2                !
 ! A100  A(50,51,52)           117.6985         estimate D2E/DX2                !
 ! A101  A(51,52,53)           121.082          estimate D2E/DX2                !
 ! A102  A(51,52,57)           121.6016         estimate D2E/DX2                !
 ! A103  A(53,52,57)           117.3136         estimate D2E/DX2                !
 ! A104  A(48,53,52)           120.2564         estimate D2E/DX2                !
 ! A105  A(48,53,58)           119.1403         estimate D2E/DX2                !
 ! A106  A(52,53,58)           120.6033         estimate D2E/DX2                !
 ! A107  A(50,56,59)           110.2988         estimate D2E/DX2                !
 ! A108  A(52,57,60)           112.1104         estimate D2E/DX2                !
 ! D1    D(5,1,2,3)           -179.1403         estimate D2E/DX2                !
 ! D2    D(5,1,2,6)              0.0245         estimate D2E/DX2                !
 ! D3    D(9,1,2,3)              0.3529         estimate D2E/DX2                !
 ! D4    D(9,1,2,6)            179.5176         estimate D2E/DX2                !
 ! D5    D(2,1,9,8)             -0.6797         estimate D2E/DX2                !
 ! D6    D(2,1,9,10)           179.5412         estimate D2E/DX2                !
 ! D7    D(5,1,9,8)            178.8146         estimate D2E/DX2                !
 ! D8    D(5,1,9,10)            -0.9644         estimate D2E/DX2                !
 ! D9    D(1,2,3,4)              0.3639         estimate D2E/DX2                !
 ! D10   D(1,2,3,51)          -179.9653         estimate D2E/DX2                !
 ! D11   D(6,2,3,4)           -178.8026         estimate D2E/DX2                !
 ! D12   D(6,2,3,51)             0.8683         estimate D2E/DX2                !
 ! D13   D(2,3,4,7)            179.1759         estimate D2E/DX2                !
 ! D14   D(2,3,4,8)             -0.751          estimate D2E/DX2                !
 ! D15   D(51,3,4,7)            -0.4957         estimate D2E/DX2                !
 ! D16   D(51,3,4,8)           179.5774         estimate D2E/DX2                !
 ! D17   D(2,3,51,50)          126.9527         estimate D2E/DX2                !
 ! D18   D(2,3,51,52)          -53.1549         estimate D2E/DX2                !
 ! D19   D(4,3,51,50)          -53.3821         estimate D2E/DX2                !
 ! D20   D(4,3,51,52)          126.5103         estimate D2E/DX2                !
 ! D21   D(3,4,8,9)              0.42           estimate D2E/DX2                !
 ! D22   D(3,4,8,13)          -179.7967         estimate D2E/DX2                !
 ! D23   D(7,4,8,9)           -179.5069         estimate D2E/DX2                !
 ! D24   D(7,4,8,13)             0.2764         estimate D2E/DX2                !
 ! D25   D(4,8,9,1)              0.2989         estimate D2E/DX2                !
 ! D26   D(4,8,9,10)          -179.9156         estimate D2E/DX2                !
 ! D27   D(13,8,9,1)          -179.4904         estimate D2E/DX2                !
 ! D28   D(13,8,9,10)            0.2951         estimate D2E/DX2                !
 ! D29   D(4,8,13,12)          178.1655         estimate D2E/DX2                !
 ! D30   D(4,8,13,16)           -1.165          estimate D2E/DX2                !
 ! D31   D(9,8,13,12)           -2.0511         estimate D2E/DX2                !
 ! D32   D(9,8,13,16)          178.6183         estimate D2E/DX2                !
 ! D33   D(1,9,10,11)         -178.6568         estimate D2E/DX2                !
 ! D34   D(1,9,10,14)            1.635          estimate D2E/DX2                !
 ! D35   D(8,9,10,11)            1.5642         estimate D2E/DX2                !
 ! D36   D(8,9,10,14)         -178.144          estimate D2E/DX2                !
 ! D37   D(9,10,11,12)          -1.7069         estimate D2E/DX2                !
 ! D38   D(9,10,11,15)         176.766          estimate D2E/DX2                !
 ! D39   D(14,10,11,12)        177.9993         estimate D2E/DX2                !
 ! D40   D(14,10,11,15)         -3.5278         estimate D2E/DX2                !
 ! D41   D(10,11,12,13)         -0.0525         estimate D2E/DX2                !
 ! D42   D(10,11,12,20)        179.4586         estimate D2E/DX2                !
 ! D43   D(15,11,12,13)       -178.5449         estimate D2E/DX2                !
 ! D44   D(15,11,12,20)          0.9661         estimate D2E/DX2                !
 ! D45   D(10,11,15,41)        -60.4146         estimate D2E/DX2                !
 ! D46   D(12,11,15,41)        118.0775         estimate D2E/DX2                !
 ! D47   D(11,12,13,8)           1.9434         estimate D2E/DX2                !
 ! D48   D(11,12,13,16)       -178.7317         estimate D2E/DX2                !
 ! D49   D(20,12,13,8)        -177.5783         estimate D2E/DX2                !
 ! D50   D(20,12,13,16)          1.7465         estimate D2E/DX2                !
 ! D51   D(11,12,20,19)         90.8067         estimate D2E/DX2                !
 ! D52   D(11,12,20,24)        -90.3505         estimate D2E/DX2                !
 ! D53   D(13,12,20,19)        -89.679          estimate D2E/DX2                !
 ! D54   D(13,12,20,24)         89.1638         estimate D2E/DX2                !
 ! D55   D(11,15,41,39)        -74.135          estimate D2E/DX2                !
 ! D56   D(11,15,41,46)         52.6194         estimate D2E/DX2                !
 ! D57   D(11,15,41,47)        166.8745         estimate D2E/DX2                !
 ! D58   D(21,17,18,19)       -179.2281         estimate D2E/DX2                !
 ! D59   D(21,17,18,22)          0.2531         estimate D2E/DX2                !
 ! D60   D(25,17,18,19)          1.0794         estimate D2E/DX2                !
 ! D61   D(25,17,18,22)       -179.4394         estimate D2E/DX2                !
 ! D62   D(18,17,25,24)          0.3787         estimate D2E/DX2                !
 ! D63   D(18,17,25,26)       -179.6113         estimate D2E/DX2                !
 ! D64   D(21,17,25,24)       -179.3124         estimate D2E/DX2                !
 ! D65   D(21,17,25,26)          0.6975         estimate D2E/DX2                !
 ! D66   D(17,18,19,20)         -0.4727         estimate D2E/DX2                !
 ! D67   D(17,18,19,23)        179.3309         estimate D2E/DX2                !
 ! D68   D(22,18,19,20)       -179.9575         estimate D2E/DX2                !
 ! D69   D(22,18,19,23)         -0.1539         estimate D2E/DX2                !
 ! D70   D(18,19,20,12)        177.3386         estimate D2E/DX2                !
 ! D71   D(18,19,20,24)         -1.5689         estimate D2E/DX2                !
 ! D72   D(23,19,20,12)         -2.4634         estimate D2E/DX2                !
 ! D73   D(23,19,20,24)        178.6292         estimate D2E/DX2                !
 ! D74   D(12,20,24,25)       -175.9108         estimate D2E/DX2                !
 ! D75   D(12,20,24,29)          3.7209         estimate D2E/DX2                !
 ! D76   D(19,20,24,25)          2.8846         estimate D2E/DX2                !
 ! D77   D(19,20,24,29)       -177.4836         estimate D2E/DX2                !
 ! D78   D(20,24,25,17)         -2.3125         estimate D2E/DX2                !
 ! D79   D(20,24,25,26)        177.6774         estimate D2E/DX2                !
 ! D80   D(29,24,25,17)        178.0231         estimate D2E/DX2                !
 ! D81   D(29,24,25,26)         -1.987          estimate D2E/DX2                !
 ! D82   D(20,24,29,28)       -176.9396         estimate D2E/DX2                !
 ! D83   D(20,24,29,33)          5.0454         estimate D2E/DX2                !
 ! D84   D(25,24,29,28)          2.6911         estimate D2E/DX2                !
 ! D85   D(25,24,29,33)       -175.3239         estimate D2E/DX2                !
 ! D86   D(17,25,26,27)       -179.8908         estimate D2E/DX2                !
 ! D87   D(17,25,26,30)          0.265          estimate D2E/DX2                !
 ! D88   D(24,25,26,27)          0.1191         estimate D2E/DX2                !
 ! D89   D(24,25,26,30)       -179.7251         estimate D2E/DX2                !
 ! D90   D(25,26,27,28)          1.1083         estimate D2E/DX2                !
 ! D91   D(25,26,27,31)       -179.9626         estimate D2E/DX2                !
 ! D92   D(30,26,27,28)       -179.0484         estimate D2E/DX2                !
 ! D93   D(30,26,27,31)         -0.1192         estimate D2E/DX2                !
 ! D94   D(26,27,28,29)         -0.3543         estimate D2E/DX2                !
 ! D95   D(26,27,28,32)        178.1419         estimate D2E/DX2                !
 ! D96   D(31,27,28,29)       -179.2805         estimate D2E/DX2                !
 ! D97   D(31,27,28,32)         -0.7843         estimate D2E/DX2                !
 ! D98   D(27,28,29,24)         -1.5905         estimate D2E/DX2                !
 ! D99   D(27,28,29,33)        176.5862         estimate D2E/DX2                !
 ! D100  D(32,28,29,24)        179.9726         estimate D2E/DX2                !
 ! D101  D(32,28,29,33)         -1.8508         estimate D2E/DX2                !
 ! D102  D(24,29,33,34)       -103.5154         estimate D2E/DX2                !
 ! D103  D(24,29,33,36)         78.7513         estimate D2E/DX2                !
 ! D104  D(28,29,33,34)         78.4119         estimate D2E/DX2                !
 ! D105  D(28,29,33,36)        -99.3214         estimate D2E/DX2                !
 ! D106  D(29,33,34,35)        164.8402         estimate D2E/DX2                !
 ! D107  D(29,33,34,37)          2.9315         estimate D2E/DX2                !
 ! D108  D(36,33,34,35)        -17.4343         estimate D2E/DX2                !
 ! D109  D(36,33,34,37)       -179.3429         estimate D2E/DX2                !
 ! D110  D(29,33,36,38)       -176.2655         estimate D2E/DX2                !
 ! D111  D(29,33,36,39)         -4.8731         estimate D2E/DX2                !
 ! D112  D(34,33,36,38)          6.1231         estimate D2E/DX2                !
 ! D113  D(34,33,36,39)        177.5155         estimate D2E/DX2                !
 ! D114  D(33,36,39,40)        121.7155         estimate D2E/DX2                !
 ! D115  D(33,36,39,41)       -113.2412         estimate D2E/DX2                !
 ! D116  D(33,36,39,42)          4.333          estimate D2E/DX2                !
 ! D117  D(38,36,39,40)        -67.1113         estimate D2E/DX2                !
 ! D118  D(38,36,39,41)         57.932          estimate D2E/DX2                !
 ! D119  D(38,36,39,42)        175.5061         estimate D2E/DX2                !
 ! D120  D(36,39,40,43)         63.4248         estimate D2E/DX2                !
 ! D121  D(36,39,40,44)       -176.5542         estimate D2E/DX2                !
 ! D122  D(36,39,40,45)        -57.661          estimate D2E/DX2                !
 ! D123  D(41,39,40,43)        -62.0146         estimate D2E/DX2                !
 ! D124  D(41,39,40,44)         58.0063         estimate D2E/DX2                !
 ! D125  D(41,39,40,45)        176.8995         estimate D2E/DX2                !
 ! D126  D(42,39,40,43)       -178.2114         estimate D2E/DX2                !
 ! D127  D(42,39,40,44)        -58.1905         estimate D2E/DX2                !
 ! D128  D(42,39,40,45)         60.7027         estimate D2E/DX2                !
 ! D129  D(36,39,41,15)         66.7028         estimate D2E/DX2                !
 ! D130  D(36,39,41,46)        -60.2092         estimate D2E/DX2                !
 ! D131  D(36,39,41,47)       -176.2418         estimate D2E/DX2                !
 ! D132  D(40,39,41,15)       -169.3895         estimate D2E/DX2                !
 ! D133  D(40,39,41,46)         63.6985         estimate D2E/DX2                !
 ! D134  D(40,39,41,47)        -52.3341         estimate D2E/DX2                !
 ! D135  D(42,39,41,15)        -52.4856         estimate D2E/DX2                !
 ! D136  D(42,39,41,46)       -179.3977         estimate D2E/DX2                !
 ! D137  D(42,39,41,47)         64.5698         estimate D2E/DX2                !
 ! D138  D(53,48,49,50)          0.0406         estimate D2E/DX2                !
 ! D139  D(53,48,49,55)       -179.8754         estimate D2E/DX2                !
 ! D140  D(54,48,49,50)       -179.9861         estimate D2E/DX2                !
 ! D141  D(54,48,49,55)          0.0978         estimate D2E/DX2                !
 ! D142  D(49,48,53,52)         -0.0152         estimate D2E/DX2                !
 ! D143  D(49,48,53,58)       -179.9686         estimate D2E/DX2                !
 ! D144  D(54,48,53,52)       -179.9885         estimate D2E/DX2                !
 ! D145  D(54,48,53,58)          0.0581         estimate D2E/DX2                !
 ! D146  D(48,49,50,51)          0.0067         estimate D2E/DX2                !
 ! D147  D(48,49,50,56)       -179.308          estimate D2E/DX2                !
 ! D148  D(55,49,50,51)        179.9212         estimate D2E/DX2                !
 ! D149  D(55,49,50,56)          0.6065         estimate D2E/DX2                !
 ! D150  D(49,50,51,3)         179.819          estimate D2E/DX2                !
 ! D151  D(49,50,51,52)         -0.0769         estimate D2E/DX2                !
 ! D152  D(56,50,51,3)          -0.8997         estimate D2E/DX2                !
 ! D153  D(56,50,51,52)        179.2043         estimate D2E/DX2                !
 ! D154  D(49,50,56,59)          2.4388         estimate D2E/DX2                !
 ! D155  D(51,50,56,59)       -176.8696         estimate D2E/DX2                !
 ! D156  D(3,51,52,53)        -179.7936         estimate D2E/DX2                !
 ! D157  D(3,51,52,57)          -0.4213         estimate D2E/DX2                !
 ! D158  D(50,51,52,53)          0.1025         estimate D2E/DX2                !
 ! D159  D(50,51,52,57)        179.4748         estimate D2E/DX2                !
 ! D160  D(51,52,53,48)         -0.058          estimate D2E/DX2                !
 ! D161  D(51,52,53,58)        179.8946         estimate D2E/DX2                !
 ! D162  D(57,52,53,48)       -179.4564         estimate D2E/DX2                !
 ! D163  D(57,52,53,58)          0.4963         estimate D2E/DX2                !
 ! D164  D(51,52,57,60)       -175.0484         estimate D2E/DX2                !
 ! D165  D(53,52,57,60)          4.3466         estimate D2E/DX2                !
 --------------------------------------------------------------------------------
 Trust Radius=1.00D-01 FncErr=1.00D-07 GrdErr=1.00D-06 EigMax=2.50D+02 EigMin=1.00D-04
 Number of steps in this run=     50 maximum allowed number of steps=    360.
 GradGradGradGradGradGradGradGradGradGradGradGradGradGradGradGradGradGrad

 Stoichiometry    C30H25N2O3(1+)
 Framework group  C1[X(C30H25N2O3)]
 Deg. of freedom   174
 Full point group                 C1      NOp   1
 Largest Abelian subgroup         C1      NOp   1
 Largest concise Abelian subgroup C1      NOp   1
                         Standard orientation:                         
 ---------------------------------------------------------------------
 Center     Atomic      Atomic             Coordinates (Angstroms)
 Number     Number       Type             X           Y           Z
 ---------------------------------------------------------------------
      1          6           0       -2.272060    2.462028    0.199182
      2          6           0       -3.478059    1.792278    0.005719
      3          6           0       -3.569053    0.402824    0.117627
      4          6           0       -2.418738   -0.323418    0.439123
      5          1           0       -2.233154    3.539180    0.120109
      6          1           0       -4.368456    2.360883   -0.223452
      7          1           0       -2.482205   -1.397123    0.541036
      8          6           0       -1.172434    0.320625    0.635314
      9          6           0       -1.097749    1.737935    0.509867
     10          6           0        0.146787    2.379995    0.704019
     11          6           0        1.295605    1.637875    0.982348
     12          6           0        1.226300    0.244921    1.109055
     13          6           0       -0.000830   -0.403940    0.956768
     14          1           0        0.202128    3.456134    0.639764
     15          8           0        2.515877    2.262016    1.104744
     16          1           0       -0.062062   -1.476914    1.074141
     17          6           0        4.604510   -2.162642    2.236180
     18          6           0        3.773574   -1.560960    3.166105
     19          6           0        2.710346   -0.781773    2.745914
     20          6           0        2.440554   -0.564767    1.393501
     21          1           0        5.425147   -2.779853    2.576561
     22          1           0        3.945909   -1.703454    4.224616
     23          1           0        2.070591   -0.332467    3.494712
     24          6           0        3.313166   -1.140522    0.382458
     25          6           0        4.392696   -1.971473    0.849842
     26          6           0        5.256256   -2.608348   -0.069866
     27          6           0        5.082324   -2.443636   -1.433368
     28          6           0        4.070425   -1.631600   -1.915278
     29          6           0        3.187984   -0.957952   -1.056805
     30          1           0        6.058879   -3.232321    0.300134
     31          1           0        5.752828   -2.939472   -2.123387
     32          1           0        4.001308   -1.515722   -2.990726
     33          6           0        2.220451   -0.077647   -1.693854
     34          7           0        1.174411   -0.653836   -2.240847
     35          1           0        0.357932   -0.126565   -2.499231
     36          7           0        2.411599    1.235693   -1.757768
     37          1           0        1.113610   -1.653273   -2.129425
     38          1           0        1.648851    1.743431   -2.167954
     39          6           0        3.505962    2.030157   -1.152192
     40          6           0        4.259771    2.796291   -2.251259
     41          6           0        2.999992    2.979592   -0.031798
     42          1           0        4.220393    1.349552   -0.677907
     43          1           0        3.625059    3.524782   -2.758359
     44          1           0        5.110049    3.342756   -1.838218
     45          1           0        4.661166    2.121504   -3.009307
     46          1           0        2.267554    3.696086   -0.407596
     47          1           0        3.834041    3.584383    0.329222
     48          6           0       -7.334545   -1.618183   -0.487461
     49          6           0       -6.206657   -2.014145   -1.199263
     50          6           0       -4.990579   -1.362866   -1.006963
     51          6           0       -4.874301   -0.296885   -0.094934
     52          6           0       -6.028855    0.087531    0.612976
     53          6           0       -7.242557   -0.566496    0.418209
     54          1           0       -8.278262   -2.124177   -0.636897
     55          1           0       -6.291953   -2.830622   -1.900778
     56          8           0       -3.926476   -1.796747   -1.752472
     57          8           0       -6.003973    1.105867    1.526240
     58          1           0       -8.123214   -0.266242    0.966772
     59          1           0       -4.201388   -2.494177   -2.350069
     60          1           0       -6.841965    1.202809    1.981463
 ---------------------------------------------------------------------
 Rotational constants (GHZ):           0.2285601           0.0620179           0.0592231
 Standard basis: 6-31G(d) (6D, 7F)
 There are   575 symmetry adapted cartesian basis functions of A   symmetry.
 There are   575 symmetry adapted basis functions of A   symmetry.
   575 basis functions,  1080 primitive gaussians,   575 cartesian basis functions
   121 alpha electrons      121 beta electrons
       nuclear repulsion energy      3540.9331006783 Hartrees.
 NAtoms=   60 NActive=   60 NUniq=   60 SFac= 1.00D+00 NAtFMM=   60 NAOKFM=T Big=T
 Integral buffers will be    131072 words long.
 Raffenetti 2 integral format.
 Two-electron integral symmetry is turned on.
 ------------------------------------------------------------------------------
 Polarizable Continuum Model (PCM)
 =================================
 Model                : PCM.
 Atomic radii         : UFF (Universal Force Field).
 Polarization charges : Total charges.
 Charge compensation  : None.
 Solution method      : On-the-fly selection.
 Cavity type          : Scaled VdW (van der Waals Surface) (Alpha=1.100).
 Cavity algorithm     : GePol (No added spheres)
                        Default sphere list used, NSphG=   60.
                        Lebedev-Laikov grids with approx.  5.0 points / Ang**2.
                        Smoothing algorithm: York/Karplus (Gamma=1.0000).
                        Polarization charges: spherical gaussians, with
                                              point-specific exponents (IZeta= 3).
                        Self-potential: point-specific (ISelfS= 7).
                        Self-field    : sphere-specific E.n sum rule (ISelfD= 2).
 1st derivatives      : Analytical E(r).r(x)/FMM algorithm (CHGder, D1EAlg=3).
                        Cavity 1st derivative terms included.
 Solvent              : Benzene, Eps=   2.270600 Eps(inf)=   2.253301
 ------------------------------------------------------------------------------
 One-electron integrals computed using PRISM.
 NBasis=   575 RedAO= T EigKep=  2.45D-04  NBF=   575
 NBsUse=   575 1.00D-06 EigRej= -1.00D+00 NBFU=   575
 ExpMin= 1.61D-01 ExpMax= 5.48D+03 ExpMxC= 8.25D+02 IAcc=3 IRadAn=         5 AccDes= 0.00D+00
 Harris functional with IExCor= 1009 and IRadAn=       5 diagonalized for initial guess.
 HarFok:  IExCor= 1009 AccDes= 0.00D+00 IRadAn=         5 IDoV= 1 UseB2=F ITyADJ=14
 ICtDFT=  3500011 ScaDFX=  1.000000  1.000000  1.000000  1.000000
 FoFCou: FMM=F IPFlag=           0 FMFlag=      100000 FMFlg1=        2001
         NFxFlg=           0 DoJE=T BraDBF=F KetDBF=T FulRan=T
         wScrn=  0.000000 ICntrl=       500 IOpCl=  0 I1Cent=   200000004 NGrid=           0
         NMat0=    1 NMatS0=      1 NMatT0=    0 NMatD0=    1 NMtDS0=    0 NMtDT0=    0
 Petite list used in FoFCou.
 Requested convergence on RMS density matrix=1.00D-08 within 128 cycles.
 Requested convergence on MAX density matrix=1.00D-06.
 Requested convergence on             energy=1.00D-06.
 No special actions if energy rises.
 Inv3:  Mode=1 IEnd=    50135232.
 Iteration    1 A*A^-1 deviation from unit magnitude is 3.44D-15 for   2050.
 Iteration    1 A*A^-1 deviation from orthogonality  is 2.22D-15 for   2927    224.
 Iteration    1 A^-1*A deviation from unit magnitude is 3.33D-15 for   2050.
 Iteration    1 A^-1*A deviation from orthogonality  is 2.22D-15 for   2861   1326.
 Error on total polarization charges =  0.02795
 SCF Done:  E(RM062X) =  -1492.65944898     A.U. after   14 cycles
            NFock= 14  Conv=0.59D-08     -V/T= 2.0087

 **********************************************************************

            Population analysis using the SCF Density.

 **********************************************************************

 Orbital symmetries:
       Occupied  (A) (A) (A) (A) (A) (A) (A) (A) (A) (A) (A) (A)
                 (A) (A) (A) (A) (A) (A) (A) (A) (A) (A) (A) (A)
                 (A) (A) (A) (A) (A) (A) (A) (A) (A) (A) (A) (A)
                 (A) (A) (A) (A) (A) (A) (A) (A) (A) (A) (A) (A)
                 (A) (A) (A) (A) (A) (A) (A) (A) (A) (A) (A) (A)
                 (A) (A) (A) (A) (A) (A) (A) (A) (A) (A) (A) (A)
                 (A) (A) (A) (A) (A) (A) (A) (A) (A) (A) (A) (A)
                 (A) (A) (A) (A) (A) (A) (A) (A) (A) (A) (A) (A)
                 (A) (A) (A) (A) (A) (A) (A) (A) (A) (A) (A) (A)
                 (A) (A) (A) (A) (A) (A) (A) (A) (A) (A) (A) (A)
                 (A)
       Virtual   (A) (A) (A) (A) (A) (A) (A) (A) (A) (A) (A) (A)
                 (A) (A) (A) (A) (A) (A) (A) (A) (A) (A) (A) (A)
                 (A) (A) (A) (A) (A) (A) (A) (A) (A) (A) (A) (A)
                 (A) (A) (A) (A) (A) (A) (A) (A) (A) (A) (A) (A)
                 (A) (A) (A) (A) (A) (A) (A) (A) (A) (A) (A) (A)
                 (A) (A) (A) (A) (A) (A) (A) (A) (A) (A) (A) (A)
                 (A) (A) (A) (A) (A) (A) (A) (A) (A) (A) (A) (A)
                 (A) (A) (A) (A) (A) (A) (A) (A) (A) (A) (A) (A)
                 (A) (A) (A) (A) (A) (A) (A) (A) (A) (A) (A) (A)
                 (A) (A) (A) (A) (A) (A) (A) (A) (A) (A) (A) (A)
                 (A) (A) (A) (A) (A) (A) (A) (A) (A) (A) (A) (A)
                 (A) (A) (A) (A) (A) (A) (A) (A) (A) (A) (A) (A)
                 (A) (A) (A) (A) (A) (A) (A) (A) (A) (A) (A) (A)
                 (A) (A) (A) (A) (A) (A) (A) (A) (A) (A) (A) (A)
                 (A) (A) (A) (A) (A) (A) (A) (A) (A) (A) (A) (A)
                 (A) (A) (A) (A) (A) (A) (A) (A) (A) (A) (A) (A)
                 (A) (A) (A) (A) (A) (A) (A) (A) (A) (A) (A) (A)
                 (A) (A) (A) (A) (A) (A) (A) (A) (A) (A) (A) (A)
                 (A) (A) (A) (A) (A) (A) (A) (A) (A) (A) (A) (A)
                 (A) (A) (A) (A) (A) (A) (A) (A) (A) (A) (A) (A)
                 (A) (A) (A) (A) (A) (A) (A) (A) (A) (A) (A) (A)
                 (A) (A) (A) (A) (A) (A) (A) (A) (A) (A) (A) (A)
                 (A) (A) (A) (A) (A) (A) (A) (A) (A) (A) (A) (A)
                 (A) (A) (A) (A) (A) (A) (A) (A) (A) (A) (A) (A)
                 (A) (A) (A) (A) (A) (A) (A) (A) (A) (A) (A) (A)
                 (A) (A) (A) (A) (A) (A) (A) (A) (A) (A) (A) (A)
                 (A) (A) (A) (A) (A) (A) (A) (A) (A) (A) (A) (A)
                 (A) (A) (A) (A) (A) (A) (A) (A) (A) (A) (A) (A)
                 (A) (A) (A) (A) (A) (A) (A) (A) (A) (A) (A) (A)
                 (A) (A) (A) (A) (A) (A) (A) (A) (A) (A) (A) (A)
                 (A) (A) (A) (A) (A) (A) (A) (A) (A) (A) (A) (A)
                 (A) (A) (A) (A) (A) (A) (A) (A) (A) (A) (A) (A)
                 (A) (A) (A) (A) (A) (A) (A) (A) (A) (A) (A) (A)
                 (A) (A) (A) (A) (A) (A) (A) (A) (A) (A) (A) (A)
                 (A) (A) (A) (A) (A) (A) (A) (A) (A) (A) (A) (A)
                 (A) (A) (A) (A) (A) (A) (A) (A) (A) (A) (A) (A)
                 (A) (A) (A) (A) (A) (A) (A) (A) (A) (A) (A) (A)
                 (A) (A) (A) (A) (A) (A) (A) (A) (A) (A)
 The electronic state is 1-A.
 Alpha  occ. eigenvalues --  -19.71259 -19.70016 -19.69462 -14.89983 -14.89176
 Alpha  occ. eigenvalues --  -10.76109 -10.67067 -10.66355 -10.65718 -10.64966
 Alpha  occ. eigenvalues --  -10.64840 -10.64456 -10.64030 -10.62825 -10.62098
 Alpha  occ. eigenvalues --  -10.61989 -10.61498 -10.60939 -10.60787 -10.60458
 Alpha  occ. eigenvalues --  -10.60341 -10.60272 -10.60074 -10.60034 -10.60031
 Alpha  occ. eigenvalues --  -10.59891 -10.59691 -10.59640 -10.59179 -10.58984
 Alpha  occ. eigenvalues --  -10.58897 -10.58693 -10.58362 -10.57168 -10.57047
 Alpha  occ. eigenvalues --   -1.23110  -1.21396  -1.20818  -1.20549  -1.11178
 Alpha  occ. eigenvalues --   -1.04226  -1.02425  -0.99298  -0.98488  -0.97093
 Alpha  occ. eigenvalues --   -0.95029  -0.94311  -0.91850  -0.90294  -0.89794
 Alpha  occ. eigenvalues --   -0.88637  -0.85997  -0.85856  -0.84866  -0.82818
 Alpha  occ. eigenvalues --   -0.82425  -0.79322  -0.77559  -0.75515  -0.75233
 Alpha  occ. eigenvalues --   -0.74679  -0.74117  -0.73764  -0.72713  -0.71642
 Alpha  occ. eigenvalues --   -0.69920  -0.69315  -0.67723  -0.65269  -0.64704
 Alpha  occ. eigenvalues --   -0.64454  -0.63617  -0.63125  -0.62075  -0.61060
 Alpha  occ. eigenvalues --   -0.60911  -0.60621  -0.58572  -0.58163  -0.57626
 Alpha  occ. eigenvalues --   -0.56795  -0.56631  -0.56120  -0.55799  -0.55375
 Alpha  occ. eigenvalues --   -0.53993  -0.53574  -0.53338  -0.52933  -0.52245
 Alpha  occ. eigenvalues --   -0.51846  -0.51702  -0.51528  -0.51030  -0.50676
 Alpha  occ. eigenvalues --   -0.50391  -0.49764  -0.49352  -0.49110  -0.48091
 Alpha  occ. eigenvalues --   -0.47738  -0.47471  -0.46144  -0.45808  -0.45009
 Alpha  occ. eigenvalues --   -0.44793  -0.44652  -0.43682  -0.42641  -0.42185
 Alpha  occ. eigenvalues --   -0.41646  -0.41194  -0.39847  -0.39459  -0.37930
 Alpha  occ. eigenvalues --   -0.35444  -0.33623  -0.31658  -0.31386  -0.29814
 Alpha  occ. eigenvalues --   -0.28861
 Alpha virt. eigenvalues --   -0.08006  -0.06363  -0.05216  -0.03393  -0.01854
 Alpha virt. eigenvalues --    0.00145   0.01323   0.02385   0.02792   0.03786
 Alpha virt. eigenvalues --    0.07082   0.08235   0.08506   0.08758   0.09361
 Alpha virt. eigenvalues --    0.09719   0.10422   0.10683   0.11238   0.11442
 Alpha virt. eigenvalues --    0.11873   0.12280   0.13129   0.13682   0.14395
 Alpha virt. eigenvalues --    0.14984   0.15158   0.16343   0.17561   0.17776
 Alpha virt. eigenvalues --    0.17868   0.18199   0.18349   0.18914   0.19129
 Alpha virt. eigenvalues --    0.19305   0.19833   0.20256   0.20623   0.20709
 Alpha virt. eigenvalues --    0.21014   0.21462   0.21941   0.22280   0.23599
 Alpha virt. eigenvalues --    0.25567   0.25807   0.26428   0.26777   0.27887
 Alpha virt. eigenvalues --    0.28033   0.28464   0.28627   0.29681   0.29983
 Alpha virt. eigenvalues --    0.31965   0.32900   0.33302   0.34117   0.34587
 Alpha virt. eigenvalues --    0.34908   0.36378   0.36878   0.37148   0.38985
 Alpha virt. eigenvalues --    0.39715   0.39841   0.40792   0.41212   0.42593
 Alpha virt. eigenvalues --    0.44456   0.46184   0.46784   0.48094   0.48490
 Alpha virt. eigenvalues --    0.48795   0.49350   0.49729   0.50759   0.51229
 Alpha virt. eigenvalues --    0.51812   0.52514   0.52806   0.52832   0.53238
 Alpha virt. eigenvalues --    0.53724   0.54185   0.54303   0.54575   0.55242
 Alpha virt. eigenvalues --    0.55854   0.55874   0.56343   0.56882   0.57360
 Alpha virt. eigenvalues --    0.57838   0.58072   0.58258   0.58606   0.59121
 Alpha virt. eigenvalues --    0.59449   0.60026   0.60285   0.60628   0.60769
 Alpha virt. eigenvalues --    0.61069   0.61136   0.61808   0.61971   0.62175
 Alpha virt. eigenvalues --    0.62630   0.62719   0.63032   0.63579   0.63640
 Alpha virt. eigenvalues --    0.63982   0.64516   0.64768   0.65293   0.65703
 Alpha virt. eigenvalues --    0.66210   0.67495   0.67855   0.68586   0.69127
 Alpha virt. eigenvalues --    0.70199   0.70429   0.70689   0.71627   0.71935
 Alpha virt. eigenvalues --    0.72885   0.73182   0.75940   0.77076   0.77812
 Alpha virt. eigenvalues --    0.78801   0.79525   0.80179   0.80350   0.80767
 Alpha virt. eigenvalues --    0.81265   0.82208   0.82507   0.83613   0.83789
 Alpha virt. eigenvalues --    0.84289   0.84645   0.84925   0.85210   0.85649
 Alpha virt. eigenvalues --    0.85900   0.86073   0.86601   0.87287   0.87443
 Alpha virt. eigenvalues --    0.87526   0.88157   0.88214   0.88669   0.89008
 Alpha virt. eigenvalues --    0.89340   0.90335   0.90525   0.91206   0.91639
 Alpha virt. eigenvalues --    0.91681   0.92049   0.92901   0.93156   0.93792
 Alpha virt. eigenvalues --    0.94159   0.94400   0.95075   0.95493   0.96650
 Alpha virt. eigenvalues --    0.97507   0.98531   0.98718   0.98951   0.99673
 Alpha virt. eigenvalues --    1.00042   1.00640   1.01574   1.02017   1.02471
 Alpha virt. eigenvalues --    1.02612   1.03532   1.04132   1.04245   1.06745
 Alpha virt. eigenvalues --    1.07429   1.07520   1.07647   1.08506   1.09350
 Alpha virt. eigenvalues --    1.10477   1.11764   1.12766   1.13156   1.14614
 Alpha virt. eigenvalues --    1.15512   1.16322   1.16459   1.17591   1.17823
 Alpha virt. eigenvalues --    1.19731   1.20042   1.20298   1.21332   1.21880
 Alpha virt. eigenvalues --    1.22892   1.23535   1.24347   1.25338   1.25727
 Alpha virt. eigenvalues --    1.27168   1.28001   1.28585   1.29886   1.30833
 Alpha virt. eigenvalues --    1.31870   1.32759   1.33641   1.34089   1.35824
 Alpha virt. eigenvalues --    1.36532   1.37985   1.38329   1.38800   1.39373
 Alpha virt. eigenvalues --    1.40048   1.40467   1.41022   1.41817   1.42462
 Alpha virt. eigenvalues --    1.42896   1.43925   1.44380   1.46169   1.46590
 Alpha virt. eigenvalues --    1.47188   1.48066   1.48373   1.49006   1.49110
 Alpha virt. eigenvalues --    1.49646   1.50078   1.50206   1.50883   1.51625
 Alpha virt. eigenvalues --    1.51827   1.52646   1.53834   1.53998   1.57699
 Alpha virt. eigenvalues --    1.59183   1.60565   1.61300   1.65054   1.66388
 Alpha virt. eigenvalues --    1.67354   1.69100   1.70827   1.72269   1.72966
 Alpha virt. eigenvalues --    1.73689   1.74388   1.75449   1.75711   1.76124
 Alpha virt. eigenvalues --    1.76592   1.77058   1.77274   1.78363   1.79253
 Alpha virt. eigenvalues --    1.79560   1.79955   1.81271   1.81663   1.82577
 Alpha virt. eigenvalues --    1.84293   1.84602   1.86150   1.86475   1.86968
 Alpha virt. eigenvalues --    1.87256   1.88132   1.88324   1.90315   1.90406
 Alpha virt. eigenvalues --    1.91182   1.91470   1.92525   1.92671   1.93607
 Alpha virt. eigenvalues --    1.94051   1.94823   1.94893   1.95567   1.96023
 Alpha virt. eigenvalues --    1.96309   1.96738   1.97348   1.97761   1.98146
 Alpha virt. eigenvalues --    1.98730   1.99626   1.99950   2.01029   2.01745
 Alpha virt. eigenvalues --    2.02261   2.04358   2.04990   2.07665   2.07827
 Alpha virt. eigenvalues --    2.08719   2.10393   2.11960   2.12278   2.12892
 Alpha virt. eigenvalues --    2.13186   2.13288   2.13982   2.14792   2.16079
 Alpha virt. eigenvalues --    2.16495   2.17819   2.18638   2.20147   2.20594
 Alpha virt. eigenvalues --    2.21582   2.22573   2.23009   2.23436   2.24413
 Alpha virt. eigenvalues --    2.26300   2.27004   2.27403   2.28107   2.28528
 Alpha virt. eigenvalues --    2.29267   2.29590   2.30353   2.31096   2.31349
 Alpha virt. eigenvalues --    2.31952   2.32961   2.33314   2.33839   2.34362
 Alpha virt. eigenvalues --    2.35358   2.35976   2.36404   2.37517   2.38024
 Alpha virt. eigenvalues --    2.39247   2.40207   2.43140   2.43521   2.44056
 Alpha virt. eigenvalues --    2.45882   2.47418   2.47866   2.48564   2.52211
 Alpha virt. eigenvalues --    2.53795   2.54511   2.55335   2.55720   2.57484
 Alpha virt. eigenvalues --    2.57946   2.59024   2.59727   2.60594   2.61294
 Alpha virt. eigenvalues --    2.61658   2.62497   2.63555   2.64162   2.65192
 Alpha virt. eigenvalues --    2.65790   2.66442   2.67484   2.67882   2.68733
 Alpha virt. eigenvalues --    2.69614   2.72625   2.72683   2.74036   2.76070
 Alpha virt. eigenvalues --    2.76861   2.77277   2.78768   2.80443   2.81689
 Alpha virt. eigenvalues --    2.82891   2.83694   2.85230   2.86254   2.87249
 Alpha virt. eigenvalues --    2.87975   2.90659   2.92343   2.92687   2.93428
 Alpha virt. eigenvalues --    2.95201   2.97394   3.03898   3.05683   3.06144
 Alpha virt. eigenvalues --    3.09255   3.12325   3.14013   3.20522   3.30874
 Alpha virt. eigenvalues --    3.34233   3.39632   3.42289   3.46931   3.80055
 Alpha virt. eigenvalues --    3.96319   3.98617   4.00103   4.05848   4.08009
 Alpha virt. eigenvalues --    4.08228   4.10013   4.10329   4.10751   4.11776
 Alpha virt. eigenvalues --    4.13257   4.14467   4.16290   4.17859   4.20927
 Alpha virt. eigenvalues --    4.23048   4.27722   4.28652   4.30720   4.33001
 Alpha virt. eigenvalues --    4.33989   4.35335   4.38409   4.41511   4.45319
 Alpha virt. eigenvalues --    4.48001   4.49949   4.51170   4.54459   4.59476
 Alpha virt. eigenvalues --    4.67805   4.81040   4.83540   4.90436
          Condensed to atoms (all electrons):
 Mulliken charges:
               1
     1  C   -0.222216
     2  C   -0.172144
     3  C    0.069413
     4  C   -0.222014
     5  H    0.182500
     6  H    0.188079
     7  H    0.181253
     8  C    0.079417
     9  C    0.089353
    10  C   -0.283241
    11  C    0.341166
    12  C   -0.084070
    13  C   -0.230958
    14  H    0.188275
    15  O   -0.551178
    16  H    0.190306
    17  C   -0.195221
    18  C   -0.169418
    19  C   -0.153665
    20  C   -0.016714
    21  H    0.197862
    22  H    0.198758
    23  H    0.201725
    24  C    0.112159
    25  C    0.052536
    26  C   -0.181338
    27  C   -0.174442
    28  C   -0.165069
    29  C   -0.083618
    30  H    0.206966
    31  H    0.204303
    32  H    0.204276
    33  C    0.506213
    34  N   -0.719052
    35  H    0.413796
    36  N   -0.575231
    37  H    0.423221
    38  H    0.389757
    39  C   -0.051277
    40  C   -0.494668
    41  C   -0.060836
    42  H    0.228811
    43  H    0.183897
    44  H    0.204626
    45  H    0.194983
    46  H    0.172781
    47  H    0.214811
    48  C   -0.164730
    49  C   -0.250381
    50  C    0.315586
    51  C   -0.037490
    52  C    0.319076
    53  C   -0.245297
    54  H    0.186871
    55  H    0.167714
    56  O   -0.691320
    57  O   -0.683096
    58  H    0.170987
    59  H    0.446744
    60  H    0.450465
 Sum of Mulliken charges =   1.00000
 Mulliken charges with hydrogens summed into heavy atoms:
               1
     1  C   -0.039716
     2  C    0.015935
     3  C    0.069413
     4  C   -0.040761
     8  C    0.079417
     9  C    0.089353
    10  C   -0.094966
    11  C    0.341166
    12  C   -0.084070
    13  C   -0.040652
    15  O   -0.551178
    17  C    0.002641
    18  C    0.029340
    19  C    0.048059
    20  C   -0.016714
    24  C    0.112159
    25  C    0.052536
    26  C    0.025628
    27  C    0.029861
    28  C    0.039207
    29  C   -0.083618
    33  C    0.506213
    34  N    0.117965
    36  N   -0.185474
    39  C    0.177534
    40  C    0.088839
    41  C    0.326756
    48  C    0.022142
    49  C   -0.082668
    50  C    0.315586
    51  C   -0.037490
    52  C    0.319076
    53  C   -0.074311
    56  O   -0.244576
    57  O   -0.232631
 Electronic spatial extent (au):  <R**2>=          18530.5695
 Charge=              1.0000 electrons
 Dipole moment (field-independent basis, Debye):
    X=              6.6064    Y=             -0.7563    Z=             -7.1978  Tot=              9.7992
 Quadrupole moment (field-independent basis, Debye-Ang):
   XX=            -99.4002   YY=           -161.0701   ZZ=           -167.5261
   XY=              2.1526   XZ=            -11.9682   YZ=             -0.5780
 Traceless Quadrupole moment (field-independent basis, Debye-Ang):
   XX=             43.2653   YY=            -18.4047   ZZ=            -24.8606
   XY=              2.1526   XZ=            -11.9682   YZ=             -0.5780
 Octapole moment (field-independent basis, Debye-Ang**2):
  XXX=           -179.5358  YYY=             42.2914  ZZZ=            -26.9346  XYY=             44.2767
  XXY=            -85.4959  XXZ=              6.2640  XZZ=             35.5015  YZZ=            -34.8064
  YYZ=            -54.3617  XYZ=            -73.5841
 Hexadecapole moment (field-independent basis, Debye-Ang**3):
 XXXX=         -14099.1846 YYYY=          -3276.1025 ZZZZ=          -2242.9691 XXXY=           -146.6729
 XXXZ=           -623.8796 YYYX=            143.5774 YYYZ=             58.3076 ZZZX=             22.2348
 ZZZY=             18.0169 XXYY=          -2989.5813 XXZZ=          -3071.0032 YYZZ=           -904.7067
 XXYZ=            187.2962 YYXZ=             46.4320 ZZXY=            -27.8590
 N-N= 3.540933100678D+03 E-N=-1.052358560946D+04  KE= 1.479717802834D+03
 D1PCM: PCM CHGder 1st derivatives, ID1Alg=3 FixD1E=F DoIter=F DoCFld=F I1PDM=0.
 Calling FoFJK, ICntrl=      2127 FMM=T ISym2X=0 I1Cent= 0 IOpClX= 0 NMat=1 NMatS=1 NMatT=0.
 ***** Axes restored to original set *****
 -------------------------------------------------------------------
 Center     Atomic                   Forces (Hartrees/Bohr)
 Number     Number              X              Y              Z
 -------------------------------------------------------------------
      1        6           0.006042995    0.001715766    0.022151991
      2        6           0.001747134    0.002246613   -0.031035165
      3        6          -0.019393154   -0.015920569    0.015734104
      4        6           0.013680959    0.011048075    0.000182755
      5        1           0.001122896    0.001490688   -0.003150702
      6        1           0.002615245    0.001898791    0.000566156
      7        1          -0.002360640   -0.001680601    0.003272224
      8        6           0.002723242    0.000136905    0.005468414
      9        6           0.000256062   -0.000513444   -0.003215913
     10        6          -0.016949973   -0.011852370    0.000448495
     11        6           0.025025673    0.025386536   -0.009396412
     12        6          -0.008454890    0.002689476    0.028040687
     13        6          -0.001298219    0.001852407   -0.020229983
     14        1           0.001584817    0.001897780   -0.004548991
     15        8          -0.005855223    0.002850509   -0.002466991
     16        1          -0.003252069   -0.001689922    0.002554295
     17        6           0.017975593   -0.005560627   -0.001059324
     18        6          -0.028615211   -0.006940149   -0.000801765
     19        6           0.005288950    0.025106061    0.003319477
     20        6          -0.009432158   -0.011046303   -0.006115865
     21        1          -0.003854103    0.000513122    0.000445479
     22        1          -0.000574232   -0.002358810   -0.000244827
     23        1           0.003395968    0.002491403    0.000860941
     24        6           0.013343338    0.001468756   -0.000463833
     25        6           0.002800541    0.002426968    0.000256923
     26        6          -0.001813242    0.018228749    0.002163216
     27        6          -0.011401418   -0.027776616   -0.002191384
     28        6           0.027722562    0.008025991   -0.001176504
     29        6          -0.035087254   -0.028188590   -0.004605794
     30        1          -0.001147066   -0.002828159   -0.000504848
     31        1          -0.001031881    0.001292974    0.000502654
     32        1           0.004934995    0.004053016   -0.000176621
     33        6           0.013013460    0.000113538   -0.020574302
     34        7           0.000016198   -0.000060395   -0.000273974
     35        1           0.003040921    0.008242822    0.004903713
     36        7          -0.005916510   -0.016179900    0.008822967
     37        1           0.003108524    0.001028284    0.007380829
     38        1           0.009251563    0.010798778   -0.004990769
     39        6          -0.001196910   -0.001367358   -0.012454881
     40        6           0.001717205    0.001015254    0.000614252
     41        6          -0.004807795   -0.002018563    0.008758996
     42        1           0.001511144    0.000844292    0.007846802
     43        1           0.003191483    0.001299050    0.001334337
     44        1           0.001990425   -0.003599981    0.000131790
     45        1          -0.000013182   -0.001418962    0.003821478
     46        1           0.003292937    0.003733794    0.005589921
     47        1          -0.004531214   -0.001971835    0.001287835
     48        6          -0.003161875   -0.001791719   -0.009085691
     49        6           0.012832656   -0.002318941    0.003882645
     50        6          -0.003096966    0.005383628    0.014765321
     51        6          -0.005466668   -0.002094746   -0.012301128
     52        6           0.016286864   -0.002396393    0.008475881
     53        6          -0.006841232    0.004958359    0.010708807
     54        1           0.000746990    0.000439263    0.002349786
     55        1          -0.005093003    0.001798557    0.001637035
     56        8           0.007266534   -0.010559241   -0.026291281
     57        8          -0.027274720    0.003802958   -0.017450776
     58        1           0.004535637   -0.001648388   -0.001493496
     59        1           0.000537385    0.002807278    0.009068079
     60        1           0.005319916    0.000696141    0.008952935
 -------------------------------------------------------------------
 Cartesian Forces:  Max     0.035087254 RMS     0.009930701

 GradGradGradGradGradGradGradGradGradGradGradGradGradGradGradGradGradGrad
 Berny optimization.
 FormGI is forming the generalized inverse of G from B-inverse, IUseBI=4.
 Internal  Forces:  Max     0.023438570 RMS     0.005596019
 Search for a local minimum.
 Step number   1 out of a maximum of   50
 All quantities printed in internal units (Hartrees-Bohrs-Radians)
 Mixed Optimization -- RFO/linear search
 Second derivative matrix not updated -- first step.
 ITU=  0
     Eigenvalues ---    0.00273   0.00566   0.00817   0.01150   0.01344
     Eigenvalues ---    0.01442   0.01476   0.01574   0.01625   0.01653
     Eigenvalues ---    0.01701   0.01712   0.01851   0.01862   0.01870
     Eigenvalues ---    0.01900   0.01924   0.01965   0.01992   0.02010
     Eigenvalues ---    0.02013   0.02021   0.02026   0.02038   0.02047
     Eigenvalues ---    0.02076   0.02078   0.02091   0.02093   0.02093
     Eigenvalues ---    0.02095   0.02114   0.02127   0.02147   0.02149
     Eigenvalues ---    0.02157   0.02162   0.02193   0.02198   0.02201
     Eigenvalues ---    0.02207   0.02216   0.02222   0.02236   0.02298
     Eigenvalues ---    0.02299   0.02332   0.02835   0.03098   0.03181
     Eigenvalues ---    0.04353   0.04806   0.04938   0.05247   0.05414
     Eigenvalues ---    0.05685   0.05986   0.09380   0.11511   0.12396
     Eigenvalues ---    0.13847   0.15770   0.15994   0.15998   0.15998
     Eigenvalues ---    0.15999   0.15999   0.15999   0.16000   0.16000
     Eigenvalues ---    0.16000   0.16000   0.16000   0.16000   0.16000
     Eigenvalues ---    0.16000   0.16000   0.16000   0.16000   0.16000
     Eigenvalues ---    0.16000   0.16000   0.16000   0.16174   0.17746
     Eigenvalues ---    0.19261   0.22060   0.22084   0.22208   0.22378
     Eigenvalues ---    0.22907   0.23257   0.23439   0.23475   0.23539
     Eigenvalues ---    0.23698   0.23949   0.24577   0.24684   0.24868
     Eigenvalues ---    0.24900   0.24906   0.24988   0.24990   0.24996
     Eigenvalues ---    0.24998   0.24999   0.25000   0.25000   0.27080
     Eigenvalues ---    0.28764   0.32785   0.33018   0.33375   0.33861
     Eigenvalues ---    0.34264   0.34596   0.34620   0.34655   0.34657
     Eigenvalues ---    0.34675   0.35530   0.35691   0.35708   0.35769
     Eigenvalues ---    0.35769   0.35780   0.35851   0.35861   0.35870
     Eigenvalues ---    0.35904   0.35947   0.35981   0.36015   0.36055
     Eigenvalues ---    0.36058   0.36723   0.37179   0.37530   0.40137
     Eigenvalues ---    0.40197   0.40724   0.41520   0.41580   0.41682
     Eigenvalues ---    0.42059   0.42215   0.42935   0.43750   0.44459
     Eigenvalues ---    0.44937   0.45090   0.45199   0.45264   0.45297
     Eigenvalues ---    0.45969   0.46105   0.46184   0.46400   0.46407
     Eigenvalues ---    0.46512   0.46702   0.46866   0.47007   0.47080
     Eigenvalues ---    0.47924   0.48017   0.48556   0.51015   0.51345
     Eigenvalues ---    0.55754   0.55782   0.58233   0.63568
 RFO step:  Lambda=-3.26384198D-02 EMin= 2.73200675D-03
 Linear search not attempted -- first point.
 Maximum step size (   0.100) exceeded in Quadratic search.
    -- Step size scaled by   0.324
 Iteration  1 RMS(Cart)=  0.03532035 RMS(Int)=  0.00018985
 Iteration  2 RMS(Cart)=  0.00037944 RMS(Int)=  0.00002112
 Iteration  3 RMS(Cart)=  0.00000007 RMS(Int)=  0.00002112
 Variable       Old X    -DE/DX   Delta X   Delta X   Delta X     New X
                                 (Linear)    (Quad)   (Total)
    R1        2.63237  -0.01826   0.00000  -0.01185  -0.01185   2.62053
    R2        2.04232   0.00360   0.00000   0.00298   0.00298   2.04530
    R3        2.67237   0.00178   0.00000   0.00128   0.00128   2.67365
    R4        2.63980   0.01787   0.00000   0.01166   0.01166   2.65146
    R5        2.04286   0.00328   0.00000   0.00271   0.00271   2.04557
    R6        2.64157  -0.01662   0.00000  -0.01098  -0.01098   2.63059
    R7        2.82730  -0.00761   0.00000  -0.00684  -0.00684   2.82046
    R8        2.04165   0.00435   0.00000   0.00359   0.00359   2.04524
    R9        2.67685  -0.00148   0.00000  -0.00101  -0.00101   2.67584
   R10        2.69250   0.00291   0.00000   0.00240   0.00240   2.69490
   R11        2.67313   0.00183   0.00000   0.00134   0.00134   2.67448
   R12        2.67168   0.00182   0.00000   0.00141   0.00141   2.67309
   R13        2.63750  -0.01784   0.00000  -0.01173  -0.01173   2.62577
   R14        2.03991   0.00509   0.00000   0.00420   0.00420   2.04411
   R15        2.64641   0.01341   0.00000   0.00882   0.00881   2.65523
   R16        2.60042  -0.00325   0.00000  -0.00155  -0.00157   2.59885
   R17        2.63890  -0.01575   0.00000  -0.01046  -0.01046   2.62844
   R18        2.80986   0.00559   0.00000   0.00446   0.00447   2.81433
   R19        2.04300   0.00418   0.00000   0.00346   0.00346   2.04646
   R20        2.69974  -0.01463   0.00000  -0.00951  -0.00951   2.69023
   R21        2.61660  -0.01435   0.00000  -0.00782  -0.00781   2.60878
   R22        2.04427   0.00255   0.00000   0.00212   0.00212   2.04639
   R23        2.67471  -0.00035   0.00000  -0.00001   0.00000   2.67471
   R24        2.61449   0.02187   0.00000   0.01471   0.01470   2.62919
   R25        2.04444   0.00223   0.00000   0.00185   0.00185   2.04630
   R26        2.63812  -0.01381   0.00000  -0.00920  -0.00920   2.62891
   R27        2.04568   0.00223   0.00000   0.00185   0.00185   2.04753
   R28        2.74834  -0.01955   0.00000  -0.01832  -0.01832   2.73002
   R29        2.72167  -0.00417   0.00000  -0.00546  -0.00545   2.71622
   R30        2.75179  -0.01770   0.00000  -0.01686  -0.01686   2.73493
   R31        2.67061   0.00333   0.00000   0.00266   0.00266   2.67327
   R32        2.61611  -0.01293   0.00000  -0.00689  -0.00689   2.60922
   R33        2.04444   0.00278   0.00000   0.00231   0.00231   2.04675
   R34        2.61546   0.01833   0.00000   0.01245   0.01245   2.62792
   R35        2.04541   0.00139   0.00000   0.00115   0.00115   2.04656
   R36        2.65201  -0.01977   0.00000  -0.01352  -0.01352   2.63848
   R37        2.04823   0.00251   0.00000   0.00210   0.00210   2.05033
   R38        2.74946   0.02034   0.00000   0.01609   0.01608   2.76554
   R39        2.48224   0.01574   0.00000   0.00763   0.00763   2.48987
   R40        2.51091  -0.01149   0.00000  -0.00601  -0.00600   2.50491
   R41        1.90048   0.00793   0.00000   0.00514   0.00514   1.90562
   R42        1.90383   0.00405   0.00000   0.00265   0.00265   1.90648
   R43        1.89711   0.01343   0.00000   0.00866   0.00866   1.90578
   R44        2.80006  -0.01138   0.00000  -0.00984  -0.00983   2.79024
   R45        2.90498  -0.00803   0.00000  -0.00812  -0.00812   2.89686
   R46        2.93530  -0.01781   0.00000  -0.01728  -0.01728   2.91802
   R47        2.06887  -0.00144   0.00000  -0.00125  -0.00125   2.06762
   R48        2.06206   0.00285   0.00000   0.00243   0.00243   2.06450
   R49        2.06335   0.00080   0.00000   0.00068   0.00068   2.06404
   R50        2.06239   0.00085   0.00000   0.00073   0.00073   2.06312
   R51        2.06236   0.00467   0.00000   0.00399   0.00399   2.06635
   R52        2.06296   0.00006   0.00000   0.00005   0.00005   2.06301
   R53        2.62908  -0.00113   0.00000  -0.00054  -0.00054   2.62854
   R54        2.62852  -0.00136   0.00000  -0.00068  -0.00068   2.62784
   R55        2.04314   0.00250   0.00000   0.00207   0.00207   2.04522
   R56        2.63208   0.00415   0.00000   0.00268   0.00268   2.63476
   R57        2.04058   0.00484   0.00000   0.00399   0.00399   2.04458
   R58        2.66018  -0.00867   0.00000  -0.00611  -0.00611   2.65407
   R59        2.58855  -0.00645   0.00000  -0.00385  -0.00385   2.58470
   R60        2.66036  -0.00894   0.00000  -0.00628  -0.00628   2.65408
   R61        2.63124   0.00453   0.00000   0.00294   0.00294   2.63418
   R62        2.58532  -0.00988   0.00000  -0.00586  -0.00586   2.57946
   R63        2.04111   0.00433   0.00000   0.00357   0.00357   2.04468
   R64        1.81168   0.00835   0.00000   0.00459   0.00459   1.81627
   R65        1.81143   0.00817   0.00000   0.00448   0.00448   1.81592
    A1        2.09463   0.00032   0.00000   0.00057   0.00057   2.09520
    A2        2.09816   0.00050   0.00000   0.00080   0.00080   2.09896
    A3        2.09037  -0.00082   0.00000  -0.00136  -0.00136   2.08901
    A4        2.12175  -0.00103   0.00000  -0.00137  -0.00137   2.12038
    A5        2.08247   0.00066   0.00000   0.00094   0.00093   2.08340
    A6        2.07888   0.00037   0.00000   0.00045   0.00045   2.07932
    A7        2.07326   0.00215   0.00000   0.00240   0.00240   2.07566
    A8        2.10670  -0.00141   0.00000  -0.00158  -0.00158   2.10512
    A9        2.10321  -0.00074   0.00000  -0.00082  -0.00082   2.10239
   A10        2.08251   0.00114   0.00000   0.00154   0.00154   2.08405
   A11        2.11725  -0.00156   0.00000  -0.00188  -0.00188   2.11537
   A12        2.08342   0.00042   0.00000   0.00034   0.00034   2.08376
   A13        2.07852   0.00112   0.00000   0.00136   0.00135   2.07988
   A14        2.12622   0.00038   0.00000   0.00006   0.00006   2.12628
   A15        2.07844  -0.00150   0.00000  -0.00141  -0.00141   2.07703
   A16        2.07733  -0.00117   0.00000  -0.00132  -0.00132   2.07601
   A17        2.12777   0.00185   0.00000   0.00167   0.00167   2.12944
   A18        2.07808  -0.00067   0.00000  -0.00034  -0.00034   2.07773
   A19        2.10654  -0.00131   0.00000  -0.00161  -0.00161   2.10492
   A20        2.08253   0.00153   0.00000   0.00227   0.00227   2.08480
   A21        2.09410  -0.00021   0.00000  -0.00066  -0.00066   2.09344
   A22        2.10156   0.00436   0.00000   0.00441   0.00442   2.10598
   A23        2.10189   0.00485   0.00000   0.00585   0.00586   2.10775
   A24        2.07943  -0.00916   0.00000  -0.01013  -0.01016   2.06927
   A25        2.08955  -0.00302   0.00000  -0.00354  -0.00354   2.08601
   A26        2.11593  -0.00107   0.00000  -0.00211  -0.00212   2.11382
   A27        2.07768   0.00410   0.00000   0.00569   0.00568   2.08336
   A28        2.11134   0.00215   0.00000   0.00256   0.00257   2.11391
   A29        2.07845   0.00035   0.00000   0.00111   0.00110   2.07955
   A30        2.09334  -0.00249   0.00000  -0.00366  -0.00366   2.08968
   A31        2.04604  -0.00992   0.00000  -0.01121  -0.01131   2.03472
   A32        2.08501   0.00395   0.00000   0.00600   0.00600   2.09101
   A33        2.10518  -0.00188   0.00000  -0.00188  -0.00188   2.10331
   A34        2.09298  -0.00206   0.00000  -0.00411  -0.00412   2.08886
   A35        2.09663  -0.00315   0.00000  -0.00183  -0.00184   2.09479
   A36        2.09933   0.00056   0.00000  -0.00080  -0.00079   2.09854
   A37        2.08719   0.00259   0.00000   0.00262   0.00263   2.08981
   A38        2.12973   0.00072   0.00000   0.00024   0.00022   2.12995
   A39        2.06899   0.00336   0.00000   0.00615   0.00615   2.07514
   A40        2.08446  -0.00408   0.00000  -0.00638  -0.00637   2.07809
   A41        2.01284   0.00746   0.00000   0.01467   0.01468   2.02752
   A42        2.18042  -0.00542   0.00000  -0.01154  -0.01155   2.16887
   A43        2.08975  -0.00207   0.00000  -0.00320  -0.00320   2.08654
   A44        2.04040   0.00739   0.00000   0.00993   0.00995   2.05035
   A45        2.19677  -0.00654   0.00000  -0.01056  -0.01060   2.18617
   A46        2.04599  -0.00087   0.00000   0.00060   0.00061   2.04661
   A47        2.10360  -0.00101   0.00000  -0.00320  -0.00319   2.10041
   A48        2.07729   0.00142   0.00000   0.00512   0.00512   2.08241
   A49        2.10230  -0.00041   0.00000  -0.00192  -0.00193   2.10036
   A50        2.10665   0.00018   0.00000   0.00108   0.00107   2.10773
   A51        2.08367  -0.00147   0.00000  -0.00286  -0.00286   2.08081
   A52        2.09286   0.00129   0.00000   0.00178   0.00179   2.09465
   A53        2.09972  -0.00476   0.00000  -0.00396  -0.00397   2.09575
   A54        2.08926   0.00337   0.00000   0.00365   0.00365   2.09292
   A55        2.09405   0.00140   0.00000   0.00033   0.00033   2.09439
   A56        2.12747  -0.00212   0.00000  -0.00369  -0.00370   2.12377
   A57        2.04298   0.00705   0.00000   0.01196   0.01196   2.05494
   A58        2.11244  -0.00494   0.00000  -0.00825  -0.00825   2.10419
   A59        2.08331   0.00798   0.00000   0.00800   0.00802   2.09133
   A60        2.17218  -0.00247   0.00000  -0.00826  -0.00832   2.16386
   A61        2.02721  -0.00549   0.00000   0.00031   0.00035   2.02757
   A62        2.03364   0.00840   0.00000   0.01036   0.01035   2.04399
   A63        2.12167  -0.00157   0.00000  -0.00369  -0.00375   2.11793
   A64        2.12717  -0.00696   0.00000  -0.00711  -0.00711   2.12006
   A65        2.12179   0.00271   0.00000   0.00541   0.00536   2.12715
   A66        2.02324   0.00558   0.00000   0.01026   0.01021   2.03344
   A67        2.09385  -0.00713   0.00000  -0.01109  -0.01114   2.08271
   A68        1.99354   0.00878   0.00000   0.01540   0.01540   2.00894
   A69        2.23516  -0.00468   0.00000  -0.00854  -0.00856   2.22660
   A70        2.04537  -0.00383   0.00000  -0.00589  -0.00589   2.03948
   A71        1.91472   0.00263   0.00000   0.00132   0.00131   1.91604
   A72        1.96269  -0.00483   0.00000  -0.01219  -0.01223   1.95046
   A73        1.90255  -0.00225   0.00000  -0.00874  -0.00872   1.89383
   A74        1.95067  -0.00082   0.00000   0.00012   0.00010   1.95077
   A75        1.87503   0.00194   0.00000   0.01189   0.01186   1.88689
   A76        1.85467   0.00357   0.00000   0.00863   0.00854   1.86321
   A77        1.96032  -0.00160   0.00000  -0.00293  -0.00294   1.95738
   A78        1.93996  -0.00408   0.00000  -0.00665  -0.00667   1.93329
   A79        1.94852  -0.00400   0.00000  -0.00671  -0.00673   1.94179
   A80        1.86987   0.00305   0.00000   0.00509   0.00508   1.87495
   A81        1.87960   0.00286   0.00000   0.00443   0.00442   1.88403
[...]
 00000334,0.00001084,0.00000375,0.00000203,-0.00000462,-0.00000008,0.00
 000263,-0.00000369,-0.00002502,0.00003567,-0.00000002,-0.00000039,0.00
 000036,0.00000065,-0.00000019,0.00000101,0.00000029,-0.00000051,-0.000
 00086,-0.00000070,0.00000223,-0.00000042,0.00000038,0.00000410,0.00000
 112,-0.00000232,0.00000115,-0.00000532,-0.01206529,0.00102634,-0.00263
 046,0.00098402,0.00129810,0.00294120,0.00068097,-0.00026589,-0.0002977
 8,0.00066717,0.00004999,-0.00270249,-0.01253508,0.00263935,0.00404762,
 -0.34056627,0.03430336,-0.01747313,0.00072869,-0.00059382,0.00009311,-
 0.00071926,0.00011956,-0.00020079,-0.00009619,-0.00005029,-0.00002703,
 0.00269060,-0.00067397,0.00055744,0.36134986,0.00002271,0.00000308,0.0
 0003751,0.00007661,0.00000010,-0.00007036,-0.00008995,0.00032298,0.000
 18065,-0.00001057,-0.00003138,-0.00001283,-0.00000087,0.00000651,0.000
 00491,-0.00000365,0.00000297,0.00001952,-0.00000052,-0.00000844,0.0000
 0054,0.00002249,-0.00002781,0.00002618,-0.00003003,-0.00000485,-0.0000
 2252,0.00001470,-0.00000186,0.00001501,-0.00001093,-0.00000624,0.00000
 090,0.00000017,0.00000454,-0.00000631,0.00000002,0.00000232,-0.0000007
 1,-0.00000044,0.00000158,0.00000097,-0.00000071,-0.00000532,-0.0000021
 6,-0.00000228,-0.00000049,0.00000022,-0.00000045,-0.00000037,0.0000002
 5,0.00000127,0.00000051,0.00000072,-0.00000394,-0.00000004,-0.00000002
 ,0.00000307,0.00000120,0.00000109,0.00000002,-0.00000008,-0.00000025,-
 0.00000084,-0.00000094,-0.00000069,0.00000028,0.00000063,-0.00000101,-
 0.00000306,-0.00000024,-0.00000099,0.00000179,0.00000079,-0.00000002,-
 0.00000200,0.00000029,-0.00000041,-0.00000003,-0.00000214,0.00000039,0
 .00000165,-0.00000022,0.00000122,-0.00000074,0.00000036,0.00000024,-0.
 00000010,0.00000008,-0.00000021,0.00000011,-0.00000010,-0.00000009,0.0
 0000017,-0.00000026,-0.00000008,0.00000455,0.00000606,-0.00000584,0.00
 000015,-0.00000311,0.00000316,0.00000042,0.00000285,-0.00000061,-0.000
 00096,-0.00000461,0.00000366,-0.00000031,0.00000204,-0.00000210,0.0000
 0036,0.00000219,0.00000024,-0.00000070,0.00000068,-0.00000165,0.000000
 74,0.00000088,0.,-0.00000089,0.00000383,-0.00000089,-0.00000008,-0.000
 00024,-0.00000029,-0.00000055,-0.00000030,-0.00000015,0.,-0.00000010,0
 .00000006,0.00000022,-0.00000006,0.00000007,-0.00000035,-0.00000005,-0
 .00000014,-0.00000018,0.00000022,-0.00000004,0.00651474,0.00021787,0.0
 0168939,0.00121500,0.00628826,-0.00226199,-0.00026689,-0.00094285,-0.0
 0028834,0.00014604,0.00481004,-0.00168653,-0.00330853,0.00237475,-0.00
 061234,0.03423638,-0.03335011,-0.00409719,-0.00065853,-0.00387781,0.00
 093438,0.00043131,0.00058818,-0.00006507,-0.00000096,-0.00047142,0.000
 29596,-0.00104412,-0.00348320,0.00131721,-0.03780765,0.02715178,0.0000
 3113,0.00000173,-0.00002152,-0.00004863,-0.00012124,0.00005091,-0.0013
 2879,0.00010882,0.00053883,-0.00007585,0.00012005,-0.00033755,-0.00000
 736,0.00000351,-0.00001902,0.00001701,0.00003653,-0.00000298,-0.000030
 17,0.00001572,0.00001315,-0.00000479,-0.00015433,0.00000252,-0.0000163
 8,0.00000589,-0.00000052,-0.00001276,-0.00000888,0.00000498,0.00001477
 ,0.00000564,0.00004256,-0.00001417,0.00001212,-0.00002014,0.00001583,0
 .00000923,-0.00003898,-0.00000039,0.00000157,-0.00000577,-0.00002424,-
 0.00000447,-0.00006442,0.00000233,-0.00000411,0.00000229,-0.00000258,-
 0.00000110,-0.00000011,0.00000041,0.00000173,0.00000086,-0.00000505,-0
 .00000317,-0.00000058,0.00000788,0.00001000,-0.00000304,-0.00000049,-0
 .00000005,-0.00000033,-0.00000070,-0.00000117,-0.00000009,-0.00000016,
 0.00000214,-0.00000027,-0.00000008,-0.00000688,0.00000104,-0.00000234,
 -0.00000109,-0.00000022,-0.00000018,-0.00000002,0.,-0.00000053,-0.0000
 0042,0.00000005,0.00000108,0.00000081,0.00000079,-0.00000045,0.0000002
 9,0.00000030,-0.00000042,-0.00000020,-0.00000027,-0.00000035,-0.000000
 04,-0.00000030,0.00000015,0.00000012,-0.00000027,0.00001073,-0.0000055
 0,-0.00000455,-0.00000853,0.00000988,0.00000457,0.00000427,-0.00000707
 ,-0.00000276,-0.00000835,0.00000397,0.00000120,0.00000489,-0.00000335,
 -0.00000403,0.00000236,-0.00000435,0.00000028,0.00000506,0.00000095,-0
 .00000368,-0.00000295,-0.00000007,0.00000187,-0.00000265,-0.00001447,0
 .00001976,0.00000011,0.00000004,0.00000038,0.00000056,0.00000012,0.000
 00022,0.00000007,-0.00000008,-0.00000009,-0.00000047,0.00000119,-0.000
 00073,0.00000025,0.00000208,0.00000027,-0.00000142,0.00000114,-0.00000
 254,0.02741288,-0.00214424,0.00656378,0.00198999,-0.00227381,-0.003728
 46,0.00012912,-0.00019058,-0.00198660,-0.00142692,-0.00163580,-0.00430
 087,-0.02730125,0.00327942,0.00099435,-0.01758243,-0.00391044,-0.05856
 233,-0.00042016,0.00097960,0.00078101,0.00144144,-0.00024115,0.0001953
 0,0.00025202,0.00015697,0.00043710,-0.00093311,0.00156261,0.00324373,0
 .01764350,0.00480217,0.05831419,-0.00019199,-0.00008054,-0.00025340,-0
 .00012380,-0.00021586,0.00029714,0.00015319,-0.00007726,-0.00054529,-0
 .00004949,-0.00036363,-0.00040036,-0.00000579,-0.00000535,-0.00003423,
 0.00000459,0.00000309,0.00002772,0.00010806,0.00034233,-0.00004970,0.0
 0022920,0.00002416,0.00029917,0.00019279,0.00019930,-0.00010090,-0.000
 13004,-0.00007664,-0.00002124,0.00014955,0.00010068,0.00013981,-0.0000
 4826,-0.00000613,0.00000160,-0.00001520,0.00005391,-0.00010038,0.00000
 522,0.00000152,-0.00001644,-0.00013686,-0.00002088,-0.00025531,0.00001
 053,-0.00003680,0.00001368,-0.00002006,-0.00000737,0.00000258,-0.00000
 195,0.00000829,0.00001196,-0.00002316,-0.00002751,0.00000524,0.0000632
 4,0.00004393,-0.00000214,-0.00000216,-0.00000111,-0.00000617,-0.000000
 61,-0.00000639,-0.00000478,0.00000212,0.00001138,-0.00000987,0.0000086
 8,-0.00003861,0.00000683,-0.00001486,-0.00001088,-0.00000514,-0.000000
 72,-0.00000168,0.00000349,-0.00000477,0.00000236,0.00000314,-0.0000023
 3,0.00001240,0.00000963,0.00000141,0.00000482,0.00001677,-0.00000177,-
 0.00000186,-0.00000521,-0.00000139,-0.00000031,-0.00000537,0.00000049,
 0.00000039,-0.00000875,0.00005917,-0.00003892,-0.00023927,-0.00003864,
 0.00012533,0.00019155,0.00004432,-0.00003955,-0.00005820,-0.00006853,-
 0.00002501,0.00011789,0.00002949,-0.00003290,-0.00010893,0.00002697,-0
 .00001257,-0.00000590,0.00001342,-0.00001303,-0.00005825,-0.00001092,0
 .00000917,0.00001512,0.00001970,-0.00005938,0.00009289,-0.00000032,0.0
 0000083,0.00000418,0.00000200,-0.00000255,-0.00000261,0.00000168,-0.00
 000197,0.00000355,-0.00000485,0.00000602,-0.00000561,-0.00000195,0.000
 00291,0.00000049,-0.00000976,0.00000856,-0.00000892,-0.00122256,0.0000
 9146,0.00067142,0.00354294,-0.00028543,0.00206295,-0.02760590,0.013337
 21,0.04631662,-0.00630728,0.00051717,-0.00304661,0.00049818,0.00066395
 ,0.00292742,0.00058402,-0.00027522,-0.00125437,0.00030746,-0.00003470,
 0.00008628,-0.00064149,-0.00034075,-0.00238672,-0.09704595,0.03715189,
 0.11498532,-0.00018172,-0.00020382,-0.00100116,0.00010471,-0.00003698,
 -0.00019459,0.12793758,-0.00009971,-0.00010440,-0.00009791,-0.00005536
 ,0.00007755,0.00017050,-0.00042302,-0.00020996,-0.00022074,-0.00000411
 ,-0.00052364,-0.00036902,0.00000621,-0.00001175,0.00001277,-0.00002642
 ,0.00000714,0.00001730,0.00005951,0.00018218,-0.00026347,0.00016429,-0
 .00000952,0.00014389,0.00009381,0.00011750,-0.00001762,-0.00003220,-0.
 00002621,-0.00001520,0.00003235,0.00004416,-0.00007423,-0.00001232,-0.
 00004094,0.00008574,-0.00001074,-0.00001264,-0.00007603,-0.00000610,0.
 00000532,0.00000803,0.00001667,-0.00002316,0.00006656,-0.00001846,-0.0
 0001393,-0.00000583,-0.00000161,-0.00000057,0.00000296,0.00000260,-0.0
 0000339,0.00000670,-0.00000622,-0.00000009,0.00000717,0.00000253,0.000
 00141,0.00000804,0.00000062,-0.00000126,-0.00000239,-0.00000067,-0.000
 00447,-0.00000590,0.00000586,-0.00000145,-0.00001007,-0.00002110,0.000
 00836,-0.00001077,0.00001015,0.00000489,-0.00000096,-0.00001285,0.0000
 0222,-0.00000186,-0.00000040,-0.00001271,0.00000267,0.00000914,-0.0000
 0191,0.00000489,-0.00000747,0.00000312,-0.00000299,0.00000008,0.000000
 04,-0.00000171,0.00000081,-0.00000052,-0.00000031,0.00000142,-0.000001
 35,0.00000163,0.00000937,0.00004535,0.00001343,0.00001670,-0.00005454,
 -0.00002125,0.00000136,0.00005139,0.00002524,0.00000830,-0.00002549,0.
 00000068,-0.00001227,0.00003986,-0.00002277,-0.00000314,0.00001779,0.0
 0001004,-0.00000803,0.00000437,0.00000947,0.00000565,0.00000283,-0.000
 00405,-0.00000226,0.00003030,-0.00002519,-0.00000039,-0.00000195,-0.00
 000388,-0.00000379,-0.00000103,0.00000142,-0.00000052,-0.00000140,-0.0
 0000061,0.00000292,-0.00000111,0.00000222,-0.00000232,-0.00000240,0.00
 000051,0.00000126,-0.00000210,0.00000271,0.00026789,-0.00085897,-0.000
 23149,-0.00224249,-0.00057062,0.00079051,0.00242745,-0.00375926,-0.004
 39749,0.00048378,0.00203469,0.00068576,-0.00009068,0.00160442,-0.00070
 962,-0.00012325,0.00012389,0.00033138,-0.00008215,-0.00000684,-0.00001
 706,0.00019897,0.00122012,0.00016151,0.04992079,-0.03654900,-0.1098990
 6,-0.00005335,-0.00019033,0.00017249,0.00000096,0.00007965,0.00000401,
 -0.05039672,0.03742676,-0.00009798,0.00001415,-0.00008601,0.00006493,-
 0.00008813,0.00020868,0.00003661,-0.00010331,-0.00018058,0.00020335,-0
 .00017610,-0.00013868,0.00000094,-0.00000260,0.00000606,0.00002096,0.0
 0000714,-0.00003006,0.00003994,0.00003225,-0.00016262,0.00010983,0.000
 01120,0.00007518,0.00010219,0.00006691,0.00000468,-0.00003303,-0.00000
 521,-0.00003046,0.00002940,0.00002123,-0.00004112,-0.00001796,-0.00001
 827,0.00005273,-0.00004842,-0.00001072,-0.00002692,-0.00000065,-0.0000
 0160,-0.00000045,0.00000706,0.00000631,0.00003346,0.00000085,-0.000016
 39,-0.00000012,0.,0.00000040,-0.00000076,0.00000044,-0.00000386,0.0000
 0041,0.00000223,-0.00000081,0.00000082,-0.00000673,-0.00000447,-0.0000
 0069,0.00000148,0.00000043,0.00000027,0.00000020,0.00000211,0.00000038
 ,-0.00000031,-0.00000222,-0.00000080,0.00000922,-0.00000111,0.00000501
 ,0.00000057,0.00000119,-0.00000029,0.00000292,-0.00000321,0.00000121,0
 .00000014,0.00000741,-0.00000087,-0.00000913,0.00000486,-0.00000311,0.
 00000962,0.00000140,0.00000938,0.00000046,0.00000111,0.00000003,0.0000
 0119,0.00000029,0.00000043,-0.00000294,-0.00000002,-0.00000271,-0.0000
 2338,-0.00002478,-0.00012271,0.00002752,0.00004685,0.00010241,-0.00001
 148,-0.00001404,-0.00004133,-0.00000377,-0.00001762,0.00005941,-0.0000
 1770,-0.00001586,-0.00003422,-0.00000065,0.00000180,-0.00001008,-0.000
 00787,-0.00000823,-0.00002403,-0.00000063,0.00000174,0.00000254,0.0000
 0633,0.00000163,-0.00000282,0.00000023,0.00000169,0.00000209,0.0000007
 6,0.00000058,-0.00000201,-0.00000013,0.00000032,0.00000208,-0.00000056
 ,-0.00000054,-0.00000198,-0.00000024,-0.00000283,-0.00000105,-0.000001
 59,0.00000221,0.00000219,0.00015626,0.00001811,-0.00090462,-0.00584951
 ,0.00190120,0.00328784,-0.00228886,0.00145704,0.00200110,-0.00260691,0
 .00010985,0.00131925,0.00041770,-0.00036556,0.00025458,-0.00048288,0.0
 0006215,-0.00025766,-0.00013672,-0.00000787,-0.00003312,0.00022613,-0.
 00025781,-0.00088172,0.16845186,-0.11635450,-0.42615707,-0.00000011,0.
 00000578,-0.00009635,0.00006453,-0.00005547,-0.00005558,-0.15834741,0.
 11376552,0.42191793,0.00000010,0.00001083,-0.00002791,-0.00008303,0.00
 002078,0.00014705,0.00014412,0.00014585,-0.00011138,-0.00004080,-0.000
 02754,0.00012425,0.00001307,-0.00001038,0.00003317,-0.00010104,0.00011
 380,-0.00013632,-0.00003979,-0.00000762,-0.00000156,0.00008168,-0.0000
 1661,-0.00002619,0.00002464,0.00000310,0.00007296,0.00001828,0.0000377
 3,-0.00003045,-0.00002994,-0.00000688,-0.00015401,0.00000784,-0.000026
 21,0.00009458,-0.00005100,-0.00005121,-0.00000072,-0.00000194,-0.00000
 565,0.00001119,0.00007918,0.00000823,0.00020335,-0.00000609,0.00000007
 ,-0.00000690,0.00000723,0.00000354,0.00000127,0.00000086,-0.00000959,-
 0.00000107,0.00001411,0.00001295,0.00000314,-0.00003617,-0.00002360,0.
 00000568,0.00000324,-0.00000023,0.00000011,0.00000164,0.00000353,-0.00
 000186,0.00000065,-0.00000867,-0.00000194,0.00000021,0.00001991,-0.000
 00259,0.00001045,0.00000698,0.00000042,-0.00000122,-0.00000274,0.00000
 091,0.00000154,0.00000410,0.00000065,-0.00000726,-0.00000109,-0.000002
 15,0.00000703,0.00000082,0.00000400,0.00000162,0.00000136,-0.00000028,
 0.00000194,-0.00000032,0.00000040,-0.00000198,-0.00000088,-0.00000196,
 -0.00004298,0.00001268,-0.00005187,0.00003807,-0.00001240,0.00003427,-
 0.00001755,0.00001475,-0.00000409,0.00002195,-0.00002546,0.00003103,-0
 .00001861,0.00000756,-0.00000383,-0.00000907,0.00001461,-0.00000619,-0
 .00001900,-0.00000629,-0.00000670,0.00000806,0.00000043,-0.00000454,0.
 00000487,0.00004623,-0.00006233,-0.00000006,0.00000068,-0.00000091,-0.
 00000134,0.00000012,-0.00000219,-0.00000039,0.00000113,0.00000176,0.00
 000127,-0.00000396,0.00000056,-0.00000102,-0.00000769,-0.00000255,0.00
 000425,-0.00000134,0.00000939,-0.00146862,0.00001237,0.00008642,0.0009
 0869,-0.00018726,-0.00029309,-0.00128328,0.00026432,-0.00085317,0.0016
 3857,0.00061196,0.00282023,-0.02805994,0.00303827,-0.00303640,0.005604
 02,-0.00147073,-0.00468067,0.00010318,-0.00005526,-0.00027915,0.000058
 61,0.00002669,0.00002713,0.00036836,-0.00000485,0.00034568,-0.47522800
 ,0.05554755,-0.08610831,-0.00068470,0.00059386,0.00047182,-0.00018562,
 0.00000867,0.00000168,0.49824109,-0.00006458,-0.00008202,-0.00016161,0
 .00010327,-0.00036700,0.00035451,-0.00016029,-0.00016910,0.00024237,-0
 .00011118,0.00002363,-0.00006719,0.00003300,-0.00002741,-0.00000408,0.
 00029210,0.00010731,0.00006439,-0.00003791,0.00000871,0.00001261,0.000
 04595,-0.00003756,0.00012542,0.00009246,0.00014194,0.00003508,-0.00006
 395,-0.00004593,-0.00003631,0.00005900,0.00005981,0.00000044,-0.000006
 44,-0.00001332,0.00004108,-0.00001762,-0.00003812,-0.00004738,-0.00000
 183,0.00000837,0.00000072,-0.00002124,-0.00002737,-0.00004279,-0.00001
 058,0.00000269,0.00000606,-0.00000200,-0.00000186,-0.00000028,0.000004
 87,0.00000257,0.00000206,-0.00002014,-0.00000225,-0.00000412,0.0000172
 4,0.00000938,0.00000212,-0.00000049,-0.00000020,0.00000002,-0.00000401
 ,-0.00000367,-0.00000034,-0.00000119,0.00000402,-0.00000088,-0.0000129
 5,-0.00000582,-0.00000325,0.00000378,0.00000155,0.00000039,-0.00000658
 ,0.00000161,-0.00000224,0.00000014,-0.00000877,0.00000079,0.00000779,-
 0.00000141,0.00000425,-0.00000426,0.00000018,-0.00000171,-0.00000074,-
 0.00000002,-0.00000002,-0.00000025,-0.00000025,0.00000009,0.00000124,-
 0.00000060,0.00000097,0.00002158,0.00002213,0.00001389,-0.00000988,-0.
 00001497,-0.00001492,0.00000691,0.00000861,0.00000387,-0.00000560,-0.0
 0000783,-0.00000591,0.00000325,0.00000572,0.00000063,0.00000408,0.0000
 0368,0.00000339,0.00000159,0.00000454,0.00000368,0.00000189,0.00000248
 ,-0.00000003,-0.00000056,0.00000617,0.00000758,-0.00000049,-0.00000114
 ,-0.00000089,-0.00000166,-0.00000116,0.00000025,0.00000003,-0.00000049
 ,-0.00000074,0.00000050,0.00000028,0.00000066,-0.00000146,0.00000087,0
 .00000102,-0.00000195,0.00000049,-0.00000273,0.00026675,-0.00079120,0.
 00004135,-0.00033640,0.00003148,-0.00011781,0.00065293,0.00177907,0.00
 021849,0.00011453,0.00170553,-0.00191289,0.01211506,-0.00429739,0.0016
 1091,0.00009948,-0.00084838,0.00110637,-0.00003520,0.00001663,0.000086
 12,-0.00005161,0.00008156,-0.00001632,-0.00025077,-0.00021137,-0.00010
 121,0.04594551,-0.01105130,0.00012537,-0.00008536,0.00034739,-0.000401
 97,0.00005522,-0.00010641,0.00000829,-0.05862099,0.01377593,0.00010796
 ,0.00010562,0.00034452,-0.00025916,0.00041401,-0.00047102,-0.00047941,
 -0.00011973,-0.00017312,0.00035826,0.00029637,0.00020086,-0.00004003,0
 .00003641,-0.00004622,-0.00027002,-0.00028245,0.00010357,0.00000843,-0
 .00000393,0.00000523,-0.00020043,-0.00006264,-0.00023640,-0.00015731,-
 0.00016896,-0.00010055,0.00003892,-0.00002727,0.00009111,-0.00005181,-
 0.00006569,0.00021786,-0.00003574,0.00004578,-0.00020045,0.00015879,0.
 00011193,0.00004696,-0.00000235,0.00001369,-0.00001398,-0.00006539,-0.
 00000795,-0.00021212,0.00000178,-0.00000272,0.00000935,-0.00000861,-0.
 00000345,-0.00000254,0.00000300,0.00000711,0.00000347,-0.00002681,-0.0
 0001315,-0.00000802,0.00004351,0.00002455,-0.00000798,-0.00000261,0.00
 000014,0.00000038,-0.00000349,-0.00000424,0.00000252,-0.00000154,0.000
 00779,0.00000312,-0.00000275,-0.00002279,0.00000583,-0.00000843,-0.000
 00653,-0.00000023,-0.00000088,0.00000227,-0.00000199,-0.00000156,-0.00
 000533,-0.00000107,0.00000791,0.00000178,0.00000171,-0.00000542,0.0000
 0015,-0.00000464,-0.00000183,-0.00000093,0.00000046,-0.00000183,0.0000
 0024,0.00000023,0.00000084,0.00000102,0.00000204,0.00004048,-0.0000197
 2,0.00006711,-0.00003718,0.00001340,-0.00004028,0.00001613,-0.00001507
 ,0.00000495,-0.00001392,0.00002778,-0.00003835,0.00001635,-0.00000755,
 0.00000402,0.00000631,-0.00001412,0.00000635,0.00001781,0.00001036,0.0
 0001030,-0.00000831,-0.00000269,0.00000307,-0.00001408,-0.00004753,0.0
 0006090,0.00000074,-0.00000088,0.00000003,0.00000093,0.00000151,0.0000
 0284,-0.00000053,-0.00000043,-0.00000253,-0.00000007,0.00000384,-0.000
 00083,0.00000056,0.00000993,0.00000393,-0.00000579,0.00000137,-0.00001
 061,0.00054516,-0.00000555,-0.00068707,-0.00102619,-0.00001530,-0.0004
 9152,0.00160318,-0.00011122,0.00194937,0.00245264,-0.00193698,-0.00599
 645,0.04551750,-0.00566439,0.00329937,0.00313492,0.00017237,0.00169078
 ,-0.00006331,0.00004457,0.00015787,-0.00022662,0.00001288,-0.00000960,
 -0.00057524,0.00001552,-0.00060486,-0.13992259,0.00857999,-0.07103201,
 -0.00215984,-0.00013931,-0.00204772,0.00022878,-0.00000626,-0.00001755
 ,0.09137018,-0.00117760,0.07415960\\0.00000108,0.00000173,0.00000745,-
 0.00000515,0.00000223,-0.00000803,-0.00000540,-0.00001622,0.00000005,0
 .00000009,0.00000370,0.00000003,-0.00000423,0.00000686,0.00000309,-0.0
 0000733,0.00000586,0.00000513,-0.00000124,-0.00000270,0.00000387,-0.00
 001835,-0.00000806,0.00001485,0.00001636,0.00000751,-0.00001181,-0.000
 00281,0.00000360,0.00000664,0.00001949,0.00001717,0.00001849,-0.000010
 44,0.00001113,-0.00001890,0.00002611,-0.00000183,0.00000522,-0.0000005
 0,0.00001218,0.00000185,-0.00000273,-0.00000799,-0.00001263,-0.0000025
 0,0.00000079,-0.00000060,0.00000206,0.00000703,-0.00000788,0.00000893,
 0.00000671,-0.00001011,-0.00000335,-0.00000179,-0.00000529,-0.00000385
 ,0.00000899,-0.00000374,0.00000521,-0.00000365,-0.00001107,0.00000514,
 -0.00000317,-0.00001235,0.00000528,0.00000088,-0.00000693,-0.00001663,
 0.00000038,-0.00000455,0.00000030,-0.00001460,-0.00000525,-0.00000269,
 0.00000154,-0.00000398,0.00001022,0.00000633,-0.00000437,0.00000604,-0
 .00001695,-0.00000172,0.00001037,-0.00002669,0.00000881,0.00000509,-0.
 00000544,-0.00000460,-0.00000118,-0.00000142,-0.00000052,-0.00000671,0
 .00000516,0.00000032,0.00001821,0.00000954,-0.00001150,0.00000285,-0.0
 0001504,-0.00000214,-0.00000726,0.00000408,-0.00000271,-0.00001529,-0.
 00000945,0.00000496,-0.00000273,0.00000467,-0.00000015,0.00000410,0.00
 000911,0.00000432,0.00003023,-0.00002583,0.00004115,0.00000346,0.00002
 900,-0.00002348,-0.00002010,0.00000509,0.00000014,-0.00000772,0.000007
 48,-0.00000327,-0.00001877,-0.00000094,0.00000998,-0.00000554,0.000018
 98,0.00000858,0.00000008,0.00000683,0.00000634,-0.00000194,0.00001014,
 0.00000065,0.00000113,0.00000835,0.00000076,0.00000491,-0.00000189,0.0
 0000181,0.00000027,-0.00001850,0.00000352,0.00000440,0.00000264,0.0000
 0222,-0.00000398,0.00000990,0.00000591,-0.00000008,-0.00000002,-0.0000
 0049,-0.00000084,-0.00000294,0.00000657,-0.00000007,-0.00000866,0.0000
 0231,-0.00000071,-0.00000919,0.00000353,-0.00000415,-0.00001132,-0.000
 02049,-0.00000756,-0.00001711,0.00000494,-0.00000084,-0.00000373,0.000
 00298,-0.00000274,-0.00001249,0.00000851,0.00000400,0.00001200,0.00000
 355\\\@
 The archive entry for this job was punched.


 YOU KNOW YOU'RE A TEACHER WHEN YOU SAY 2, WRITE 3, AND MEAN 4.
 -- RONALD ANSTROM, HIGH SCHOOL TEACHER, UNDERWOOD, N.D. 1974
 Job cpu time:       0 days  5 hours 37 minutes  7.4 seconds.
 Elapsed time:       0 days  0 hours 28 minutes 16.6 seconds.
 File lengths (MBytes):  RWF=   2380 Int=      0 D2E=      0 Chk=     47 Scr=      1
 Normal termination of Gaussian 16 at Mon Dec 18 02:21:24 2023.
