Unloading slurm/anatra/current
  ERROR: No such file or directory on
    '/cm/local/modulefiles/slurm/anatra/current'
environment: line 0: unalias: gv: not found
environment: line 0: unalias: sl: not found
 Entering Gaussian System, Link 0=g16
 Initial command:
 /apps/gaussian/g16/C.01/g16/l1.exe "/local/jobs/1149815/Gau-1604581.inp" -scrdir="/local/jobs/1149815/"
 Entering Link 1 = /apps/gaussian/g16/C.01/g16/l1.exe PID=   1604584.
  
 Copyright (c) 1988-2019, Gaussian, Inc.  All Rights Reserved.
  
 This is part of the Gaussian(R) 16 program.  It is based on
 the Gaussian(R) 09 system (copyright 2009, Gaussian, Inc.),
 the Gaussian(R) 03 system (copyright 2003, Gaussian, Inc.),
 the Gaussian(R) 98 system (copyright 1998, Gaussian, Inc.),
 the Gaussian(R) 94 system (copyright 1995, Gaussian, Inc.),
 the Gaussian 92(TM) system (copyright 1992, Gaussian, Inc.),
 the Gaussian 90(TM) system (copyright 1990, Gaussian, Inc.),
 the Gaussian 88(TM) system (copyright 1988, Gaussian, Inc.),
 the Gaussian 86(TM) system (copyright 1986, Carnegie Mellon
 University), and the Gaussian 82(TM) system (copyright 1983,
 Carnegie Mellon University). Gaussian is a federally registered
 trademark of Gaussian, Inc.
  
 This software contains proprietary and confidential information,
 including trade secrets, belonging to Gaussian, Inc.
  
 This software is provided under written license and may be
 used, copied, transmitted, or stored only in accord with that
 written license.
  
 The following legend is applicable only to US Government
 contracts under FAR:
  
                    RESTRICTED RIGHTS LEGEND
  
 Use, reproduction and disclosure by the US Government is
 subject to restrictions as set forth in subparagraphs (a)
 and (c) of the Commercial Computer Software - Restricted
 Rights clause in FAR 52.227-19.
  
 Gaussian, Inc.
 340 Quinnipiac St., Bldg. 40, Wallingford CT 06492
  
  
 ---------------------------------------------------------------
 Warning -- This program may not be used in any manner that
 competes with the business of Gaussian, Inc. or will provide
 assistance to any competitor of Gaussian, Inc.  The licensee
 of this program is prohibited from giving any competitor of
 Gaussian, Inc. access to this program.  By using this program,
 the user acknowledges that Gaussian, Inc. is engaged in the
 business of creating and licensing software in the field of
 computational chemistry and represents and warrants to the
 licensee that it is not a competitor of Gaussian, Inc. and that
 it will not use this program in any manner prohibited above.
 ---------------------------------------------------------------
  

 Cite this work as:
 Gaussian 16, Revision C.01,
 M. J. Frisch, G. W. Trucks, H. B. Schlegel, G. E. Scuseria, 
 M. A. Robb, J. R. Cheeseman, G. Scalmani, V. Barone, 
 G. A. Petersson, H. Nakatsuji, X. Li, M. Caricato, A. V. Marenich, 
 J. Bloino, B. G. Janesko, R. Gomperts, B. Mennucci, H. P. Hratchian, 
 J. V. Ortiz, A. F. Izmaylov, J. L. Sonnenberg, D. Williams-Young, 
 F. Ding, F. Lipparini, F. Egidi, J. Goings, B. Peng, A. Petrone, 
 T. Henderson, D. Ranasinghe, V. G. Zakrzewski, J. Gao, N. Rega, 
 G. Zheng, W. Liang, M. Hada, M. Ehara, K. Toyota, R. Fukuda, 
 J. Hasegawa, M. Ishida, T. Nakajima, Y. Honda, O. Kitao, H. Nakai, 
 T. Vreven, K. Throssell, J. A. Montgomery, Jr., J. E. Peralta, 
 F. Ogliaro, M. J. Bearpark, J. J. Heyd, E. N. Brothers, K. N. Kudin, 
 V. N. Staroverov, T. A. Keith, R. Kobayashi, J. Normand, 
 K. Raghavachari, A. P. Rendell, J. C. Burant, S. S. Iyengar, 
 J. Tomasi, M. Cossi, J. M. Millam, M. Klene, C. Adamo, R. Cammi, 
 J. W. Ochterski, R. L. Martin, K. Morokuma, O. Farkas, 
 J. B. Foresman, and D. J. Fox, Gaussian, Inc., Wallingford CT, 2019.
 
 ******************************************
 Gaussian 16:  ES64L-G16RevC.01  3-Jul-2019
                12-Dec-2023 
 ******************************************
 %chk=urea_cinchrona_OPLS3e_5000_steps_1_opt_freq.chk
 %nprocshared=12
 Will use up to   12 processors via shared memory.
 %mem=48GB
 ----------------------------------------------------------------------
 # m062x chkbasis guess=read geom=allchk scrf=(iefpcm,solvent=benzene) 
 opt=(maxcycles=50,maxstep=10) freq=noraman
 ----------------------------------------------------------------------
 1/6=50,8=10,18=20,19=15,26=3,29=7,38=1/1,3;
 2/9=110,12=2,40=1/2;
 3/5=7,6=2,11=2,14=-4,25=1,30=1,67=1,70=2201,71=1,72=12,74=-55,116=-2/1,2,3;
 4/5=1/1;
 5/5=2,38=6,53=12/2;
 6/7=2,8=2,9=2,10=2,28=1/1;
 7//1,2,3,16;
 1/6=50,8=10,18=20,19=15,26=3/3(2);
 2/9=110/2;
 99//99;
 2/9=110/2;
 3/5=7,6=1,11=2,14=-2,25=1,30=1,70=2205,71=1,72=12,74=-55,82=7/1,2,3;
 4/5=5,16=3,69=1/1;
 5/5=2,38=5,53=12/2;
 7//1,2,3,16;
 1/6=50,8=10,18=20,19=15,26=3/3(-5);
 2/9=110/2;
 6/7=2,8=2,9=2,10=2,19=2,28=1/1;
 99/9=1/99;
 Structure from the checkpoint file:  "urea_cinchrona_OPLS3e_5000_steps_1_opt_freq.chk"
 -------------
 Molecule Name
 -------------
 Charge =  1 Multiplicity = 1
 Redundant internal coordinates found in file.  (old form).
 C,0,0.538634467,1.5932125666,-0.8941456354
 N,0,-0.6329736566,1.0147588084,-0.5144241736
 C,0,-1.9316465113,1.5916680594,-0.8641793954
 C,0,-2.329750976,2.7458128876,0.083629287
 H,0,-1.8755516604,1.9907016792,-1.884566422
 C,0,-2.9631952551,0.4771674244,-0.8592761792
 H,0,-2.0155440943,2.4751631796,1.0945869202
 C,0,-3.8204714319,3.1231272195,0.0643606722
 N,0,-1.5530146852,4.0134660795,-0.2158240173
 C,0,-3.1772708347,-0.3471160803,0.2925397268
 C,0,-3.7123843997,0.2383764839,-1.9814279507
 C,0,-3.9508980918,4.6374020903,0.3049281076
 H,0,-4.3454992233,2.529554148,0.8174313107
 H,0,-4.2670856291,2.8708668192,-0.9046821334
 C,0,-2.1298519494,4.756505468,-1.3887129478
 C,0,-1.5729640129,4.8924907351,1.0033048956
 C,0,-2.4703199414,-0.220813054,1.5097579131
 C,0,-4.1654067518,-1.3688888452,0.177761126
 C,0,-4.6783850603,-0.8011497007,-1.9782863651
 H,0,-3.5720729873,0.8311059699,-2.8807936294
 C,0,-3.4842904735,5.3558559277,-0.9707322202
 H,0,-4.9887116623,4.8959816676,0.5285944423
 C,0,-3.0399819366,5.088024671,1.4640454554
 H,0,-2.2182701536,4.0423387509,-2.2085798672
 H,0,-1.3942006444,5.507903721,-1.6793987906
 H,0,-0.9551864408,4.4072271577,1.7629195237
 H,0,-1.0974293407,5.8318493264,0.715161832
 C,0,-2.7142219893,-1.0716823446,2.568810627
 H,0,-1.6944982784,0.522331607,1.6465638512
 C,0,-4.3980549141,-2.223612726,1.2844813007
 N,0,-4.9026053268,-1.5772840681,-0.9489674587
 H,0,-5.2712152718,-0.9834040294,-2.8715012837
 H,0,-4.2072102167,5.2243746138,-1.7793841015
 H,0,-3.3875446758,6.4296647662,-0.7844705213
 H,0,-3.1958750613,6.1624808948,1.605841557
 C,0,-3.3480987694,4.3921665695,2.7885978255
 C,0,-3.6945275805,-2.0915703049,2.4540023263
 O,0,-1.9708388926,-0.862346736,3.6761290928
 H,0,-5.1536284382,-2.9932198831,1.1684933543
 H,0,-2.7168121816,4.7888573722,3.5885746303
 H,0,-4.3917929083,4.5589400259,3.0704284034
 H,0,-3.185332802,3.31154027,2.7398170796
 H,0,-3.8899541766,-2.7650698882,3.2796763801
 C,0,-2.0753411632,-1.7904637458,4.7446013219
 H,0,-1.3401802903,-1.4748620719,5.4833230341
 H,0,-3.074840353,-1.7696332256,5.191151797
 H,0,-1.8383492229,-2.803853134,4.4048261441
 N,0,1.6442195835,0.8103335736,-0.7691251996
 O,0,0.6157607018,2.7588968457,-1.3063018753
 H,0,-0.6304958092,0.0078906702,-0.388060631
 H,0,2.4860396757,1.2253408164,-1.1510733743
 C,0,1.6760908031,-0.5289648947,-0.3241404445
 C,0,1.0432405141,-0.879440287,0.8677979946
 C,0,2.3819603579,-1.4904813929,-1.0473601745
 C,0,1.0859666415,-2.1948606765,1.3088160082
 H,0,0.5449445877,-0.1240080294,1.4683755584
 C,0,2.4387533781,-2.7962560763,-0.5731221977
 H,0,2.8859501577,-1.2171175684,-1.969475832
 C,0,1.7837962901,-3.1664833856,0.6008832979
 H,0,1.8346914166,-4.1866104488,0.9641820753
 C,0,3.1698747,-3.8332164568,-1.3859024266
 C,0,0.3412620291,-2.5532581624,2.5698931514
 F,0,3.5620537464,-4.8632458276,-0.6302398806
 F,0,2.3886513783,-4.321176098,-2.3587901556
 F,0,4.2544009589,-3.31239531,-1.973571425
 F,0,-0.9592945933,-2.776610489,2.3182385753
 F,0,0.8326601586,-3.6576787856,3.1389180155
 F,0,0.3988344488,-1.5630255745,3.4709322046
 H,0,-0.5846152754,3.731520435,-0.47806011
 Recover connectivity data from disk.

 GradGradGradGradGradGradGradGradGradGradGradGradGradGradGradGradGradGrad
 Berny optimization.
 Initialization pass.
                           ----------------------------
                           !    Initial Parameters    !
                           ! (Angstroms and Degrees)  !
 --------------------------                            --------------------------
 ! Name  Definition              Value          Derivative Info.                !
 --------------------------------------------------------------------------------
 ! R1    R(1,2)                  1.3607         estimate D2E/DX2                !
 ! R2    R(1,48)                 1.3605         estimate D2E/DX2                !
 ! R3    R(1,49)                 1.2388         estimate D2E/DX2                !
 ! R4    R(2,3)                  1.4635         estimate D2E/DX2                !
 ! R5    R(2,50)                 1.0148         estimate D2E/DX2                !
 ! R6    R(3,4)                  1.5456         estimate D2E/DX2                !
 ! R7    R(3,5)                  1.0971         estimate D2E/DX2                !
 ! R8    R(3,6)                  1.5186         estimate D2E/DX2                !
 ! R9    R(4,7)                  1.0927         estimate D2E/DX2                !
 ! R10   R(4,8)                  1.5379         estimate D2E/DX2                !
 ! R11   R(4,9)                  1.5166         estimate D2E/DX2                !
 ! R12   R(6,10)                 1.4325         estimate D2E/DX2                !
 ! R13   R(6,11)                 1.3702         estimate D2E/DX2                !
 ! R14   R(8,12)                 1.5388         estimate D2E/DX2                !
 ! R15   R(8,13)                 1.0932         estimate D2E/DX2                !
 ! R16   R(8,14)                 1.0964         estimate D2E/DX2                !
 ! R17   R(9,15)                 1.5035         estimate D2E/DX2                !
 ! R18   R(9,16)                 1.5031         estimate D2E/DX2                !
 ! R19   R(9,69)                 1.0421         estimate D2E/DX2                !
 ! R20   R(10,17)                1.4133         estimate D2E/DX2                !
 ! R21   R(10,18)                1.426          estimate D2E/DX2                !
 ! R22   R(11,19)                1.4191         estimate D2E/DX2                !
 ! R23   R(11,20)                1.0862         estimate D2E/DX2                !
 ! R24   R(12,21)                1.5366         estimate D2E/DX2                !
 ! R25   R(12,22)                1.0927         estimate D2E/DX2                !
 ! R26   R(12,23)                1.5416         estimate D2E/DX2                !
 ! R27   R(15,21)                1.539          estimate D2E/DX2                !
 ! R28   R(15,24)                1.0909         estimate D2E/DX2                !
 ! R29   R(15,25)                1.091          estimate D2E/DX2                !
 ! R30   R(16,23)                1.5501         estimate D2E/DX2                !
 ! R31   R(16,26)                1.0928         estimate D2E/DX2                !
 ! R32   R(16,27)                1.0916         estimate D2E/DX2                !
 ! R33   R(17,28)                1.3802         estimate D2E/DX2                !
 ! R34   R(17,29)                1.083          estimate D2E/DX2                !
 ! R35   R(18,30)                1.4176         estimate D2E/DX2                !
 ! R36   R(18,31)                1.3625         estimate D2E/DX2                !
 ! R37   R(19,31)                1.3085         estimate D2E/DX2                !
 ! R38   R(19,32)                1.0874         estimate D2E/DX2                !
 ! R39   R(21,33)                1.0926         estimate D2E/DX2                !
 ! R40   R(21,34)                1.0941         estimate D2E/DX2                !
 ! R41   R(23,35)                1.0949         estimate D2E/DX2                !
 ! R42   R(23,36)                1.5276         estimate D2E/DX2                !
 ! R43   R(28,37)                1.4193         estimate D2E/DX2                !
 ! R44   R(28,38)                1.35           estimate D2E/DX2                !
 ! R45   R(30,37)                1.3712         estimate D2E/DX2                !
 ! R46   R(30,39)                1.0847         estimate D2E/DX2                !
 ! R47   R(36,40)                1.0935         estimate D2E/DX2                !
 ! R48   R(36,41)                1.0939         estimate D2E/DX2                !
 ! R49   R(36,42)                1.0939         estimate D2E/DX2                !
 ! R50   R(37,43)                1.0833         estimate D2E/DX2                !
 ! R51   R(38,44)                1.4191         estimate D2E/DX2                !
 ! R52   R(44,45)                1.0889         estimate D2E/DX2                !
 ! R53   R(44,46)                1.0949         estimate D2E/DX2                !
 ! R54   R(44,47)                1.0948         estimate D2E/DX2                !
 ! R55   R(48,51)                1.0133         estimate D2E/DX2                !
 ! R56   R(48,52)                1.4116         estimate D2E/DX2                !
 ! R57   R(52,53)                1.3943         estimate D2E/DX2                !
 ! R58   R(52,54)                1.3949         estimate D2E/DX2                !
 ! R59   R(53,55)                1.388          estimate D2E/DX2                !
 ! R60   R(53,56)                1.0861         estimate D2E/DX2                !
 ! R61   R(54,57)                1.3904         estimate D2E/DX2                !
 ! R62   R(54,58)                1.0858         estimate D2E/DX2                !
 ! R63   R(55,59)                1.39           estimate D2E/DX2                !
 ! R64   R(55,62)                1.5078         estimate D2E/DX2                !
 ! R65   R(57,59)                1.3944         estimate D2E/DX2                !
 ! R66   R(57,61)                1.5068         estimate D2E/DX2                !
 ! R67   R(59,60)                1.0841         estimate D2E/DX2                !
 ! R68   R(61,63)                1.3363         estimate D2E/DX2                !
 ! R69   R(61,64)                1.3397         estimate D2E/DX2                !
 ! R70   R(61,65)                1.339          estimate D2E/DX2                !
 ! R71   R(62,66)                1.3434         estimate D2E/DX2                !
 ! R72   R(62,67)                1.336          estimate D2E/DX2                !
 ! R73   R(62,68)                1.3401         estimate D2E/DX2                !
 ! A1    A(2,1,48)             115.4327         estimate D2E/DX2                !
 ! A2    A(2,1,49)             123.1259         estimate D2E/DX2                !
 ! A3    A(48,1,49)            121.4306         estimate D2E/DX2                !
 ! A4    A(1,2,3)              121.9926         estimate D2E/DX2                !
 ! A5    A(1,2,50)             117.03           estimate D2E/DX2                !
 ! A6    A(3,2,50)             115.0284         estimate D2E/DX2                !
 ! A7    A(2,3,4)              112.1097         estimate D2E/DX2                !
 ! A8    A(2,3,5)              108.6809         estimate D2E/DX2                !
 ! A9    A(2,3,6)              108.2222         estimate D2E/DX2                !
 ! A10   A(4,3,5)              108.1757         estimate D2E/DX2                !
 ! A11   A(4,3,6)              111.7819         estimate D2E/DX2                !
 ! A12   A(5,3,6)              107.7382         estimate D2E/DX2                !
 ! A13   A(3,4,7)              107.9587         estimate D2E/DX2                !
 ! A14   A(3,4,8)              115.1638         estimate D2E/DX2                !
 ! A15   A(3,4,9)              111.7876         estimate D2E/DX2                !
 ! A16   A(7,4,8)              110.5545         estimate D2E/DX2                !
 ! A17   A(7,4,9)              104.0309         estimate D2E/DX2                !
 ! A18   A(8,4,9)              106.7932         estimate D2E/DX2                !
 ! A19   A(3,6,10)             121.7632         estimate D2E/DX2                !
 ! A20   A(3,6,11)             119.7784         estimate D2E/DX2                !
 ! A21   A(10,6,11)            118.4578         estimate D2E/DX2                !
 ! A22   A(4,8,12)             108.7623         estimate D2E/DX2                !
 ! A23   A(4,8,13)             108.8867         estimate D2E/DX2                !
 ! A24   A(4,8,14)             110.4554         estimate D2E/DX2                !
 ! A25   A(12,8,13)            112.7003         estimate D2E/DX2                !
 ! A26   A(12,8,14)            109.2721         estimate D2E/DX2                !
 ! A27   A(13,8,14)            106.7551         estimate D2E/DX2                !
 ! A28   A(4,9,15)             111.7545         estimate D2E/DX2                !
 ! A29   A(4,9,16)             108.7763         estimate D2E/DX2                !
 ! A30   A(4,9,69)             107.4261         estimate D2E/DX2                !
 ! A31   A(15,9,16)            109.7924         estimate D2E/DX2                !
 ! A32   A(15,9,69)            107.0928         estimate D2E/DX2                !
 ! A33   A(16,9,69)            112.002          estimate D2E/DX2                !
 ! A34   A(6,10,17)            124.4962         estimate D2E/DX2                !
 ! A35   A(6,10,18)            116.8166         estimate D2E/DX2                !
 ! A36   A(17,10,18)           118.6833         estimate D2E/DX2                !
 ! A37   A(6,11,19)            119.8704         estimate D2E/DX2                !
 ! A38   A(6,11,20)            120.8205         estimate D2E/DX2                !
 ! A39   A(19,11,20)           119.3075         estimate D2E/DX2                !
 ! A40   A(8,12,21)            107.7329         estimate D2E/DX2                !
 ! A41   A(8,12,22)            110.2049         estimate D2E/DX2                !
 ! A42   A(8,12,23)            110.801          estimate D2E/DX2                !
 ! A43   A(21,12,22)           110.3466         estimate D2E/DX2                !
 ! A44   A(21,12,23)           107.9454         estimate D2E/DX2                !
 ! A45   A(22,12,23)           109.7641         estimate D2E/DX2                !
 ! A46   A(9,15,21)            108.5573         estimate D2E/DX2                !
 ! A47   A(9,15,24)            107.0887         estimate D2E/DX2                !
 ! A48   A(9,15,25)            106.8294         estimate D2E/DX2                !
 ! A49   A(21,15,24)           112.8144         estimate D2E/DX2                !
 ! A50   A(21,15,25)           113.427          estimate D2E/DX2                !
 ! A51   A(24,15,25)           107.7757         estimate D2E/DX2                !
 ! A52   A(9,16,23)            109.112          estimate D2E/DX2                !
 ! A53   A(9,16,26)            107.2536         estimate D2E/DX2                !
 ! A54   A(9,16,27)            106.4615         estimate D2E/DX2                !
 ! A55   A(23,16,26)           112.6093         estimate D2E/DX2                !
 ! A56   A(23,16,27)           112.4706         estimate D2E/DX2                !
 ! A57   A(26,16,27)           108.6238         estimate D2E/DX2                !
 ! A58   A(10,17,28)           121.1557         estimate D2E/DX2                !
 ! A59   A(10,17,29)           121.9017         estimate D2E/DX2                !
 ! A60   A(28,17,29)           116.9156         estimate D2E/DX2                !
 ! A61   A(10,18,30)           118.875          estimate D2E/DX2                !
 ! A62   A(10,18,31)           123.44           estimate D2E/DX2                !
 ! A63   A(30,18,31)           117.6843         estimate D2E/DX2                !
 ! A64   A(11,19,31)           123.5657         estimate D2E/DX2                !
 ! A65   A(11,19,32)           119.4764         estimate D2E/DX2                !
 ! A66   A(31,19,32)           116.9569         estimate D2E/DX2                !
 ! A67   A(12,21,15)           108.0973         estimate D2E/DX2                !
 ! A68   A(12,21,33)           110.9306         estimate D2E/DX2                !
 ! A69   A(12,21,34)           110.1448         estimate D2E/DX2                !
 ! A70   A(15,21,33)           109.5378         estimate D2E/DX2                !
 ! A71   A(15,21,34)           110.526          estimate D2E/DX2                !
 ! A72   A(33,21,34)           107.6137         estimate D2E/DX2                !
 ! A73   A(12,23,16)           107.3903         estimate D2E/DX2                !
 ! A74   A(12,23,35)           107.4633         estimate D2E/DX2                !
 ! A75   A(12,23,36)           113.5548         estimate D2E/DX2                !
 ! A76   A(16,23,35)           107.2795         estimate D2E/DX2                !
 ! A77   A(16,23,36)           113.0269         estimate D2E/DX2                !
 ! A78   A(35,23,36)           107.8182         estimate D2E/DX2                !
 ! A79   A(17,28,37)           120.1971         estimate D2E/DX2                !
 ! A80   A(17,28,38)           115.878          estimate D2E/DX2                !
 ! A81   A(37,28,38)           123.9248         estimate D2E/DX2                !
 ! A82   A(18,30,37)           121.5756         estimate D2E/DX2                !
 ! A83   A(18,30,39)           117.2984         estimate D2E/DX2                !
 ! A84   A(37,30,39)           121.1252         estimate D2E/DX2                !
 ! A85   A(18,31,19)           117.8451         estimate D2E/DX2                !
 ! A86   A(23,36,40)           110.6478         estimate D2E/DX2                !
 ! A87   A(23,36,41)           110.2671         estimate D2E/DX2                !
 ! A88   A(23,36,42)           112.4151         estimate D2E/DX2                !
 ! A89   A(40,36,41)           107.8797         estimate D2E/DX2                !
 ! A90   A(40,36,42)           107.7629         estimate D2E/DX2                !
 ! A91   A(41,36,42)           107.7023         estimate D2E/DX2                !
 ! A92   A(28,37,30)           119.5103         estimate D2E/DX2                !
 ! A93   A(28,37,43)           120.6445         estimate D2E/DX2                !
 ! A94   A(30,37,43)           119.8452         estimate D2E/DX2                !
 ! A95   A(28,38,44)           118.3974         estimate D2E/DX2                !
 ! A96   A(38,44,45)           105.7536         estimate D2E/DX2                !
 ! A97   A(38,44,46)           111.2134         estimate D2E/DX2                !
 ! A98   A(38,44,47)           110.8403         estimate D2E/DX2                !
 ! A99   A(45,44,46)           109.5177         estimate D2E/DX2                !
 ! A100  A(45,44,47)           109.4312         estimate D2E/DX2                !
 ! A101  A(46,44,47)           109.9862         estimate D2E/DX2                !
 ! A102  A(1,48,51)            113.8792         estimate D2E/DX2                !
 ! A103  A(1,48,52)            126.3898         estimate D2E/DX2                !
 ! A104  A(51,48,52)           119.2507         estimate D2E/DX2                !
 ! A105  A(48,52,53)           119.8486         estimate D2E/DX2                !
 ! A106  A(48,52,54)           120.1299         estimate D2E/DX2                !
 ! A107  A(53,52,54)           119.9758         estimate D2E/DX2                !
 ! A108  A(52,53,55)           119.7263         estimate D2E/DX2                !
 ! A109  A(52,53,56)           120.4049         estimate D2E/DX2                !
 ! A110  A(55,53,56)           119.8396         estimate D2E/DX2                !
 ! A111  A(52,54,57)           119.4181         estimate D2E/DX2                !
 ! A112  A(52,54,58)           120.1081         estimate D2E/DX2                !
 ! A113  A(57,54,58)           120.473          estimate D2E/DX2                !
 ! A114  A(53,55,59)           121.0684         estimate D2E/DX2                !
 ! A115  A(53,55,62)           118.4118         estimate D2E/DX2                !
 ! A116  A(59,55,62)           120.5155         estimate D2E/DX2                !
 ! A117  A(54,57,59)           121.1542         estimate D2E/DX2                !
 ! A118  A(54,57,61)           118.8256         estimate D2E/DX2                !
 ! A119  A(59,57,61)           119.9565         estimate D2E/DX2                !
 ! A120  A(55,59,57)           118.6209         estimate D2E/DX2                !
 ! A121  A(55,59,60)           120.7072         estimate D2E/DX2                !
 ! A122  A(57,59,60)           120.6606         estimate D2E/DX2                !
 ! A123  A(57,61,63)           111.5814         estimate D2E/DX2                !
 ! A124  A(57,61,64)           111.0645         estimate D2E/DX2                !
 ! A125  A(57,61,65)           111.2275         estimate D2E/DX2                !
 ! A126  A(63,61,64)           107.5192         estimate D2E/DX2                !
 ! A127  A(63,61,65)           108.0771         estimate D2E/DX2                !
 ! A128  A(64,61,65)           107.1733         estimate D2E/DX2                !
 ! A129  A(55,62,66)           111.1622         estimate D2E/DX2                !
 ! A130  A(55,62,67)           111.7805         estimate D2E/DX2                !
 ! A131  A(55,62,68)           111.439          estimate D2E/DX2                !
 ! A132  A(66,62,67)           107.363          estimate D2E/DX2                !
 ! A133  A(66,62,68)           106.8826         estimate D2E/DX2                !
 ! A134  A(67,62,68)           107.979          estimate D2E/DX2                !
 ! D1    D(48,1,2,3)          -165.7735         estimate D2E/DX2                !
 ! D2    D(48,1,2,50)          -14.2864         estimate D2E/DX2                !
 ! D3    D(49,1,2,3)            15.4105         estimate D2E/DX2                !
 ! D4    D(49,1,2,50)          166.8976         estimate D2E/DX2                !
 ! D5    D(2,1,48,51)          173.6912         estimate D2E/DX2                !
 ! D6    D(2,1,48,52)            1.7655         estimate D2E/DX2                !
 ! D7    D(49,1,48,51)          -7.4708         estimate D2E/DX2                !
 ! D8    D(49,1,48,52)        -179.3966         estimate D2E/DX2                !
 ! D9    D(1,2,3,4)            -80.9241         estimate D2E/DX2                !
 ! D10   D(1,2,3,5)             38.5989         estimate D2E/DX2                !
 ! D11   D(1,2,3,6)            155.3363         estimate D2E/DX2                !
 ! D12   D(50,2,3,4)           127.0635         estimate D2E/DX2                !
 ! D13   D(50,2,3,5)          -113.4135         estimate D2E/DX2                !
 ! D14   D(50,2,3,6)             3.3239         estimate D2E/DX2                !
 ! D15   D(2,3,4,7)            -38.4748         estimate D2E/DX2                !
 ! D16   D(2,3,4,8)           -162.5342         estimate D2E/DX2                !
 ! D17   D(2,3,4,9)             75.3553         estimate D2E/DX2                !
 ! D18   D(5,3,4,7)           -158.2934         estimate D2E/DX2                !
 ! D19   D(5,3,4,8)             77.6473         estimate D2E/DX2                !
 ! D20   D(5,3,4,9)            -44.4632         estimate D2E/DX2                !
 ! D21   D(6,3,4,7)             83.2483         estimate D2E/DX2                !
 ! D22   D(6,3,4,8)            -40.811          estimate D2E/DX2                !
 ! D23   D(6,3,4,9)           -162.9215         estimate D2E/DX2                !
 ! D24   D(2,3,6,10)            56.0512         estimate D2E/DX2                !
 ! D25   D(2,3,6,11)          -123.6574         estimate D2E/DX2                !
 ! D26   D(4,3,6,10)           -67.8853         estimate D2E/DX2                !
 ! D27   D(4,3,6,11)           112.406          estimate D2E/DX2                !
 ! D28   D(5,3,6,10)           173.3962         estimate D2E/DX2                !
 ! D29   D(5,3,6,11)            -6.3124         estimate D2E/DX2                !
 ! D30   D(3,4,8,12)          -146.6362         estimate D2E/DX2                !
 ! D31   D(3,4,8,13)            90.204          estimate D2E/DX2                !
 ! D32   D(3,4,8,14)           -26.7194         estimate D2E/DX2                !
 ! D33   D(7,4,8,12)            90.6815         estimate D2E/DX2                !
 ! D34   D(7,4,8,13)           -32.4783         estimate D2E/DX2                !
 ! D35   D(7,4,8,14)          -149.4017         estimate D2E/DX2                !
 ! D36   D(9,4,8,12)           -21.8769         estimate D2E/DX2                !
 ! D37   D(9,4,8,13)          -145.0367         estimate D2E/DX2                !
 ! D38   D(9,4,8,14)            98.0399         estimate D2E/DX2                !
 ! D39   D(3,4,9,15)            80.1126         estimate D2E/DX2                !
 ! D40   D(3,4,9,16)          -158.5058         estimate D2E/DX2                !
 ! D41   D(3,4,9,69)           -37.0769         estimate D2E/DX2                !
 ! D42   D(7,4,9,15)          -163.6461         estimate D2E/DX2                !
 ! D43   D(7,4,9,16)           -42.2645         estimate D2E/DX2                !
 ! D44   D(7,4,9,69)            79.1644         estimate D2E/DX2                !
 ! D45   D(8,4,9,15)           -46.6819         estimate D2E/DX2                !
 ! D46   D(8,4,9,16)            74.6997         estimate D2E/DX2                !
 ! D47   D(8,4,9,69)          -163.8714         estimate D2E/DX2                !
 ! D48   D(3,6,10,17)           -0.2699         estimate D2E/DX2                !
 ! D49   D(3,6,10,18)         -179.5452         estimate D2E/DX2                !
 ! D50   D(11,6,10,17)         179.4425         estimate D2E/DX2                !
 ! D51   D(11,6,10,18)           0.1672         estimate D2E/DX2                !
 ! D52   D(3,6,11,19)         -179.8976         estimate D2E/DX2                !
 ! D53   D(3,6,11,20)            0.5699         estimate D2E/DX2                !
 ! D54   D(10,6,11,19)           0.3842         estimate D2E/DX2                !
 ! D55   D(10,6,11,20)        -179.1483         estimate D2E/DX2                !
 ! D56   D(4,8,12,21)           72.7661         estimate D2E/DX2                !
 ! D57   D(4,8,12,22)         -166.7921         estimate D2E/DX2                !
 ! D58   D(4,8,12,23)          -45.1069         estimate D2E/DX2                !
 ! D59   D(13,8,12,21)        -166.3922         estimate D2E/DX2                !
 ! D60   D(13,8,12,22)         -45.9503         estimate D2E/DX2                !
 ! D61   D(13,8,12,23)          75.7349         estimate D2E/DX2                !
 ! D62   D(14,8,12,21)         -47.8828         estimate D2E/DX2                !
 ! D63   D(14,8,12,22)          72.559          estimate D2E/DX2                !
 ! D64   D(14,8,12,23)        -165.7558         estimate D2E/DX2                !
 ! D65   D(4,9,15,21)           70.2999         estimate D2E/DX2                !
 ! D66   D(4,9,15,24)          -51.7806         estimate D2E/DX2                !
 ! D67   D(4,9,15,25)         -167.0372         estimate D2E/DX2                !
 ! D68   D(16,9,15,21)         -50.492          estimate D2E/DX2                !
 ! D69   D(16,9,15,24)        -172.5726         estimate D2E/DX2                !
 ! D70   D(16,9,15,25)          72.1709         estimate D2E/DX2                !
 ! D71   D(69,9,15,21)        -172.3099         estimate D2E/DX2                !
 ! D72   D(69,9,15,24)          65.6096         estimate D2E/DX2                !
 ! D73   D(69,9,15,25)         -49.647          estimate D2E/DX2                !
 ! D74   D(4,9,16,23)          -52.5987         estimate D2E/DX2                !
 ! D75   D(4,9,16,26)           69.6545         estimate D2E/DX2                !
 ! D76   D(4,9,16,27)         -174.212          estimate D2E/DX2                !
 ! D77   D(15,9,16,23)          69.9751         estimate D2E/DX2                !
 ! D78   D(15,9,16,26)        -167.7717         estimate D2E/DX2                !
 ! D79   D(15,9,16,27)         -51.6382         estimate D2E/DX2                !
 ! D80   D(69,9,16,23)        -171.1877         estimate D2E/DX2                !
 ! D81   D(69,9,16,26)         -48.9345         estimate D2E/DX2                !
 ! D82   D(69,9,16,27)          67.199          estimate D2E/DX2                !
 ! D83   D(6,10,17,28)        -178.6666         estimate D2E/DX2                !
 ! D84   D(6,10,17,29)          -0.6155         estimate D2E/DX2                !
 ! D85   D(18,10,17,28)          0.5962         estimate D2E/DX2                !
 ! D86   D(18,10,17,29)        178.6473         estimate D2E/DX2                !
 ! D87   D(6,10,18,30)         179.0215         estimate D2E/DX2                !
 ! D88   D(6,10,18,31)          -0.6573         estimate D2E/DX2                !
 ! D89   D(17,10,18,30)         -0.2977         estimate D2E/DX2                !
 ! D90   D(17,10,18,31)       -179.9765         estimate D2E/DX2                !
 ! D91   D(6,11,19,31)          -0.5371         estimate D2E/DX2                !
 ! D92   D(6,11,19,32)         179.8422         estimate D2E/DX2                !
 ! D93   D(20,11,19,31)        179.0025         estimate D2E/DX2                !
 ! D94   D(20,11,19,32)         -0.6182         estimate D2E/DX2                !
 ! D95   D(8,12,21,15)         -48.9216         estimate D2E/DX2                !
 ! D96   D(8,12,21,33)          71.1898         estimate D2E/DX2                !
 ! D97   D(8,12,21,34)        -169.772          estimate D2E/DX2                !
 ! D98   D(22,12,21,15)       -169.2743         estimate D2E/DX2                !
 ! D99   D(22,12,21,33)        -49.1628         estimate D2E/DX2                !
 ! D100  D(22,12,21,34)         69.8754         estimate D2E/DX2                !
 ! D101  D(23,12,21,15)         70.779          estimate D2E/DX2                !
 ! D102  D(23,12,21,33)       -169.1096         estimate D2E/DX2                !
 ! D103  D(23,12,21,34)        -50.0714         estimate D2E/DX2                !
 ! D104  D(8,12,23,16)          66.4129         estimate D2E/DX2                !
 ! D105  D(8,12,23,35)        -178.4472         estimate D2E/DX2                !
 ! D106  D(8,12,23,36)         -59.2978         estimate D2E/DX2                !
 ! D107  D(21,12,23,16)        -51.3303         estimate D2E/DX2                !
 ! D108  D(21,12,23,35)         63.8096         estimate D2E/DX2                !
 ! D109  D(21,12,23,36)       -177.041          estimate D2E/DX2                !
 ! D110  D(22,12,23,16)       -171.6434         estimate D2E/DX2                !
 ! D111  D(22,12,23,35)        -56.5035         estimate D2E/DX2                !
 ! D112  D(22,12,23,36)         62.6459         estimate D2E/DX2                !
 ! D113  D(9,15,21,12)         -17.1491         estimate D2E/DX2                !
 ! D114  D(9,15,21,33)        -138.1305         estimate D2E/DX2                !
 ! D115  D(9,15,21,34)         103.4637         estimate D2E/DX2                !
 ! D116  D(24,15,21,12)        101.3728         estimate D2E/DX2                !
 ! D117  D(24,15,21,33)        -19.6086         estimate D2E/DX2                !
 ! D118  D(24,15,21,34)       -138.0144         estimate D2E/DX2                !
 ! D119  D(25,15,21,12)       -135.7235         estimate D2E/DX2                !
 ! D120  D(25,15,21,33)        103.2951         estimate D2E/DX2                !
 ! D121  D(25,15,21,34)        -15.1107         estimate D2E/DX2                !
 ! D122  D(9,16,23,12)         -15.0366         estimate D2E/DX2                !
 ! D123  D(9,16,23,35)        -130.2986         estimate D2E/DX2                !
 ! D124  D(9,16,23,36)         110.9885         estimate D2E/DX2                !
 ! D125  D(26,16,23,12)       -134.006          estimate D2E/DX2                !
 ! D126  D(26,16,23,35)        110.732          estimate D2E/DX2                !
 ! D127  D(26,16,23,36)         -7.9809         estimate D2E/DX2                !
 ! D128  D(27,16,23,12)        102.8593         estimate D2E/DX2                !
 ! D129  D(27,16,23,35)        -12.4028         estimate D2E/DX2                !
 ! D130  D(27,16,23,36)       -131.1157         estimate D2E/DX2                !
 ! D131  D(10,17,28,37)         -0.4064         estimate D2E/DX2                !
 ! D132  D(10,17,28,38)        179.4769         estimate D2E/DX2                !
 ! D133  D(29,17,28,37)       -178.551          estimate D2E/DX2                !
 ! D134  D(29,17,28,38)          1.3324         estimate D2E/DX2                !
 ! D135  D(10,18,30,37)         -0.1913         estimate D2E/DX2                !
 ! D136  D(10,18,30,39)       -179.8645         estimate D2E/DX2                !
 ! D137  D(31,18,30,37)        179.506          estimate D2E/DX2                !
 ! D138  D(31,18,30,39)         -0.1672         estimate D2E/DX2                !
 ! D139  D(10,18,31,19)          0.5407         estimate D2E/DX2                !
 ! D140  D(30,18,31,19)       -179.1417         estimate D2E/DX2                !
 ! D141  D(11,19,31,18)          0.0675         estimate D2E/DX2                !
 ! D142  D(32,19,31,18)        179.697          estimate D2E/DX2                !
 ! D143  D(12,23,36,40)       -176.6176         estimate D2E/DX2                !
 ! D144  D(12,23,36,41)        -57.3496         estimate D2E/DX2                !
 ! D145  D(12,23,36,42)         62.8452         estimate D2E/DX2                !
 ! D146  D(16,23,36,40)         60.7285         estimate D2E/DX2                !
 ! D147  D(16,23,36,41)        179.9964         estimate D2E/DX2                !
 ! D148  D(16,23,36,42)        -59.8088         estimate D2E/DX2                !
 ! D149  D(35,23,36,40)        -57.6714         estimate D2E/DX2                !
 ! D150  D(35,23,36,41)         61.5966         estimate D2E/DX2                !
 ! D151  D(35,23,36,42)       -178.2086         estimate D2E/DX2                !
 ! D152  D(17,28,37,30)         -0.092          estimate D2E/DX2                !
 ! D153  D(17,28,37,43)        179.8332         estimate D2E/DX2                !
 ! D154  D(38,28,37,30)       -179.9655         estimate D2E/DX2                !
 ! D155  D(38,28,37,43)         -0.0403         estimate D2E/DX2                !
 ! D156  D(17,28,38,44)       -173.4581         estimate D2E/DX2                !
 ! D157  D(37,28,38,44)          6.4204         estimate D2E/DX2                !
 ! D158  D(18,30,37,28)          0.3898         estimate D2E/DX2                !
 ! D159  D(18,30,37,43)       -179.536          estimate D2E/DX2                !
 ! D160  D(39,30,37,28)       -179.9495         estimate D2E/DX2                !
 ! D161  D(39,30,37,43)          0.1247         estimate D2E/DX2                !
 ! D162  D(28,38,44,45)        175.478          estimate D2E/DX2                !
 ! D163  D(28,38,44,46)        -65.7148         estimate D2E/DX2                !
 ! D164  D(28,38,44,47)         56.9727         estimate D2E/DX2                !
 ! D165  D(1,48,52,53)         -50.8387         estimate D2E/DX2                !
 ! D166  D(1,48,52,54)         131.6207         estimate D2E/DX2                !
 ! D167  D(51,48,52,53)        137.6262         estimate D2E/DX2                !
 ! D168  D(51,48,52,54)        -39.9145         estimate D2E/DX2                !
 ! D169  D(48,52,53,55)       -179.447          estimate D2E/DX2                !
 ! D170  D(48,52,53,56)         -1.4128         estimate D2E/DX2                !
 ! D171  D(54,52,53,55)         -1.9025         estimate D2E/DX2                !
 ! D172  D(54,52,53,56)        176.1316         estimate D2E/DX2                !
 ! D173  D(48,52,54,57)        177.9756         estimate D2E/DX2                !
 ! D174  D(48,52,54,58)         -1.7019         estimate D2E/DX2                !
 ! D175  D(53,52,54,57)          0.4381         estimate D2E/DX2                !
 ! D176  D(53,52,54,58)       -179.2394         estimate D2E/DX2                !
 ! D177  D(52,53,55,59)          1.8809         estimate D2E/DX2                !
 ! D178  D(52,53,55,62)       -177.3741         estimate D2E/DX2                !
 ! D179  D(56,53,55,59)       -176.1645         estimate D2E/DX2                !
 ! D180  D(56,53,55,62)          4.5805         estimate D2E/DX2                !
 ! D181  D(52,54,57,59)          1.0895         estimate D2E/DX2                !
 ! D182  D(52,54,57,61)        178.1846         estimate D2E/DX2                !
 ! D183  D(58,54,57,59)       -179.2343         estimate D2E/DX2                !
 ! D184  D(58,54,57,61)         -2.1391         estimate D2E/DX2                !
 ! D185  D(53,55,59,57)         -0.3746         estimate D2E/DX2                !
 ! D186  D(53,55,59,60)        178.4077         estimate D2E/DX2                !
 ! D187  D(62,55,59,57)        178.8648         estimate D2E/DX2                !
 ! D188  D(62,55,59,60)         -2.3529         estimate D2E/DX2                !
 ! D189  D(53,55,62,66)         82.749          estimate D2E/DX2                !
 ! D190  D(53,55,62,67)       -157.2981         estimate D2E/DX2                !
 ! D191  D(53,55,62,68)        -36.3667         estimate D2E/DX2                !
 ! D192  D(59,55,62,66)        -96.5103         estimate D2E/DX2                !
 ! D193  D(59,55,62,67)         23.4426         estimate D2E/DX2                !
 ! D194  D(59,55,62,68)        144.3741         estimate D2E/DX2                !
 ! D195  D(54,57,59,55)         -1.1226         estimate D2E/DX2                !
 ! D196  D(54,57,59,60)       -179.9055         estimate D2E/DX2                !
 ! D197  D(61,57,59,55)       -178.1852         estimate D2E/DX2                !
 ! D198  D(61,57,59,60)          3.0319         estimate D2E/DX2                !
 ! D199  D(54,57,61,63)        157.2691         estimate D2E/DX2                !
 ! D200  D(54,57,61,64)        -82.7804         estimate D2E/DX2                !
 ! D201  D(54,57,61,65)         36.4972         estimate D2E/DX2                !
 ! D202  D(59,57,61,63)        -25.6001         estimate D2E/DX2                !
 ! D203  D(59,57,61,64)         94.3504         estimate D2E/DX2                !
 ! D204  D(59,57,61,65)       -146.372          estimate D2E/DX2                !
 --------------------------------------------------------------------------------
 Trust Radius=1.00D-01 FncErr=1.00D-07 GrdErr=1.00D-06 EigMax=2.50D+02 EigMin=1.00D-04
 Number of steps in this run=     50 maximum allowed number of steps=    414.
 GradGradGradGradGradGradGradGradGradGradGradGradGradGradGradGradGradGrad

 Stoichiometry    C28H29F6N4O2(1+)
 Framework group  C1[X(C28H29F6N4O2)]
 Deg. of freedom   201
 Full point group                 C1      NOp   1
 Largest Abelian subgroup         C1      NOp   1
 Largest concise Abelian subgroup C1      NOp   1
                         Standard orientation:                         
 ---------------------------------------------------------------------
 Center     Atomic      Atomic             Coordinates (Angstroms)
 Number     Number       Type             X           Y           Z
 ---------------------------------------------------------------------
      1          6           0       -0.382753   -2.533770   -0.492877
      2          7           0       -0.631603   -1.330758    0.092184
      3          6           0       -1.867215   -1.068859    0.831357
      4          6           0       -3.045039   -0.723712   -0.108050
      5          1           0       -2.134586   -1.968795    1.398977
      6          6           0       -1.597114    0.044013    1.828748
      7          1           0       -2.657438   -0.104936   -0.921004
      8          6           0       -4.242387   -0.036716    0.569724
      9          7           0       -3.585584   -1.955196   -0.808901
     10          6           0       -1.087272    1.317913    1.417420
     11          6           0       -1.837315   -0.163665    3.161679
     12          6           0       -5.534723   -0.487051   -0.133823
     13          1           0       -4.096896    1.046112    0.532102
     14          1           0       -4.292568   -0.312250    1.629774
     15          6           0       -4.505666   -2.743983    0.080920
     16          6           0       -4.320965   -1.523717   -2.046802
     17          6           0       -0.784248    1.665303    0.081438
     18          6           0       -0.863075    2.282826    2.443230
     19          6           0       -1.587671    0.875628    4.095129
     20          1           0       -2.210894   -1.119534    3.517526
     21          6           0       -5.806044   -1.943708    0.273295
     22          1           0       -6.369131    0.152423    0.164140
     23          6           0       -5.367162   -0.445352   -1.665674
     24          1           0       -3.974064   -2.918710    1.017352
     25          1           0       -4.658629   -3.710912   -0.400671
     26          1           0       -3.575041   -1.153777   -2.754535
     27          1           0       -4.780521   -2.422309   -2.462607
     28          6           0       -0.269490    2.906378   -0.234498
     29          1           0       -0.913878    0.965949   -0.735251
     30          6           0       -0.339299    3.551111    2.087395
     31          7           0       -1.120271    2.051247    3.761042
     32          1           0       -1.783002    0.704712    5.151127
     33          1           0       -6.121616   -2.004821    1.317564
     34          1           0       -6.608971   -2.363143   -0.340302
     35          1           0       -6.321726   -0.747278   -2.108971
     36          6           0       -5.019453    0.941244   -2.204232
     37          6           0       -0.042091    3.865837    0.786326
     38          8           0       -0.008991    3.120870   -1.541681
     39          1           0       -0.176715    4.264647    2.888065
     40          1           0       -4.970697    0.929551   -3.296631
     41          1           0       -5.785061    1.664974   -1.909957
     42          1           0       -4.057440    1.304470   -1.831106
     43          1           0        0.364157    4.841110    0.546876
     44          6           0        0.651125    4.321896   -1.910104
     45          1           0        0.828176    4.245170   -2.981804
     46          1           0        0.025825    5.196829   -1.704354
     47          1           0        1.609094    4.415602   -1.388485
     48          7           0        0.905216   -2.740217   -0.879352
     49          8           0       -1.260500   -3.385677   -0.688981
     50          1           0        0.172080   -0.789644    0.393924
     51          1           0        1.086407   -3.677651   -1.218710
     52          6           0        1.986625   -1.851054   -0.698540
     53          6           0        1.865472   -0.520735   -1.098068
     54          6           0        3.191698   -2.312725   -0.168944
     55          6           0        2.934399    0.348564   -0.929640
     56          1           0        0.951962   -0.169164   -1.568778
     57          6           0        4.260800   -1.433707   -0.036572
     58          1           0        3.292303   -3.351325    0.131419
     59          6           0        4.142448   -0.093540   -0.403000
     60          1           0        4.981725    0.584535   -0.297813
     61          6           0        5.542880   -1.936041    0.575286
     62          6           0        2.751128    1.794337   -1.316291
     63          9           0        6.588451   -1.189274    0.207984
     64          9           0        5.479892   -1.911425    1.913326
     65          9           0        5.789022   -3.201709    0.214309
     66          9           0        2.152010    2.486999   -0.333469
     67          9           0        3.919019    2.391480   -1.570179
     68          9           0        1.979026    1.916173   -2.404758
     69          1           0       -2.773573   -2.569395   -1.031291
 ---------------------------------------------------------------------
 Rotational constants (GHZ):           0.1256985           0.0623117           0.0539729
 Basis read from chk: "urea_cinchrona_OPLS3e_5000_steps_1_opt_freq.chk" (6D, 7F)
 There are   658 symmetry adapted cartesian basis functions of A   symmetry.
 There are   658 symmetry adapted basis functions of A   symmetry.
   658 basis functions,  1236 primitive gaussians,   658 cartesian basis functions
   147 alpha electrons      147 beta electrons
       nuclear repulsion energy      5080.3533090607 Hartrees.
 NAtoms=   69 NActive=   69 NUniq=   69 SFac= 1.00D+00 NAtFMM=   60 NAOKFM=T Big=T
 Integral buffers will be    131072 words long.
 Raffenetti 2 integral format.
 Two-electron integral symmetry is turned on.
 ------------------------------------------------------------------------------
 Polarizable Continuum Model (PCM)
 =================================
 Model                : PCM.
 Atomic radii         : UFF (Universal Force Field).
 Polarization charges : Total charges.
 Charge compensation  : None.
 Solution method      : On-the-fly selection.
 Cavity type          : Scaled VdW (van der Waals Surface) (Alpha=1.100).
 Cavity algorithm     : GePol (No added spheres)
                        Default sphere list used, NSphG=   69.
                        Lebedev-Laikov grids with approx.  5.0 points / Ang**2.
                        Smoothing algorithm: York/Karplus (Gamma=1.0000).
                        Polarization charges: spherical gaussians, with
                                              point-specific exponents (IZeta= 3).
                        Self-potential: point-specific (ISelfS= 7).
                        Self-field    : sphere-specific E.n sum rule (ISelfD= 2).
 1st derivatives      : Analytical E(r).r(x)/FMM algorithm (CHGder, D1EAlg=3).
                        Cavity 1st derivative terms included.
 Solvent              : Benzene, Eps=   2.270600 Eps(inf)=   2.253301
 ------------------------------------------------------------------------------
 One-electron integrals computed using PRISM.
 NBasis=   658 RedAO= T EigKep=  3.23D-04  NBF=   658
 NBsUse=   658 1.00D-06 EigRej= -1.00D+00 NBFU=   658
 Initial guess from the checkpoint file:  "urea_cinchrona_OPLS3e_5000_steps_1_opt_freq.chk"
 B after Tr=     0.000000   -0.000000    0.000000
         Rot=    1.000000    0.000000    0.000000    0.000000 Ang=   0.00 deg.
 Requested convergence on RMS density matrix=1.00D-08 within 128 cycles.
 Requested convergence on MAX density matrix=1.00D-06.
 Requested convergence on             energy=1.00D-06.
 No special actions if energy rises.
 Inv3:  Mode=1 IEnd=    57081132.
 Iteration    1 A*A^-1 deviation from unit magnitude is 3.77D-15 for   1988.
 Iteration    1 A*A^-1 deviation from orthogonality  is 2.36D-15 for   4019   2999.
 Iteration    1 A^-1*A deviation from unit magnitude is 3.77D-15 for   1988.
 Iteration    1 A^-1*A deviation from orthogonality  is 2.55D-15 for   3283    600.
 Error on total polarization charges =  0.03295
 SCF Done:  E(RM062X) =  -2052.05071418     A.U. after    1 cycles
            NFock=  1  Conv=0.24D-08     -V/T= 2.0079

 **********************************************************************

            Population analysis using the SCF Density.

 **********************************************************************

 Orbital symmetries:
       Occupied  (A) (A) (A) (A) (A) (A) (A) (A) (A) (A) (A) (A)
                 (A) (A) (A) (A) (A) (A) (A) (A) (A) (A) (A) (A)
                 (A) (A) (A) (A) (A) (A) (A) (A) (A) (A) (A) (A)
                 (A) (A) (A) (A) (A) (A) (A) (A) (A) (A) (A) (A)
                 (A) (A) (A) (A) (A) (A) (A) (A) (A) (A) (A) (A)
                 (A) (A) (A) (A) (A) (A) (A) (A) (A) (A) (A) (A)
                 (A) (A) (A) (A) (A) (A) (A) (A) (A) (A) (A) (A)
                 (A) (A) (A) (A) (A) (A) (A) (A) (A) (A) (A) (A)
                 (A) (A) (A) (A) (A) (A) (A) (A) (A) (A) (A) (A)
                 (A) (A) (A) (A) (A) (A) (A) (A) (A) (A) (A) (A)
                 (A) (A) (A) (A) (A) (A) (A) (A) (A) (A) (A) (A)
                 (A) (A) (A) (A) (A) (A) (A) (A) (A) (A) (A) (A)
                 (A) (A) (A)
       Virtual   (A) (A) (A) (A) (A) (A) (A) (A) (A) (A) (A) (A)
                 (A) (A) (A) (A) (A) (A) (A) (A) (A) (A) (A) (A)
                 (A) (A) (A) (A) (A) (A) (A) (A) (A) (A) (A) (A)
                 (A) (A) (A) (A) (A) (A) (A) (A) (A) (A) (A) (A)
                 (A) (A) (A) (A) (A) (A) (A) (A) (A) (A) (A) (A)
                 (A) (A) (A) (A) (A) (A) (A) (A) (A) (A) (A) (A)
                 (A) (A) (A) (A) (A) (A) (A) (A) (A) (A) (A) (A)
                 (A) (A) (A) (A) (A) (A) (A) (A) (A) (A) (A) (A)
                 (A) (A) (A) (A) (A) (A) (A) (A) (A) (A) (A) (A)
                 (A) (A) (A) (A) (A) (A) (A) (A) (A) (A) (A) (A)
                 (A) (A) (A) (A) (A) (A) (A) (A) (A) (A) (A) (A)
                 (A) (A) (A) (A) (A) (A) (A) (A) (A) (A) (A) (A)
                 (A) (A) (A) (A) (A) (A) (A) (A) (A) (A) (A) (A)
                 (A) (A) (A) (A) (A) (A) (A) (A) (A) (A) (A) (A)
                 (A) (A) (A) (A) (A) (A) (A) (A) (A) (A) (A) (A)
                 (A) (A) (A) (A) (A) (A) (A) (A) (A) (A) (A) (A)
                 (A) (A) (A) (A) (A) (A) (A) (A) (A) (A) (A) (A)
                 (A) (A) (A) (A) (A) (A) (A) (A) (A) (A) (A) (A)
                 (A) (A) (A) (A) (A) (A) (A) (A) (A) (A) (A) (A)
                 (A) (A) (A) (A) (A) (A) (A) (A) (A) (A) (A) (A)
                 (A) (A) (A) (A) (A) (A) (A) (A) (A) (A) (A) (A)
                 (A) (A) (A) (A) (A) (A) (A) (A) (A) (A) (A) (A)
                 (A) (A) (A) (A) (A) (A) (A) (A) (A) (A) (A) (A)
                 (A) (A) (A) (A) (A) (A) (A) (A) (A) (A) (A) (A)
                 (A) (A) (A) (A) (A) (A) (A) (A) (A) (A) (A) (A)
                 (A) (A) (A) (A) (A) (A) (A) (A) (A) (A) (A) (A)
                 (A) (A) (A) (A) (A) (A) (A) (A) (A) (A) (A) (A)
                 (A) (A) (A) (A) (A) (A) (A) (A) (A) (A) (A) (A)
                 (A) (A) (A) (A) (A) (A) (A) (A) (A) (A) (A) (A)
                 (A) (A) (A) (A) (A) (A) (A) (A) (A) (A) (A) (A)
                 (A) (A) (A) (A) (A) (A) (A) (A) (A) (A) (A) (A)
                 (A) (A) (A) (A) (A) (A) (A) (A) (A) (A) (A) (A)
                 (A) (A) (A) (A) (A) (A) (A) (A) (A) (A) (A) (A)
                 (A) (A) (A) (A) (A) (A) (A) (A) (A) (A) (A) (A)
                 (A) (A) (A) (A) (A) (A) (A) (A) (A) (A) (A) (A)
                 (A) (A) (A) (A) (A) (A) (A) (A) (A) (A) (A) (A)
                 (A) (A) (A) (A) (A) (A) (A) (A) (A) (A) (A) (A)
                 (A) (A) (A) (A) (A) (A) (A) (A) (A) (A) (A) (A)
                 (A) (A) (A) (A) (A) (A) (A) (A) (A) (A) (A) (A)
                 (A) (A) (A) (A) (A) (A) (A) (A) (A) (A) (A) (A)
                 (A) (A) (A) (A) (A) (A) (A) (A) (A) (A) (A) (A)
                 (A) (A) (A) (A) (A) (A) (A) (A) (A) (A) (A) (A)
                 (A) (A) (A) (A) (A) (A) (A)
 The electronic state is 1-A.
 Alpha  occ. eigenvalues --  -25.33032 -25.32826 -25.32785 -25.32347 -25.32250
 Alpha  occ. eigenvalues --  -25.31750 -19.71157 -19.68399 -14.92920 -14.86034
 Alpha  occ. eigenvalues --  -14.85489 -14.80417 -10.84798 -10.84148 -10.75783
 Alpha  occ. eigenvalues --  -10.67876 -10.67816 -10.67325 -10.66555 -10.66477
 Alpha  occ. eigenvalues --  -10.66288 -10.63858 -10.63711 -10.63349 -10.63186
 Alpha  occ. eigenvalues --  -10.63136 -10.63019 -10.62914 -10.62898 -10.62875
 Alpha  occ. eigenvalues --  -10.62136 -10.62102 -10.61880 -10.61673 -10.61407
 Alpha  occ. eigenvalues --  -10.61197 -10.60002 -10.59912 -10.59609 -10.58980
 Alpha  occ. eigenvalues --   -1.50179  -1.49422  -1.40882  -1.40623  -1.40224
 Alpha  occ. eigenvalues --   -1.39748  -1.24954  -1.23422  -1.18824  -1.13302
 Alpha  occ. eigenvalues --   -1.10589  -1.09642  -1.04090  -1.00116  -0.99563
 Alpha  occ. eigenvalues --   -0.98355  -0.95873  -0.94960  -0.94659  -0.92839
 Alpha  occ. eigenvalues --   -0.90034  -0.89330  -0.87287  -0.85567  -0.85268
 Alpha  occ. eigenvalues --   -0.84799  -0.82966  -0.80911  -0.79849  -0.78644
 Alpha  occ. eigenvalues --   -0.78005  -0.77123  -0.76330  -0.75642  -0.74604
 Alpha  occ. eigenvalues --   -0.73921  -0.73283  -0.72586  -0.72190  -0.71741
 Alpha  occ. eigenvalues --   -0.71623  -0.70905  -0.69136  -0.67644  -0.66604
 Alpha  occ. eigenvalues --   -0.66232  -0.65334  -0.64825  -0.64548  -0.63938
 Alpha  occ. eigenvalues --   -0.63377  -0.62791  -0.62283  -0.61691  -0.60609
 Alpha  occ. eigenvalues --   -0.60321  -0.59585  -0.59495  -0.58913  -0.58533
 Alpha  occ. eigenvalues --   -0.58095  -0.57396  -0.57072  -0.56666  -0.56316
 Alpha  occ. eigenvalues --   -0.56217  -0.56002  -0.55745  -0.55630  -0.55567
 Alpha  occ. eigenvalues --   -0.55344  -0.54966  -0.54367  -0.53868  -0.53630
 Alpha  occ. eigenvalues --   -0.53509  -0.53269  -0.53045  -0.52827  -0.52698
 Alpha  occ. eigenvalues --   -0.52332  -0.52065  -0.51465  -0.51264  -0.51197
 Alpha  occ. eigenvalues --   -0.49567  -0.49333  -0.48979  -0.48057  -0.47557
 Alpha  occ. eigenvalues --   -0.46977  -0.46626  -0.46331  -0.44775  -0.43685
 Alpha  occ. eigenvalues --   -0.43329  -0.43114  -0.42702  -0.42101  -0.41532
 Alpha  occ. eigenvalues --   -0.40894  -0.39326  -0.38499  -0.36570  -0.35324
 Alpha  occ. eigenvalues --   -0.34137  -0.30750
 Alpha virt. eigenvalues --   -0.07100  -0.05786  -0.05048  -0.02589   0.00581
 Alpha virt. eigenvalues --    0.02404   0.03770   0.05121   0.06264   0.07871
 Alpha virt. eigenvalues --    0.08365   0.08652   0.09127   0.09364   0.10357
 Alpha virt. eigenvalues --    0.10694   0.11140   0.11355   0.11550   0.11856
 Alpha virt. eigenvalues --    0.12624   0.12845   0.13071   0.13310   0.13498
 Alpha virt. eigenvalues --    0.14092   0.14586   0.14803   0.15584   0.15786
 Alpha virt. eigenvalues --    0.16199   0.16655   0.16797   0.17330   0.17581
 Alpha virt. eigenvalues --    0.17780   0.18307   0.18637   0.18723   0.19174
 Alpha virt. eigenvalues --    0.19762   0.19820   0.20500   0.21125   0.21296
 Alpha virt. eigenvalues --    0.21777   0.22408   0.22913   0.23395   0.23450
 Alpha virt. eigenvalues --    0.23971   0.24115   0.24594   0.25057   0.25310
 Alpha virt. eigenvalues --    0.26058   0.26589   0.27385   0.27654   0.28189
 Alpha virt. eigenvalues --    0.28513   0.28831   0.29010   0.29734   0.29765
 Alpha virt. eigenvalues --    0.31070   0.31603   0.32490   0.34028   0.34903
 Alpha virt. eigenvalues --    0.35346   0.36108   0.37177   0.39386   0.40666
 Alpha virt. eigenvalues --    0.43149   0.44976   0.45162   0.45376   0.45690
 Alpha virt. eigenvalues --    0.46657   0.47321   0.47883   0.48385   0.48472
 Alpha virt. eigenvalues --    0.49059   0.49176   0.49714   0.50393   0.50997
 Alpha virt. eigenvalues --    0.51453   0.51853   0.52186   0.52720   0.53056
 Alpha virt. eigenvalues --    0.53196   0.53352   0.54439   0.54553   0.54889
 Alpha virt. eigenvalues --    0.55618   0.56058   0.56466   0.57071   0.57859
 Alpha virt. eigenvalues --    0.58236   0.58793   0.58883   0.59249   0.59471
 Alpha virt. eigenvalues --    0.60255   0.60752   0.61220   0.61604   0.62070
 Alpha virt. eigenvalues --    0.62312   0.62736   0.63391   0.63686   0.64123
 Alpha virt. eigenvalues --    0.64464   0.65018   0.65361   0.65639   0.66532
 Alpha virt. eigenvalues --    0.66967   0.67628   0.67995   0.68244   0.68993
 Alpha virt. eigenvalues --    0.69252   0.69754   0.70459   0.71464   0.71685
 Alpha virt. eigenvalues --    0.72687   0.73368   0.74102   0.74843   0.76143
 Alpha virt. eigenvalues --    0.76310   0.77074   0.78320   0.78730   0.78884
 Alpha virt. eigenvalues --    0.80470   0.81248   0.81586   0.82082   0.82393
 Alpha virt. eigenvalues --    0.82821   0.83208   0.83857   0.84300   0.84478
 Alpha virt. eigenvalues --    0.85190   0.85340   0.85587   0.85789   0.86420
 Alpha virt. eigenvalues --    0.86878   0.87298   0.87585   0.88277   0.88736
 Alpha virt. eigenvalues --    0.89048   0.89501   0.89905   0.90064   0.90332
 Alpha virt. eigenvalues --    0.90623   0.91171   0.91591   0.92631   0.92984
 Alpha virt. eigenvalues --    0.93083   0.93469   0.93975   0.94199   0.94595
 Alpha virt. eigenvalues --    0.95212   0.95544   0.96551   0.96823   0.97127
 Alpha virt. eigenvalues --    0.97831   0.98777   0.99197   0.99526   0.99965
 Alpha virt. eigenvalues --    1.00958   1.01241   1.01464   1.01803   1.03086
 Alpha virt. eigenvalues --    1.03956   1.04689   1.05090   1.06071   1.07396
 Alpha virt. eigenvalues --    1.07726   1.08947   1.09194   1.09564   1.10771
 Alpha virt. eigenvalues --    1.11388   1.11606   1.12580   1.13365   1.13630
 Alpha virt. eigenvalues --    1.14109   1.15001   1.15545   1.15778   1.16589
 Alpha virt. eigenvalues --    1.16714   1.18293   1.18445   1.19246   1.19691
 Alpha virt. eigenvalues --    1.21855   1.22997   1.23306   1.23672   1.24063
 Alpha virt. eigenvalues --    1.25529   1.26459   1.26680   1.27052   1.28089
 Alpha virt. eigenvalues --    1.28342   1.29083   1.31454   1.32557   1.32688
 Alpha virt. eigenvalues --    1.33718   1.34939   1.35735   1.35984   1.36395
 Alpha virt. eigenvalues --    1.37835   1.38428   1.38734   1.39146   1.39603
 Alpha virt. eigenvalues --    1.40567   1.41610   1.41978   1.42377   1.42773
 Alpha virt. eigenvalues --    1.43489   1.43661   1.43814   1.44731   1.45224
 Alpha virt. eigenvalues --    1.45853   1.46014   1.46794   1.47369   1.47831
 Alpha virt. eigenvalues --    1.48181   1.48740   1.49260   1.50706   1.51270
 Alpha virt. eigenvalues --    1.51935   1.52246   1.52953   1.54221   1.55327
 Alpha virt. eigenvalues --    1.56228   1.57542   1.59198   1.59415   1.59654
 Alpha virt. eigenvalues --    1.62243   1.63486   1.64324   1.64751   1.65106
 Alpha virt. eigenvalues --    1.66361   1.67609   1.67858   1.68585   1.68833
 Alpha virt. eigenvalues --    1.69199   1.69704   1.70260   1.71434   1.72374
 Alpha virt. eigenvalues --    1.73030   1.73232   1.74158   1.74960   1.75558
 Alpha virt. eigenvalues --    1.75974   1.76456   1.77305   1.78095   1.78836
 Alpha virt. eigenvalues --    1.79410   1.80223   1.81177   1.81670   1.82036
 Alpha virt. eigenvalues --    1.82601   1.83033   1.83815   1.84452   1.85273
 Alpha virt. eigenvalues --    1.85811   1.86336   1.86605   1.87228   1.87814
 Alpha virt. eigenvalues --    1.88687   1.88803   1.89196   1.89354   1.90163
 Alpha virt. eigenvalues --    1.90556   1.91203   1.92341   1.92694   1.93191
 Alpha virt. eigenvalues --    1.93623   1.93890   1.94480   1.95646   1.96125
 Alpha virt. eigenvalues --    1.96449   1.96575   1.97563   1.98951   1.99388
 Alpha virt. eigenvalues --    2.00095   2.00707   2.01155   2.01630   2.02501
 Alpha virt. eigenvalues --    2.02687   2.02956   2.03263   2.03865   2.04079
 Alpha virt. eigenvalues --    2.04602   2.05011   2.05521   2.06141   2.06932
 Alpha virt. eigenvalues --    2.07660   2.08659   2.08842   2.09770   2.10512
 Alpha virt. eigenvalues --    2.10822   2.11165   2.11274   2.12172   2.12341
 Alpha virt. eigenvalues --    2.13570   2.14231   2.14504   2.15137   2.15455
 Alpha virt. eigenvalues --    2.16105   2.16533   2.16892   2.17242   2.18098
 Alpha virt. eigenvalues --    2.18921   2.18983   2.19632   2.19997   2.20685
 Alpha virt. eigenvalues --    2.21179   2.22286   2.22936   2.23587   2.25213
 Alpha virt. eigenvalues --    2.25822   2.26872   2.27580   2.28407   2.28571
 Alpha virt. eigenvalues --    2.29917   2.30573   2.32150   2.33167   2.33624
 Alpha virt. eigenvalues --    2.34016   2.34308   2.35012   2.35244   2.36169
 Alpha virt. eigenvalues --    2.37948   2.38384   2.40500   2.41313   2.41937
 Alpha virt. eigenvalues --    2.42109   2.42148   2.44559   2.45187   2.45878
 Alpha virt. eigenvalues --    2.46812   2.48479   2.48769   2.49571   2.50638
 Alpha virt. eigenvalues --    2.52295   2.52867   2.54077   2.54333   2.55682
 Alpha virt. eigenvalues --    2.56805   2.57486   2.58592   2.58922   2.59730
 Alpha virt. eigenvalues --    2.61294   2.62035   2.62377   2.63117   2.63394
 Alpha virt. eigenvalues --    2.65364   2.65801   2.67012   2.68056   2.68569
 Alpha virt. eigenvalues --    2.69405   2.70019   2.70782   2.71883   2.72263
 Alpha virt. eigenvalues --    2.72929   2.73444   2.75440   2.75772   2.76801
 Alpha virt. eigenvalues --    2.77680   2.78597   2.79138   2.79736   2.80943
 Alpha virt. eigenvalues --    2.81480   2.83015   2.86076   2.86423   2.86894
 Alpha virt. eigenvalues --    2.92106   2.93734   2.95141   2.96579   2.97848
 Alpha virt. eigenvalues --    3.01238   3.05363   3.05637   3.05842   3.06533
 Alpha virt. eigenvalues --    3.07201   3.08591   3.10411   3.11024   3.14754
 Alpha virt. eigenvalues --    3.16221   3.16872   3.20210   3.37755   3.38759
 Alpha virt. eigenvalues --    3.44036   4.01220   4.04015   4.05489   4.06767
 Alpha virt. eigenvalues --    4.07252   4.08960   4.09398   4.10439   4.13308
 Alpha virt. eigenvalues --    4.14795   4.16754   4.18877   4.20742   4.23819
 Alpha virt. eigenvalues --    4.23933   4.25641   4.27696   4.29086   4.31242
 Alpha virt. eigenvalues --    4.34018   4.40564   4.42138   4.42871   4.44981
 Alpha virt. eigenvalues --    4.46319   4.47820   4.50447   4.52106   4.54579
 Alpha virt. eigenvalues --    4.58083   4.60769   4.61738   4.65786   4.67975
 Alpha virt. eigenvalues --    4.78298   4.82622   4.87650   4.89758   5.53671
 Alpha virt. eigenvalues --    5.77444
          Condensed to atoms (all electrons):
 Mulliken charges:
               1
     1  C    0.834632
     2  N   -0.695584
     3  C   -0.053455
     4  C    0.004557
     5  H    0.206671
     6  C    0.065045
     7  H    0.206181
     8  C   -0.325502
     9  N   -0.598480
    10  C    0.088686
    11  C   -0.245804
    12  C   -0.159624
    13  H    0.214685
    14  H    0.187807
    15  C   -0.203589
    16  C   -0.192390
    17  C   -0.306469
    18  C    0.203995
    19  C    0.027154
    20  H    0.190416
    21  C   -0.330055
    22  H    0.202391
    23  C   -0.150437
    24  H    0.222964
    25  H    0.237185
    26  H    0.225305
    27  H    0.228001
    28  C    0.398279
    29  H    0.170574
    30  C   -0.162500
    31  N   -0.494934
    32  H    0.195770
    33  H    0.208171
    34  H    0.197741
    35  H    0.197800
    36  C   -0.499956
    37  C   -0.215953
    38  O   -0.542931
    39  H    0.205261
    40  H    0.188581
    41  H    0.192108
    42  H    0.168710
    43  H    0.199962
    44  C   -0.272834
    45  H    0.203943
    46  H    0.182349
    47  H    0.177883
    48  N   -0.752106
    49  O   -0.607524
    50  H    0.395317
    51  H    0.399010
    52  C    0.251939
    53  C   -0.209757
    54  C   -0.166567
    55  C   -0.061076
    56  H    0.222268
    57  C   -0.093052
    58  H    0.225164
    59  C   -0.174552
    60  H    0.235657
    61  C    0.846433
    62  C    0.849078
    63  F   -0.269527
    64  F   -0.263660
    65  F   -0.273170
    66  F   -0.262884
    67  F   -0.269104
    68  F   -0.266535
    69  H    0.462340
 Sum of Mulliken charges =   1.00000
 Mulliken charges with hydrogens summed into heavy atoms:
               1
     1  C    0.834632
     2  N   -0.300268
     3  C    0.153216
     4  C    0.210738
     6  C    0.065045
     8  C    0.076990
     9  N   -0.136140
    10  C    0.088686
    11  C   -0.055388
    12  C    0.042767
    15  C    0.256560
    16  C    0.260916
    17  C   -0.135894
    18  C    0.203995
    19  C    0.222924
    21  C    0.075856
    23  C    0.047363
    28  C    0.398279
    30  C    0.042761
    31  N   -0.494934
    36  C    0.049443
    37  C   -0.015991
    38  O   -0.542931
    44  C    0.291341
    48  N   -0.353095
    49  O   -0.607524
    52  C    0.251939
    53  C    0.012512
    54  C    0.058596
    55  C   -0.061076
    57  C   -0.093052
    59  C    0.061104
    61  C    0.846433
    62  C    0.849078
    63  F   -0.269527
    64  F   -0.263660
    65  F   -0.273170
    66  F   -0.262884
    67  F   -0.269104
    68  F   -0.266535
 Electronic spatial extent (au):  <R**2>=          20591.4081
 Charge=              1.0000 electrons
 Dipole moment (field-independent basis, Debye):
    X=            -13.0327    Y=             -4.8560    Z=             -3.4974  Tot=             14.3410
 Quadrupole moment (field-independent basis, Debye-Ang):
   XX=           -151.9697   YY=           -191.3147   ZZ=           -215.2938
   XY=             24.2308   XZ=              3.9558   YZ=             -4.2545
 Traceless Quadrupole moment (field-independent basis, Debye-Ang):
   XX=             34.2230   YY=             -5.1219   ZZ=            -29.1011
   XY=             24.2308   XZ=              3.9558   YZ=             -4.2545
 Octapole moment (field-independent basis, Debye-Ang**2):
  XXX=           -274.1438  YYY=             50.5130  ZZZ=            -44.0978  XYY=             33.6468
  XXY=            -99.3690  XXZ=            -74.9525  XZZ=            -11.8990  YZZ=            -36.4645
  YYZ=            -49.9387  XYZ=              7.4037
 Hexadecapole moment (field-independent basis, Debye-Ang**3):
 XXXX=         -13775.3236 YYYY=          -5635.7598 ZZZZ=          -3454.7510 XXXY=            648.3355
 XXXZ=            240.8037 YYYX=             73.5150 YYYZ=           -168.2222 ZZZX=             25.9157
 ZZZY=           -247.2158 XXYY=          -3379.1622 XXZZ=          -2996.9026 YYZZ=          -1617.8357
 XXYZ=             34.4463 YYXZ=             20.3333 ZZXY=             93.2051
 N-N= 5.080353309061D+03 E-N=-1.492872594258D+04  KE= 2.036053671926D+03
 D1PCM: PCM CHGder 1st derivatives, ID1Alg=3 FixD1E=F DoIter=F DoCFld=F I1PDM=0.
 Calling FoFJK, ICntrl=      2127 FMM=T ISym2X=0 I1Cent= 0 IOpClX= 0 NMat=1 NMatS=1 NMatT=0.
 ***** Axes restored to original set *****
 -------------------------------------------------------------------
 Center     Atomic                   Forces (Hartrees/Bohr)
 Number     Number              X              Y              Z
 -------------------------------------------------------------------
      1        6          -0.001980548    0.002487145   -0.001678052
      2        7          -0.006095438    0.001454190   -0.000519917
      3        6           0.000297081    0.001266478   -0.001103967
      4        6          -0.001859487   -0.000480616    0.000743616
      5        1           0.000082998   -0.000242677   -0.000548786
      6        6          -0.001113975    0.001001150    0.000947801
      7        1          -0.000358869   -0.000220855   -0.000289355
      8        6           0.000354416    0.000401684    0.000031033
      9        7           0.000730497   -0.001312692   -0.000595915
     10        6          -0.000138985    0.000505728   -0.000611389
     11        6          -0.000090778   -0.000284192   -0.000243756
     12        6           0.000126983    0.000045478   -0.000095237
     13        1           0.000045870    0.000302319    0.000003541
     14        1          -0.000150460   -0.000363701   -0.000053438
     15        6          -0.000204611    0.000152286   -0.000439263
     16        6           0.000129326    0.000082848   -0.000112394
     17        6          -0.000161014   -0.000253174    0.001507202
     18        6           0.000060776    0.000002424   -0.000718895
     19        6           0.000168415    0.000249473   -0.000182489
     20        1          -0.000149293    0.000024144    0.000195988
     21        6          -0.000013432   -0.000175993    0.000110110
     22        1          -0.000135514   -0.000055435    0.000007715
     23        6           0.000000533    0.000308836   -0.000344509
     24        1          -0.000055177    0.000146886   -0.000066677
     25        1           0.000118631    0.000166753    0.000100977
     26        1          -0.000133417    0.000048665   -0.000034363
     27        1           0.000266510    0.000019422    0.000137215
     28        6          -0.005710356    0.006175849    0.003192286
     29        1          -0.000345620    0.000916777    0.000298031
     30        6           0.000513121    0.000239594    0.001237796
     31        7           0.000210256    0.000099865    0.000298984
     32        1          -0.000006397    0.000052920   -0.000010963
     33        1           0.000089274   -0.000144600   -0.000046110
     34        1          -0.000145113   -0.000046283   -0.000223344
     35        1          -0.000053205    0.000145847   -0.000181122
     36        6          -0.000106458    0.000273098   -0.000006912
     37        6          -0.001921173    0.001008953   -0.000974268
     38        8          -0.011137547    0.003186650    0.000613078
     39        1          -0.000013764   -0.000074805    0.000015953
     40        1           0.000067397    0.000032434    0.000104373
     41        1           0.000089199   -0.000050599    0.000026414
     42        1           0.000119123   -0.001052446    0.000418647
     43        1           0.000287386   -0.000113002    0.000071954
     44        6          -0.001130903    0.000450523    0.001047715
     45        1          -0.000180647    0.000111226    0.000045216
     46        1          -0.000011347    0.000198904   -0.000126287
     47        1          -0.001167573    0.000705745    0.001465834
     48        7           0.006843170    0.000183588   -0.002759300
     49        8          -0.001930314   -0.001504987    0.002080621
     50        1          -0.001595782    0.001755474   -0.001048189
     51        1           0.000310932   -0.000652573   -0.000187452
     52        6           0.003186155    0.000008844    0.000798711
     53        6           0.001323665   -0.000818522    0.003100291
     54        6          -0.000170651   -0.000138531    0.000468435
     55        6          -0.000783769   -0.002123326    0.000520279
     56        1           0.001263626   -0.000630498    0.000267211
     57        6          -0.001508220    0.000049782    0.001994572
     58        1          -0.000007679   -0.000173936    0.000179002
     59        6           0.001021689    0.000497380   -0.001379515
     60        1           0.000056469   -0.000104998   -0.000152870
     61        6           0.000145550   -0.000306940   -0.000183055
     62        6           0.005174090    0.000922827    0.000222588
     63        9          -0.000120867    0.000124772    0.000042201
     64        9          -0.000017392    0.000101137    0.000130602
     65        9          -0.000167169    0.000097419    0.000151138
     66        9           0.008828566   -0.010640849   -0.005429793
     67        9          -0.000613820   -0.000377938    0.000038430
     68        9           0.008638749   -0.003639976   -0.002243167
     69        1           0.000936305   -0.000021372   -0.000024815
 -------------------------------------------------------------------
 Cartesian Forces:  Max     0.011137547 RMS     0.001914692

 GradGradGradGradGradGradGradGradGradGradGradGradGradGradGradGradGradGrad
 Berny optimization.
 FormGI is forming the generalized inverse of G from B-inverse, IUseBI=4.
 Internal  Forces:  Max     0.175106277 RMS     0.020194373
 Search for a local minimum.
 Step number   1 out of a maximum of   50
 All quantities printed in internal units (Hartrees-Bohrs-Radians)
 Mixed Optimization -- RFO/linear search
 Second derivative matrix not updated -- first step.
 ITU=  0
     Eigenvalues ---    0.00230   0.00304   0.00401   0.00520   0.00569
     Eigenvalues ---    0.00584   0.00663   0.00676   0.00852   0.01425
     Eigenvalues ---    0.01439   0.01538   0.01584   0.01631   0.01766
     Eigenvalues ---    0.01809   0.01815   0.01888   0.01897   0.01942
     Eigenvalues ---    0.01977   0.02007   0.02023   0.02043   0.02078
     Eigenvalues ---    0.02114   0.02129   0.02155   0.02167   0.02180
     Eigenvalues ---    0.02190   0.02194   0.02198   0.02209   0.02212
     Eigenvalues ---    0.02215   0.02215   0.02229   0.02243   0.02276
     Eigenvalues ---    0.02308   0.02353   0.02461   0.02987   0.03094
     Eigenvalues ---    0.03698   0.04014   0.04187   0.04335   0.04399
     Eigenvalues ---    0.04446   0.04453   0.04566   0.04646   0.04843
     Eigenvalues ---    0.04944   0.05004   0.05140   0.05360   0.05415
     Eigenvalues ---    0.05518   0.05634   0.06664   0.06761   0.07488
     Eigenvalues ---    0.07525   0.07658   0.07719   0.07757   0.08054
     Eigenvalues ---    0.08093   0.08286   0.08978   0.09342   0.10114
     Eigenvalues ---    0.10708   0.10758   0.10836   0.10950   0.10994
     Eigenvalues ---    0.11728   0.13728   0.14737   0.14904   0.15926
     Eigenvalues ---    0.15991   0.15992   0.15996   0.15999   0.16000
     Eigenvalues ---    0.16000   0.16000   0.16000   0.16000   0.16000
     Eigenvalues ---    0.16000   0.16000   0.16000   0.16000   0.16987
     Eigenvalues ---    0.17775   0.18135   0.18200   0.22026   0.22305
     Eigenvalues ---    0.22414   0.22426   0.23477   0.23484   0.23495
     Eigenvalues ---    0.23509   0.24187   0.24425   0.24615   0.24896
     Eigenvalues ---    0.24967   0.24977   0.24996   0.24997   0.24998
     Eigenvalues ---    0.25000   0.25000   0.25000   0.25000   0.25000
     Eigenvalues ---    0.25000   0.25000   0.25000   0.25000   0.25000
     Eigenvalues ---    0.25498   0.26561   0.27288   0.28029   0.28196
     Eigenvalues ---    0.29645   0.29672   0.30499   0.30618   0.30800
     Eigenvalues ---    0.31576   0.31675   0.34008   0.34081   0.34249
     Eigenvalues ---    0.34251   0.34265   0.34340   0.34365   0.34370
     Eigenvalues ---    0.34406   0.34445   0.34495   0.34501   0.34505
     Eigenvalues ---    0.34512   0.34630   0.34697   0.34710   0.34936
     Eigenvalues ---    0.35112   0.35253   0.35264   0.35299   0.35429
     Eigenvalues ---    0.35506   0.35599   0.35635   0.36535   0.36975
     Eigenvalues ---    0.39732   0.40667   0.40985   0.41354   0.42269
     Eigenvalues ---    0.42590   0.42605   0.42948   0.43052   0.43744
     Eigenvalues ---    0.45183   0.45424   0.46570   0.46709   0.47170
     Eigenvalues ---    0.47501   0.47777   0.48735   0.49726   0.51856
     Eigenvalues ---    0.52809   0.52855   0.55014   0.56455   0.57193
     Eigenvalues ---    0.57261   0.57439   0.58034   0.58101   0.62872
     Eigenvalues ---    0.87514
 RFO step:  Lambda=-3.26183080D-01 EMin= 2.30000000D-03
 Linear search not attempted -- first point.
 Maximum step size (   0.100) exceeded in Quadratic search.
    -- Step size scaled by   0.149
 Iteration  1 RMS(Cart)=  0.17420214 RMS(Int)=  0.00244031
 Iteration  2 RMS(Cart)=  0.05094329 RMS(Int)=  0.00017079
 Iteration  3 RMS(Cart)=  0.00056598 RMS(Int)=  0.00001149
 Iteration  4 RMS(Cart)=  0.00000007 RMS(Int)=  0.00001149
 Variable       Old X    -DE/DX   Delta X   Delta X   Delta X     New X
                                 (Linear)    (Quad)   (Total)
    R1        2.57132   0.01941   0.00000   0.00339   0.00339   2.57471
    R2        2.57089   0.03688   0.00000   0.00643   0.00643   2.57732
    R3        2.34100  -0.00223   0.00000  -0.00028  -0.00028   2.34073
    R4        2.76553   0.02330   0.00000   0.00502   0.00502   2.77055
    R5        1.91764  -0.00188   0.00000  -0.00036  -0.00036   1.91728
    R6        2.92076  -0.00180   0.00000  -0.00044  -0.00044   2.92032
    R7        2.07316   0.00043   0.00000   0.00010   0.00010   2.07326
    R8        2.86979   0.00458   0.00000   0.00108   0.00108   2.87087
    R9        2.06492  -0.00032   0.00000  -0.00007  -0.00007   2.06485
   R10        2.90612  -0.00062   0.00000  -0.00016  -0.00016   2.90596
   R11        2.86587  -0.00024   0.00000  -0.00004  -0.00004   2.86583
[...]
 6,0.00076193,-0.00162417,-0.00022449,0.07256132,-0.23030608,0.09189736
 ,-0.00032843,0.00070421,-0.00017432,-0.00004413,0.00043065,0.00030429,
 -0.00026097,0.00029259,0.00020264,0.02578275,0.00682070,0.00696016,-0.
 13503986,0.31754706,0.00150257,-0.00142160,0.00020549,-0.00071390,0.00
 017316,0.00005158,0.00042130,-0.00016073,0.00000531,-0.00005195,-0.000
 02662,-0.00005847,-0.00007176,0.00004792,-0.00002046,-0.00000946,0.000
 07845,0.00001583,0.00001803,-0.00000743,-0.00001088,0.00003344,0.00004
 511,0.00002029,-0.00017590,0.00011965,0.00008600,-0.00000894,-0.000045
 25,0.00004008,-0.00003978,-0.00001833,0.00002007,-0.00003093,-0.000020
 93,-0.00000012,-0.00000468,-0.00000261,-0.00000289,0.00000799,-0.00000
 882,-0.00000044,0.00002595,-0.00003855,0.00004552,-0.00001268,-0.00005
 206,-0.00008176,-0.00014411,0.00002957,0.00025104,0.00003449,-0.000007
 46,0.00004291,0.00004933,0.00001887,0.00003010,0.00001360,-0.00000356,
 0.00000591,0.00001418,-0.00000432,0.00000284,-0.00000902,0.00001695,0.
 00000328,0.00002002,0.00000437,-0.00001165,0.00001124,-0.00000508,0.00
 001945,0.00000114,0.00000117,-0.00000127,0.00000296,-0.00000553,-0.000
 00793,-0.00000146,0.00001019,0.00000344,-0.00011716,-0.00021560,-0.000
 61693,0.00006828,-0.00008502,-0.00008569,-0.00000046,0.00002115,0.0000
 1443,-0.00006740,-0.00002172,-0.00001784,-0.00000602,-0.00000701,-0.00
 001007,-0.00000877,0.00000090,0.00000037,-0.00000417,0.00000989,0.0000
 0214,-0.00000775,0.00001023,0.00000739,-0.00000681,-0.00000482,-0.0000
 0358,0.00004856,0.00015752,0.00001446,0.00025170,-0.00011554,0.0007253
 2,0.00000175,-0.00000188,-0.00001093,0.00000759,0.00000740,0.00000612,
 -0.00000967,0.00000127,0.00000283,0.00000489,0.00000406,-0.00000883,0.
 00000367,-0.00001973,-0.00001117,-0.00009248,0.00027805,-0.00040165,-0
 .00003402,0.00014235,0.00013047,0.00002576,-0.00006775,0.00007166,-0.0
 0014135,-0.00002569,-0.00023640,-0.00028058,0.00152230,-0.00089568,-0.
 00037051,0.00115672,-0.00020382,0.00031692,-0.00017628,0.00014908,-0.0
 0025645,0.00015785,-0.00006064,0.00029681,0.00080990,0.00050661,0.0031
 6044,-0.00181839,-0.00674726,-0.00003468,0.00067102,-0.00047542,-0.015
 00668,0.03848617,-0.01292066,-0.00038420,0.00003076,0.00000602,0.00008
 986,0.00049504,0.00047012,-0.00001839,0.00004121,-0.00002618,-0.000219
 34,0.00088869,-0.00141900,0.00000777,0.00082909,-0.00255488,-0.0010954
 4,0.00144002,0.00098758,-0.03553991,0.08562632,-0.13223727,0.00041137,
 -0.00062558,-0.00005681,0.00003818,-0.00045867,-0.00048017,0.00047352,
 -0.00019775,-0.00039397,-0.02518064,0.00983385,0.00373695,0.06197648,-
 0.10987148,0.13398607,-0.00104686,0.00043463,0.00002416,0.00061118,0.0
 0004264,-0.00016486,-0.00027786,0.00000513,0.00003684,0.00001929,-0.00
 006449,0.00004183,0.00003881,-0.00001039,0.00000097,-0.00006075,-0.000
 12462,0.00007935,-0.00002120,-0.00002544,-0.00000017,-0.00000552,-0.00
 000245,-0.00000719,0.00007712,0.00001960,-0.00002995,0.00022861,0.0001
 5825,0.00015023,-0.00008875,-0.00004799,-0.00010881,0.00001798,-0.0000
 1950,-0.00000271,0.00002229,-0.00001188,-0.00001115,0.00000594,-0.0000
 1456,0.00000697,0.00000369,0.00000713,0.00000150,0.00000610,0.00000696
 ,-0.00000766,-0.00004565,0.00014120,-0.00036288,-0.00012682,-0.0000826
 9,-0.00017192,0.00005375,0.00012644,-0.00012286,-0.00000204,0.00001193
 ,-0.00002381,-0.00000463,0.00000709,0.00000195,0.00000276,0.00000139,0
 .00000056,-0.00001106,0.00000865,0.00000821,-0.00000818,-0.00000562,0.
 00000440,-0.00000129,0.00000879,-0.00000111,-0.00001237,-0.00000539,0.
 00000376,-0.00000008,0.00000973,-0.00000146,0.00180170,-0.00010685,0.0
 0199542,0.00001954,-0.00004552,0.00006902,0.00009179,-0.00000884,0.000
 29858,0.00006490,0.00003130,0.00011950,-0.00000042,0.00000896,-0.00001
 798,0.00000127,-0.00000304,-0.00000049,0.00000438,0.00000366,-0.000002
 29,0.00000637,0.00000683,-0.00000321,0.00000900,-0.00002122,-0.0000087
 7,-0.00032539,-0.00014833,-0.00037670,-0.00584454,0.00160973,-0.000229
 48,-0.00000639,-0.00000298,-0.00002556,0.00000003,0.00000337,0.0000029
 0,0.00000169,-0.00000077,-0.00000108,-0.00000547,0.00000489,0.00000743
 ,0.00010226,0.00002657,-0.00001346,-0.00014856,-0.00019429,-0.00064006
 ,-0.00032351,-0.00009660,0.00001625,-0.00019083,0.00029913,-0.00005720
 ,0.00023558,0.00024128,0.00003304,0.00053636,-0.00056342,0.00023423,0.
 00026610,-0.00034056,0.00005064,-0.00022871,0.00000065,0.00005274,0.00
 002672,-0.00002732,-0.00004784,-0.00014935,0.00052258,-0.00057891,-0.0
 0050214,0.00003490,0.00072054,-0.00017472,0.00033550,0.00033817,0.0080
 5186,0.01078702,0.01489941,-0.00011175,-0.00034829,-0.00001886,-0.0010
 6676,-0.00034428,0.00027539,0.00002928,-0.00001270,0.00000326,0.000886
 86,-0.00143498,0.00100966,0.00036776,0.00004093,-0.00012092,0.00006212
 ,-0.00073122,-0.00061019,-0.07462681,0.00092579,0.00602583,-0.00008077
 ,0.00018059,0.00008450,0.00008233,0.00019784,0.00026588,-0.00021461,0.
 00012732,0.00029562,-0.01849043,-0.04365953,-0.04230257,0.00636504,0.0
 2481337,0.01054192,0.08423714,0.00030329,-0.00018779,-0.00023850,-0.00
 009630,0.00004745,0.00026361,0.00000662,-0.00001290,-0.00004228,-0.000
 01393,0.00000401,-0.00008326,0.00000048,-0.00000464,0.00000994,-0.0000
 1029,-0.00002603,0.00009762,-0.00001600,0.00001889,0.00000669,-0.00000
 330,0.00000787,0.00001658,-0.00000228,0.00000140,0.00006567,-0.0000873
 9,-0.00000043,-0.00030253,-0.00000652,-0.00000062,-0.00000750,-0.00000
 712,-0.00000792,-0.00001126,-0.00000832,-0.00000292,-0.00000679,0.0000
 0581,-0.00000372,0.00001205,-0.00001618,0.00001666,-0.00003643,-0.0000
 2356,0.00001461,-0.00007590,-0.00014034,-0.00024908,0.00066357,0.00011
 216,0.00006588,0.00008491,0.00001891,-0.00001006,0.00004132,0.00000547
 ,-0.00000987,0.00000317,0.00000258,0.00000606,0.00000622,0.00000506,0.
 00000040,0.00000240,0.00000151,0.00000696,0.00000407,0.00000635,0.0000
 0213,0.00000579,-0.00000015,-0.00000472,-0.00000320,0.00000593,-0.0000
 0123,0.00001213,0.00000291,0.00000016,0.00001229,-0.00116572,-0.000504
 93,-0.00246196,-0.00006968,0.00014057,-0.00015217,0.00003661,0.0000902
 4,0.00007555,0.00000910,0.00006246,0.00002552,0.00000721,-0.00000425,0
 .00000677,0.00000442,-0.00000105,0.00000828,-0.00000180,0.00000154,-0.
 00000384,0.00000047,-0.00000733,0.00000846,0.00000147,0.00001421,0.000
 00744,0.00009924,0.00032898,0.00033967,0.00402433,-0.00008518,0.000684
 58,0.00005679,-0.00001031,0.00002008,-0.00000385,0.00002352,0.00001136
 ,0.00001283,-0.00001087,0.00000434,-0.00002072,-0.00001800,-0.00002767
 ,0.00007064,-0.00006534,-0.00008247,-0.00106869,-0.00142426,0.00036604
 ,-0.00021598,0.00015512,0.00060495,0.00018310,0.00024110,0.00013403,-0
 .00000351,0.00023853,-0.00011509,-0.00010836,0.00049782,0.00000351,-0.
 00005370,0.00017532,0.00006960,0.00001135,-0.00014330,-0.00015647,-0.0
 0002855,-0.00000735,-0.00007236,0.00069549,0.00099092,-0.00037125,0.00
 115239,-0.00325028,0.00206575,-0.00036691,0.00051631,0.00020599,-0.000
 81153,0.00035237,-0.00750868,-0.00129201,0.00162552,0.00083269,-0.0000
 9868,-0.00035167,0.00046636,-0.00014558,0.00014488,0.00001648,0.000544
 79,0.00092599,-0.00124749,-0.00049082,0.00033518,0.00061337,-0.0002055
 6,-0.00008432,0.00026524,0.00217964,-0.17701782,-0.11588287,0.00004695
 ,0.00009908,-0.00012295,0.00000926,0.00001736,-0.00006125,0.00024264,0
 .00006371,-0.00018099,-0.03177509,-0.02094546,-0.02997599,0.02123116,-
 0.07213888,-0.02738677,0.00723356,0.26938491,0.00181053,-0.00161570,0.
 00001821,-0.00092948,0.00019850,0.00024673,0.00051786,-0.00016222,-0.0
 0004986,-0.00006893,-0.00000323,-0.00012980,-0.00008689,0.00004776,-0.
 00001342,0.00000932,0.00010588,0.00004824,0.00001674,0.00001415,-0.000
 00777,0.00003224,0.00005085,0.00003311,-0.00019069,0.00010543,0.000142
 90,-0.00014914,-0.00011966,-0.00022903,0.00000138,0.00000866,0.0000612
 4,-0.00004303,-0.00002036,-0.00000836,-0.00001930,-0.00000087,-0.00000
 419,0.00000918,-0.00000487,0.00000710,0.00001046,-0.00002482,0.0000119
 2,-0.00003165,-0.00004122,-0.00013676,-0.00006575,-0.00016520,0.000935
 58,0.00016930,0.00006376,0.00018356,0.00003500,-0.00004866,0.00011539,
 0.00001810,-0.00001630,0.00001682,0.00001777,-0.00000167,0.00000768,-0
 .00000578,0.00001643,0.00000479,0.00002563,0.00000688,-0.00001212,0.00
 001842,-0.00000105,0.00002154,0.00000135,-0.00000576,-0.00000398,0.000
 01247,-0.00000625,-0.00000073,0.00000060,0.00000653,0.00001385,-0.0013
 0819,-0.00054171,-0.00293935,0.00009835,-0.00000288,-0.00017441,-0.000
 03331,0.00007605,-0.00006741,-0.00008899,0.00001935,-0.00004702,0.0000
 0089,-0.00001428,0.00000303,-0.00000504,0.00000074,0.00000768,-0.00000
 691,0.00001004,-0.00000035,-0.00000967,0.00000146,0.00001524,-0.000010
 40,0.00001299,0.00000658,0.00029423,0.00040927,0.00039322,0.00233666,0
 .00021792,0.00207493,0.00004896,-0.00000889,0.00001451,0.00000466,0.00
 002637,0.00001423,0.00000057,-0.00000678,0.00000630,-0.00000982,-0.000
 01238,-0.00003491,-0.00000335,-0.00009899,-0.00007385,-0.00074064,-0.0
 0042489,-0.00065622,-0.00011533,0.00051549,0.00080228,0.00039231,-0.00
 017880,0.00039608,-0.00024861,-0.00017350,-0.00042296,-0.00100600,0.00
 176891,-0.00038936,-0.00043207,0.00131470,-0.00016213,0.00040678,-0.00
 025238,0.00006993,-0.00017982,0.00003663,0.00001786,0.00081563,-0.0019
 0515,0.00049419,0.00068814,-0.00184559,-0.00097908,-0.00003790,0.00026
 608,-0.00056212,0.00423662,-0.03670789,-0.03450830,-0.00062257,0.00122
 593,-0.00173522,0.00218747,-0.00178818,-0.00073069,-0.00008410,0.00007
 161,-0.00003350,0.00044876,0.00634389,-0.00610394,-0.00058203,-0.00003
 984,0.00017070,-0.00105923,0.00215345,0.00128660,0.00751283,-0.1080443
 8,-0.21498570,0.00043689,-0.00061532,-0.00015591,-0.00004090,-0.000585
 13,-0.00068917,0.00099073,-0.00026344,-0.00088074,-0.02915619,-0.02697
 794,-0.01017838,0.00512508,-0.01063491,0.01855580,0.00831623,0.1785354
 6,0.25111576,0.00566525,0.02911261,-0.01187262,-0.00755417,-0.00562430
 ,0.00291611,0.00557004,-0.00207267,-0.00102357,-0.01809437,-0.00416215
 ,0.00355610,-0.00028866,-0.00007586,-0.00035419,-0.00094632,0.00067414
 ,0.00063010,0.00047185,0.00044630,-0.00016678,0.00011723,-0.00084025,0
 .00086183,-0.31309169,0.07526496,0.04275982,0.00020142,0.00005017,0.00
 013403,0.00004477,0.00021287,-0.00005516,-0.00041425,-0.00029221,-0.00
 025850,0.00008108,0.00017685,-0.00016084,0.00012334,-0.00007332,0.0001
 2450,-0.00716570,0.00566390,-0.00599598,0.01212974,0.00176560,0.004339
 52,-0.00031471,0.00029553,0.00013701,0.00000747,-0.00005851,-0.0000698
 7,0.00009338,-0.00017195,-0.00004820,-0.00000640,-0.00001889,-0.000006
 50,0.00090991,0.00006343,0.00052027,0.00023716,0.00009570,-0.00001120,
 -0.00071987,-0.00208697,-0.00240238,0.00023200,-0.00033120,0.00078294,
 0.00116797,-0.00097348,0.00082633,0.00009281,0.00004539,-0.00070172,0.
 00020287,-0.00052229,-0.00021618,0.00010991,-0.00000706,0.00010838,0.0
 0019008,-0.00020806,-0.00015152,-0.00000579,-0.00000210,0.00004869,-0.
 00001153,0.00011893,0.00003701,0.00002857,0.00001448,-0.00000104,0.000
 47417,-0.00018086,0.00012155,0.00009447,-0.00014127,-0.00014880,0.0010
 5099,-0.00034491,-0.00035114,0.00060922,-0.00055110,0.00032448,-0.0000
 3795,-0.00002617,-0.00003604,-0.00017488,0.00006186,-0.00011329,0.0000
 1178,-0.00000294,-0.00000841,-0.00009115,-0.00001070,-0.00006868,0.000
 22762,0.00019642,-0.00029618,-0.00010915,0.00012483,0.00002827,0.00001
 432,-0.00001509,-0.00001353,0.00004528,-0.00006915,0.00001420,0.000009
 84,-0.00000825,-0.00001886,-0.00002136,0.00000720,0.00000532,0.0000205
 7,0.00003222,-0.00001132,0.00433688,-0.00786669,0.00330508,-0.00689548
 ,-0.02279522,-0.00037950,-0.00090703,0.00018030,-0.00058539,-0.0009529
 2,-0.00017980,-0.00032444,0.00045741,0.00308346,-0.00048819,-0.0000959
 4,-0.00068833,0.00016139,0.00016436,-0.00073474,0.00026470,-0.00016594
 ,-0.00006229,0.00004925,0.00010875,0.00006734,-0.00014520,0.00014480,-
 0.00001262,-0.00006173,-0.00006682,0.00010014,0.00006263,-0.00000350,-
 0.00030307,0.00012075,0.00001434,0.00001945,-0.00000239,-0.00037109,0.
 00065688,0.00054273,0.00064275,0.00025637,-0.00090186,0.00016102,-0.00
 030540,-0.00004186,-0.00002109,-0.00022482,-0.00025298,0.00015498,-0.0
 0011466,-0.00015502,-0.00038736,-0.00010542,0.00019272,-0.00007013,-0.
 00019803,0.00027578,-0.00013339,0.00002792,0.00032359,0.32269826,0.003
 29253,-0.02521802,0.00487015,0.00454023,0.00258579,-0.00115903,-0.0044
 0401,0.00127519,-0.00066222,-0.02925155,0.01234314,0.00338210,0.000134
 81,-0.00036314,-0.00039275,0.00021660,-0.00028395,-0.00015816,0.000092
 72,-0.00018091,0.00036947,-0.00268888,-0.00589740,0.00227432,0.0719348
 9,-0.08032006,-0.01177431,0.00012434,0.00020542,0.00006522,0.00017848,
 0.00008514,-0.00008110,-0.00002987,-0.00056788,0.00003498,-0.00180930,
 0.00042463,-0.00039306,-0.00051339,0.00005944,-0.00011772,0.01779840,-
 0.00768533,0.00230581,0.01429964,-0.00599468,-0.00489242,0.00020037,-0
 .00022786,-0.00020534,-0.00005414,0.00001440,-0.00010568,-0.00007579,0
 .00004318,0.00003202,-0.00004314,-0.00000085,0.00001073,0.00031481,-0.
 00068785,0.00261457,-0.00012625,-0.00005384,0.00000720,-0.00074293,-0.
 00105885,-0.00173836,-0.00074409,0.00056382,-0.00074595,-0.00032598,-0
 .00068591,-0.00007804,0.00005989,0.00079856,0.00081648,0.00040081,-0.0
 0041038,0.00014270,0.00006130,0.00003884,0.00014632,-0.00018212,0.0001
 2090,0.00019404,0.00003663,0.00000622,0.00003673,0.00011722,0.00001120
 ,0.00004687,0.00002251,0.00002936,0.00001389,0.00024405,-0.00021557,-0
 .00019450,0.00017420,-0.00007465,-0.00004118,0.00034079,0.00004622,-0.
 00005096,0.00011377,-0.00006528,-0.00000921,-0.00001905,-0.00001139,-0
 .00003071,0.00000115,-0.00002514,-0.00017433,-0.00000346,0.00001489,-0
 .00000199,0.00004717,0.00002913,0.00003170,-0.00005808,0.00001718,0.00
 000608,-0.00001649,0.00001061,-0.00007241,-0.00000658,0.00001802,0.000
 00083,-0.00003794,-0.00002113,0.00009025,-0.00001223,0.00000834,0.0000
 0126,0.00002530,0.00000682,-0.00001144,-0.00000966,-0.00000925,0.00000
 415,-0.00402223,0.00570458,-0.00242226,-0.00433791,0.01175403,0.003823
 11,0.00061170,-0.00023797,0.00076645,0.00082110,0.00023965,0.00031413,
 -0.00029078,-0.00237148,0.00051940,0.00004527,0.00055031,-0.00017049,-
 0.00012142,0.00055469,-0.00023053,0.00010608,-0.00002113,-0.00005398,-
 0.00001533,-0.00005355,0.00017075,-0.00012877,0.00005070,0.00004673,0.
 00006336,-0.00007624,-0.00004520,-0.00001728,0.00024557,-0.00005852,-0
 .00000494,-0.00001234,0.00000660,0.00037866,-0.00053492,-0.00045781,-0
 .00038355,-0.00022284,0.00076117,-0.00014637,0.00025658,0.00003340,-0.
 00000495,0.00018155,0.00020294,-0.00015859,0.00008366,0.00014313,0.000
 23473,0.00008083,-0.00016159,0.00002555,0.00018429,-0.00023863,0.00008
 044,-0.00002556,-0.00027009,-0.06635246,0.09497247,-0.00485238,-0.0138
 6412,0.00709283,0.00393237,0.00277018,-0.00196520,-0.00235768,0.000314
 33,0.00168364,0.00428921,0.00244219,-0.00039491,-0.00013619,-0.0003465
 7,-0.00046894,0.00027567,-0.00027249,-0.00055104,0.00027122,-0.0000790
 8,-0.00036975,-0.00056003,-0.00065757,0.00040183,0.04384465,-0.0123351
 0,-0.06493330,0.00007930,0.00011796,0.00010107,0.00004642,-0.00004256,
 0.00000183,0.00039653,0.00004505,-0.00070929,-0.00023753,-0.00001768,0
 .00001479,-0.00017641,0.00014441,-0.00014326,-0.02928753,0.00966386,0.
 00714925,0.02505555,-0.00822300,-0.00642520,0.00021489,-0.00008513,-0.
 00014563,-0.00005403,0.00001351,-0.00006015,-0.00007001,0.00004961,-0.
 00000344,-0.00003117,-0.00000114,-0.00001461,-0.00100350,0.00201024,-0
 .00567618,-0.00008084,-0.00002527,-0.00004367,-0.00137499,-0.00303379,
 -0.00310436,-0.00057329,-0.00050281,-0.00051721,0.00023768,0.00054508,
 0.00100961,0.00013164,0.00071638,0.00024450,-0.00029631,0.00026505,0.0
 0076441,0.00002849,0.00001074,0.00008655,-0.00006867,0.00012481,0.0000
 9963,0.00001523,0.00000228,0.00000583,0.00006248,-0.00000761,0.0000042
 6,0.00000287,0.00000990,0.00000579,-0.00136683,0.00083681,0.00031336,-
 0.00046286,0.00029286,-0.00003104,0.00074537,0.00001576,-0.00023988,0.
 00042472,-0.00017020,0.00001149,-0.00000850,-0.00000712,-0.00000789,-0
 .00001530,-0.00005638,-0.00009720,-0.00000352,0.00000801,-0.00000308,0
 .00003615,-0.00002731,0.00002717,-0.00001131,0.00012033,-0.00010895,0.
 00003204,0.00007524,-0.00003656,-0.00000866,0.00000721,0.00000252,-0.0
 0001786,0.00001845,0.00002360,-0.00000732,0.00000863,-0.00000148,0.000
 01050,0.00000045,-0.00000348,-0.00000787,-0.00001401,0.00000296,-0.002
 08607,0.00533967,-0.00209084,0.00013728,0.01141267,-0.00597163,0.00048
 018,-0.00008470,0.00016546,0.00060403,0.00002612,0.00027361,-0.0004820
 8,-0.00142678,0.00033200,-0.00001354,0.00038817,-0.00004554,-0.0000857
 0,0.00043490,-0.00018451,0.00009046,0.00001093,-0.00007141,-0.00001349
 ,0.00000798,0.00008725,-0.00006435,0.00001430,0.00005402,0.00003711,-0
 .00005648,-0.00003133,-0.00000282,0.00015133,-0.00005526,-0.00000178,-
 0.00001036,0.00000051,0.00022096,-0.00031555,-0.00023742,-0.00025986,-
 0.00004627,0.00053593,-0.00009127,0.00016059,0.00001024,-0.00000454,0.
 00010430,0.00010761,-0.00008567,0.00005422,0.00007110,0.00014914,0.000
 03468,-0.00011317,0.00002838,0.00008721,-0.00015183,0.00005524,-0.0000
 6162,-0.00020680,-0.03567400,0.00291430,0.07453077\\0.00000505,0.00000
 994,-0.00000081,-0.00000387,0.00000465,0.00000645,-0.00000302,-0.00000
 214,-0.00000208,-0.00000317,-0.00000015,0.00000467,-0.00000644,0.00000
 248,-0.00000056,-0.00000013,0.00000288,0.00000187,-0.00000017,-0.00000
 358,0.00000336,0.00000277,-0.00000016,0.00000465,0.00000377,-0.0000022
 6,-0.00000422,0.00000024,-0.00000030,0.00000232,-0.00000328,0.00000259
 ,0.00000359,0.00000084,0.00000195,0.00000584,0.00000032,0.00000043,0.0
 0000359,-0.00000144,0.00000062,0.00000372,-0.00000100,-0.00000085,0.00
 000292,0.00000286,-0.00000060,0.00000327,0.00000305,-0.00000173,0.0000
 0337,0.00000007,-0.00000053,0.00000408,-0.00000519,0.00000376,0.000005
 35,-0.00000437,0.00000094,0.00000301,-0.00000271,0.00000260,0.00000601
 ,0.00000124,0.00000025,0.00000668,-0.00000043,-0.00000014,0.00000357,-
 0.00000262,0.00000059,0.00000298,-0.00000263,0.00000062,0.00000219,0.0
 0000238,0.00000018,0.00000131,0.00000209,-0.00000012,0.00000045,-0.000
 00049,0.00000063,0.00000060,0.00000001,0.00000072,0.00000071,0.,0.0000
 0045,0.00000208,-0.00000249,0.00000059,0.00000362,-0.00000435,0.000001
 51,0.00000453,-0.00000403,0.00000066,0.00000625,-0.00000153,0.00000048
 ,0.00000530,0.00000200,-0.00000045,0.00000547,0.00000324,-0.00000134,0
 .00000374,0.00000299,-0.00000047,0.00000290,0.00001030,-0.00000112,-0.
 00000030,0.00000050,0.00000010,0.00000417,0.00000496,-0.00000074,0.000
 00343,0.00000358,-0.00000035,0.00000690,0.00000411,0.00000039,0.000003
 62,0.00000426,-0.00000117,0.00000132,0.00000707,-0.00000379,0.00000194
 ,0.00000685,-0.00000202,-0.00000067,0.00000694,-0.00000128,0.00000121,
 0.00000572,-0.00000058,-0.00000066,-0.00000269,-0.00000183,-0.00000212
 ,-0.00000681,-0.00000526,-0.00000384,-0.00000095,-0.00000159,-0.000007
 33,-0.00000241,-0.00000084,-0.00000787,-0.00000494,0.00000067,0.000000
 51,0.00000085,0.00000518,-0.00001048,0.00000176,-0.00000800,-0.0000062
 6,0.00000327,-0.00000558,-0.00000645,-0.00000147,-0.00000291,-0.000004
 21,0.00000088,0.00000744,-0.00001473,-0.00000438,0.00000156,-0.0000068
 8,-0.00000463,-0.00000039,-0.00000014,0.00000122,-0.00000100,-0.000007
 34,-0.00000669,0.00000051,-0.00001239,-0.00000295,-0.00000236,-0.00000
 890,-0.00000198,-0.00000111,-0.00000885,-0.00000386,0.00000076,-0.0000
 0678,-0.00000512,-0.00000024,-0.00000986,0.00000574,0.00000034,-0.0000
 0135,0.00000363,-0.00000410,-0.00000555,0.00000261,0.00000097,-0.00000
 269,-0.00000493,0.00000365,-0.00000022\\\@
 The archive entry for this job was punched.


 WAR ES EIN GOTT DER DIESE ZEICHEN SCHRIEB?
          - LUDWIG BOLTZMANN, QUOTING GOETHE, ABOUT MAXWELL'S EQUATIONS.
 Job cpu time:       0 days  8 hours 22 minutes 10.2 seconds.
 Elapsed time:       0 days  0 hours 42 minutes  8.1 seconds.
 File lengths (MBytes):  RWF=   3579 Int=      0 D2E=      0 Chk=     59 Scr=      1
 Normal termination of Gaussian 16 at Tue Dec 12 06:04:34 2023.
