Unloading slurm/anatra/current
  ERROR: No such file or directory on
    '/cm/local/modulefiles/slurm/anatra/current'
environment: line 0: unalias: gv: not found
environment: line 0: unalias: sl: not found
 Entering Gaussian System, Link 0=g16
 Initial command:
 /apps/gaussian/g16/C.01/g16/l1.exe "/local/jobs/1153149/Gau-1730035.inp" -scrdir="/local/jobs/1153149/"
 Entering Link 1 = /apps/gaussian/g16/C.01/g16/l1.exe PID=   1730038.
  
 Copyright (c) 1988-2019, Gaussian, Inc.  All Rights Reserved.
  
 This is part of the Gaussian(R) 16 program.  It is based on
 the Gaussian(R) 09 system (copyright 2009, Gaussian, Inc.),
 the Gaussian(R) 03 system (copyright 2003, Gaussian, Inc.),
 the Gaussian(R) 98 system (copyright 1998, Gaussian, Inc.),
 the Gaussian(R) 94 system (copyright 1995, Gaussian, Inc.),
 the Gaussian 92(TM) system (copyright 1992, Gaussian, Inc.),
 the Gaussian 90(TM) system (copyright 1990, Gaussian, Inc.),
 the Gaussian 88(TM) system (copyright 1988, Gaussian, Inc.),
 the Gaussian 86(TM) system (copyright 1986, Carnegie Mellon
 University), and the Gaussian 82(TM) system (copyright 1983,
 Carnegie Mellon University). Gaussian is a federally registered
 trademark of Gaussian, Inc.
  
 This software contains proprietary and confidential information,
 including trade secrets, belonging to Gaussian, Inc.
  
 This software is provided under written license and may be
 used, copied, transmitted, or stored only in accord with that
 written license.
  
 The following legend is applicable only to US Government
 contracts under FAR:
  
                    RESTRICTED RIGHTS LEGEND
  
 Use, reproduction and disclosure by the US Government is
 subject to restrictions as set forth in subparagraphs (a)
 and (c) of the Commercial Computer Software - Restricted
 Rights clause in FAR 52.227-19.
  
 Gaussian, Inc.
 340 Quinnipiac St., Bldg. 40, Wallingford CT 06492
  
  
 ---------------------------------------------------------------
 Warning -- This program may not be used in any manner that
 competes with the business of Gaussian, Inc. or will provide
 assistance to any competitor of Gaussian, Inc.  The licensee
 of this program is prohibited from giving any competitor of
 Gaussian, Inc. access to this program.  By using this program,
 the user acknowledges that Gaussian, Inc. is engaged in the
 business of creating and licensing software in the field of
 computational chemistry and represents and warrants to the
 licensee that it is not a competitor of Gaussian, Inc. and that
 it will not use this program in any manner prohibited above.
 ---------------------------------------------------------------
  

 Cite this work as:
 Gaussian 16, Revision C.01,
 M. J. Frisch, G. W. Trucks, H. B. Schlegel, G. E. Scuseria, 
 M. A. Robb, J. R. Cheeseman, G. Scalmani, V. Barone, 
 G. A. Petersson, H. Nakatsuji, X. Li, M. Caricato, A. V. Marenich, 
 J. Bloino, B. G. Janesko, R. Gomperts, B. Mennucci, H. P. Hratchian, 
 J. V. Ortiz, A. F. Izmaylov, J. L. Sonnenberg, D. Williams-Young, 
 F. Ding, F. Lipparini, F. Egidi, J. Goings, B. Peng, A. Petrone, 
 T. Henderson, D. Ranasinghe, V. G. Zakrzewski, J. Gao, N. Rega, 
 G. Zheng, W. Liang, M. Hada, M. Ehara, K. Toyota, R. Fukuda, 
 J. Hasegawa, M. Ishida, T. Nakajima, Y. Honda, O. Kitao, H. Nakai, 
 T. Vreven, K. Throssell, J. A. Montgomery, Jr., J. E. Peralta, 
 F. Ogliaro, M. J. Bearpark, J. J. Heyd, E. N. Brothers, K. N. Kudin, 
 V. N. Staroverov, T. A. Keith, R. Kobayashi, J. Normand, 
 K. Raghavachari, A. P. Rendell, J. C. Burant, S. S. Iyengar, 
 J. Tomasi, M. Cossi, J. M. Millam, M. Klene, C. Adamo, R. Cammi, 
 J. W. Ochterski, R. L. Martin, K. Morokuma, O. Farkas, 
 J. B. Foresman, and D. J. Fox, Gaussian, Inc., Wallingford CT, 2019.
 
 ******************************************
 Gaussian 16:  ES64L-G16RevC.01  3-Jul-2019
                30-Dec-2023 
 ******************************************
 %chk=allylic-1_1_opt_dft_re_freq.chk
 %nprocshared=12
 Will use up to   12 processors via shared memory.
 %mem=48GB
 -----------------------------------------------------------
 # wb97xd def2svp scrf=(iefpcm,solvent=toluene) freq=noraman
 -----------------------------------------------------------
 1/10=4,30=1,38=1/1,3;
 2/12=2,17=6,18=5,40=1/2;
 3/5=43,7=101,11=2,25=1,30=1,70=2201,71=2,72=13,74=-58,140=1/1,2,3;
 4//1;
 5/5=2,38=5,53=13,98=1/2;
 8/6=4,10=90,11=11/1;
 11/6=1,8=1,9=11,15=111,16=1/1,2,10;
 10/6=1/2;
 6/7=2,8=2,9=2,10=2,28=1/1;
 7/8=1,10=1,25=1/1,2,3,16;
 1/10=4,30=1/3;
 99//99;
 --------------------------
 allylic-1_1_opt_dft_re.out
 --------------------------
 Symbolic Z-matrix:
 Charge =  0 Multiplicity = 1
 C                    -0.9235   -0.4583   -0.94046 
 C                     2.39553  -0.19934   0.26483 
 C                    -0.97655   1.89372  -0.52782 
 C                     2.28737   0.68475  -0.71461 
 N                    -1.24014   0.48641  -0.13408 
 H                     3.14902   0.83634  -1.36673 
 H                    -0.31275   2.2586    0.28663 
 H                     3.27766  -0.80438   0.49142 
 H                    -1.93937   2.41265  -0.33414 
 H                    -0.53527  -0.09094  -1.89512 
 H                     1.37118   1.26735  -0.88873 
 F                     1.38845  -0.45874   1.11948 
 C                    -1.0161   -1.91869  -0.66214 
 H                    -0.66178  -2.48861  -1.52852 
 H                    -0.3937   -2.17776   0.208 
 H                    -2.05095  -2.22531  -0.44427 
 C                    -1.77079   0.2066    1.1984 
 H                    -2.62705   0.87104   1.36696 
 H                    -2.07976  -0.83843   1.32924 
 H                    -0.98803   0.45078   1.92928 
 

 GradGradGradGradGradGradGradGradGradGradGradGradGradGradGradGradGradGrad
 Berny optimization.
 Initialization pass.
 Trust Radius=3.00D-01 FncErr=1.00D-07 GrdErr=1.00D-07 EigMax=2.50D+02 EigMin=1.00D-04
 Number of steps in this run=      2 maximum allowed number of steps=      2.
 GradGradGradGradGradGradGradGradGradGradGradGradGradGradGradGradGradGrad

                          Input orientation:                          
 ---------------------------------------------------------------------
 Center     Atomic      Atomic             Coordinates (Angstroms)
 Number     Number       Type             X           Y           Z
 ---------------------------------------------------------------------
      1          6           0       -0.923500   -0.458300   -0.940460
      2          6           0        2.395530   -0.199340    0.264830
      3          6           0       -0.976550    1.893720   -0.527820
      4          6           0        2.287370    0.684750   -0.714610
      5          7           0       -1.240140    0.486410   -0.134080
      6          1           0        3.149020    0.836340   -1.366730
      7          1           0       -0.312750    2.258600    0.286630
      8          1           0        3.277660   -0.804380    0.491420
      9          1           0       -1.939370    2.412650   -0.334140
     10          1           0       -0.535270   -0.090940   -1.895120
     11          1           0        1.371180    1.267350   -0.888730
     12          9           0        1.388450   -0.458740    1.119480
     13          6           0       -1.016100   -1.918690   -0.662140
     14          1           0       -0.661780   -2.488610   -1.528520
     15          1           0       -0.393700   -2.177760    0.208000
     16          1           0       -2.050950   -2.225310   -0.444270
     17          6           0       -1.770790    0.206600    1.198400
     18          1           0       -2.627050    0.871040    1.366960
     19          1           0       -2.079760   -0.838430    1.329240
     20          1           0       -0.988030    0.450780    1.929280
 ---------------------------------------------------------------------
                    Distance matrix (angstroms):
                    1          2          3          4          5
     1  C    0.000000
     2  C    3.540585   0.000000
     3  C    2.388532   4.047236   0.000000
     4  C    3.415737   1.323864   3.485638   0.000000
     5  N    1.281790   3.721220   1.484935   3.580458   0.000000
     6  H    4.294557   2.074215   4.340755   1.091183   4.572374
     7  H    3.043076   3.657421   1.112248   3.200017   2.043944
     8  H    4.451943   1.093421   5.139737   2.157010   4.740032
     9  H    3.105152   5.096333   1.110776   4.582109   2.058967
    10  H    1.094099   3.642351   2.450125   3.156358   1.982785
    11  H    2.871602   2.128655   2.456508   1.099611   2.828136
    12  F    3.096525   1.346078   3.720335   2.340836   3.061733
    13  C    1.489556   3.931241   3.814980   4.206372   2.472559
    14  H    2.129899   4.219479   4.506140   4.407964   3.336122
    15  H    2.134524   3.420114   4.178288   4.029058   2.816253
    16  H    2.153990   4.937465   4.257667   5.230923   2.847289
    17  C    2.394726   4.288888   2.541068   4.511862   1.461296
    18  H    3.161236   5.252306   2.712972   5.340333   2.079563
    19  H    2.575456   4.644311   3.482871   5.056602   2.145103
    20  H    3.010980   3.826425   2.849482   4.215820   2.079010
                    6          7          8          9         10
     6  H    0.000000
     7  H    4.091488   0.000000
     8  H    2.482183   4.723857   0.000000
     9  H    5.426114   1.747850   6.184516   0.000000
    10  H    3.835758   3.214014   4.554449   3.267433   0.000000
    11  H    1.890759   2.280278   3.135529   3.546692   2.548004
    12  F    3.310299   3.312349   2.020654   4.629501   3.594967
    13  C    5.043299   4.341039   4.583532   4.440779   2.256570
    14  H    5.060006   5.094369   4.736663   5.203953   2.428831
    15  H    4.910747   4.437795   3.930062   4.873897   2.966138
    16  H    6.104451   4.864258   5.593625   4.640609   2.992956
    17  C    5.583995   2.677295   5.196994   2.691422   3.344384
    18  H    6.390403   2.906617   6.199936   2.396499   3.992758
    19  H    6.116637   3.714964   5.422642   3.654595   3.652491
    20  H    5.303539   2.534268   4.673219   3.142778   3.889021
                   11         12         13         14         15
    11  H    0.000000
    12  F    2.648130   0.000000
    13  C    3.987643   3.329787   0.000000
    14  H    4.318506   3.916085   1.095886   0.000000
    15  H    4.023233   2.638538   1.100746   1.784376   0.000000
    16  H    4.909908   4.170798   1.101089   1.781774   1.781627
    17  C    3.918326   3.229505   2.923700   3.991260   2.926165
    18  H    4.607715   4.237193   3.807230   4.851117   3.953002
    19  H    4.611148   3.495232   2.502784   3.591734   2.427711
    20  H    3.764816   2.670330   3.511500   4.550037   3.197695
                   16         17         18         19         20
    16  H    0.000000
    17  C    2.948057   0.000000
    18  H    3.633157   1.096847   0.000000
    19  H    2.251578   1.097574   1.795338   0.000000
    20  H    3.731621   1.098418   1.783034   1.792759   0.000000
 Stoichiometry    C6H12FN
 Framework group  C1[X(C6H12FN)]
 Deg. of freedom    54
 Full point group                 C1      NOp   1
 Largest Abelian subgroup         C1      NOp   1
 Largest concise Abelian subgroup C1      NOp   1
                         Standard orientation:                         
 ---------------------------------------------------------------------
 Center     Atomic      Atomic             Coordinates (Angstroms)
 Number     Number       Type             X           Y           Z
 ---------------------------------------------------------------------
      1          6           0        0.923501    0.458298   -0.940460
      2          6           0       -2.395529    0.199343    0.264830
      3          6           0        0.976548   -1.893722   -0.527820
      4          6           0       -2.287371   -0.684747   -0.714610
      5          7           0        1.240140   -0.486412   -0.134080
      6          1           0       -3.149021   -0.836336   -1.366730
      7          1           0        0.312747   -2.258601    0.286630
      8          1           0       -3.277658    0.804384    0.491420
      9          1           0        1.939367   -2.412653   -0.334140
     10          1           0        0.535271    0.090939   -1.895120
     11          1           0       -1.371181   -1.267348   -0.888730
     12          9           0       -1.388449    0.458742    1.119480
     13          6           0        1.016103    1.918688   -0.662140
     14          1           0        0.661784    2.488609   -1.528520
     15          1           0        0.393704    2.177759    0.208000
     16          1           0        2.050954    2.225307   -0.444270
     17          6           0        1.770790   -0.206603    1.198400
     18          1           0        2.627049   -0.871044    1.366960
     19          1           0        2.079762    0.838427    1.329240
     20          1           0        0.988030   -0.450782    1.929280
 ---------------------------------------------------------------------
 Rotational constants (GHZ):           2.3075452           1.2978524           1.1452446
 Standard basis: def2SVP (5D, 7F)
 There are   180 symmetry adapted cartesian basis functions of A   symmetry.
 There are   172 symmetry adapted basis functions of A   symmetry.
   172 basis functions,   284 primitive gaussians,   180 cartesian basis functions
    32 alpha electrons       32 beta electrons
       nuclear repulsion energy       384.9402470419 Hartrees.
 NAtoms=   20 NActive=   20 NUniq=   20 SFac= 1.00D+00 NAtFMM=   60 NAOKFM=F Big=F
 Integral buffers will be    131072 words long.
 Raffenetti 2 integral format.
 Two-electron integral symmetry is turned on.
 Nuclear repulsion after empirical dispersion term =      384.9279029659 Hartrees.
 Force inversion solution in PCM.
 ------------------------------------------------------------------------------
 Polarizable Continuum Model (PCM)
 =================================
 Model                : PCM.
 Atomic radii         : UFF (Universal Force Field).
 Polarization charges : Total charges.
 Charge compensation  : None.
 Solution method      : Matrix inversion.
 Cavity type          : Scaled VdW (van der Waals Surface) (Alpha=1.100).
 Cavity algorithm     : GePol (No added spheres)
                        Default sphere list used, NSphG=   20.
                        Lebedev-Laikov grids with approx.  5.0 points / Ang**2.
                        Smoothing algorithm: York/Karplus (Gamma=1.0000).
                        Polarization charges: spherical gaussians, with
                                              point-specific exponents (IZeta= 3).
                        Self-potential: point-specific (ISelfS= 7).
                        Self-field    : sphere-specific E.n sum rule (ISelfD= 2).
 1st derivatives      : Analytical E(r).r(x)/FMM algorithm (CHGder, D1EAlg=3).
                        Cavity 1st derivative terms included.
 2nd derivatives      : Analytical E(r).r(xy)/FMM algorithm (CHGder, D2EAlg=3).
                        Cavity 2nd derivative terms included.
 Solvent              : Toluene, Eps=   2.374100 Eps(inf)=   2.238315
 ------------------------------------------------------------------------------
 Spheres list:
 ISph  on   Nord     Re0    Alpha      Xe            Ye            Ze
    1   C      1    1.9255  1.100      0.923501      0.458298     -0.940460
    2   C      2    1.9255  1.100     -2.395529      0.199343      0.264830
    3   C      3    1.9255  1.100      0.976548     -1.893722     -0.527820
    4   C      4    1.9255  1.100     -2.287371     -0.684747     -0.714610
    5   N      5    1.8300  1.100      1.240140     -0.486412     -0.134080
    6   H      6    1.4430  1.100     -3.149021     -0.836336     -1.366730
    7   H      7    1.4430  1.100      0.312747     -2.258601      0.286630
    8   H      8    1.4430  1.100     -3.277658      0.804384      0.491420
    9   H      9    1.4430  1.100      1.939367     -2.412653     -0.334140
   10   H     10    1.4430  1.100      0.535271      0.090939     -1.895120
   11   H     11    1.4430  1.100     -1.371181     -1.267348     -0.888730
   12   F     12    1.6820  1.100     -1.388449      0.458742      1.119480
   13   C     13    1.9255  1.100      1.016103      1.918688     -0.662140
   14   H     14    1.4430  1.100      0.661784      2.488609     -1.528520
   15   H     15    1.4430  1.100      0.393704      2.177759      0.208000
   16   H     16    1.4430  1.100      2.050954      2.225307     -0.444270
   17   C     17    1.9255  1.100      1.770790     -0.206603      1.198400
   18   H     18    1.4430  1.100      2.627049     -0.871044      1.366960
   19   H     19    1.4430  1.100      2.079762      0.838427      1.329240
   20   H     20    1.4430  1.100      0.988030     -0.450782      1.929280
 ------------------------------------------------------------------------------
 One-electron integrals computed using PRISM.
   1 Symmetry operations used in ECPInt.
 ECPInt:  NShTT=    3570 NPrTT=   12386 LenC2=    3546 LenP2D=    9917.
 LDataN:  DoStor=T MaxTD1= 4 Len=   56
 NBasis=   172 RedAO= T EigKep=  2.98D-03  NBF=   172
 NBsUse=   172 1.00D-06 EigRej= -1.00D+00 NBFU=   172
 ExpMin= 1.22D-01 ExpMax= 2.89D+03 ExpMxC= 4.35D+02 IAcc=3 IRadAn=         5 AccDes= 0.00D+00
 Harris functional with IExCor= 4639 and IRadAn=       5 diagonalized for initial guess.
 HarFok:  IExCor= 4639 AccDes= 0.00D+00 IRadAn=         5 IDoV= 1 UseB2=F ITyADJ=14
 ICtDFT=  3500011 ScaDFX=  1.000000  1.000000  1.000000  1.000000
 FoFCou: FMM=F IPFlag=           0 FMFlag=      100000 FMFlg1=           0
         NFxFlg=           0 DoJE=T BraDBF=F KetDBF=T FulRan=T
         wScrn=  0.000000 ICntrl=       500 IOpCl=  0 I1Cent=   200000004 NGrid=           0
         NMat0=    1 NMatS0=      1 NMatT0=    0 NMatD0=    1 NMtDS0=    0 NMtDT0=    0
 Petite list used in FoFCou.
 Requested convergence on RMS density matrix=1.00D-08 within 128 cycles.
 Requested convergence on MAX density matrix=1.00D-06.
 Requested convergence on             energy=1.00D-06.
 No special actions if energy rises.
 Inv3:  Mode=1 IEnd=     6986028.
 Iteration    1 A*A^-1 deviation from unit magnitude is 3.33D-15 for     68.
 Iteration    1 A*A^-1 deviation from orthogonality  is 2.89D-15 for   1290    739.
 Iteration    1 A^-1*A deviation from unit magnitude is 3.55D-15 for   1279.
 Iteration    1 A^-1*A deviation from orthogonality  is 1.58D-15 for   1139    503.
 Error on total polarization charges =  0.00602
 SCF Done:  E(RwB97XD) =  -389.899487487     A.U. after   16 cycles
            NFock= 16  Conv=0.30D-08     -V/T= 2.0102
 DoSCS=F DFT=T ScalE2(SS,OS)=  1.000000  1.000000
 Range of M.O.s used for correlation:     1   172
 NBasis=   172 NAE=    32 NBE=    32 NFC=     0 NFV=     0
 NROrb=    172 NOA=    32 NOB=    32 NVA=   140 NVB=   140
   1 Symmetry operations used in ECPInt.
 ECPInt:  NShTT=    3570 NPrTT=   12386 LenC2=    3546 LenP2D=    9917.
 LDataN:  DoStor=T MaxTD1= 5 Len=  102
 Symmetrizing basis deriv contribution to polar:
 IMax=3 JMax=2 DiffMx= 0.00D+00
 G2DrvN: will do    21 centers at a time, making    1 passes.
 Calling FoFCou, ICntrl=  3107 FMM=F I1Cent=   0 AccDes= 0.00D+00.
 NEqPCM:  Using equilibrium solvation (IEInf=0, Eps=   2.3741, EpsInf=   2.2383)
 G2PCM: DoFxE=T DoFxN=T DoGrad=T DoDP/DQ/DG/TGxP=FFFF NFrqRd=   0 IEInf=0 SqF1=F DoCFld=F IF1Alg=4.
 End of G2Drv F.D. properties file   721 does not exist.
 End of G2Drv F.D. properties file   722 does not exist.
 End of G2Drv F.D. properties file   788 does not exist.
          IDoAtm=11111111111111111111
 NEqPCM:  Using equilibrium solvation (IEInf=0, Eps=   2.3741, EpsInf=   2.2383)
          Differentiating once with respect to electric field.
                with respect to dipole field.
          Differentiating once with respect to nuclear coordinates.
 Keep R1 ints in memory in canonical form, NReq=236059372.
          There are    63 degrees of freedom in the 1st order CPHF.  IDoFFX=6 NUNeed=     3.
     60 vectors produced by pass  0 Test12= 7.11D-15 1.59D-09 XBig12= 3.71D+01 3.06D+00.
 AX will form    60 AO Fock derivatives at one time.
     60 vectors produced by pass  1 Test12= 7.11D-15 1.59D-09 XBig12= 2.74D+00 3.46D-01.
     60 vectors produced by pass  2 Test12= 7.11D-15 1.59D-09 XBig12= 6.83D-02 5.08D-02.
     60 vectors produced by pass  3 Test12= 7.11D-15 1.59D-09 XBig12= 4.77D-04 4.19D-03.
     60 vectors produced by pass  4 Test12= 7.11D-15 1.59D-09 XBig12= 2.63D-06 1.97D-04.
     60 vectors produced by pass  5 Test12= 7.11D-15 1.59D-09 XBig12= 1.23D-08 1.75D-05.
     40 vectors produced by pass  6 Test12= 7.11D-15 1.59D-09 XBig12= 5.04D-11 7.04D-07.
      6 vectors produced by pass  7 Test12= 7.11D-15 1.59D-09 XBig12= 1.88D-13 4.52D-08.
      3 vectors produced by pass  8 Test12= 7.11D-15 1.59D-09 XBig12= 6.59D-16 3.13D-09.
 InvSVY:  IOpt=1 It=  1 EMax= 2.66D-15
 Solved reduced A of dimension   409 with    63 vectors.
 Isotropic polarizability for W=    0.000000       85.68 Bohr**3.
 End of Minotr F.D. properties file   721 does not exist.
 End of Minotr F.D. properties file   722 does not exist.
 End of Minotr F.D. properties file   788 does not exist.

 **********************************************************************

            Population analysis using the SCF Density.

 **********************************************************************

 Orbital symmetries:
       Occupied  (A) (A) (A) (A) (A) (A) (A) (A) (A) (A) (A) (A)
                 (A) (A) (A) (A) (A) (A) (A) (A) (A) (A) (A) (A)
                 (A) (A) (A) (A) (A) (A) (A) (A)
       Virtual   (A) (A) (A) (A) (A) (A) (A) (A) (A) (A) (A) (A)
                 (A) (A) (A) (A) (A) (A) (A) (A) (A) (A) (A) (A)
                 (A) (A) (A) (A) (A) (A) (A) (A) (A) (A) (A) (A)
                 (A) (A) (A) (A) (A) (A) (A) (A) (A) (A) (A) (A)
                 (A) (A) (A) (A) (A) (A) (A) (A) (A) (A) (A) (A)
                 (A) (A) (A) (A) (A) (A) (A) (A) (A) (A) (A) (A)
                 (A) (A) (A) (A) (A) (A) (A) (A) (A) (A) (A) (A)
                 (A) (A) (A) (A) (A) (A) (A) (A) (A) (A) (A) (A)
                 (A) (A) (A) (A) (A) (A) (A) (A) (A) (A) (A) (A)
                 (A) (A) (A) (A) (A) (A) (A) (A) (A) (A) (A) (A)
                 (A) (A) (A) (A) (A) (A) (A) (A) (A) (A) (A) (A)
                 (A) (A) (A) (A) (A) (A) (A) (A)
 The electronic state is 1-A.
 Alpha  occ. eigenvalues --  -24.82785 -14.52797 -10.37909 -10.37702 -10.34000
 Alpha  occ. eigenvalues --  -10.32438 -10.29226 -10.23170  -1.31074  -1.08262
 Alpha  occ. eigenvalues --   -0.87366  -0.85644  -0.82209  -0.74816  -0.69453
 Alpha  occ. eigenvalues --   -0.65607  -0.61754  -0.58437  -0.57670  -0.56362
 Alpha  occ. eigenvalues --   -0.56199  -0.55562  -0.51703  -0.49765  -0.48712
 Alpha  occ. eigenvalues --   -0.48441  -0.46088  -0.45170  -0.44299  -0.37055
 Alpha  occ. eigenvalues --   -0.34609  -0.22340
 Alpha virt. eigenvalues --    0.02601   0.09009   0.13262   0.16438   0.16691
 Alpha virt. eigenvalues --    0.17040   0.19364   0.20794   0.21179   0.21585
 Alpha virt. eigenvalues --    0.22621   0.22912   0.24365   0.25106   0.27207
 Alpha virt. eigenvalues --    0.28948   0.32326   0.36034   0.37479   0.41356
 Alpha virt. eigenvalues --    0.44216   0.48875   0.48884   0.51134   0.53636
 Alpha virt. eigenvalues --    0.54841   0.55843   0.56974   0.58500   0.59906
 Alpha virt. eigenvalues --    0.61947   0.65427   0.66629   0.67968   0.69423
 Alpha virt. eigenvalues --    0.71094   0.71678   0.72160   0.72961   0.74282
 Alpha virt. eigenvalues --    0.74857   0.75000   0.75379   0.76496   0.76722
 Alpha virt. eigenvalues --    0.77662   0.80105   0.82146   0.83467   0.84381
 Alpha virt. eigenvalues --    0.88471   0.88709   0.91741   0.92132   1.00308
 Alpha virt. eigenvalues --    1.08430   1.11064   1.15051   1.19209   1.20735
 Alpha virt. eigenvalues --    1.27921   1.28141   1.30715   1.32780   1.33742
 Alpha virt. eigenvalues --    1.36106   1.39727   1.46058   1.49165   1.55170
 Alpha virt. eigenvalues --    1.58999   1.59656   1.60422   1.61824   1.64839
 Alpha virt. eigenvalues --    1.66953   1.68410   1.71483   1.73679   1.76469
 Alpha virt. eigenvalues --    1.77569   1.79568   1.81603   1.82644   1.84932
 Alpha virt. eigenvalues --    1.85227   1.85502   1.88300   1.91246   1.91685
 Alpha virt. eigenvalues --    1.93104   1.96491   1.97550   1.98393   2.02669
 Alpha virt. eigenvalues --    2.04532   2.05143   2.05591   2.10414   2.13689
 Alpha virt. eigenvalues --    2.17332   2.18298   2.18576   2.21406   2.24060
 Alpha virt. eigenvalues --    2.31820   2.34485   2.35625   2.38055   2.40209
 Alpha virt. eigenvalues --    2.41887   2.49956   2.51755   2.52354   2.55011
 Alpha virt. eigenvalues --    2.58119   2.63203   2.72239   2.73715   2.76715
 Alpha virt. eigenvalues --    2.78918   2.81523   2.84346   2.88205   2.91705
 Alpha virt. eigenvalues --    2.94355   2.98839   3.01744   3.02464   3.05640
 Alpha virt. eigenvalues --    3.08107   3.10348   3.14706   3.17346   3.29378
 Alpha virt. eigenvalues --    3.31487   3.39555   3.44921   3.61268   3.94561
          Condensed to atoms (all electrons):
               1          2          3          4          5          6
     1  C    4.922897  -0.000983  -0.090100   0.007565   0.539431  -0.000026
     2  C   -0.000983   4.545362  -0.000167   0.611096  -0.000848  -0.005774
     3  C   -0.090100  -0.000167   5.349358  -0.031780   0.264217   0.000241
     4  C    0.007565   0.611096  -0.031780   5.002904   0.000282   0.370469
     5  N    0.539431  -0.000848   0.264217   0.000282   6.285758   0.000057
     6  H   -0.000026  -0.005774   0.000241   0.370469   0.000057   0.591407
     7  H   -0.000040  -0.000114   0.363485   0.002742  -0.033862   0.000108
     8  H    0.000274   0.421858  -0.000048  -0.061823  -0.000029  -0.006868
     9  H    0.004248   0.000009   0.358746   0.000790  -0.031875  -0.000008
    10  H    0.383956  -0.000289   0.032402  -0.004012  -0.026539   0.000117
    11  H   -0.010794  -0.013952   0.079213   0.319693  -0.003098  -0.023061
    12  F    0.009872   0.295212  -0.000878  -0.059384  -0.002404   0.002615
    13  C    0.299530   0.001246   0.011000  -0.001281  -0.042364   0.000012
    14  H   -0.008802   0.000138  -0.000244   0.000200   0.004130  -0.000003
    15  H   -0.003176  -0.001533  -0.000361  -0.000683  -0.007910  -0.000027
    16  H   -0.010479  -0.000004  -0.000212   0.000012  -0.004747   0.000000
    17  C   -0.086752  -0.000023  -0.037538  -0.001108   0.307603   0.000004
    18  H    0.005758   0.000001  -0.000651   0.000020  -0.022714  -0.000000
    19  H   -0.009605  -0.000024   0.006347   0.000222  -0.013231  -0.000000
    20  H    0.000456  -0.000038  -0.001096  -0.000059  -0.022182  -0.000007
               7          8          9         10         11         12
     1  C   -0.000040   0.000274   0.004248   0.383956  -0.010794   0.009872
     2  C   -0.000114   0.421858   0.000009  -0.000289  -0.013952   0.295212
     3  C    0.363485  -0.000048   0.358746   0.032402   0.079213  -0.000878
     4  C    0.002742  -0.061823   0.000790  -0.004012   0.319693  -0.059384
     5  N   -0.033862  -0.000029  -0.031875  -0.026539  -0.003098  -0.002404
     6  H    0.000108  -0.006868  -0.000008   0.000117  -0.023061   0.002615
     7  H    0.733618   0.000029  -0.039518  -0.001559  -0.007276   0.001152
     8  H    0.000029   0.616745   0.000001  -0.000031   0.004837  -0.031046
     9  H   -0.039518   0.000001   0.743809  -0.000462  -0.002735   0.000002
    10  H   -0.001559  -0.000031  -0.000462   0.555343   0.008464  -0.000122
    11  H   -0.007276   0.004837  -0.002735   0.008464   0.572138  -0.001797
    12  F    0.001152  -0.031046   0.000002  -0.000122  -0.001797   9.005923
    13  C   -0.000969  -0.000139  -0.000850  -0.034324   0.002363  -0.006935
    14  H    0.000023   0.000004   0.000019  -0.008475  -0.000124  -0.000077
    15  H    0.000182   0.000029  -0.000015   0.002417  -0.000232   0.011949
    16  H   -0.000038   0.000001   0.000082   0.002948  -0.000009   0.000091
    17  C   -0.003394  -0.000008  -0.009253   0.009250   0.002197   0.000142
    18  H   -0.001927   0.000001   0.008793  -0.000351  -0.000086   0.000096
    19  H    0.000967   0.000001   0.000939  -0.000894  -0.000433  -0.000334
    20  H    0.005436   0.000072  -0.001525  -0.000318  -0.000062   0.006920
              13         14         15         16         17         18
     1  C    0.299530  -0.008802  -0.003176  -0.010479  -0.086752   0.005758
     2  C    0.001246   0.000138  -0.001533  -0.000004  -0.000023   0.000001
     3  C    0.011000  -0.000244  -0.000361  -0.000212  -0.037538  -0.000651
     4  C   -0.001281   0.000200  -0.000683   0.000012  -0.001108   0.000020
     5  N   -0.042364   0.004130  -0.007910  -0.004747   0.307603  -0.022714
     6  H    0.000012  -0.000003  -0.000027   0.000000   0.000004  -0.000000
     7  H   -0.000969   0.000023   0.000182  -0.000038  -0.003394  -0.001927
     8  H   -0.000139   0.000004   0.000029   0.000001  -0.000008   0.000001
     9  H   -0.000850   0.000019  -0.000015   0.000082  -0.009253   0.008793
    10  H   -0.034324  -0.008475   0.002417   0.002948   0.009250  -0.000351
    11  H    0.002363  -0.000124  -0.000232  -0.000009   0.002197  -0.000086
    12  F   -0.006935  -0.000077   0.011949   0.000091   0.000142   0.000096
    13  C    4.679545   0.387243   0.373118   0.386587   0.009289  -0.000477
    14  H    0.387243   0.577702  -0.014623  -0.014363   0.000429  -0.000014
    15  H    0.373118  -0.014623   0.564073  -0.013561  -0.000041  -0.000032
    16  H    0.386587  -0.014363  -0.013561   0.559252  -0.002152   0.000351
    17  C    0.009289   0.000429  -0.000041  -0.002152   4.605760   0.395040
    18  H   -0.000477  -0.000014  -0.000032   0.000351   0.395040   0.578358
    19  H    0.004183   0.000353  -0.000142   0.002485   0.360161  -0.018340
    20  H   -0.000495  -0.000013   0.000668  -0.000320   0.397523  -0.014973
              19         20
     1  C   -0.009605   0.000456
     2  C   -0.000024  -0.000038
     3  C    0.006347  -0.001096
     4  C    0.000222  -0.000059
     5  N   -0.013231  -0.022182
     6  H   -0.000000  -0.000007
     7  H    0.000967   0.005436
     8  H    0.000001   0.000072
     9  H    0.000939  -0.001525
    10  H   -0.000894  -0.000318
    11  H   -0.000433  -0.000062
    12  F   -0.000334   0.006920
    13  C    0.004183  -0.000495
    14  H    0.000353  -0.000013
    15  H   -0.000142   0.000668
    16  H    0.002485  -0.000320
    17  C    0.360161   0.397523
    18  H   -0.018340  -0.014973
    19  H    0.635836  -0.017998
    20  H   -0.017998   0.566725
 Mulliken charges:
               1
     1  C    0.046770
     2  C    0.148827
     3  C   -0.301931
     4  C   -0.155865
     5  N   -0.189677
     6  H    0.070742
     7  H   -0.019045
     8  H    0.056142
     9  H   -0.031196
    10  H    0.082480
    11  H    0.074753
    12  F   -0.230999
    13  C   -0.066282
    14  H    0.076498
    15  H    0.089899
    16  H    0.094073
    17  C    0.052872
    18  H    0.071147
    19  H    0.049508
    20  H    0.081284
 Sum of Mulliken charges =  -0.00000
 Mulliken charges with hydrogens summed into heavy atoms:
               1
     1  C    0.129250
     2  C    0.204969
     3  C   -0.352172
     4  C   -0.010370
     5  N   -0.189677
    12  F   -0.230999
    13  C    0.194188
    17  C    0.254811
 APT charges:
               1
     1  C    0.361573
     2  C    0.594139
     3  C   -0.343809
     4  C   -0.310933
     5  N   -0.241885
     6  H    0.064389
     7  H   -0.052322
     8  H    0.047741
     9  H   -0.074650
    10  H    0.097341
    11  H    0.198953
    12  F   -0.593700
    13  C   -0.086436
    14  H    0.040247
    15  H    0.048558
    16  H    0.038515
    17  C    0.139404
    18  H    0.044652
    19  H   -0.018848
    20  H    0.047072
 Sum of APT charges =   0.00000
 APT charges with hydrogens summed into heavy atoms:
               1
     1  C    0.458914
     2  C    0.641881
     3  C   -0.470781
     4  C   -0.047592
     5  N   -0.241885
    12  F   -0.593700
    13  C    0.040884
    17  C    0.212279
 Electronic spatial extent (au):  <R**2>=           1205.1312
 Charge=             -0.0000 electrons
 Dipole moment (field-independent basis, Debye):
    X=              0.2827    Y=              5.8881    Z=              1.6043  Tot=              6.1093
 Quadrupole moment (field-independent basis, Debye-Ang):
   XX=            -41.7905   YY=            -56.7086   ZZ=            -50.8910
   XY=              3.7474   XZ=              4.0329   YZ=             -6.6458
 Traceless Quadrupole moment (field-independent basis, Debye-Ang):
   XX=              8.0062   YY=             -6.9119   ZZ=             -1.0943
   XY=              3.7474   XZ=              4.0329   YZ=             -6.6458
 Octapole moment (field-independent basis, Debye-Ang**2):
  XXX=            -19.9330  YYY=             39.3052  ZZZ=             13.7494  XYY=             -5.4991
  XXY=             12.6906  XXZ=              6.8389  XZZ=             -2.2246  YZZ=             12.3937
  YYZ=             13.5937  XYZ=             -8.5644
 Hexadecapole moment (field-independent basis, Debye-Ang**3):
 XXXX=           -772.2638 YYYY=           -506.4651 ZZZZ=           -266.9293 XXXY=            -11.0026
 XXXZ=              9.2280 YYYX=             18.7157 YYYZ=            -32.1529 ZZZX=             -0.2303
 ZZZY=            -18.8482 XXYY=           -220.7735 XXZZ=           -182.8014 YYZZ=           -137.0162
 XXYZ=              2.0482 YYXZ=              5.6234 ZZXY=              9.6073
 N-N= 3.849279029659D+02 E-N=-1.678277792518D+03  KE= 3.859528220308D+02
  Exact polarizability:      78.832      -4.317      97.534       7.479       1.734      80.668
 Approx polarizability:      71.409      -3.661      90.283       5.968       3.196      81.752
   1 Symmetry operations used in ECPInt.
 ECPInt:  NShTT=    3570 NPrTT=   12386 LenC2=    3546 LenP2D=    9917.
 LDataN:  DoStor=T MaxTD1= 6 Len=  172
 D2PCM: PCM CHGder 2nd derivatives, FixD1E=F FixD2E=F DoIter=F DoCFld=F I1PDM=0
 Calling FoFJK, ICntrl=    100127 FMM=F ISym2X=0 I1Cent= 0 IOpClX= 0 NMat=1 NMatS=1 NMatT=0.
 Full mass-weighted force constant matrix:
 Low frequencies --- -359.8390    0.0002    0.0008    0.0009   11.7292   14.5816
 Low frequencies ---   26.9242   48.2050   74.0128
 ******    1 imaginary frequencies (negative Signs) ****** 
 Diagonal vibrational polarizability:
      140.7552089      43.0079088      53.8302052
 Harmonic frequencies (cm**-1), IR intensities (KM/Mole), Raman scattering
 activities (A**4/AMU), depolarization ratios for plane and unpolarized
 incident light, reduced masses (AMU), force constants (mDyne/A),
 and normal coordinates:
                      1                      2                      3
                      A                      A                      A
 Frequencies --   -359.8380                47.4807                73.7738
 Red. masses --      1.0889                 3.8012                 3.4158
 Frc consts  --      0.0831                 0.0050                 0.0110
 IR Inten    --     61.4395                 5.8130                21.3951
  Atom  AN      X      Y      Z        X      Y      Z        X      Y      Z
     1   6     0.00  -0.00  -0.00     0.06   0.06   0.04     0.02  -0.04  -0.03
     2   6    -0.00  -0.00   0.00    -0.13  -0.13   0.05     0.03   0.05   0.03
     3   6     0.04   0.01  -0.00    -0.05   0.04  -0.05     0.20  -0.06  -0.15
     4   6    -0.02   0.01  -0.01    -0.12  -0.19   0.10     0.07  -0.02   0.10
     5   7     0.03  -0.01  -0.01     0.03   0.02  -0.01     0.01  -0.05  -0.03
     6   1    -0.03   0.02   0.01    -0.22  -0.44   0.28     0.07  -0.13   0.13
     7   1    -0.54   0.19  -0.40    -0.06   0.05  -0.06     0.09  -0.16  -0.28
     8   1    -0.00  -0.00   0.01    -0.22  -0.30   0.16    -0.02   0.00  -0.02
     9   1    -0.17  -0.13   0.65    -0.07  -0.01  -0.09     0.21   0.02   0.00
    10   1     0.08  -0.00  -0.03     0.00   0.12   0.04     0.18  -0.04  -0.10
    11   1    -0.04   0.02  -0.05    -0.03  -0.01  -0.01     0.09   0.02   0.11
    12   9     0.00  -0.01  -0.00    -0.03   0.17  -0.16     0.01   0.20  -0.00
    13   6    -0.04  -0.00   0.02     0.16   0.05   0.09    -0.14  -0.04   0.04
    14   1    -0.07  -0.00   0.03     0.25   0.10   0.09    -0.09  -0.05   0.02
    15   1    -0.00   0.01   0.04     0.14   0.06   0.07    -0.25  -0.13  -0.02
    16   1    -0.03  -0.00  -0.03     0.17  -0.04   0.15    -0.19   0.04   0.16
    17   6     0.04   0.00  -0.01     0.07  -0.06  -0.01    -0.17  -0.08   0.04
    18   1     0.03  -0.02  -0.01    -0.02  -0.18  -0.00    -0.03   0.10   0.05
    19   1     0.07  -0.01  -0.03     0.22  -0.10  -0.01    -0.43  -0.02   0.19
    20   1     0.04   0.03  -0.01     0.03   0.05  -0.01    -0.18  -0.35  -0.06
                      4                      5                      6
                      A                      A                      A
 Frequencies --     80.9707               117.3952               128.4891
 Red. masses --      2.4476                 5.0026                 1.2145
 Frc consts  --      0.0095                 0.0406                 0.0118
 IR Inten    --      1.2838                 0.3508                 0.2899
  Atom  AN      X      Y      Z        X      Y      Z        X      Y      Z
     1   6    -0.11  -0.03   0.07    -0.13   0.04   0.07    -0.03  -0.00   0.03
     2   6     0.01   0.08  -0.10     0.18  -0.01  -0.05    -0.01   0.03  -0.02
     3   6     0.03  -0.04   0.02    -0.15   0.03   0.05     0.01  -0.00   0.03
     4   6     0.03  -0.02  -0.01     0.00  -0.09   0.01    -0.06   0.01  -0.01
     5   7     0.04  -0.04   0.01    -0.13   0.02   0.05     0.02  -0.00   0.02
     6   1     0.08  -0.01  -0.07    -0.09  -0.09   0.13    -0.06   0.04  -0.01
     7   1     0.17  -0.08   0.11    -0.16   0.04   0.04     0.02   0.00   0.04
     8   1     0.03   0.17  -0.24     0.26   0.06   0.02     0.02   0.08  -0.02
     9   1     0.08  -0.01  -0.15    -0.16   0.02   0.05     0.01  -0.00   0.00
    10   1    -0.21  -0.02   0.11    -0.15   0.06   0.07    -0.10  -0.02   0.06
    11   1     0.01  -0.10   0.12    -0.04  -0.15  -0.07    -0.08  -0.03   0.01
    12   9    -0.05   0.08  -0.03     0.31  -0.01  -0.19     0.01  -0.01  -0.03
    13   6    -0.14  -0.03   0.11    -0.08   0.04   0.07    -0.03   0.00   0.00
    14   1    -0.40  -0.02   0.22    -0.29   0.04   0.16     0.37  -0.01  -0.17
    15   1     0.07  -0.10   0.28     0.14   0.05   0.22    -0.41   0.05  -0.28
    16   1    -0.10   0.02  -0.15    -0.02   0.03  -0.19    -0.12  -0.03   0.46
    17   6     0.19  -0.03  -0.05    -0.09  -0.01   0.04     0.09  -0.02  -0.01
    18   1     0.08  -0.17  -0.07     0.08   0.18  -0.11     0.27   0.17  -0.17
    19   1     0.38  -0.07  -0.16    -0.34   0.05   0.15    -0.16   0.04   0.08
    20   1     0.20   0.17   0.03     0.03  -0.30   0.08     0.22  -0.29   0.04
                      7                      8                      9
                      A                      A                      A
 Frequencies --    144.8948               157.8050               184.4537
 Red. masses --      1.5071                 2.0150                 2.1419
 Frc consts  --      0.0186                 0.0296                 0.0429
 IR Inten    --      2.0493                12.3387                 3.4815
  Atom  AN      X      Y      Z        X      Y      Z        X      Y      Z
     1   6    -0.03   0.01  -0.01    -0.03   0.03  -0.00    -0.02  -0.04   0.02
     2   6     0.07  -0.03  -0.01     0.03  -0.03  -0.04    -0.05  -0.12   0.10
     3   6    -0.10   0.01  -0.01    -0.10   0.02  -0.00    -0.03  -0.02   0.05
     4   6     0.14  -0.04   0.01     0.17  -0.07   0.01     0.10   0.15  -0.13
     5   7    -0.03   0.00  -0.02    -0.06   0.01  -0.01     0.00  -0.02   0.02
     6   1     0.16  -0.07  -0.02     0.24  -0.11  -0.07     0.02  -0.01   0.01
     7   1    -0.12   0.06  -0.00    -0.18   0.06  -0.05     0.02  -0.02   0.10
     8   1     0.04  -0.05  -0.07    -0.02  -0.05  -0.18    -0.23  -0.50   0.41
     9   1    -0.13  -0.04   0.01    -0.14  -0.03   0.08    -0.02  -0.03  -0.04
    10   1    -0.05   0.03  -0.01    -0.06   0.04   0.00    -0.03  -0.05   0.02
    11   1     0.15  -0.03   0.04     0.19  -0.06   0.11     0.22   0.41  -0.36
    12   9     0.02   0.03   0.03    -0.09   0.05   0.08     0.02   0.07  -0.04
    13   6    -0.04   0.01   0.02     0.08   0.02  -0.02    -0.07  -0.03  -0.01
    14   1     0.28   0.03  -0.09    -0.00   0.03   0.02    -0.12  -0.06  -0.01
    15   1    -0.34   0.00  -0.19     0.20   0.08   0.05    -0.06  -0.05   0.00
    16   1    -0.11  -0.02   0.41     0.12  -0.03  -0.17    -0.08   0.02  -0.04
    17   6    -0.03  -0.01  -0.02     0.03  -0.04  -0.04     0.05  -0.00  -0.00
    18   1    -0.26  -0.27   0.12     0.29   0.23  -0.27     0.10   0.05  -0.05
    19   1     0.31  -0.09  -0.14    -0.32   0.04   0.12    -0.01   0.01  -0.01
    20   1    -0.16   0.35  -0.04     0.22  -0.46   0.02     0.10  -0.06   0.04
                     10                     11                     12
                      A                      A                      A
 Frequencies --    304.9417               331.4107               452.4577
 Red. masses --      2.5393                 2.6724                 2.6349
 Frc consts  --      0.1391                 0.1729                 0.3178
 IR Inten    --     23.6786                 4.9797                11.4391
  Atom  AN      X      Y      Z        X      Y      Z        X      Y      Z
     1   6     0.24   0.00  -0.09    -0.03  -0.03  -0.09    -0.05   0.08  -0.06
     2   6    -0.01   0.02  -0.01    -0.00  -0.00   0.01    -0.01   0.00   0.01
     3   6    -0.18   0.02   0.06     0.03  -0.08   0.09     0.09  -0.03   0.23
     4   6    -0.02  -0.02   0.02     0.00   0.01  -0.01     0.00   0.01  -0.00
     5   7     0.11   0.00  -0.04    -0.04  -0.03  -0.10     0.03   0.05  -0.11
     6   1    -0.01  -0.02   0.01    -0.00   0.00   0.00     0.02  -0.01  -0.01
     7   1    -0.03   0.19   0.26     0.05   0.00   0.14     0.18   0.17   0.39
     8   1     0.01   0.06  -0.04    -0.01  -0.02   0.02    -0.02  -0.01   0.03
     9   1    -0.22  -0.14  -0.16     0.05  -0.01   0.16     0.14   0.10   0.37
    10   1     0.36  -0.00  -0.14    -0.05   0.10  -0.13    -0.14   0.13  -0.05
    11   1    -0.01  -0.03   0.06    -0.00   0.01  -0.01     0.01   0.01   0.03
    12   9    -0.01  -0.01  -0.00     0.00   0.00  -0.00     0.00  -0.00  -0.01
    13   6    -0.12   0.00   0.05     0.08  -0.09   0.21    -0.01   0.09  -0.01
    14   1    -0.34  -0.01   0.13     0.18   0.17   0.34    -0.00   0.15   0.02
    15   1    -0.18  -0.33   0.10     0.06  -0.25   0.24     0.03   0.08   0.02
    16   1    -0.22   0.33   0.06     0.10  -0.23   0.33     0.01   0.03  -0.02
    17   6     0.01  -0.01  -0.00    -0.06   0.18  -0.14    -0.05  -0.19  -0.07
    18   1     0.08   0.08  -0.01     0.06   0.34  -0.09    -0.16  -0.34  -0.11
    19   1    -0.11   0.02   0.07    -0.22   0.23  -0.21     0.05  -0.25   0.19
    20   1     0.01  -0.15  -0.05    -0.01   0.12  -0.11    -0.16  -0.27  -0.21
                     13                     14                     15
                      A                      A                      A
 Frequencies --    486.5872               525.1410               569.8075
 Red. masses --      2.4198                 2.5069                 3.2130
 Frc consts  --      0.3376                 0.4073                 0.6146
 IR Inten    --      1.7693                 3.1433                13.0785
  Atom  AN      X      Y      Z        X      Y      Z        X      Y      Z
     1   6    -0.12  -0.02   0.07    -0.00   0.00   0.00    -0.07  -0.08  -0.16
     2   6    -0.02   0.01   0.00     0.17  -0.11  -0.04     0.01  -0.00  -0.00
     3   6    -0.06   0.02  -0.03    -0.00  -0.01   0.01     0.02   0.29   0.02
     4   6     0.02   0.01   0.01    -0.12  -0.07  -0.14    -0.01  -0.00  -0.01
     5   7     0.27  -0.02  -0.09     0.03  -0.00  -0.01     0.00   0.13   0.03
     6   1     0.05  -0.02  -0.02    -0.42   0.33   0.15    -0.02   0.01   0.01
     7   1    -0.07   0.23   0.06     0.03   0.02   0.05     0.00   0.18  -0.05
     8   1    -0.01   0.01   0.01     0.13  -0.14  -0.13     0.01  -0.01  -0.00
     9   1    -0.19  -0.24  -0.13     0.01  -0.02  -0.03     0.00   0.22  -0.09
    10   1    -0.45  -0.03   0.21    -0.04   0.01   0.02    -0.02  -0.25  -0.11
    11   1     0.03   0.02   0.06    -0.35  -0.30  -0.55    -0.01  -0.01  -0.02
    12   9    -0.00  -0.01  -0.01    -0.01   0.12   0.14     0.00   0.01   0.00
    13   6     0.01  -0.02  -0.01    -0.00   0.01  -0.00    -0.00  -0.23   0.00
    14   1     0.04  -0.04  -0.03    -0.01   0.00  -0.00     0.08   0.07   0.17
    15   1     0.08   0.13   0.00     0.00   0.01  -0.00     0.06  -0.41   0.10
    16   1     0.06  -0.16  -0.07    -0.00   0.02  -0.00     0.05  -0.47   0.10
    17   6    -0.05   0.04   0.04    -0.00  -0.00   0.00     0.03  -0.04   0.08
    18   1    -0.02   0.15   0.36    -0.00   0.01   0.04    -0.04  -0.18  -0.08
    19   1    -0.26   0.09   0.15    -0.02   0.00   0.02     0.13  -0.10   0.31
    20   1    -0.29  -0.06  -0.25    -0.03  -0.01  -0.03     0.01  -0.15   0.02
                     16                     17                     18
                      A                      A                      A
 Frequencies --    751.6082               804.8682               858.5993
 Red. masses --      1.4199                 3.2222                 1.1230
 Frc consts  --      0.4726                 1.2298                 0.4878
 IR Inten    --      8.5649                 3.9312                38.6753
  Atom  AN      X      Y      Z        X      Y      Z        X      Y      Z
     1   6     0.00   0.00  -0.00     0.07  -0.03   0.17    -0.04  -0.00   0.02
     2   6    -0.06  -0.13   0.11    -0.00  -0.00  -0.00     0.00  -0.00   0.00
     3   6    -0.00  -0.00  -0.01     0.05   0.26   0.08    -0.01   0.00   0.01
     4   6    -0.00  -0.00  -0.00    -0.00  -0.01   0.00    -0.00  -0.01   0.01
     5   7    -0.00   0.00   0.00    -0.01  -0.10   0.02     0.03  -0.01  -0.01
     6   1     0.29   0.62  -0.53     0.01   0.02  -0.02     0.01   0.03  -0.02
     7   1     0.00   0.00  -0.00    -0.00   0.12  -0.04     0.04   0.08   0.09
     8   1     0.12   0.25  -0.21     0.01   0.01  -0.01     0.01   0.01  -0.01
     9   1    -0.00   0.00   0.01     0.02   0.17  -0.08    -0.03  -0.09  -0.11
    10   1    -0.01  -0.01   0.00     0.04   0.04   0.17     0.64  -0.01  -0.25
    11   1    -0.11  -0.23   0.20     0.01   0.01  -0.01     0.01   0.02  -0.02
    12   9     0.02   0.05  -0.04     0.00   0.00   0.00    -0.00   0.00  -0.00
    13   6     0.00   0.00   0.00     0.02  -0.08   0.04    -0.08   0.01   0.03
    14   1    -0.01   0.00   0.01    -0.08  -0.52  -0.21     0.24   0.01  -0.09
    15   1    -0.00  -0.01   0.00    -0.08   0.17  -0.11     0.13   0.43   0.04
    16   1    -0.00   0.01   0.00    -0.03   0.22  -0.12     0.09  -0.41  -0.12
    17   6     0.00   0.00   0.00    -0.09  -0.06  -0.23    -0.01   0.00  -0.01
    18   1     0.00   0.00   0.00    -0.04   0.04  -0.12     0.01  -0.00  -0.08
    19   1     0.00   0.00   0.00    -0.18  -0.01  -0.44     0.02  -0.00  -0.03
    20   1     0.00   0.00   0.01    -0.08   0.04  -0.18     0.05   0.01   0.06
                     19                     20                     21
                      A                      A                      A
 Frequencies --    948.2499               958.5933               971.5273
 Red. masses --      1.9459                 1.4073                 1.7633
 Frc consts  --      1.0309                 0.7619                 0.9806
 IR Inten    --     45.6322                 7.7285                25.7465
  Atom  AN      X      Y      Z        X      Y      Z        X      Y      Z
     1   6    -0.00  -0.01  -0.01     0.01   0.00   0.01     0.02   0.06   0.07
     2   6     0.07   0.03   0.04    -0.03  -0.09   0.08     0.02   0.02  -0.01
     3   6     0.00   0.01   0.02    -0.01  -0.00  -0.02    -0.05  -0.08  -0.13
     4   6     0.12   0.01   0.14     0.06   0.10  -0.06     0.00  -0.01   0.02
     5   7    -0.00  -0.01  -0.00     0.00   0.01   0.00     0.01   0.11   0.01
     6   1    -0.21   0.67   0.43    -0.27  -0.38   0.49     0.01   0.13  -0.02
     7   1    -0.04  -0.04  -0.05     0.05   0.05   0.06     0.32   0.26   0.38
     8   1    -0.08  -0.14  -0.08     0.21   0.44  -0.41    -0.07  -0.15   0.11
     9   1     0.01  -0.01  -0.08    -0.00   0.03   0.07     0.02   0.22   0.52
    10   1    -0.02  -0.00  -0.00     0.02   0.00   0.00     0.03   0.14   0.04
    11   1    -0.09  -0.13  -0.42    -0.12  -0.23   0.12    -0.04  -0.07   0.02
    12   9    -0.10  -0.05  -0.11    -0.02  -0.00  -0.02    -0.01  -0.00  -0.01
    13   6     0.00   0.01   0.00    -0.00  -0.01   0.01     0.01  -0.13   0.02
    14   1    -0.00   0.02   0.01     0.00  -0.04  -0.02    -0.03  -0.38  -0.12
    15   1     0.00   0.01   0.00    -0.00   0.02  -0.01    -0.05   0.00  -0.07
    16   1    -0.00   0.02   0.01     0.00  -0.01  -0.02    -0.00  -0.03  -0.10
    17   6     0.00   0.00   0.00    -0.00   0.00  -0.00    -0.01   0.02  -0.02
    18   1    -0.00  -0.00   0.01    -0.00   0.00  -0.01    -0.03  -0.03  -0.11
    19   1    -0.00   0.00   0.01     0.01  -0.00  -0.00     0.06  -0.02   0.08
    20   1    -0.00  -0.01  -0.00     0.01   0.00   0.01     0.02  -0.03  -0.00
                     22                     23                     24
                      A                      A                      A
 Frequencies --   1016.4561              1031.9663              1037.9906
 Red. masses --      1.1587                 1.9861                 1.3491
 Frc consts  --      0.7053                 1.2462                 0.8564
 IR Inten    --     56.9006                 1.1435                28.7238
  Atom  AN      X      Y      Z        X      Y      Z        X      Y      Z
     1   6    -0.00   0.03   0.01    -0.03   0.00  -0.08    -0.02  -0.03  -0.02
     2   6    -0.02  -0.02   0.01     0.01   0.00  -0.00    -0.01  -0.01   0.00
     3   6     0.00  -0.04   0.02     0.02   0.05   0.03    -0.01   0.06  -0.06
     4   6    -0.02  -0.05   0.04     0.00   0.02  -0.01    -0.01  -0.03   0.02
     5   7    -0.00   0.03  -0.01    -0.06  -0.09  -0.14    -0.01  -0.08  -0.03
     6   1     0.03  -0.02  -0.05    -0.00  -0.02  -0.00     0.01   0.02  -0.02
     7   1    -0.08  -0.08  -0.08    -0.02   0.03  -0.02     0.26   0.24   0.28
     8   1     0.16   0.36  -0.29    -0.04  -0.10   0.09     0.07   0.16  -0.13
     9   1     0.02  -0.04  -0.11     0.01   0.03  -0.05     0.01   0.22   0.35
    10   1    -0.01   0.15  -0.03    -0.07   0.44  -0.23    -0.02  -0.01  -0.03
    11   1     0.26   0.54  -0.46    -0.08  -0.16   0.16     0.14   0.29  -0.25
    12   9     0.01  -0.00   0.01    -0.00   0.00  -0.00     0.00  -0.00   0.00
    13   6     0.01  -0.05   0.01     0.03  -0.03   0.09    -0.00   0.04  -0.02
    14   1    -0.04  -0.20  -0.07    -0.04  -0.49  -0.19     0.01   0.19   0.07
    15   1    -0.04   0.00  -0.04    -0.13   0.31  -0.13     0.03  -0.03   0.03
    16   1    -0.01   0.05  -0.04    -0.01   0.29  -0.18    -0.00  -0.00   0.05
    17   6     0.01   0.03  -0.00     0.06   0.03   0.16     0.01  -0.07   0.07
    18   1    -0.07  -0.08  -0.07     0.05   0.00   0.11     0.18   0.19   0.23
    19   1     0.06  -0.00   0.18     0.07   0.03   0.18    -0.12   0.02  -0.34
    20   1    -0.03  -0.08  -0.08     0.03   0.01   0.11     0.06   0.19   0.21
                     25                     26                     27
                      A                      A                      A
 Frequencies --   1094.1504              1124.8133              1131.9712
 Red. masses --      1.5201                 1.2783                 1.8873
 Frc consts  --      1.0722                 0.9529                 1.4248
 IR Inten    --      1.3543                 1.4090                27.9463
  Atom  AN      X      Y      Z        X      Y      Z        X      Y      Z
     1   6     0.15   0.00  -0.06    -0.07  -0.00   0.03     0.04   0.17   0.10
     2   6     0.01  -0.00   0.00    -0.01   0.00  -0.00    -0.02   0.00  -0.01
     3   6    -0.03   0.00   0.00    -0.04   0.00  -0.00     0.02  -0.01   0.05
     4   6    -0.00  -0.00   0.00     0.00   0.00  -0.00     0.01   0.00  -0.01
     5   7    -0.04   0.00   0.02    -0.03  -0.00   0.01    -0.02  -0.02  -0.06
     6   1     0.01  -0.02  -0.02    -0.01   0.01   0.01    -0.02   0.02   0.03
     7   1     0.01  -0.23  -0.07     0.03  -0.18  -0.03    -0.12  -0.06  -0.11
     8   1     0.01   0.01  -0.00    -0.01  -0.01   0.01    -0.03  -0.02   0.01
     9   1     0.09   0.25   0.10     0.07   0.23   0.10     0.02  -0.06  -0.16
    10   1    -0.46  -0.01   0.19     0.42  -0.01  -0.16     0.01   0.58  -0.03
    11   1     0.01   0.04  -0.01    -0.02  -0.04   0.01    -0.04  -0.09   0.03
    12   9    -0.00   0.00  -0.00     0.00  -0.00   0.00     0.01   0.00   0.00
    13   6    -0.11  -0.00   0.04     0.04   0.00  -0.02    -0.05  -0.10  -0.12
    14   1     0.24   0.01  -0.09    -0.09   0.02   0.04    -0.00   0.11   0.02
    15   1     0.12   0.36   0.09    -0.04  -0.13  -0.03     0.09  -0.41   0.07
    16   1     0.05  -0.38  -0.17    -0.02   0.12   0.07     0.00  -0.42   0.09
    17   6     0.06  -0.01  -0.02     0.11  -0.01  -0.04     0.01  -0.04   0.03
    18   1     0.01   0.00   0.26     0.01  -0.01   0.48     0.13   0.14   0.16
    19   1    -0.13   0.04   0.08    -0.23   0.07   0.18    -0.08   0.01  -0.17
    20   1    -0.15   0.01  -0.24    -0.28  -0.01  -0.47     0.02   0.14   0.11
                     28                     29                     30
                      A                      A                      A
 Frequencies --   1178.5635              1204.2972              1241.1750
 Red. masses --      3.0175                 1.8913                 1.3244
 Frc consts  --      2.4695                 1.6161                 1.2021
 IR Inten    --    117.3172                 2.9752                18.3005
  Atom  AN      X      Y      Z        X      Y      Z        X      Y      Z
     1   6    -0.01   0.01   0.02    -0.04   0.05  -0.10     0.03   0.00  -0.01
     2   6     0.31  -0.06   0.09     0.01  -0.00   0.00     0.00  -0.00  -0.00
     3   6    -0.00   0.00   0.00     0.01  -0.06   0.04     0.09  -0.01  -0.03
     4   6    -0.12   0.06   0.01    -0.00   0.00  -0.00    -0.00  -0.00   0.00
     5   7     0.00  -0.01  -0.01     0.03   0.16   0.04    -0.11   0.00   0.04
     6   1     0.17  -0.29  -0.26     0.01  -0.02  -0.01    -0.01   0.01   0.01
     7   1    -0.00  -0.02  -0.01    -0.16  -0.10  -0.14     0.05   0.60   0.22
     8   1     0.46   0.06   0.30     0.02   0.01   0.02     0.01   0.01   0.01
     9   1    -0.00   0.01  -0.00     0.02  -0.10  -0.19    -0.21  -0.59  -0.19
    10   1     0.04   0.07  -0.01     0.01  -0.17  -0.04    -0.08   0.01   0.03
    11   1     0.14   0.37   0.42     0.00   0.01   0.02     0.02   0.02   0.00
    12   9    -0.16  -0.00  -0.09    -0.01  -0.00  -0.00    -0.00  -0.00  -0.00
    13   6     0.00  -0.01  -0.02     0.03  -0.04   0.07    -0.01  -0.00   0.00
    14   1    -0.03   0.04   0.02    -0.02  -0.28  -0.06     0.01   0.00  -0.00
    15   1     0.02  -0.06   0.01    -0.13   0.11  -0.09     0.00   0.01   0.00
    16   1    -0.02  -0.01   0.06     0.03   0.13  -0.14     0.01  -0.03  -0.01
    17   6     0.00   0.01  -0.00    -0.00  -0.14  -0.00     0.06  -0.00  -0.02
    18   1    -0.01  -0.01   0.02     0.24   0.24   0.30    -0.03  -0.05   0.18
    19   1     0.01   0.00   0.02    -0.26  -0.01  -0.50    -0.16   0.04   0.09
    20   1     0.00  -0.02  -0.01    -0.00   0.30   0.15    -0.10   0.04  -0.18
                     31                     32                     33
                      A                      A                      A
 Frequencies --   1339.7224              1346.9767              1394.3387
 Red. masses --      1.1485                 1.3262                 1.2546
 Frc consts  --      1.2145                 1.4176                 1.4372
 IR Inten    --      1.6744                 4.8904                15.0228
  Atom  AN      X      Y      Z        X      Y      Z        X      Y      Z
     1   6     0.00   0.00   0.00    -0.01  -0.08  -0.04     0.01   0.04   0.03
     2   6    -0.05   0.04   0.02    -0.01   0.00  -0.00     0.01   0.02   0.03
     3   6     0.00  -0.00   0.00    -0.00   0.01  -0.01     0.00  -0.03   0.01
     4   6     0.06  -0.06  -0.04     0.00  -0.01  -0.00    -0.00   0.01   0.01
     5   7    -0.00  -0.00  -0.01     0.04   0.03   0.10    -0.03   0.01  -0.06
     6   1     0.06  -0.08  -0.05    -0.01   0.01   0.01     0.11  -0.14  -0.10
     7   1    -0.01   0.02   0.00     0.05  -0.09   0.00    -0.15   0.21  -0.02
     8   1     0.38   0.41   0.70     0.02   0.03   0.05    -0.07  -0.04  -0.08
     9   1     0.01   0.02  -0.01    -0.05  -0.07   0.04     0.12   0.17  -0.13
    10   1     0.01  -0.04   0.02    -0.11   0.69  -0.27     0.06  -0.33   0.15
    11   1    -0.10  -0.25  -0.31    -0.00  -0.02  -0.01    -0.10  -0.10  -0.15
    12   9    -0.03   0.01  -0.01    -0.00   0.00   0.00     0.00  -0.00  -0.00
    13   6     0.00   0.01   0.00    -0.01  -0.06  -0.03    -0.01  -0.10  -0.04
    14   1     0.00  -0.01  -0.01     0.05   0.26   0.15     0.01   0.15   0.12
    15   1    -0.01  -0.02   0.00     0.19   0.31   0.01     0.36   0.40   0.08
    16   1     0.01  -0.02  -0.01    -0.14   0.30   0.14    -0.21   0.34   0.33
    17   6     0.00   0.00   0.00    -0.01  -0.01  -0.02     0.00  -0.00   0.01
    18   1     0.00   0.00  -0.01    -0.03  -0.05  -0.06     0.04   0.05   0.06
    19   1     0.01  -0.00   0.01    -0.06   0.01  -0.13     0.03  -0.01   0.09
    20   1    -0.00   0.00  -0.00    -0.04  -0.03  -0.06     0.03   0.05   0.05
                     34                     35                     36
                      A                      A                      A
 Frequencies --   1412.9088              1428.6023              1438.9908
 Red. masses --      1.1859                 1.1756                 1.0929
 Frc consts  --      1.3949                 1.4136                 1.3334
 IR Inten    --      4.6732                 2.7292                19.5472
  Atom  AN      X      Y      Z        X      Y      Z        X      Y      Z
     1   6     0.00   0.03   0.01    -0.01  -0.01  -0.02     0.00  -0.04   0.02
     2   6    -0.03  -0.05  -0.08    -0.01  -0.01  -0.02    -0.01  -0.01  -0.02
     3   6     0.00   0.01   0.00    -0.00  -0.00   0.00    -0.00  -0.06   0.00
     4   6     0.01  -0.03  -0.03     0.00  -0.01  -0.01     0.00  -0.00  -0.01
     5   7    -0.01   0.00  -0.03     0.01  -0.01   0.02     0.01   0.00   0.01
     6   1    -0.31   0.41   0.30    -0.07   0.10   0.07    -0.07   0.10   0.08
     7   1     0.05  -0.11  -0.01    -0.06   0.08  -0.01    -0.33   0.50  -0.04
     8   1     0.18   0.13   0.24     0.04   0.03   0.06     0.04   0.02   0.05
     9   1    -0.06  -0.08   0.06     0.05   0.09  -0.04     0.30   0.46  -0.26
    10   1     0.03  -0.18   0.07    -0.03   0.09  -0.05    -0.01   0.10  -0.02
    11   1     0.29   0.27   0.44     0.07   0.06   0.10     0.07   0.07   0.14
    12   9     0.01   0.01   0.01     0.00   0.00   0.00     0.00   0.00   0.00
    13   6    -0.01  -0.04  -0.01     0.00   0.01  -0.00     0.00   0.01   0.01
    14   1     0.02   0.04   0.03    -0.06  -0.06  -0.03     0.07   0.13   0.06
    15   1     0.14   0.14   0.04     0.03   0.02   0.02    -0.14  -0.06  -0.07
    16   1    -0.08   0.13   0.11    -0.00  -0.02   0.07     0.05  -0.00  -0.19
    17   6     0.00  -0.00   0.02    -0.03   0.00  -0.11     0.01   0.01   0.03
    18   1     0.07   0.05  -0.09    -0.16  -0.00   0.56    -0.09  -0.14  -0.07
    19   1     0.03  -0.01  -0.00     0.00  -0.06   0.36    -0.09   0.06  -0.20
    20   1    -0.09   0.05  -0.06     0.47  -0.03   0.43    -0.03  -0.11  -0.06
                     37                     38                     39
                      A                      A                      A
 Frequencies --   1455.0289              1458.9570              1475.0640
 Red. masses --      1.0494                 1.1449                 1.0423
 Frc consts  --      1.3089                 1.4358                 1.3362
 IR Inten    --     28.9051                 7.9752                 1.1364
  Atom  AN      X      Y      Z        X      Y      Z        X      Y      Z
     1   6     0.01  -0.02  -0.00     0.01   0.06   0.02    -0.02  -0.01   0.01
     2   6    -0.00  -0.00  -0.00     0.00   0.00   0.00     0.00  -0.00   0.00
     3   6    -0.01  -0.00   0.00    -0.00   0.02   0.00    -0.00   0.00   0.00
     4   6     0.00  -0.00  -0.00     0.00  -0.00   0.00    -0.00   0.00   0.00
     5   7     0.01  -0.00  -0.00     0.00  -0.01  -0.03     0.01  -0.00  -0.01
     6   1    -0.01   0.01   0.01     0.01  -0.01  -0.01     0.01  -0.01  -0.01
     7   1    -0.03   0.02  -0.02     0.10  -0.18   0.01    -0.00  -0.01  -0.01
     8   1     0.00   0.00   0.00    -0.00   0.00  -0.00    -0.00  -0.00  -0.01
     9   1     0.04   0.08  -0.01    -0.09  -0.13   0.09     0.01   0.02   0.01
    10   1    -0.03   0.04  -0.01     0.03  -0.12   0.08     0.01   0.01  -0.01
    11   1     0.00   0.00   0.01    -0.01  -0.01  -0.02    -0.01  -0.00  -0.01
    12   9     0.00   0.00   0.00    -0.00  -0.00  -0.00    -0.00  -0.00  -0.00
    13   6     0.03   0.02  -0.01     0.01  -0.08   0.01    -0.04   0.01   0.01
    14   1    -0.45  -0.07   0.12     0.06   0.40   0.30     0.48  -0.04  -0.23
    15   1    -0.07   0.21  -0.14    -0.31   0.14  -0.28     0.18  -0.30   0.25
    16   1     0.05  -0.28   0.25     0.04   0.11  -0.38    -0.07   0.28  -0.16
    17   6     0.02  -0.02  -0.00     0.02   0.02   0.00     0.02  -0.02  -0.01
    18   1    -0.01  -0.14  -0.31    -0.23  -0.29   0.05    -0.05  -0.15  -0.20
    19   1    -0.38   0.07   0.24    -0.27   0.11  -0.06    -0.36   0.07   0.24
    20   1    -0.04   0.46   0.09     0.17  -0.04   0.15     0.02   0.38   0.13
                     40                     41                     42
                      A                      A                      A
 Frequencies --   1479.7940              1748.0442              1806.5683
 Red. masses --      1.0706                 4.8757                 7.7030
 Frc consts  --      1.3813                 8.7779                14.8123
 IR Inten    --     11.9627               100.5708                31.8611
  Atom  AN      X      Y      Z        X      Y      Z        X      Y      Z
     1   6     0.01  -0.02   0.02    -0.00   0.01  -0.00    -0.12   0.46  -0.30
     2   6     0.00  -0.00  -0.00     0.04   0.27   0.34    -0.00  -0.01  -0.01
     3   6     0.00  -0.00  -0.00    -0.00  -0.00  -0.00    -0.01  -0.00  -0.03
     4   6    -0.00   0.00   0.00     0.02  -0.26  -0.29     0.00   0.01   0.01
     5   7    -0.01  -0.01   0.01     0.00  -0.01   0.00     0.12  -0.36   0.32
     6   1     0.00  -0.00  -0.00    -0.37   0.17  -0.00     0.01  -0.01  -0.00
     7   1    -0.04   0.07  -0.00    -0.01   0.01  -0.00    -0.06   0.27   0.10
     8   1     0.00  -0.00  -0.00    -0.42  -0.00  -0.23     0.01   0.00   0.01
     9   1     0.03   0.04  -0.04     0.01   0.01  -0.00     0.15   0.25  -0.02
    10   1     0.00   0.06  -0.01     0.00  -0.01   0.00    -0.06  -0.27  -0.11
    11   1    -0.00   0.00   0.00     0.43   0.03   0.26    -0.02  -0.01  -0.02
    12   9    -0.00  -0.00  -0.00    -0.02  -0.02  -0.03     0.00   0.00   0.00
    13   6     0.00  -0.02   0.01     0.00  -0.00   0.00     0.01  -0.08   0.01
    14   1     0.09   0.26   0.15     0.01  -0.00  -0.00    -0.01  -0.19  -0.04
    15   1    -0.23   0.02  -0.17    -0.01  -0.02  -0.00     0.03   0.05  -0.00
    16   1     0.04   0.07  -0.31     0.00   0.00  -0.01    -0.03   0.06   0.01
    17   6    -0.04  -0.04  -0.04     0.00  -0.00   0.00    -0.02   0.03  -0.04
    18   1     0.32   0.42  -0.06     0.01   0.00  -0.02    -0.01  -0.04  -0.26
    19   1     0.30  -0.17   0.43    -0.00   0.00   0.00     0.04  -0.01   0.15
    20   1    -0.14   0.31  -0.05    -0.02   0.01  -0.01    -0.13   0.01  -0.14
                     43                     44                     45
                      A                      A                      A
 Frequencies --   2970.8293              3016.5105              3064.7204
 Red. masses --      1.0567                 1.0999                 1.0391
 Frc consts  --      5.4950                 5.8967                 5.7504
 IR Inten    --     72.0900               109.5700                 1.4869
  Atom  AN      X      Y      Z        X      Y      Z        X      Y      Z
     1   6     0.00  -0.00   0.00    -0.00  -0.00   0.00     0.00   0.00   0.00
     2   6    -0.00   0.00   0.00    -0.00   0.00   0.00    -0.00   0.00   0.00
     3   6    -0.00   0.05  -0.05    -0.09   0.01   0.03     0.00  -0.00   0.00
     4   6     0.00  -0.00  -0.00     0.00  -0.00  -0.00     0.00  -0.00  -0.00
     5   7    -0.00   0.00  -0.00    -0.00   0.00  -0.00    -0.00   0.00  -0.00
     6   1     0.00   0.00   0.00     0.00   0.00   0.00     0.00   0.00   0.00
     7   1    -0.49  -0.25   0.54     0.37   0.22  -0.46     0.00   0.00  -0.00
     8   1     0.00   0.00   0.00     0.00  -0.00   0.00     0.00  -0.00  -0.00
     9   1     0.56  -0.29   0.07     0.67  -0.37   0.13    -0.00   0.00  -0.00
    10   1     0.00  -0.00  -0.00    -0.00  -0.00   0.00     0.00  -0.00   0.00
    11   1    -0.02   0.01   0.00    -0.02   0.01   0.01    -0.00   0.00   0.00
    12   9     0.00  -0.00   0.00     0.00   0.00   0.00     0.00   0.00  -0.00
    13   6    -0.00   0.00  -0.00     0.00   0.00  -0.00    -0.01  -0.05  -0.02
    14   1     0.00   0.00   0.00    -0.00   0.00   0.00    -0.14   0.22  -0.34
    15   1    -0.00   0.00   0.00     0.00  -0.00  -0.00    -0.35   0.14   0.48
    16   1     0.00   0.00  -0.00     0.00   0.00   0.00     0.63   0.18   0.13
    17   6     0.00  -0.00   0.00     0.00  -0.00  -0.00     0.00   0.00  -0.00
    18   1    -0.01   0.01  -0.00    -0.01   0.01   0.00     0.00   0.00   0.00
    19   1    -0.00  -0.01   0.00     0.00  -0.00  -0.00    -0.00  -0.01  -0.00
    20   1     0.01   0.00  -0.01    -0.00  -0.00   0.00    -0.00  -0.00   0.00
                     46                     47                     48
                      A                      A                      A
 Frequencies --   3075.1918              3103.4551              3155.6998
 Red. masses --      1.0332                 1.0748                 1.1024
 Frc consts  --      5.7568                 6.0993                 6.4679
 IR Inten    --     20.4508               110.0227                 0.4120
  Atom  AN      X      Y      Z        X      Y      Z        X      Y      Z
     1   6     0.00  -0.00   0.00    -0.00  -0.00  -0.00    -0.00   0.00   0.00
     2   6    -0.00   0.00   0.00    -0.00  -0.00  -0.01     0.00  -0.00   0.00
     3   6    -0.00   0.00  -0.00    -0.00   0.00  -0.00    -0.00   0.00   0.00
     4   6     0.00  -0.00  -0.00    -0.04   0.05   0.04     0.00  -0.00  -0.00
     5   7    -0.00   0.00  -0.00    -0.00  -0.00  -0.00     0.00  -0.00  -0.00
     6   1     0.01   0.00   0.00    -0.31  -0.06  -0.24     0.00   0.00   0.00
     7   1    -0.01  -0.01   0.01    -0.01   0.00  -0.00    -0.00  -0.00  -0.00
     8   1    -0.00   0.00   0.00     0.05  -0.04  -0.02    -0.00   0.00   0.00
     9   1     0.01  -0.01   0.00     0.03  -0.01   0.01    -0.00   0.00   0.00
    10   1     0.00   0.00   0.01     0.00  -0.00   0.00    -0.01  -0.00  -0.00
    11   1    -0.01   0.01   0.00     0.76  -0.48  -0.14    -0.00   0.00   0.00
    12   9     0.00  -0.00   0.00    -0.00   0.00  -0.00    -0.00  -0.00   0.00
    13   6     0.00  -0.00   0.00    -0.00  -0.00  -0.00    -0.09   0.00   0.03
    14   1    -0.00   0.00  -0.00     0.00   0.00   0.00     0.01  -0.04   0.07
    15   1    -0.00   0.00   0.00     0.00   0.00  -0.00     0.39  -0.17  -0.57
    16   1    -0.00  -0.00   0.00     0.01   0.00   0.00     0.65   0.19   0.15
    17   6    -0.01  -0.01  -0.04     0.00   0.00  -0.00    -0.00  -0.00   0.00
    18   1     0.41  -0.32   0.08     0.01  -0.01   0.00     0.01  -0.01   0.00
    19   1     0.17   0.58   0.06     0.00   0.00   0.00     0.00   0.02   0.00
    20   1    -0.42  -0.13   0.39    -0.01  -0.00   0.01     0.02   0.00  -0.01
                     49                     50                     51
                      A                      A                      A
 Frequencies --   3187.0746              3194.4900              3195.9454
 Red. masses --      1.1068                 1.1057                 1.1051
 Frc consts  --      6.6237                 6.6480                 6.6506
 IR Inten    --     13.6498                 7.1310                 4.4951
  Atom  AN      X      Y      Z        X      Y      Z        X      Y      Z
     1   6    -0.00   0.00   0.00     0.00   0.00   0.01    -0.00  -0.00  -0.01
     2   6    -0.00   0.00   0.00     0.00  -0.00   0.00     0.00   0.00   0.00
     3   6    -0.00  -0.00  -0.00    -0.00   0.00   0.00     0.00  -0.00   0.00
     4   6     0.00   0.00   0.00     0.00  -0.00  -0.00    -0.00  -0.00  -0.00
     5   7     0.00  -0.00   0.00    -0.00   0.00  -0.00    -0.00   0.00  -0.00
     6   1    -0.01  -0.00  -0.00     0.00   0.00   0.00     0.00   0.00   0.00
     7   1     0.01   0.00  -0.00     0.00   0.00  -0.00    -0.00  -0.00   0.00
     8   1     0.01  -0.00  -0.00    -0.00   0.00   0.00     0.00  -0.00  -0.00
     9   1     0.00  -0.00   0.00     0.00  -0.00  -0.00     0.00  -0.00  -0.00
    10   1    -0.01  -0.00  -0.01    -0.04  -0.03  -0.09     0.05   0.05   0.14
    11   1     0.01  -0.00  -0.00    -0.00   0.00   0.00    -0.00   0.00   0.00
    12   9    -0.00   0.00  -0.00    -0.00   0.00  -0.00    -0.00  -0.00  -0.00
    13   6     0.01  -0.00   0.01    -0.02   0.02  -0.06     0.02  -0.02   0.05
    14   1    -0.04   0.07  -0.11     0.22  -0.34   0.53    -0.19   0.29  -0.45
    15   1     0.01  -0.01  -0.02    -0.15   0.06   0.20     0.13  -0.05  -0.17
    16   1    -0.05  -0.01  -0.01     0.17   0.05   0.03    -0.16  -0.05  -0.03
    17   6    -0.07  -0.05   0.03    -0.04   0.05   0.01    -0.03   0.06   0.00
    18   1     0.12  -0.11   0.03     0.44  -0.34   0.08     0.47  -0.37   0.09
    19   1     0.16   0.57   0.06    -0.08  -0.25  -0.02    -0.12  -0.42  -0.04
    20   1     0.55   0.17  -0.51     0.16   0.06  -0.15     0.07   0.03  -0.07
                     52                     53                     54
                      A                      A                      A
 Frequencies --   3222.8920              3223.3005              3267.6243
 Red. masses --      1.0922                 1.0980                 1.1124
 Frc consts  --      6.6842                 6.7215                 6.9983
 IR Inten    --      0.9705                21.6705                 9.5223
  Atom  AN      X      Y      Z        X      Y      Z        X      Y      Z
     1   6    -0.03  -0.02  -0.07    -0.01  -0.00  -0.02     0.00   0.00   0.00
     2   6     0.01  -0.01  -0.00    -0.07   0.05   0.02    -0.02   0.01   0.01
     3   6    -0.00  -0.00  -0.00     0.00  -0.00   0.00     0.00   0.00  -0.00
     4   6    -0.01   0.00  -0.00     0.02  -0.01   0.00    -0.08   0.00  -0.04
     5   7     0.00  -0.00   0.00     0.00  -0.00   0.00    -0.00  -0.00  -0.00
     6   1     0.04   0.01   0.03    -0.14  -0.02  -0.10     0.71   0.13   0.54
     7   1    -0.00   0.00   0.00     0.00  -0.00   0.00    -0.00  -0.00  -0.00
     8   1    -0.16   0.11   0.04     0.77  -0.53  -0.20     0.17  -0.12  -0.05
     9   1     0.00   0.00   0.00    -0.00   0.00  -0.00     0.00  -0.00   0.00
    10   1     0.34   0.30   0.84     0.07   0.06   0.17    -0.00  -0.00  -0.01
    11   1     0.02  -0.01  -0.00    -0.10   0.07   0.02     0.30  -0.19  -0.06
    12   9     0.00   0.00   0.00    -0.00  -0.00  -0.00     0.00   0.00   0.00
    13   6    -0.00   0.01  -0.01    -0.00   0.00  -0.00     0.00  -0.00   0.00
    14   1     0.05  -0.09   0.12     0.01  -0.02   0.03    -0.00   0.00  -0.00
    15   1    -0.03   0.02   0.05    -0.01   0.00   0.01    -0.00   0.00   0.00
    16   1     0.05   0.02   0.01     0.01   0.00   0.00    -0.00  -0.00  -0.00
    17   6     0.00  -0.01   0.00     0.00  -0.00   0.00     0.00  -0.00  -0.00
    18   1    -0.03   0.02  -0.00    -0.01   0.01  -0.00    -0.00   0.00  -0.00
    19   1     0.01   0.04   0.00     0.00   0.00   0.00     0.00   0.00   0.00
    20   1     0.02   0.00  -0.01     0.00  -0.00   0.00     0.00  -0.00  -0.00

 -------------------
 - Thermochemistry -
 -------------------
 Temperature   298.150 Kelvin.  Pressure   1.00000 Atm.
 Atom     1 has atomic number  6 and mass  12.00000
 Atom     2 has atomic number  6 and mass  12.00000
 Atom     3 has atomic number  6 and mass  12.00000
 Atom     4 has atomic number  6 and mass  12.00000
 Atom     5 has atomic number  7 and mass  14.00307
 Atom     6 has atomic number  1 and mass   1.00783
 Atom     7 has atomic number  1 and mass   1.00783
 Atom     8 has atomic number  1 and mass   1.00783
 Atom     9 has atomic number  1 and mass   1.00783
 Atom    10 has atomic number  1 and mass   1.00783
 Atom    11 has atomic number  1 and mass   1.00783
 Atom    12 has atomic number  9 and mass  18.99840
 Atom    13 has atomic number  6 and mass  12.00000
 Atom    14 has atomic number  1 and mass   1.00783
 Atom    15 has atomic number  1 and mass   1.00783
 Atom    16 has atomic number  1 and mass   1.00783
 Atom    17 has atomic number  6 and mass  12.00000
 Atom    18 has atomic number  1 and mass   1.00783
 Atom    19 has atomic number  1 and mass   1.00783
 Atom    20 has atomic number  1 and mass   1.00783
 Molecular mass:   117.09538 amu.
 Principal axes and moments of inertia in atomic units:
                           1         2         3
     Eigenvalues --   782.104361390.559711575.85654
           X            0.99876   0.02159   0.04488
           Y           -0.01899   0.99816  -0.05756
           Z           -0.04604   0.05663   0.99733
 This molecule is an asymmetric top.
 Rotational symmetry number  1.
 Warning -- assumption of classical behavior for rotation
           may cause significant error
 Rotational temperatures (Kelvin)      0.11074     0.06229     0.05496
 Rotational constants (GHZ):           2.30755     1.29785     1.14524
    1 imaginary frequencies ignored.
 Zero-point vibrational energy     445149.4 (Joules/Mol)
                                  106.39326 (Kcal/Mol)
 Warning -- explicit consideration of  14 degrees of freedom as
           vibrations may cause significant error
 Vibrational temperatures:     68.31   106.14   116.50   168.91   184.87
          (Kelvin)            208.47   227.05   265.39   438.74   476.83
                              650.99   700.09   755.56   819.83  1081.40
                             1158.03  1235.33  1364.32  1379.20  1397.81
                             1462.45  1484.77  1493.44  1574.24  1618.36
                             1628.65  1695.69  1732.72  1785.77  1927.56
                             1938.00  2006.14  2032.86  2055.44  2070.39
                             2093.46  2099.11  2122.29  2129.09  2515.05
                             2599.25  4274.36  4340.09  4409.45  4424.52
                             4465.18  4540.35  4585.49  4596.16  4598.25
                             4637.02  4637.61  4701.38
 
 Zero-point correction=                           0.169548 (Hartree/Particle)
 Thermal correction to Energy=                    0.180359
 Thermal correction to Enthalpy=                  0.181303
 Thermal correction to Gibbs Free Energy=         0.132575
 Sum of electronic and zero-point Energies=           -389.729939
 Sum of electronic and thermal Energies=              -389.719129
 Sum of electronic and thermal Enthalpies=            -389.718185
 Sum of electronic and thermal Free Energies=         -389.766913
 
                     E (Thermal)             CV                S
                      KCal/Mol        Cal/Mol-Kelvin    Cal/Mol-Kelvin
 Total                  113.177             36.288            102.557
 Electronic               0.000              0.000              0.000
 Translational            0.889              2.981             40.188
 Rotational               0.889              2.981             28.929
 Vibrational            111.399             30.327             33.440
 Vibration     1          0.595              1.979              4.920
 Vibration     2          0.599              1.966              4.050
 Vibration     3          0.600              1.962              3.867
 Vibration     4          0.608              1.935              3.143
 Vibration     5          0.611              1.925              2.969
 Vibration     6          0.616              1.908              2.738
 Vibration     7          0.621              1.894              2.576
 Vibration     8          0.631              1.861              2.283
 Vibration     9          0.696              1.664              1.390
 Vibration    10          0.714              1.613              1.253
 Vibration    11          0.811              1.355              0.788
 Vibration    12          0.843              1.280              0.693
 Vibration    13          0.880              1.194              0.598
 Vibration    14          0.926              1.097              0.505
                       Q            Log10(Q)             Ln(Q)
 Total Bot       0.104707D-60        -60.980025       -140.411696
 Total V=0       0.101574D+18         17.006781         39.159560
 Vib (Bot)       0.448622D-74        -74.348119       -171.192871
 Vib (Bot)    1  0.435486D+01          0.638975          1.471293
 Vib (Bot)    2  0.279414D+01          0.446248          1.027524
 Vib (Bot)    3  0.254305D+01          0.405354          0.933362
 Vib (Bot)    4  0.174180D+01          0.240999          0.554921
 Vib (Bot)    5  0.158723D+01          0.200640          0.461991
 Vib (Bot)    6  0.140145D+01          0.146577          0.337507
 Vib (Bot)    7  0.128197D+01          0.107877          0.248396
 Vib (Bot)    8  0.108720D+01          0.036310          0.083607
 Vib (Bot)    9  0.621903D+00         -0.206277         -0.474971
 Vib (Bot)   10  0.563300D+00         -0.249260         -0.573943
 Vib (Bot)   11  0.378255D+00         -0.422215         -0.972186
 Vib (Bot)   12  0.341766D+00         -0.466272         -1.073630
 Vib (Bot)   13  0.305920D+00         -0.514391         -1.184430
 Vib (Bot)   14  0.270152D+00         -0.568393         -1.308772
 Vib (V=0)       0.435197D+04          3.638686          8.378385
 Vib (V=0)    1  0.488347D+01          0.688729          1.585857
 Vib (V=0)    2  0.333852D+01          0.523555          1.205529
 Vib (V=0)    3  0.309173D+01          0.490202          1.128732
 Vib (V=0)    4  0.231215D+01          0.364016          0.838177
 Vib (V=0)    5  0.216412D+01          0.335282          0.772015
 Vib (V=0)    6  0.198797D+01          0.298410          0.687115
 Vib (V=0)    7  0.187602D+01          0.273238          0.629154
 Vib (V=0)    8  0.169667D+01          0.229596          0.528665
 Vib (V=0)    9  0.129797D+01          0.113266          0.260805
 Vib (V=0)   10  0.125320D+01          0.098020          0.225699
 Vib (V=0)   11  0.112696D+01          0.051908          0.119522
 Vib (V=0)   12  0.110564D+01          0.043615          0.100427
 Vib (V=0)   13  0.108616D+01          0.035895          0.082652
[...]
 0.00000570,-0.00012091,0.00008054,0.13681149,-0.14359520,0.04477571,0.
 00046149,-0.00015410,0.00017864,0.01663742,-0.00196836,0.00342940,0.00
 010462,-0.00012941,0.00001312,-0.00156996,-0.00282559,-0.00274896,-0.0
 0004188,-0.00001958,-0.00006062,-0.14412642,0.13568274,-0.00004660,0.0
 0006285,-0.00013322,-0.05557346,0.04547829,-0.06460041,-0.00049431,0.0
 0021289,-0.00013064,-0.01801518,0.01337996,0.00299858,0.00017286,0.000
 12359,-0.00000938,-0.00123818,-0.00290308,-0.00181328,0.00010514,-0.00
 000589,-0.00023261,0.04214794,-0.05272039,0.06211089,-0.00000237,-0.00
 025867,-0.00084267,-0.00050105,-0.00031789,0.00061323,-0.23945542,0.10
 802863,0.02830342,-0.00039479,0.00028452,0.00033378,0.00535380,-0.0076
 3480,0.00438146,-0.00029953,0.00024873,-0.00008198,-0.01998432,0.01008
 551,0.00483641,-0.00002196,0.00009571,-0.00017172,0.25301143,-0.001146
 67,-0.00234752,0.00360588,-0.00050102,-0.00013027,0.00037555,0.0865687
 7,-0.08686706,-0.01588862,-0.00039689,0.00039443,0.00008268,0.03326447
 ,-0.03073398,-0.00668227,-0.00010482,0.00009480,-0.00002580,-0.0092047
 7,0.00592142,0.00131200,0.00000581,0.00002620,-0.00009369,-0.10892867,
 0.11499987,-0.00082106,-0.00044163,0.00146798,0.00085000,0.00024677,-0
 .00087470,0.06411383,-0.03583456,-0.02736140,0.00124981,-0.00098512,0.
 00046832,-0.00517006,0.00485124,-0.00504398,0.00024967,-0.00018224,0.0
 0006216,-0.02246368,0.01078062,0.00195799,-0.00000612,-0.00014807,0.00
 021075,-0.03543654,0.02041949,0.02697754,-0.08498116,-0.03268704,0.090
 50386,0.00001532,0.00003525,-0.00014381,-0.00765111,-0.00190451,-0.002
 92560,-0.00037210,-0.00004729,0.00008914,0.00217636,-0.00051174,0.0148
 8485,-0.00003826,-0.00006152,-0.00004839,0.00109068,-0.00149981,-0.001
 68483,0.00000131,-0.00002069,0.00000207,0.00020475,0.00102491,0.001069
 39,0.07199047,-0.03758998,-0.08217195,0.09607022,0.00016914,-0.0000931
 3,-0.00005503,0.00113149,0.00018414,-0.00163145,-0.00005819,-0.0000460
 6,-0.00005203,0.01118880,0.00722405,-0.02791280,0.00005319,-0.00004107
 ,0.00001393,-0.00012692,-0.00074052,0.00035204,0.00000087,-0.00002364,
 0.00005232,-0.00023868,-0.00062157,0.00060349,0.03459926,0.08909926,0.
 09056777,0.08106626,-0.27501203,0.00000955,0.00013561,-0.00022999,-0.0
 0255466,0.00462670,-0.00120903,-0.00001447,0.00023635,0.00015492,0.012
 80273,0.00343125,-0.02368368,0.00011335,-0.00003779,0.00002717,0.00034
 515,-0.00047167,-0.00001540,-0.00000430,-0.00004331,0.00001412,-0.0003
 2960,0.00055007,0.00091151,-0.10672658,-0.08474108,0.29222300,-0.00103
 574,-0.00076660,-0.00034612,0.00752386,0.00002396,0.00100858,0.0028111
 1,-0.00230415,0.00294121,-0.24862453,0.12871130,-0.03360483,-0.0018787
 2,-0.00107649,0.00105531,-0.00781808,0.00910644,-0.00524139,-0.0020728
 8,0.00036074,0.00160036,0.00174299,0.00116064,0.00316383,0.00106582,0.
 00050327,-0.00274516,-0.00056040,-0.00093711,-0.00036641,0.25111490,-0
 .00136631,-0.00128137,0.00048799,0.01660780,-0.00240198,0.00487474,-0.
 00116917,-0.00057320,-0.00134306,0.12659758,-0.12641972,0.03216435,-0.
 00076741,0.00030905,0.00074640,-0.00672910,0.00584945,-0.00085804,0.00
 126620,-0.00026789,-0.00136085,0.00171981,0.00405374,0.00586487,-0.000
 34794,-0.00042195,0.00093442,-0.00069994,-0.00020164,-0.00032276,-0.13
 336580,0.12500952,-0.00031074,0.00006578,0.00069181,-0.01778188,0.0142
 5737,0.00262751,0.00149865,0.00036810,0.00014443,-0.03045147,0.0305844
 7,-0.05667800,0.00054880,-0.00022495,-0.00092070,0.01322644,-0.0096974
 9,0.00578682,0.00094623,-0.00044789,-0.00164253,0.00238823,0.00616532,
 0.00127465,-0.00061956,-0.00020126,-0.00050621,-0.00048776,-0.00060783
 ,-0.00032496,0.03309325,-0.03476563,0.05070288,-0.00087961,0.00001202,
 0.00227221,-0.21905343,-0.02152553,0.12184168,0.00178858,-0.00114515,0
 .00034220,-0.00065242,-0.01060478,0.01853060,-0.00310372,-0.00054667,-
 0.00203751,0.00331064,0.00285014,0.00215821,-0.00024966,-0.00024207,0.
 00046739,-0.02938802,-0.00940553,0.03011039,0.00035408,0.00043003,-0.0
 0050561,-0.00001147,-0.00008224,-0.00000277,-0.00286034,-0.00132647,-0
 .00226102,0.25228580,0.00031211,-0.00121402,0.00062465,-0.02009956,-0.
 06860319,0.04204296,0.00042369,-0.00011395,-0.00005418,-0.03148842,0.0
 0152038,0.02591941,0.00049089,-0.00030520,0.00040914,0.00401398,0.0040
 4270,0.00895553,-0.00017693,0.00038431,0.00047500,0.00962661,0.0089787
 2,-0.00922260,0.00029930,0.00015081,-0.00022691,-0.00001315,0.00002537
 ,-0.00006228,-0.00275423,-0.00276966,-0.00581768,0.03953320,0.05788192
 ,-0.00104848,0.00057936,-0.00150570,0.12304651,0.04340251,-0.16062394,
 -0.00159973,0.00033725,-0.00016015,0.04172071,0.01393779,-0.03129393,-
 0.00180466,0.00098010,-0.00122791,0.00093135,0.00952801,0.00196864,0.0
 0044221,0.00009776,-0.00023845,0.00747217,0.00108058,0.00008249,-0.000
 39045,-0.00017191,0.00053351,0.00029585,0.00009353,0.00018460,-0.00036
 790,-0.00647106,-0.00100059,-0.16745941,-0.06191076,0.19362455,-0.0829
 1816,-0.00896710,0.01146760,0.00028219,0.00024001,-0.00018770,0.010239
 18,-0.00043553,0.00362609,0.00003529,-0.00016833,-0.00000238,0.0110056
 5,0.00777979,-0.00393683,0.00000069,0.00000794,0.00000682,-0.00180421,
 0.00277908,0.00214400,0.00001846,0.00000901,0.00005108,-0.00012624,-0.
 00183855,-0.00209203,0.01072085,-0.00751478,0.00354291,-0.00012297,0.0
 0016880,0.00005654,-0.00041844,-0.00055751,-0.00028289,0.55708383,-0.0
 1386461,-0.24169442,0.03546976,0.00025465,-0.00000631,-0.00023932,0.00
 097548,0.00154944,-0.00085682,-0.00006938,-0.00001286,0.00004577,0.001
 34692,-0.03037838,-0.00251060,0.00000269,0.00003107,0.00002241,0.00009
 861,-0.00102138,-0.00047065,-0.00003970,0.00000434,0.00000155,0.000055
 59,-0.00118349,-0.00056384,0.00132056,-0.00485913,-0.00171766,0.000233
 85,-0.00006152,-0.00001963,-0.00047219,-0.00037900,0.00020066,-0.00628
 002,0.52597715,0.01113062,0.03105976,-0.10191524,-0.00042309,-0.000128
 10,0.00011604,0.00506543,0.00245626,0.00123020,-0.00005977,-0.00008769
 ,-0.00014935,-0.00256690,-0.02425602,0.01150310,0.00004453,0.00001268,
 0.00001554,-0.00073952,0.00081411,0.00128961,0.00001085,-0.00002584,0.
 00001590,-0.00048499,-0.00125961,-0.00078182,0.00287425,0.01750483,0.0
 0437041,-0.00027699,0.00005165,0.00001028,0.00005805,0.00014609,0.0001
 3904,-0.01617182,0.02942503,0.58911751,-0.00145873,-0.00285892,-0.0031
 9728,0.00020534,0.00010896,-0.00021238,0.00049855,-0.00001763,0.000055
 86,0.00002204,0.00000660,0.00014677,0.00096271,-0.00092394,0.00050807,
 -0.00000462,-0.00000889,0.00000541,0.00000290,0.00014403,-0.00006861,-
 0.00004265,-0.00001225,-0.00001194,-0.00004506,-0.00013857,0.00009343,
 0.00005544,-0.00016218,-0.00033837,0.00001671,-0.00001881,-0.00002375,
 -0.00027006,-0.00007901,0.00012546,-0.07732722,0.04920337,0.07493199,0
 .07699247,0.01192502,-0.01501123,-0.02889056,0.00008844,0.00006220,-0.
 00008412,0.00027810,0.00047954,-0.00051914,0.00000710,0.00002120,0.000
 09099,-0.00113592,-0.00630315,0.00245147,-0.00002834,-0.00000112,-0.00
 001076,-0.00003678,-0.00033931,-0.00003320,-0.00001737,0.00000054,-0.0
 0001229,-0.00001754,-0.00038711,0.00004396,-0.00004495,0.00073205,0.00
 016628,0.00008932,-0.00004263,-0.00003778,-0.00009391,0.00002507,0.000
 02355,0.04683624,-0.12188627,-0.11416128,-0.05093223,0.13372244,-0.004
 11241,0.00755968,0.00703090,0.00025156,0.00006412,-0.00026588,0.000119
 66,-0.00003966,0.00025839,-0.00002742,-0.00000580,0.00009978,0.0004679
 9,0.00233663,0.00027972,-0.00000392,-0.00000467,0.00001013,0.00004944,
 0.00009322,-0.00005544,-0.00005063,-0.00000841,-0.00000207,-0.00003938
 ,-0.00002293,0.00000104,-0.00033479,0.00036087,0.00059723,0.00002030,-
 0.00001644,-0.00000903,-0.00035816,-0.00011626,0.00013182,0.07523300,-
 0.12007351,-0.23119367,-0.08064859,0.12415689,0.24158274,0.00060626,-0
 .00110824,0.00407744,-0.00111510,-0.00037237,0.00068932,-0.00019447,0.
 00011301,0.00016452,0.00020252,0.00016051,-0.00014657,0.00097661,0.000
 28434,-0.00027324,-0.00000662,0.00002822,-0.00003368,0.00002612,0.0000
 1583,-0.00010146,0.00003709,-0.00001070,-0.00002545,-0.00005668,0.0000
 4596,-0.00004439,-0.00124689,-0.00073147,-0.00013083,0.00006830,-0.000
 05018,0.00000341,-0.00020552,-0.00010901,-0.00102660,-0.13113896,0.037
 86054,-0.12552430,0.00695681,-0.00388219,0.00984859,0.13916281,0.01982
 350,-0.00829252,0.02608043,-0.00204469,-0.00044516,0.00157008,-0.00227
 301,-0.00098406,-0.00121854,0.00037126,0.00027513,-0.00032506,-0.00193
 791,0.00125181,0.00093924,-0.00001722,0.00004710,-0.00007570,0.0004544
 3,-0.00071237,-0.00078207,0.00018944,0.00001985,-0.00012267,0.00007409
 ,0.00026476,0.00081250,-0.00113454,-0.00229714,-0.00073811,0.00028348,
 -0.00014456,0.00002740,0.00162171,0.00042771,-0.00125115,0.03887921,-0
 .05903391,0.04998294,-0.01072154,0.00407853,-0.01216022,-0.04010971,0.
 06422976,-0.00059495,0.00461881,-0.00394367,0.00026737,0.00028937,0.00
 002520,0.00018815,0.00040804,-0.00013928,0.00002906,-0.00005538,-0.000
 00334,0.00114127,-0.00247204,-0.00115383,-0.00002042,-0.00002116,-0.00
 002592,-0.00032808,-0.00011521,0.00028601,0.00005140,0.00002163,0.0000
 4039,-0.00002836,-0.00008795,-0.00012321,-0.00020290,0.00085676,0.0005
 1442,-0.00006347,0.00005461,0.00000513,-0.00086509,-0.00093200,-0.0009
 1904,-0.12731396,0.04745849,-0.21986159,-0.01406142,0.00720030,-0.0152
 5826,0.13569810,-0.05438784,0.23376669,0.00208643,-0.00089370,-0.00054
 010,0.00021345,0.00006015,-0.00013261,-0.00003083,-0.00025015,-0.00039
 423,-0.00001543,-0.00004037,0.00000852,0.00032051,0.00078604,0.0018695
 4,-0.00000114,-0.00000648,0.00000072,-0.00017985,-0.00002070,0.0001052
 1,0.00000511,0.00001053,0.00002560,-0.00004930,0.00006086,-0.00016915,
 -0.00057195,0.00006969,-0.00095814,-0.00004327,0.00003882,0.00000016,-
 0.00022003,-0.00018568,0.00001084,-0.29078105,-0.06997040,0.05266132,-
 0.00661233,-0.00262780,-0.00058184,-0.01380353,-0.00471647,0.00563140,
 0.30940723,-0.03174734,-0.00778464,0.00596190,-0.00005471,-0.00002886,
 0.00005336,0.00207574,-0.00061131,0.00004323,0.00001779,0.00000022,0.0
 0002651,0.00181223,0.00053382,0.00134193,-0.00002381,0.00001073,-0.000
 00620,-0.00049438,0.00037312,0.00055703,-0.00001797,0.00000374,-0.0000
 2357,0.00009002,-0.00053905,-0.00040937,0.00125266,-0.00251922,0.00029
 992,0.00006787,-0.00000586,-0.00000756,0.00006517,0.00009311,-0.000038
 30,-0.07284460,-0.06525996,0.01322409,0.01604290,0.00479526,-0.0017659
 6,0.00758330,0.00180549,-0.00225022,0.07672247,0.06987605,0.00462227,0
 .00468181,-0.00450507,0.00034473,0.00012660,-0.00022851,-0.00012733,0.
 00006540,-0.00012196,-0.00001960,0.00001063,0.00008069,0.00070106,-0.0
 0161646,-0.00073487,-0.00000450,-0.00001982,0.00000102,0.00015546,-0.0
 0012028,-0.00016869,-0.00001616,0.00000010,0.00001477,0.00001481,-0.00
 009163,0.00039522,-0.00079375,0.00125436,-0.00013501,0.00000201,-0.000
 00213,-0.00001574,-0.00037949,-0.00028327,-0.00003265,0.05420414,0.011
 98655,-0.05124658,0.02255924,0.00868565,-0.00294199,-0.02322510,-0.007
 78594,0.00630972,-0.05771317,-0.01523743,0.05371404,0.00369897,0.00250
 849,0.01302139,-0.00059789,0.00000708,0.00037938,-0.00171998,-0.009220
 26,0.00991510,0.00033603,0.00061880,-0.00003869,-0.10493718,-0.0011073
 2,0.04151966,0.00013167,-0.00004905,0.00001344,0.00247079,0.00017870,-
 0.00207741,0.00007332,-0.00008640,-0.00008214,0.00007533,0.00133394,0.
 00100583,0.01019954,-0.00047208,0.00436138,0.00053204,-0.00051205,0.00
 018128,0.00029957,0.00008666,0.00008308,-0.00581021,-0.00035757,-0.000
 09752,0.00005050,-0.00063262,0.00057224,0.00078049,0.00047067,-0.00011
 555,-0.00023616,-0.00086423,-0.00023213,0.58504916,0.01030882,0.012346
 55,-0.02835069,-0.00098589,-0.00033402,0.00084930,-0.01223994,-0.01224
 202,0.02860823,-0.00007354,0.00043925,-0.00034210,-0.00709455,-0.10493
 115,0.02044495,-0.00000481,0.00004164,-0.00000910,0.00118601,0.0009856
 8,0.00079288,0.00012606,0.00005234,-0.00014083,-0.00141471,0.00077744,
 0.00016427,-0.00006139,-0.00415295,-0.00234016,0.00050204,-0.00063900,
 0.00030914,0.00103606,0.00019997,-0.00084101,-0.00007536,-0.00061284,-
 0.00103701,-0.00011083,-0.00018086,0.00037542,0.00056170,-0.00034315,0
 .00021937,0.00037924,-0.00088952,-0.00105713,-0.00848794,0.63292596,0.
 01641976,-0.00694648,-0.03191685,0.00003150,-0.00018082,0.00038519,0.0
 0615483,0.01557295,-0.00633175,0.00012837,-0.00001244,0.00002437,0.039
 01500,0.00762791,-0.19034055,-0.00002733,-0.00000570,-0.00004765,0.000
 26259,-0.00182512,-0.00150176,0.00006529,0.00009036,0.00000089,0.00067
 379,-0.00238940,0.00126048,0.00335765,-0.00067463,0.00243879,0.0003412
 6,-0.00006600,0.00000740,-0.00040994,0.00013675,-0.00112038,-0.0010570
 1,0.00279864,-0.00291223,0.00040947,0.00121136,-0.00038970,-0.00031743
 ,0.00031702,0.00095182,0.00021511,-0.00006243,0.00081776,0.03210803,0.
 02281004,0.49346650,-0.00037496,-0.00256903,0.00045558,0.00038596,0.00
 012282,-0.00034515,0.00108800,0.00031169,-0.00140286,0.00001839,-0.000
 06785,0.00008093,-0.00872005,0.00769335,0.00521682,0.00001037,-0.00001
 722,0.00001363,-0.00019345,0.00003178,-0.00018105,-0.00005174,-0.00001
 572,0.00003918,0.00057217,-0.00061323,0.00062781,0.00031866,0.00033817
 ,0.00027645,-0.00008458,0.00007554,-0.00004440,-0.00046181,-0.00004154
 ,0.00033351,-0.00002368,-0.00029146,-0.00049939,0.00004492,0.00008350,
 -0.00009445,-0.00011372,0.00008152,0.00001463,0.00017509,0.00005072,-0
 .00002039,-0.22068125,0.13470129,0.03123941,0.23229964,-0.00010714,-0.
 00033768,0.00222820,-0.00005548,-0.00000367,0.00004088,-0.00177785,0.0
 0048049,0.00054811,-0.00006090,-0.00005005,-0.00003249,-0.00646897,0.0
 0320404,-0.00044457,-0.00001271,0.00000384,-0.00000612,-0.00045981,0.0
 0005652,0.00042299,-0.00000233,0.00000096,0.00000841,0.00017049,0.0001
 1378,0.00036148,0.00076255,0.00040285,0.00021712,-0.00005900,0.0000584
 3,0.00000610,0.00005597,0.00001305,0.00002473,-0.00083229,-0.00056234,
 -0.00094547,0.00008136,0.00009488,-0.00017298,-0.00023335,0.00040741,0
 .00002293,0.00049629,-0.00012817,-0.00001339,0.13960908,-0.15646900,-0
 .02376703,-0.14596637,0.16010801,0.00152070,0.00399938,-0.00335794,0.0
 0017733,0.00011547,-0.00027640,-0.00059385,-0.00232769,0.00144675,-0.0
 0009405,0.00004003,0.00002045,0.03243443,-0.02129099,-0.01475309,0.000
 00374,0.00000152,0.00001936,-0.00024789,0.00019990,0.00004996,-0.00004
 612,-0.00000959,0.00001550,-0.00053829,0.00080255,-0.00041059,-0.00153
 257,-0.00099506,-0.00132009,0.00007499,-0.00010006,0.00001696,-0.00033
 777,-0.00002324,0.00035679,0.00064413,0.00011667,0.00061632,0.00000543
 ,-0.00012095,0.00005287,0.00001616,-0.00026056,0.00001273,-0.00004125,
 0.00003044,-0.00012636,0.02480581,-0.01904821,-0.04817657,-0.03811916,
 0.02410133,0.06089676,0.00062322,-0.00164023,0.00012821,-0.00031307,-0
 .00015222,0.00037272,0.00012703,-0.00024733,0.00239934,0.00002475,0.00
 008597,-0.00008190,-0.00462339,-0.01034744,-0.00035004,-0.00001057,0.0
 0001342,-0.00001325,0.00064034,0.00044635,-0.00029077,0.00002588,0.000
 00397,-0.00004209,0.00043614,-0.00024543,0.00010573,0.00000299,0.00000
 567,-0.00012083,0.00011092,-0.00005314,0.00002307,0.00039884,0.0002356
 1,-0.00028752,0.00016898,0.00032835,-0.00019253,-0.00004187,0.00012299
 ,-0.00028259,-0.00081075,0.00082045,0.00079772,0.00031884,0.00001127,0
 .00005036,-0.07203328,-0.07042520,0.00929351,0.00999167,0.02223756,-0.
 00287691,0.06835260,0.00028429,-0.00120612,-0.00037925,-0.00019667,-0.
 00008631,0.00023146,-0.00183312,0.00030155,0.00368715,-0.00008146,0.00
 006603,-0.00010137,0.00004253,-0.00264733,0.00071182,-0.00004140,0.000
 03101,-0.00001155,0.00047702,0.00018620,-0.00029019,0.00000197,0.00003
 036,-0.00003243,-0.00027548,0.00039362,-0.00074965,-0.00001232,-0.0000
 3192,-0.00004185,0.00027089,-0.00012682,0.00008710,0.00013654,0.000089
 67,-0.00016827,0.00184003,-0.00095937,-0.00265842,0.00022135,0.0001295
 6,-0.00053192,0.00008862,-0.00028503,-0.00064708,0.00027994,-0.0003036
 5,-0.00098748,-0.07420924,-0.30496637,0.02672908,-0.00742573,-0.012311
 69,0.00109476,0.07937532,0.32524619,-0.00037080,0.00221525,0.00133930,
 0.00027146,0.00009125,-0.00028414,0.00260519,0.00063198,-0.00541661,0.
 00007983,-0.00012237,0.00014087,0.00831839,0.03240906,-0.00260624,0.00
 001809,-0.00001260,0.00000865,0.00005984,-0.00016059,0.00071216,-0.000
 02146,-0.00002427,0.00003695,-0.00028511,-0.00026184,0.00048661,-0.000
 24476,0.00024588,0.00001209,-0.00031391,0.00020557,-0.00011101,-0.0002
 6553,-0.00004005,0.00019565,0.00105859,-0.00081685,-0.00056310,-0.0002
 7992,-0.00005271,0.00002330,0.00030548,-0.00041850,-0.00029171,-0.0000
 0664,-0.00145897,-0.00107508,0.00704276,0.01828107,-0.05525227,-0.0021
 3766,-0.00384707,0.00036643,-0.01264155,-0.02726931,0.05820626,-0.0010
 7244,-0.00025147,0.00186104,-0.00098401,-0.00035850,0.00077115,0.00014
 676,0.00078736,0.00036289,0.00011078,0.00018558,-0.00027306,0.01295895
 ,0.00271530,0.01399878,0.00002282,0.00004086,0.00000659,0.00023798,-0.
 00008615,-0.00002304,0.00009174,-0.00001102,-0.00011701,-0.00013679,-0
 .00011939,0.00008829,-0.00134302,0.00035734,-0.00047233,0.00011485,-0.
 00006823,0.00001451,-0.00066297,0.00048300,-0.00019406,0.00091602,-0.0
 0033527,0.00025977,-0.00000586,0.00001892,-0.00002860,-0.00012479,-0.0
 0011468,-0.00022491,0.00001820,0.00025491,-0.00012247,-0.19768147,-0.0
 4782707,-0.13790385,-0.01419964,-0.00737711,-0.01525487,-0.00338927,0.
 00105691,-0.00319228,0.20498215,-0.00028438,-0.00069271,-0.00003915,0.
 00073864,0.00039067,-0.00075199,0.00055331,-0.00008505,0.00023567,-0.0
 0010572,-0.00012759,0.00022118,0.00471538,0.00109543,0.00348975,0.0000
 0235,-0.00003626,0.00001712,-0.00046774,-0.00023791,0.00024808,-0.0001
 0964,-0.00001672,0.00009272,0.00000180,0.00009488,0.00032314,-0.000296
 29,0.00013223,-0.00021290,-0.00005044,0.00007760,-0.00004308,-0.000296
 31,-0.00044778,0.00056663,0.00097395,0.00034919,-0.00011801,0.00017624
 ,0.00001042,-0.00002806,-0.00013481,-0.00026963,-0.00018143,-0.0001922
 7,0.00057870,0.00040387,-0.04881464,-0.06200797,-0.04136406,0.01351779
 ,0.00491836,0.01367430,-0.02057593,-0.00354957,-0.01959493,0.05064871,
 0.05982369,0.00017892,0.00482435,-0.00139549,0.00090859,0.00042438,-0.
 00101933,-0.00023157,-0.00210273,0.00190187,-0.00003301,0.00000238,0.0
 0032498,-0.01841112,-0.00811672,-0.03363870,0.00000655,-0.00001577,0.0
 0003710,0.00079514,0.00073757,-0.00011177,-0.00017951,-0.00004595,0.00
 010573,0.00009175,0.00002869,0.00036881,0.00204870,-0.00073832,0.00048
 193,0.00002507,-0.00007857,-0.00005911,-0.00089843,-0.00002031,0.00090
 565,-0.00099031,-0.00025664,0.00019965,0.00000113,-0.00010766,0.000048
 12,0.00004603,-0.00020324,-0.00019224,0.00000869,-0.00027840,-0.000000
 71,-0.13236594,-0.03968843,-0.16136352,0.00454658,0.00124684,0.0045501
 7,0.00400932,0.00132740,0.00407188,0.14044343,0.04306115,0.18478500\\0
 .00000211,0.00000341,0.00000270,-0.00000026,0.00000805,-0.00000136,0.0
 0000187,-0.00000062,0.00000235,0.00000158,-0.00000336,0.00001450,0.000
 00068,-0.00000571,-0.00000582,0.00000561,0.00000499,0.00001058,-0.0000
 0074,-0.00000050,0.00000724,0.00000105,-0.00000291,0.00000863,-0.00000
 252,0.00000248,0.00000210,0.00000526,0.00000614,-0.00000280,0.00000021
 ,0.00000419,0.00000786,-0.00000620,-0.00000391,0.00000598,-0.00000174,
 0.00000286,-0.00001007,0.00000541,0.00000341,-0.00000828,0.00000085,-0
 .00000098,-0.00000527,0.00000325,0.00000037,-0.00001135,0.00000129,-0.
 00000128,-0.00000128,-0.00000413,-0.00000543,-0.00000425,-0.00000396,-
 0.00000409,-0.00000761,-0.00000962,-0.00000711,-0.00000384\\\@
 The archive entry for this job was punched.


 "WOULD YOU TELL ME PLEASE, WHICH WAY I OUGHT TO WALK FROM HERE?"
 "THAT DEPENDS A GREAT DEAL ON WHERE YOU WANT TO GO," SAID THE CAT.
 "I DON'T MUCH CARE WHERE -- ", SAID ALICE.
 "THEN IT DOESN'T MATTER WHICH WAY YOU WALK," SAID THE CAT.

                                      -- LEWIS CARROLL
 Job cpu time:       0 days  0 hours 13 minutes 26.5 seconds.
 Elapsed time:       0 days  0 hours  1 minutes  8.0 seconds.
 File lengths (MBytes):  RWF=    114 Int=      0 D2E=      0 Chk=      8 Scr=      1
 Normal termination of Gaussian 16 at Sat Dec 30 20:49:48 2023.
