Unloading slurm/anatra/current
  ERROR: No such file or directory on
    '/cm/local/modulefiles/slurm/anatra/current'
environment: line 0: unalias: gv: not found
environment: line 0: unalias: sl: not found
 Entering Gaussian System, Link 0=g16
 Initial command:
 /apps/gaussian/g16/C.01/g16/l1.exe "/local/jobs/1153150/Gau-1730034.inp" -scrdir="/local/jobs/1153150/"
 Entering Link 1 = /apps/gaussian/g16/C.01/g16/l1.exe PID=   1730037.
  
 Copyright (c) 1988-2019, Gaussian, Inc.  All Rights Reserved.
  
 This is part of the Gaussian(R) 16 program.  It is based on
 the Gaussian(R) 09 system (copyright 2009, Gaussian, Inc.),
 the Gaussian(R) 03 system (copyright 2003, Gaussian, Inc.),
 the Gaussian(R) 98 system (copyright 1998, Gaussian, Inc.),
 the Gaussian(R) 94 system (copyright 1995, Gaussian, Inc.),
 the Gaussian 92(TM) system (copyright 1992, Gaussian, Inc.),
 the Gaussian 90(TM) system (copyright 1990, Gaussian, Inc.),
 the Gaussian 88(TM) system (copyright 1988, Gaussian, Inc.),
 the Gaussian 86(TM) system (copyright 1986, Carnegie Mellon
 University), and the Gaussian 82(TM) system (copyright 1983,
 Carnegie Mellon University). Gaussian is a federally registered
 trademark of Gaussian, Inc.
  
 This software contains proprietary and confidential information,
 including trade secrets, belonging to Gaussian, Inc.
  
 This software is provided under written license and may be
 used, copied, transmitted, or stored only in accord with that
 written license.
  
 The following legend is applicable only to US Government
 contracts under FAR:
  
                    RESTRICTED RIGHTS LEGEND
  
 Use, reproduction and disclosure by the US Government is
 subject to restrictions as set forth in subparagraphs (a)
 and (c) of the Commercial Computer Software - Restricted
 Rights clause in FAR 52.227-19.
  
 Gaussian, Inc.
 340 Quinnipiac St., Bldg. 40, Wallingford CT 06492
  
  
 ---------------------------------------------------------------
 Warning -- This program may not be used in any manner that
 competes with the business of Gaussian, Inc. or will provide
 assistance to any competitor of Gaussian, Inc.  The licensee
 of this program is prohibited from giving any competitor of
 Gaussian, Inc. access to this program.  By using this program,
 the user acknowledges that Gaussian, Inc. is engaged in the
 business of creating and licensing software in the field of
 computational chemistry and represents and warrants to the
 licensee that it is not a competitor of Gaussian, Inc. and that
 it will not use this program in any manner prohibited above.
 ---------------------------------------------------------------
  

 Cite this work as:
 Gaussian 16, Revision C.01,
 M. J. Frisch, G. W. Trucks, H. B. Schlegel, G. E. Scuseria, 
 M. A. Robb, J. R. Cheeseman, G. Scalmani, V. Barone, 
 G. A. Petersson, H. Nakatsuji, X. Li, M. Caricato, A. V. Marenich, 
 J. Bloino, B. G. Janesko, R. Gomperts, B. Mennucci, H. P. Hratchian, 
 J. V. Ortiz, A. F. Izmaylov, J. L. Sonnenberg, D. Williams-Young, 
 F. Ding, F. Lipparini, F. Egidi, J. Goings, B. Peng, A. Petrone, 
 T. Henderson, D. Ranasinghe, V. G. Zakrzewski, J. Gao, N. Rega, 
 G. Zheng, W. Liang, M. Hada, M. Ehara, K. Toyota, R. Fukuda, 
 J. Hasegawa, M. Ishida, T. Nakajima, Y. Honda, O. Kitao, H. Nakai, 
 T. Vreven, K. Throssell, J. A. Montgomery, Jr., J. E. Peralta, 
 F. Ogliaro, M. J. Bearpark, J. J. Heyd, E. N. Brothers, K. N. Kudin, 
 V. N. Staroverov, T. A. Keith, R. Kobayashi, J. Normand, 
 K. Raghavachari, A. P. Rendell, J. C. Burant, S. S. Iyengar, 
 J. Tomasi, M. Cossi, J. M. Millam, M. Klene, C. Adamo, R. Cammi, 
 J. W. Ochterski, R. L. Martin, K. Morokuma, O. Farkas, 
 J. B. Foresman, and D. J. Fox, Gaussian, Inc., Wallingford CT, 2019.
 
 ******************************************
 Gaussian 16:  ES64L-G16RevC.01  3-Jul-2019
                30-Dec-2023 
 ******************************************
 %chk=allylic-1_1_opt_dft_reopt_freq.chk
 %nprocshared=12
 Will use up to   12 processors via shared memory.
 %mem=48GB
 -----------------------------------------------------------
 # wb97xd def2svp scrf=(iefpcm,solvent=toluene) freq=noraman
 -----------------------------------------------------------
 1/10=4,30=1,38=1/1,3;
 2/12=2,17=6,18=5,40=1/2;
 3/5=43,7=101,11=2,25=1,30=1,70=2201,71=2,72=13,74=-58,140=1/1,2,3;
 4//1;
 5/5=2,38=5,53=13,98=1/2;
 8/6=4,10=90,11=11/1;
 11/6=1,8=1,9=11,15=111,16=1/1,2,10;
 10/6=1/2;
 6/7=2,8=2,9=2,10=2,28=1/1;
 7/8=1,10=1,25=1/1,2,3,16;
 1/10=4,30=1/3;
 99//99;
 -----------------------------
 allylic-1_1_opt_dft_reopt.out
 -----------------------------
 Symbolic Z-matrix:
 Charge =  0 Multiplicity = 1
 C                    -0.92336  -0.45836  -0.94046 
 C                     2.39545  -0.19926   0.26489 
 C                    -0.97656   1.89366  -0.52787 
 C                     2.28728   0.68467  -0.71469 
 N                    -1.24017   0.48636  -0.13415 
 H                     3.14889   0.83606  -1.36692 
 H                    -0.31289   2.25857   0.28666 
 H                     3.27756  -0.80432   0.49151 
 H                    -1.93943   2.41255  -0.33434 
 H                    -0.53501  -0.09102  -1.89507 
 H                     1.37112   1.2673   -0.88887 
 F                     1.38843  -0.45844   1.11967 
 C                    -1.01586  -1.91874  -0.66208 
 H                    -0.66156  -2.48868  -1.52845 
 H                    -0.3934   -2.17773   0.20804 
 H                    -2.05068  -2.22542  -0.44413 
 C                    -1.77094   0.20653   1.19829 
 H                    -2.62699   0.87122   1.36692 
 H                    -2.08023  -0.83842   1.32898 
 H                    -0.9881    0.45037   1.92921 
 

 GradGradGradGradGradGradGradGradGradGradGradGradGradGradGradGradGradGrad
 Berny optimization.
 Initialization pass.
 Trust Radius=3.00D-01 FncErr=1.00D-07 GrdErr=1.00D-07 EigMax=2.50D+02 EigMin=1.00D-04
 Number of steps in this run=      2 maximum allowed number of steps=      2.
 GradGradGradGradGradGradGradGradGradGradGradGradGradGradGradGradGradGrad

                          Input orientation:                          
 ---------------------------------------------------------------------
 Center     Atomic      Atomic             Coordinates (Angstroms)
 Number     Number       Type             X           Y           Z
 ---------------------------------------------------------------------
      1          6           0       -0.923360   -0.458360   -0.940460
      2          6           0        2.395450   -0.199260    0.264890
      3          6           0       -0.976560    1.893660   -0.527870
      4          6           0        2.287280    0.684670   -0.714690
      5          7           0       -1.240170    0.486360   -0.134150
      6          1           0        3.148890    0.836060   -1.366920
      7          1           0       -0.312890    2.258570    0.286660
      8          1           0        3.277560   -0.804320    0.491510
      9          1           0       -1.939430    2.412550   -0.334340
     10          1           0       -0.535010   -0.091020   -1.895070
     11          1           0        1.371120    1.267300   -0.888870
     12          9           0        1.388430   -0.458440    1.119670
     13          6           0       -1.015860   -1.918740   -0.662080
     14          1           0       -0.661560   -2.488680   -1.528450
     15          1           0       -0.393400   -2.177730    0.208040
     16          1           0       -2.050680   -2.225420   -0.444130
     17          6           0       -1.770940    0.206530    1.198290
     18          1           0       -2.626990    0.871220    1.366920
     19          1           0       -2.080230   -0.838420    1.328980
     20          1           0       -0.988100    0.450370    1.929210
 ---------------------------------------------------------------------
                    Distance matrix (angstroms):
                    1          2          3          4          5
     1  C    0.000000
     2  C    3.540410   0.000000
     3  C    2.388526   4.047127   0.000000
     4  C    3.415509   1.323862   3.485572   0.000000
     5  N    1.281796   3.721161   1.484924   3.580399   0.000000
     6  H    4.294253   2.074214   4.340721   1.091190   4.572293
     7  H    3.043059   3.657391   1.112239   3.200117   2.043932
     8  H    4.451736   1.093422   5.139627   2.157004   4.739957
     9  H    3.105142   5.096255   1.110774   4.582064   2.058944
    10  H    1.094091   3.642079   2.450134   3.155996   1.982790
    11  H    2.871446   2.128664   2.456471   1.099612   2.828127
    12  F    3.096532   1.346073   3.720207   2.340835   3.061740
    13  C    1.489551   3.931020   3.814964   4.206096   2.472556
    14  H    2.129899   4.219339   4.506139   4.407722   3.336124
    15  H    2.134512   3.419833   4.178260   4.028748   2.816290
    16  H    2.153995   4.937216   4.257648   5.230652   2.847238
    17  C    2.394728   4.288905   2.541078   4.511902   1.461307
    18  H    3.161351   5.252171   2.712846   5.340220   2.079567
    19  H    2.575491   4.644623   3.482849   5.056830   2.145109
    20  H    3.010812   3.826276   2.849642   4.215829   2.079012
                    6          7          8          9         10
     6  H    0.000000
     7  H    4.091672   0.000000
     8  H    2.482169   4.723832   0.000000
     9  H    5.426098   1.747851   6.184437   0.000000
    10  H    3.835302   3.214009   4.554147   3.267436   0.000000
    11  H    1.890758   2.280433   3.135534   3.546666   2.547705
    12  F    3.310299   3.312180   2.020651   4.629404   3.594896
    13  C    5.042902   4.340990   4.583247   4.440773   2.256555
    14  H    5.059597   5.094367   4.736452   5.203932   2.428827
    15  H    4.910321   4.437727   3.929702   4.873916   2.966055
    16  H    6.104075   4.864168   5.593308   4.640603   2.993016
    17  C    5.584025   2.677284   5.196990   2.691443   3.344389
    18  H    6.390298   2.906331   6.199797   2.396398   3.992852
    19  H    6.116817   3.715006   5.422954   3.654485   3.652507
    20  H    5.303576   2.534456   4.673017   3.143062   3.888896
                   11         12         13         14         15
    11  H    0.000000
    12  F    2.648152   0.000000
    13  C    3.987475   3.329823   0.000000
    14  H    4.318360   3.916232   1.095882   0.000000
    15  H    4.023055   2.638550   1.100746   1.784376   0.000000
    16  H    4.909746   4.170751   1.101094   1.781772   1.781622
    17  C    3.918419   3.229549   2.923678   3.991239   2.926245
    18  H    4.607641   4.237066   3.807421   4.851290   3.953229
    19  H    4.611370   3.495683   2.502857   3.591781   2.428097
    20  H    3.764953   2.670053   3.511159   4.549731   3.197343
                   16         17         18         19         20
    16  H    0.000000
    17  C    2.947911   0.000000
    18  H    3.633348   1.096846   0.000000
    19  H    2.251347   1.097570   1.795343   0.000000
    20  H    3.731176   1.098426   1.783044   1.792764   0.000000
 Stoichiometry    C6H12FN
 Framework group  C1[X(C6H12FN)]
 Deg. of freedom    54
 Full point group                 C1      NOp   1
 Largest Abelian subgroup         C1      NOp   1
 Largest concise Abelian subgroup C1      NOp   1
                         Standard orientation:                         
 ---------------------------------------------------------------------
 Center     Atomic      Atomic             Coordinates (Angstroms)
 Number     Number       Type             X           Y           Z
 ---------------------------------------------------------------------
      1          6           0        0.923361    0.458360   -0.940460
      2          6           0       -2.395450    0.199262    0.264890
      3          6           0        0.976559   -1.893660   -0.527870
      4          6           0       -2.287280   -0.684668   -0.714690
      5          7           0        1.240170   -0.486360   -0.134150
      6          1           0       -3.148890   -0.836058   -1.366920
      7          1           0        0.312889   -2.258570    0.286660
      8          1           0       -3.277559    0.804322    0.491510
      9          1           0        1.939429   -2.412550   -0.334340
     10          1           0        0.535010    0.091020   -1.895070
     11          1           0       -1.371120   -1.267299   -0.888870
     12          9           0       -1.388429    0.458441    1.119670
     13          6           0        1.015861    1.918740   -0.662080
     14          1           0        0.661561    2.488680   -1.528450
     15          1           0        0.393401    2.177730    0.208040
     16          1           0        2.050681    2.225420   -0.444130
     17          6           0        1.770940   -0.206530    1.198290
     18          1           0        2.626990   -0.871221    1.366920
     19          1           0        2.080231    0.838420    1.328980
     20          1           0        0.988100   -0.450370    1.929210
 ---------------------------------------------------------------------
 Rotational constants (GHZ):           2.3075709           1.2978769           1.1453008
 Standard basis: def2SVP (5D, 7F)
 There are   180 symmetry adapted cartesian basis functions of A   symmetry.
 There are   172 symmetry adapted basis functions of A   symmetry.
   172 basis functions,   284 primitive gaussians,   180 cartesian basis functions
    32 alpha electrons       32 beta electrons
       nuclear repulsion energy       384.9430371108 Hartrees.
 NAtoms=   20 NActive=   20 NUniq=   20 SFac= 1.00D+00 NAtFMM=   60 NAOKFM=F Big=F
 Integral buffers will be    131072 words long.
 Raffenetti 2 integral format.
 Two-electron integral symmetry is turned on.
 Nuclear repulsion after empirical dispersion term =      384.9306925803 Hartrees.
 Force inversion solution in PCM.
 ------------------------------------------------------------------------------
 Polarizable Continuum Model (PCM)
 =================================
 Model                : PCM.
 Atomic radii         : UFF (Universal Force Field).
 Polarization charges : Total charges.
 Charge compensation  : None.
 Solution method      : Matrix inversion.
 Cavity type          : Scaled VdW (van der Waals Surface) (Alpha=1.100).
 Cavity algorithm     : GePol (No added spheres)
                        Default sphere list used, NSphG=   20.
                        Lebedev-Laikov grids with approx.  5.0 points / Ang**2.
                        Smoothing algorithm: York/Karplus (Gamma=1.0000).
                        Polarization charges: spherical gaussians, with
                                              point-specific exponents (IZeta= 3).
                        Self-potential: point-specific (ISelfS= 7).
                        Self-field    : sphere-specific E.n sum rule (ISelfD= 2).
 1st derivatives      : Analytical E(r).r(x)/FMM algorithm (CHGder, D1EAlg=3).
                        Cavity 1st derivative terms included.
 2nd derivatives      : Analytical E(r).r(xy)/FMM algorithm (CHGder, D2EAlg=3).
                        Cavity 2nd derivative terms included.
 Solvent              : Toluene, Eps=   2.374100 Eps(inf)=   2.238315
 ------------------------------------------------------------------------------
 Spheres list:
 ISph  on   Nord     Re0    Alpha      Xe            Ye            Ze
    1   C      1    1.9255  1.100      0.923361      0.458360     -0.940460
    2   C      2    1.9255  1.100     -2.395450      0.199262      0.264890
    3   C      3    1.9255  1.100      0.976559     -1.893660     -0.527870
    4   C      4    1.9255  1.100     -2.287280     -0.684668     -0.714690
    5   N      5    1.8300  1.100      1.240170     -0.486360     -0.134150
    6   H      6    1.4430  1.100     -3.148890     -0.836058     -1.366920
    7   H      7    1.4430  1.100      0.312889     -2.258570      0.286660
    8   H      8    1.4430  1.100     -3.277559      0.804322      0.491510
    9   H      9    1.4430  1.100      1.939429     -2.412550     -0.334340
   10   H     10    1.4430  1.100      0.535010      0.091020     -1.895070
   11   H     11    1.4430  1.100     -1.371120     -1.267299     -0.888870
   12   F     12    1.6820  1.100     -1.388429      0.458441      1.119670
   13   C     13    1.9255  1.100      1.015861      1.918740     -0.662080
   14   H     14    1.4430  1.100      0.661561      2.488680     -1.528450
   15   H     15    1.4430  1.100      0.393401      2.177730      0.208040
   16   H     16    1.4430  1.100      2.050681      2.225420     -0.444130
   17   C     17    1.9255  1.100      1.770940     -0.206530      1.198290
   18   H     18    1.4430  1.100      2.626990     -0.871221      1.366920
   19   H     19    1.4430  1.100      2.080231      0.838420      1.328980
   20   H     20    1.4430  1.100      0.988100     -0.450370      1.929210
 ------------------------------------------------------------------------------
 One-electron integrals computed using PRISM.
   1 Symmetry operations used in ECPInt.
 ECPInt:  NShTT=    3570 NPrTT=   12386 LenC2=    3546 LenP2D=    9917.
 LDataN:  DoStor=T MaxTD1= 4 Len=   56
 NBasis=   172 RedAO= T EigKep=  2.98D-03  NBF=   172
 NBsUse=   172 1.00D-06 EigRej= -1.00D+00 NBFU=   172
 ExpMin= 1.22D-01 ExpMax= 2.89D+03 ExpMxC= 4.35D+02 IAcc=3 IRadAn=         5 AccDes= 0.00D+00
 Harris functional with IExCor= 4639 and IRadAn=       5 diagonalized for initial guess.
 HarFok:  IExCor= 4639 AccDes= 0.00D+00 IRadAn=         5 IDoV= 1 UseB2=F ITyADJ=14
 ICtDFT=  3500011 ScaDFX=  1.000000  1.000000  1.000000  1.000000
 FoFCou: FMM=F IPFlag=           0 FMFlag=      100000 FMFlg1=           0
         NFxFlg=           0 DoJE=T BraDBF=F KetDBF=T FulRan=T
         wScrn=  0.000000 ICntrl=       500 IOpCl=  0 I1Cent=   200000004 NGrid=           0
         NMat0=    1 NMatS0=      1 NMatT0=    0 NMatD0=    1 NMtDS0=    0 NMtDT0=    0
 Petite list used in FoFCou.
 Requested convergence on RMS density matrix=1.00D-08 within 128 cycles.
 Requested convergence on MAX density matrix=1.00D-06.
 Requested convergence on             energy=1.00D-06.
 No special actions if energy rises.
 Inv3:  Mode=1 IEnd=     6986028.
 Iteration    1 A*A^-1 deviation from unit magnitude is 3.11D-15 for    240.
 Iteration    1 A*A^-1 deviation from orthogonality  is 2.02D-15 for   1197    228.
 Iteration    1 A^-1*A deviation from unit magnitude is 3.11D-15 for    240.
 Iteration    1 A^-1*A deviation from orthogonality  is 2.22D-15 for   1338    735.
 Error on total polarization charges =  0.00602
 SCF Done:  E(RwB97XD) =  -389.899487482     A.U. after   16 cycles
            NFock= 16  Conv=0.30D-08     -V/T= 2.0102
 DoSCS=F DFT=T ScalE2(SS,OS)=  1.000000  1.000000
 Range of M.O.s used for correlation:     1   172
 NBasis=   172 NAE=    32 NBE=    32 NFC=     0 NFV=     0
 NROrb=    172 NOA=    32 NOB=    32 NVA=   140 NVB=   140
   1 Symmetry operations used in ECPInt.
 ECPInt:  NShTT=    3570 NPrTT=   12386 LenC2=    3546 LenP2D=    9917.
 LDataN:  DoStor=T MaxTD1= 5 Len=  102
 Symmetrizing basis deriv contribution to polar:
 IMax=3 JMax=2 DiffMx= 0.00D+00
 G2DrvN: will do    21 centers at a time, making    1 passes.
 Calling FoFCou, ICntrl=  3107 FMM=F I1Cent=   0 AccDes= 0.00D+00.
 NEqPCM:  Using equilibrium solvation (IEInf=0, Eps=   2.3741, EpsInf=   2.2383)
 G2PCM: DoFxE=T DoFxN=T DoGrad=T DoDP/DQ/DG/TGxP=FFFF NFrqRd=   0 IEInf=0 SqF1=F DoCFld=F IF1Alg=4.
 End of G2Drv F.D. properties file   721 does not exist.
 End of G2Drv F.D. properties file   722 does not exist.
 End of G2Drv F.D. properties file   788 does not exist.
          IDoAtm=11111111111111111111
 NEqPCM:  Using equilibrium solvation (IEInf=0, Eps=   2.3741, EpsInf=   2.2383)
          Differentiating once with respect to electric field.
                with respect to dipole field.
          Differentiating once with respect to nuclear coordinates.
 Keep R1 ints in memory in canonical form, NReq=236059372.
          There are    63 degrees of freedom in the 1st order CPHF.  IDoFFX=6 NUNeed=     3.
     60 vectors produced by pass  0 Test12= 7.11D-15 1.59D-09 XBig12= 3.71D+01 3.06D+00.
 AX will form    60 AO Fock derivatives at one time.
     60 vectors produced by pass  1 Test12= 7.11D-15 1.59D-09 XBig12= 2.74D+00 3.46D-01.
     60 vectors produced by pass  2 Test12= 7.11D-15 1.59D-09 XBig12= 6.83D-02 5.08D-02.
     60 vectors produced by pass  3 Test12= 7.11D-15 1.59D-09 XBig12= 4.77D-04 4.19D-03.
     60 vectors produced by pass  4 Test12= 7.11D-15 1.59D-09 XBig12= 2.63D-06 1.97D-04.
     60 vectors produced by pass  5 Test12= 7.11D-15 1.59D-09 XBig12= 1.23D-08 1.75D-05.
     40 vectors produced by pass  6 Test12= 7.11D-15 1.59D-09 XBig12= 5.04D-11 7.04D-07.
      6 vectors produced by pass  7 Test12= 7.11D-15 1.59D-09 XBig12= 1.88D-13 4.52D-08.
      3 vectors produced by pass  8 Test12= 7.11D-15 1.59D-09 XBig12= 6.59D-16 3.13D-09.
 InvSVY:  IOpt=1 It=  1 EMax= 2.66D-15
 Solved reduced A of dimension   409 with    63 vectors.
 Isotropic polarizability for W=    0.000000       85.68 Bohr**3.
 End of Minotr F.D. properties file   721 does not exist.
 End of Minotr F.D. properties file   722 does not exist.
 End of Minotr F.D. properties file   788 does not exist.

 **********************************************************************

            Population analysis using the SCF Density.

 **********************************************************************

 Orbital symmetries:
       Occupied  (A) (A) (A) (A) (A) (A) (A) (A) (A) (A) (A) (A)
                 (A) (A) (A) (A) (A) (A) (A) (A) (A) (A) (A) (A)
                 (A) (A) (A) (A) (A) (A) (A) (A)
       Virtual   (A) (A) (A) (A) (A) (A) (A) (A) (A) (A) (A) (A)
                 (A) (A) (A) (A) (A) (A) (A) (A) (A) (A) (A) (A)
                 (A) (A) (A) (A) (A) (A) (A) (A) (A) (A) (A) (A)
                 (A) (A) (A) (A) (A) (A) (A) (A) (A) (A) (A) (A)
                 (A) (A) (A) (A) (A) (A) (A) (A) (A) (A) (A) (A)
                 (A) (A) (A) (A) (A) (A) (A) (A) (A) (A) (A) (A)
                 (A) (A) (A) (A) (A) (A) (A) (A) (A) (A) (A) (A)
                 (A) (A) (A) (A) (A) (A) (A) (A) (A) (A) (A) (A)
                 (A) (A) (A) (A) (A) (A) (A) (A) (A) (A) (A) (A)
                 (A) (A) (A) (A) (A) (A) (A) (A) (A) (A) (A) (A)
                 (A) (A) (A) (A) (A) (A) (A) (A) (A) (A) (A) (A)
                 (A) (A) (A) (A) (A) (A) (A) (A)
 The electronic state is 1-A.
 Alpha  occ. eigenvalues --  -24.82785 -14.52797 -10.37909 -10.37702 -10.34000
 Alpha  occ. eigenvalues --  -10.32438 -10.29225 -10.23170  -1.31074  -1.08262
 Alpha  occ. eigenvalues --   -0.87366  -0.85644  -0.82209  -0.74816  -0.69453
 Alpha  occ. eigenvalues --   -0.65607  -0.61754  -0.58437  -0.57670  -0.56362
 Alpha  occ. eigenvalues --   -0.56199  -0.55562  -0.51703  -0.49765  -0.48712
 Alpha  occ. eigenvalues --   -0.48441  -0.46088  -0.45171  -0.44299  -0.37055
 Alpha  occ. eigenvalues --   -0.34609  -0.22340
 Alpha virt. eigenvalues --    0.02601   0.09009   0.13262   0.16437   0.16692
 Alpha virt. eigenvalues --    0.17040   0.19362   0.20794   0.21179   0.21586
 Alpha virt. eigenvalues --    0.22624   0.22912   0.24365   0.25106   0.27207
 Alpha virt. eigenvalues --    0.28948   0.32327   0.36034   0.37479   0.41356
 Alpha virt. eigenvalues --    0.44215   0.48875   0.48882   0.51134   0.53634
 Alpha virt. eigenvalues --    0.54842   0.55843   0.56974   0.58500   0.59907
 Alpha virt. eigenvalues --    0.61947   0.65427   0.66631   0.67970   0.69423
 Alpha virt. eigenvalues --    0.71095   0.71679   0.72160   0.72962   0.74282
 Alpha virt. eigenvalues --    0.74859   0.75000   0.75379   0.76495   0.76721
 Alpha virt. eigenvalues --    0.77663   0.80106   0.82146   0.83467   0.84383
 Alpha virt. eigenvalues --    0.88470   0.88711   0.91742   0.92129   1.00307
 Alpha virt. eigenvalues --    1.08429   1.11062   1.15051   1.19208   1.20737
 Alpha virt. eigenvalues --    1.27922   1.28142   1.30715   1.32780   1.33742
 Alpha virt. eigenvalues --    1.36107   1.39727   1.46058   1.49165   1.55167
 Alpha virt. eigenvalues --    1.59000   1.59656   1.60423   1.61825   1.64839
 Alpha virt. eigenvalues --    1.66954   1.68411   1.71483   1.73679   1.76469
 Alpha virt. eigenvalues --    1.77569   1.79570   1.81603   1.82646   1.84933
 Alpha virt. eigenvalues --    1.85228   1.85503   1.88300   1.91245   1.91685
 Alpha virt. eigenvalues --    1.93101   1.96491   1.97551   1.98394   2.02671
 Alpha virt. eigenvalues --    2.04531   2.05143   2.05590   2.10416   2.13689
 Alpha virt. eigenvalues --    2.17332   2.18298   2.18576   2.21403   2.24061
 Alpha virt. eigenvalues --    2.31820   2.34486   2.35623   2.38055   2.40210
 Alpha virt. eigenvalues --    2.41887   2.49957   2.51755   2.52352   2.55013
 Alpha virt. eigenvalues --    2.58118   2.63204   2.72238   2.73716   2.76717
 Alpha virt. eigenvalues --    2.78919   2.81521   2.84347   2.88206   2.91705
 Alpha virt. eigenvalues --    2.94357   2.98840   3.01742   3.02463   3.05641
 Alpha virt. eigenvalues --    3.08107   3.10348   3.14707   3.17346   3.29379
 Alpha virt. eigenvalues --    3.31488   3.39556   3.44920   3.61268   3.94561
          Condensed to atoms (all electrons):
               1          2          3          4          5          6
     1  C    4.922888  -0.000983  -0.090096   0.007567   0.539427  -0.000026
     2  C   -0.000983   4.545368  -0.000167   0.611094  -0.000848  -0.005774
     3  C   -0.090096  -0.000167   5.349328  -0.031788   0.264221   0.000241
     4  C    0.007567   0.611094  -0.031788   5.002935   0.000281   0.370465
     5  N    0.539427  -0.000848   0.264221   0.000281   6.285765   0.000057
     6  H   -0.000026  -0.005774   0.000241   0.370465   0.000057   0.591412
     7  H   -0.000042  -0.000114   0.363500   0.002741  -0.033862   0.000108
     8  H    0.000274   0.421859  -0.000048  -0.061824  -0.000029  -0.006868
     9  H    0.004248   0.000009   0.358752   0.000790  -0.031874  -0.000008
    10  H    0.383965  -0.000289   0.032395  -0.004013  -0.026539   0.000117
    11  H   -0.010797  -0.013953   0.079227   0.319688  -0.003098  -0.023059
    12  F    0.009872   0.295212  -0.000878  -0.059385  -0.002402   0.002615
    13  C    0.299535   0.001247   0.011000  -0.001282  -0.042366   0.000012
    14  H   -0.008802   0.000138  -0.000244   0.000200   0.004130  -0.000003
    15  H   -0.003174  -0.001534  -0.000361  -0.000683  -0.007911  -0.000027
    16  H   -0.010480  -0.000004  -0.000212   0.000012  -0.004747   0.000000
    17  C   -0.086754  -0.000023  -0.037542  -0.001108   0.307600   0.000004
    18  H    0.005762   0.000001  -0.000649   0.000020  -0.022713  -0.000000
    19  H   -0.009605  -0.000024   0.006346   0.000221  -0.013230  -0.000000
    20  H    0.000451  -0.000038  -0.001096  -0.000059  -0.022182  -0.000007
               7          8          9         10         11         12
     1  C   -0.000042   0.000274   0.004248   0.383965  -0.010797   0.009872
     2  C   -0.000114   0.421859   0.000009  -0.000289  -0.013953   0.295212
     3  C    0.363500  -0.000048   0.358752   0.032395   0.079227  -0.000878
     4  C    0.002741  -0.061824   0.000790  -0.004013   0.319688  -0.059385
     5  N   -0.033862  -0.000029  -0.031874  -0.026539  -0.003098  -0.002402
     6  H    0.000108  -0.006868  -0.000008   0.000117  -0.023059   0.002615
     7  H    0.733603   0.000029  -0.039521  -0.001559  -0.007273   0.001153
     8  H    0.000029   0.616747   0.000001  -0.000031   0.004836  -0.031046
     9  H   -0.039521   0.000001   0.743802  -0.000462  -0.002735   0.000002
    10  H   -0.001559  -0.000031  -0.000462   0.555340   0.008465  -0.000122
    11  H   -0.007273   0.004836  -0.002735   0.008465   0.572125  -0.001797
    12  F    0.001153  -0.031046   0.000002  -0.000122  -0.001797   9.005917
    13  C   -0.000969  -0.000140  -0.000850  -0.034325   0.002363  -0.006936
    14  H    0.000023   0.000004   0.000019  -0.008475  -0.000124  -0.000076
    15  H    0.000182   0.000028  -0.000015   0.002417  -0.000232   0.011949
    16  H   -0.000038   0.000001   0.000082   0.002949  -0.000009   0.000091
    17  C   -0.003390  -0.000008  -0.009261   0.009249   0.002197   0.000137
    18  H   -0.001927   0.000001   0.008798  -0.000351  -0.000086   0.000096
    19  H    0.000966   0.000001   0.000939  -0.000894  -0.000432  -0.000334
    20  H    0.005432   0.000072  -0.001523  -0.000318  -0.000062   0.006927
              13         14         15         16         17         18
     1  C    0.299535  -0.008802  -0.003174  -0.010480  -0.086754   0.005762
     2  C    0.001247   0.000138  -0.001534  -0.000004  -0.000023   0.000001
     3  C    0.011000  -0.000244  -0.000361  -0.000212  -0.037542  -0.000649
     4  C   -0.001282   0.000200  -0.000683   0.000012  -0.001108   0.000020
     5  N   -0.042366   0.004130  -0.007911  -0.004747   0.307600  -0.022713
     6  H    0.000012  -0.000003  -0.000027   0.000000   0.000004  -0.000000
     7  H   -0.000969   0.000023   0.000182  -0.000038  -0.003390  -0.001927
     8  H   -0.000140   0.000004   0.000028   0.000001  -0.000008   0.000001
     9  H   -0.000850   0.000019  -0.000015   0.000082  -0.009261   0.008798
    10  H   -0.034325  -0.008475   0.002417   0.002949   0.009249  -0.000351
    11  H    0.002363  -0.000124  -0.000232  -0.000009   0.002197  -0.000086
    12  F   -0.006936  -0.000076   0.011949   0.000091   0.000137   0.000096
    13  C    4.679541   0.387244   0.373112   0.386588   0.009290  -0.000477
    14  H    0.387244   0.577702  -0.014623  -0.014363   0.000429  -0.000014
    15  H    0.373112  -0.014623   0.564080  -0.013560  -0.000037  -0.000031
    16  H    0.386588  -0.014363  -0.013560   0.559253  -0.002154   0.000351
    17  C    0.009290   0.000429  -0.000037  -0.002154   4.605783   0.395033
    18  H   -0.000477  -0.000014  -0.000031   0.000351   0.395033   0.578357
    19  H    0.004181   0.000353  -0.000145   0.002488   0.360160  -0.018338
    20  H   -0.000495  -0.000013   0.000669  -0.000320   0.397521  -0.014973
              19         20
     1  C   -0.009605   0.000451
     2  C   -0.000024  -0.000038
     3  C    0.006346  -0.001096
     4  C    0.000221  -0.000059
     5  N   -0.013230  -0.022182
     6  H   -0.000000  -0.000007
     7  H    0.000966   0.005432
     8  H    0.000001   0.000072
     9  H    0.000939  -0.001523
    10  H   -0.000894  -0.000318
    11  H   -0.000432  -0.000062
    12  F   -0.000334   0.006927
    13  C    0.004181  -0.000495
    14  H    0.000353  -0.000013
    15  H   -0.000145   0.000669
    16  H    0.002488  -0.000320
    17  C    0.360160   0.397521
    18  H   -0.018338  -0.014973
    19  H    0.635835  -0.017997
    20  H   -0.017997   0.566721
 Mulliken charges:
               1
     1  C    0.046770
     2  C    0.148824
     3  C   -0.301928
     4  C   -0.155873
     5  N   -0.189681
     6  H    0.070741
     7  H   -0.019043
     8  H    0.056141
     9  H   -0.031192
    10  H    0.082481
    11  H    0.074756
    12  F   -0.230994
    13  C   -0.066277
    14  H    0.076497
    15  H    0.089897
    16  H    0.094070
    17  C    0.052872
    18  H    0.071141
    19  H    0.049507
    20  H    0.081290
 Sum of Mulliken charges =  -0.00000
 Mulliken charges with hydrogens summed into heavy atoms:
               1
     1  C    0.129251
     2  C    0.204965
     3  C   -0.352163
     4  C   -0.010376
     5  N   -0.189681
    12  F   -0.230994
    13  C    0.194188
    17  C    0.254810
 APT charges:
               1
     1  C    0.361566
     2  C    0.594131
     3  C   -0.343833
     4  C   -0.310955
     5  N   -0.241853
     6  H    0.064383
     7  H   -0.052304
     8  H    0.047740
     9  H   -0.074652
    10  H    0.097329
    11  H    0.198978
    12  F   -0.593695
    13  C   -0.086433
    14  H    0.040246
    15  H    0.048552
    16  H    0.038514
    17  C    0.139395
    18  H    0.044667
    19  H   -0.018852
    20  H    0.047076
 Sum of APT charges =   0.00000
 APT charges with hydrogens summed into heavy atoms:
               1
     1  C    0.458895
     2  C    0.641870
     3  C   -0.470789
     4  C   -0.047593
     5  N   -0.241853
    12  F   -0.593695
    13  C    0.040879
    17  C    0.212286
 Electronic spatial extent (au):  <R**2>=           1205.0986
 Charge=              0.0000 electrons
 Dipole moment (field-independent basis, Debye):
    X=              0.2827    Y=              5.8883    Z=              1.6042  Tot=              6.1095
 Quadrupole moment (field-independent basis, Debye-Ang):
   XX=            -41.7914   YY=            -56.7079   ZZ=            -50.8913
   XY=              3.7462   XZ=              4.0332   YZ=             -6.6455
 Traceless Quadrupole moment (field-independent basis, Debye-Ang):
   XX=              8.0055   YY=             -6.9110   ZZ=             -1.0945
   XY=              3.7462   XZ=              4.0332   YZ=             -6.6455
 Octapole moment (field-independent basis, Debye-Ang**2):
  XXX=            -19.9296  YYY=             39.3014  ZZZ=             13.7495  XYY=             -5.4968
  XXY=             12.6900  XXZ=              6.8401  XZZ=             -2.2265  YZZ=             12.3931
  YYZ=             13.5941  XYZ=             -8.5630
 Hexadecapole moment (field-independent basis, Debye-Ang**3):
 XXXX=           -772.2508 YYYY=           -506.4385 ZZZZ=           -266.9379 XXXY=            -11.0055
 XXXZ=              9.2252 YYYX=             18.7132 YYYZ=            -32.1544 ZZZX=             -0.2286
 ZZZY=            -18.8493 XXYY=           -220.7662 XXZZ=           -182.7940 YYZZ=           -137.0137
 XXYZ=              2.0474 YYXZ=              5.6204 ZZXY=              9.6062
 N-N= 3.849306925803D+02 E-N=-1.678283380742D+03  KE= 3.859528437400D+02
  Exact polarizability:      78.834      -4.320      97.531       7.481       1.734      80.669
 Approx polarizability:      71.411      -3.664      90.280       5.969       3.196      81.754
   1 Symmetry operations used in ECPInt.
 ECPInt:  NShTT=    3570 NPrTT=   12386 LenC2=    3546 LenP2D=    9917.
 LDataN:  DoStor=T MaxTD1= 6 Len=  172
 D2PCM: PCM CHGder 2nd derivatives, FixD1E=F FixD2E=F DoIter=F DoCFld=F I1PDM=0
 Calling FoFJK, ICntrl=    100127 FMM=F ISym2X=0 I1Cent= 0 IOpClX= 0 NMat=1 NMatS=1 NMatT=0.
 Full mass-weighted force constant matrix:
 Low frequencies --- -360.0052   -0.0009    0.0005    0.0007   11.7193   14.6190
 Low frequencies ---   26.9111   48.2271   74.0430
 ******    1 imaginary frequencies (negative Signs) ****** 
 Diagonal vibrational polarizability:
      140.5672492      42.9861422      53.7752872
 Harmonic frequencies (cm**-1), IR intensities (KM/Mole), Raman scattering
 activities (A**4/AMU), depolarization ratios for plane and unpolarized
 incident light, reduced masses (AMU), force constants (mDyne/A),
 and normal coordinates:
                      1                      2                      3
                      A                      A                      A
 Frequencies --   -360.0042                47.5084                73.8015
 Red. masses --      1.0889                 3.7993                 3.4146
 Frc consts  --      0.0831                 0.0051                 0.0110
 IR Inten    --     61.4453                 5.8127                21.3772
  Atom  AN      X      Y      Z        X      Y      Z        X      Y      Z
     1   6     0.00  -0.00  -0.00     0.06   0.06   0.04     0.02  -0.04  -0.03
     2   6    -0.00  -0.00   0.00    -0.13  -0.13   0.05     0.03   0.05   0.03
     3   6     0.04   0.01  -0.00    -0.05   0.04  -0.05     0.20  -0.06  -0.15
     4   6    -0.02   0.01  -0.01    -0.12  -0.19   0.10     0.07  -0.02   0.10
     5   7     0.03  -0.01  -0.01     0.03   0.02  -0.01     0.01  -0.05  -0.03
     6   1    -0.03   0.02   0.01    -0.22  -0.44   0.28     0.07  -0.13   0.13
     7   1    -0.54   0.19  -0.40    -0.06   0.05  -0.06     0.09  -0.16  -0.28
     8   1    -0.00  -0.00   0.01    -0.22  -0.30   0.16    -0.02   0.00  -0.02
     9   1    -0.17  -0.13   0.65    -0.07  -0.01  -0.09     0.21   0.02   0.00
    10   1     0.08  -0.00  -0.03     0.00   0.12   0.04     0.18  -0.04  -0.10
    11   1    -0.04   0.02  -0.05    -0.03  -0.01  -0.01     0.09   0.02   0.11
    12   9     0.00  -0.01  -0.00    -0.03   0.17  -0.16     0.01   0.20  -0.00
    13   6    -0.04  -0.00   0.02     0.16   0.05   0.09    -0.14  -0.04   0.04
    14   1    -0.07  -0.00   0.03     0.25   0.10   0.09    -0.09  -0.05   0.02
    15   1    -0.00   0.01   0.04     0.14   0.06   0.07    -0.25  -0.13  -0.02
    16   1    -0.03  -0.00  -0.03     0.17  -0.04   0.15    -0.19   0.04   0.16
    17   6     0.04   0.00  -0.01     0.07  -0.06  -0.01    -0.17  -0.08   0.04
    18   1     0.03  -0.02  -0.01    -0.02  -0.18  -0.00    -0.03   0.10   0.05
    19   1     0.07  -0.01  -0.03     0.22  -0.10  -0.01    -0.43  -0.02   0.19
    20   1     0.04   0.03  -0.01     0.03   0.05  -0.01    -0.18  -0.35  -0.06
                      4                      5                      6
                      A                      A                      A
 Frequencies --     81.0048               117.4179               128.5599
 Red. masses --      2.4435                 4.9849                 1.2155
 Frc consts  --      0.0094                 0.0405                 0.0118
 IR Inten    --      1.2809                 0.3504                 0.2885
  Atom  AN      X      Y      Z        X      Y      Z        X      Y      Z
     1   6    -0.11  -0.03   0.07    -0.13   0.04   0.07    -0.03  -0.00   0.03
     2   6     0.01   0.08  -0.10     0.18  -0.01  -0.05    -0.01   0.03  -0.02
     3   6     0.03  -0.04   0.02    -0.15   0.03   0.05     0.01  -0.00   0.03
     4   6     0.03  -0.02  -0.01     0.00  -0.09   0.01    -0.06   0.01  -0.01
     5   7     0.04  -0.04   0.01    -0.13   0.02   0.05     0.02  -0.00   0.02
     6   1     0.08  -0.01  -0.07    -0.09  -0.09   0.13    -0.06   0.04  -0.01
     7   1     0.17  -0.08   0.11    -0.16   0.04   0.04     0.02   0.00   0.04
     8   1     0.03   0.17  -0.24     0.25   0.06   0.02     0.02   0.08  -0.02
     9   1     0.08  -0.01  -0.15    -0.16   0.02   0.05     0.01  -0.00   0.00
    10   1    -0.21  -0.02   0.11    -0.15   0.06   0.07    -0.10  -0.02   0.06
    11   1     0.01  -0.10   0.12    -0.04  -0.15  -0.07    -0.08  -0.03   0.01
    12   9    -0.05   0.08  -0.03     0.31  -0.01  -0.19     0.01  -0.01  -0.03
    13   6    -0.14  -0.03   0.11    -0.08   0.04   0.07    -0.03   0.00   0.00
    14   1    -0.40  -0.02   0.23    -0.29   0.04   0.16     0.37  -0.01  -0.17
    15   1     0.07  -0.10   0.28     0.14   0.05   0.22    -0.41   0.05  -0.28
    16   1    -0.10   0.02  -0.15    -0.02   0.03  -0.19    -0.12  -0.03   0.46
    17   6     0.19  -0.03  -0.05    -0.09  -0.01   0.04     0.09  -0.02  -0.01
    18   1     0.08  -0.17  -0.07     0.08   0.18  -0.11     0.27   0.17  -0.17
    19   1     0.38  -0.07  -0.16    -0.34   0.05   0.15    -0.16   0.04   0.08
    20   1     0.20   0.17   0.03     0.03  -0.30   0.08     0.22  -0.29   0.04
                      7                      8                      9
                      A                      A                      A
 Frequencies --    144.9202               157.8480               184.5150
 Red. masses --      1.5121                 2.0103                 2.1423
 Frc consts  --      0.0187                 0.0295                 0.0430
 IR Inten    --      2.0709                12.3434                 3.4886
  Atom  AN      X      Y      Z        X      Y      Z        X      Y      Z
     1   6    -0.03   0.01  -0.01    -0.03   0.03  -0.00    -0.02  -0.04   0.02
     2   6     0.07  -0.03  -0.01     0.03  -0.03  -0.04    -0.05  -0.12   0.10
     3   6    -0.10   0.01  -0.01    -0.10   0.02  -0.00    -0.03  -0.02   0.05
     4   6     0.14  -0.04   0.01     0.16  -0.07   0.01     0.10   0.15  -0.13
     5   7    -0.03   0.00  -0.02    -0.06   0.01  -0.01     0.00  -0.02   0.02
     6   1     0.16  -0.07  -0.02     0.24  -0.11  -0.07     0.02  -0.01   0.01
     7   1    -0.12   0.06  -0.00    -0.18   0.06  -0.05     0.02  -0.02   0.10
     8   1     0.04  -0.05  -0.07    -0.02  -0.05  -0.18    -0.23  -0.50   0.41
     9   1    -0.13  -0.04   0.01    -0.14  -0.03   0.08    -0.02  -0.03  -0.04
    10   1    -0.05   0.03  -0.01    -0.06   0.04   0.00    -0.03  -0.05   0.02
    11   1     0.15  -0.03   0.04     0.19  -0.06   0.11     0.22   0.41  -0.36
    12   9     0.02   0.03   0.03    -0.09   0.05   0.08     0.02   0.07  -0.04
    13   6    -0.04   0.01   0.02     0.08   0.02  -0.02    -0.07  -0.03  -0.01
    14   1     0.28   0.03  -0.09    -0.01   0.03   0.02    -0.12  -0.06  -0.01
    15   1    -0.34   0.00  -0.19     0.20   0.08   0.05    -0.06  -0.05   0.00
    16   1    -0.11  -0.02   0.41     0.12  -0.03  -0.17    -0.08   0.02  -0.04
    17   6    -0.03  -0.01  -0.02     0.03  -0.04  -0.04     0.05  -0.00  -0.00
    18   1    -0.26  -0.27   0.12     0.29   0.23  -0.27     0.10   0.05  -0.05
    19   1     0.31  -0.09  -0.14    -0.32   0.04   0.12    -0.01   0.01  -0.01
    20   1    -0.16   0.35  -0.04     0.22  -0.46   0.02     0.10  -0.06   0.04
                     10                     11                     12
                      A                      A                      A
 Frequencies --    304.9854               331.4177               452.4529
 Red. masses --      2.5396                 2.6722                 2.6348
 Frc consts  --      0.1392                 0.1729                 0.3178
 IR Inten    --     23.6505                 4.9846                11.4391
  Atom  AN      X      Y      Z        X      Y      Z        X      Y      Z
     1   6     0.24   0.00  -0.09    -0.03  -0.03  -0.09    -0.05   0.08  -0.06
     2   6    -0.01   0.02  -0.01    -0.00  -0.00   0.01    -0.01   0.00   0.01
     3   6    -0.18   0.02   0.06     0.03  -0.08   0.09     0.09  -0.03   0.23
     4   6    -0.02  -0.02   0.02     0.00   0.01  -0.01     0.00   0.01  -0.00
     5   7     0.11   0.00  -0.04    -0.04  -0.03  -0.10     0.03   0.05  -0.11
     6   1    -0.01  -0.02   0.01    -0.00   0.00   0.00     0.02  -0.01  -0.01
     7   1    -0.03   0.19   0.26     0.05   0.00   0.14     0.18   0.17   0.39
     8   1     0.01   0.06  -0.04    -0.01  -0.02   0.02    -0.02  -0.01   0.03
     9   1    -0.22  -0.14  -0.15     0.05  -0.01   0.16     0.14   0.10   0.37
    10   1     0.36  -0.00  -0.14    -0.05   0.10  -0.13    -0.14   0.13  -0.05
    11   1    -0.01  -0.03   0.06    -0.00   0.01  -0.01     0.01   0.01   0.03
    12   9    -0.01  -0.01  -0.00     0.00   0.00  -0.00     0.00  -0.00  -0.01
    13   6    -0.12   0.00   0.05     0.08  -0.09   0.21    -0.01   0.09  -0.01
    14   1    -0.34  -0.01   0.13     0.18   0.17   0.34    -0.00   0.15   0.02
    15   1    -0.18  -0.33   0.10     0.06  -0.25   0.24     0.03   0.08   0.02
    16   1    -0.22   0.33   0.06     0.10  -0.23   0.33     0.01   0.03  -0.02
    17   6     0.01  -0.01  -0.00    -0.06   0.18  -0.14    -0.05  -0.19  -0.07
    18   1     0.08   0.08  -0.01     0.06   0.34  -0.09    -0.16  -0.34  -0.11
    19   1    -0.11   0.02   0.07    -0.22   0.23  -0.21     0.05  -0.25   0.19
    20   1     0.01  -0.15  -0.05    -0.01   0.12  -0.11    -0.16  -0.27  -0.21
                     13                     14                     15
                      A                      A                      A
 Frequencies --    486.6309               525.1556               569.8103
 Red. masses --      2.4201                 2.5070                 3.2129
 Frc consts  --      0.3377                 0.4074                 0.6146
 IR Inten    --      1.7699                 3.1417                13.0792
  Atom  AN      X      Y      Z        X      Y      Z        X      Y      Z
     1   6    -0.13  -0.02   0.07    -0.00   0.00   0.00    -0.07  -0.08  -0.16
     2   6    -0.02   0.01   0.00     0.17  -0.11  -0.04     0.01  -0.00  -0.00
     3   6    -0.06   0.02  -0.03    -0.00  -0.01   0.01     0.02   0.29   0.02
     4   6     0.02   0.01   0.01    -0.12  -0.07  -0.14    -0.01  -0.00  -0.01
     5   7     0.27  -0.02  -0.09     0.03  -0.00  -0.01     0.00   0.13   0.03
     6   1     0.05  -0.02  -0.02    -0.42   0.33   0.15    -0.02   0.01   0.01
     7   1    -0.07   0.23   0.06     0.03   0.02   0.05     0.00   0.18  -0.05
     8   1    -0.01   0.01   0.01     0.13  -0.14  -0.13     0.01  -0.01  -0.00
     9   1    -0.19  -0.24  -0.13     0.01  -0.02  -0.03     0.00   0.22  -0.09
    10   1    -0.45  -0.03   0.21    -0.04   0.01   0.02    -0.02  -0.25  -0.11
    11   1     0.03   0.02   0.06    -0.35  -0.30  -0.55    -0.01  -0.01  -0.02
    12   9    -0.00  -0.01  -0.01    -0.01   0.12   0.14     0.00   0.01   0.00
    13   6     0.01  -0.02  -0.01    -0.00   0.01  -0.00    -0.00  -0.23   0.00
    14   1     0.05  -0.04  -0.03    -0.01   0.00  -0.00     0.08   0.07   0.17
    15   1     0.08   0.13   0.00     0.00   0.01  -0.00     0.06  -0.41   0.10
    16   1     0.06  -0.16  -0.07    -0.00   0.02  -0.00     0.05  -0.47   0.10
    17   6    -0.05   0.04   0.04    -0.00  -0.00   0.00     0.03  -0.04   0.08
    18   1    -0.02   0.15   0.36    -0.00   0.01   0.04    -0.04  -0.18  -0.08
    19   1    -0.26   0.09   0.15    -0.02   0.00   0.02     0.13  -0.10   0.31
    20   1    -0.29  -0.06  -0.25    -0.03  -0.01  -0.03     0.01  -0.15   0.02
                     16                     17                     18
                      A                      A                      A
 Frequencies --    751.6295               804.8733               858.6559
 Red. masses --      1.4199                 3.2222                 1.1230
 Frc consts  --      0.4726                 1.2299                 0.4878
 IR Inten    --      8.5635                 3.9325                38.6794
  Atom  AN      X      Y      Z        X      Y      Z        X      Y      Z
     1   6     0.00   0.00  -0.00     0.07  -0.03   0.17    -0.04  -0.00   0.02
     2   6    -0.06  -0.13   0.11    -0.00  -0.00  -0.00     0.00  -0.00   0.00
     3   6    -0.00  -0.00  -0.01     0.05   0.26   0.08    -0.01   0.00   0.01
     4   6    -0.00  -0.00  -0.00    -0.00  -0.01   0.00    -0.00  -0.01   0.01
     5   7    -0.00   0.00   0.00    -0.01  -0.10   0.02     0.03  -0.01  -0.01
     6   1     0.29   0.62  -0.53     0.01   0.02  -0.02     0.01   0.03  -0.02
     7   1     0.00   0.00  -0.00    -0.00   0.12  -0.04     0.04   0.08   0.09
     8   1     0.12   0.25  -0.21     0.01   0.01  -0.01     0.01   0.01  -0.01
     9   1    -0.00   0.00   0.01     0.02   0.17  -0.08    -0.03  -0.09  -0.11
    10   1    -0.01  -0.01   0.00     0.04   0.04   0.17     0.64  -0.01  -0.25
    11   1    -0.11  -0.23   0.20     0.01   0.01  -0.01     0.01   0.02  -0.02
    12   9     0.02   0.05  -0.04     0.00   0.00   0.00    -0.00   0.00  -0.00
    13   6     0.00   0.00   0.00     0.02  -0.08   0.04    -0.08   0.01   0.03
    14   1    -0.01   0.00   0.01    -0.08  -0.52  -0.21     0.24   0.01  -0.09
    15   1    -0.00  -0.01   0.00    -0.08   0.17  -0.11     0.13   0.43   0.04
    16   1    -0.00   0.01   0.00    -0.03   0.22  -0.12     0.09  -0.41  -0.12
    17   6     0.00   0.00   0.00    -0.09  -0.06  -0.23    -0.01   0.00  -0.01
    18   1     0.00   0.00   0.00    -0.04   0.04  -0.12     0.01  -0.00  -0.08
    19   1     0.00   0.00   0.00    -0.18  -0.01  -0.44     0.02  -0.00  -0.03
    20   1     0.00   0.00   0.01    -0.08   0.04  -0.18     0.05   0.01   0.06
                     19                     20                     21
                      A                      A                      A
 Frequencies --    948.2673               958.6115               971.5077
 Red. masses --      1.9459                 1.4072                 1.7628
 Frc consts  --      1.0309                 0.7619                 0.9803
 IR Inten    --     45.6191                 7.7278                25.7664
  Atom  AN      X      Y      Z        X      Y      Z        X      Y      Z
     1   6    -0.00  -0.01  -0.01     0.01   0.00   0.01     0.02   0.06   0.07
     2   6     0.07   0.03   0.04    -0.03  -0.09   0.08     0.02   0.02  -0.01
     3   6     0.00   0.01   0.02    -0.01  -0.00  -0.02    -0.05  -0.08  -0.13
     4   6     0.12   0.01   0.14     0.06   0.10  -0.06     0.00  -0.01   0.02
     5   7    -0.00  -0.01  -0.00     0.00   0.01   0.00     0.01   0.11   0.01
     6   1    -0.21   0.67   0.43    -0.27  -0.38   0.49     0.01   0.13  -0.02
     7   1    -0.04  -0.04  -0.05     0.05   0.05   0.06     0.32   0.26   0.38
     8   1    -0.08  -0.14  -0.08     0.21   0.44  -0.41    -0.07  -0.15   0.11
     9   1     0.01  -0.01  -0.08    -0.00   0.03   0.07     0.02   0.22   0.52
    10   1    -0.02  -0.00  -0.00     0.02   0.00   0.00     0.03   0.14   0.04
    11   1    -0.09  -0.13  -0.42    -0.12  -0.23   0.12    -0.04  -0.07   0.02
    12   9    -0.10  -0.05  -0.11    -0.02  -0.00  -0.02    -0.01  -0.00  -0.01
    13   6     0.00   0.01   0.00    -0.00  -0.01   0.01     0.01  -0.13   0.02
    14   1    -0.00   0.02   0.01     0.00  -0.04  -0.02    -0.03  -0.38  -0.12
    15   1     0.00   0.01   0.00    -0.00   0.02  -0.01    -0.05   0.00  -0.07
    16   1    -0.00   0.02   0.01     0.00  -0.01  -0.02    -0.00  -0.03  -0.10
    17   6     0.00   0.00   0.00    -0.00   0.00  -0.00    -0.01   0.02  -0.02
    18   1    -0.00  -0.00   0.01    -0.00   0.00  -0.01    -0.03  -0.03  -0.11
    19   1    -0.00   0.00   0.01     0.01  -0.00  -0.00     0.06  -0.02   0.08
    20   1    -0.00  -0.01  -0.00     0.01   0.00   0.01     0.02  -0.03  -0.00
                     22                     23                     24
                      A                      A                      A
 Frequencies --   1016.4748              1031.9542              1037.9870
 Red. masses --      1.1588                 1.9863                 1.3490
 Frc consts  --      0.7054                 1.2463                 0.8564
 IR Inten    --     56.8784                 1.1490                28.7382
  Atom  AN      X      Y      Z        X      Y      Z        X      Y      Z
     1   6    -0.00   0.03   0.01    -0.03   0.00  -0.08    -0.02  -0.03  -0.02
     2   6    -0.02  -0.02   0.01     0.01   0.00  -0.00    -0.01  -0.01   0.00
     3   6     0.00  -0.04   0.02     0.02   0.05   0.03    -0.01   0.06  -0.06
     4   6    -0.02  -0.05   0.04     0.00   0.02  -0.01    -0.01  -0.03   0.02
     5   7    -0.00   0.03  -0.01    -0.06  -0.09  -0.14    -0.01  -0.08  -0.03
     6   1     0.03  -0.02  -0.05    -0.00  -0.02  -0.00     0.01   0.02  -0.02
     7   1    -0.08  -0.08  -0.08    -0.02   0.03  -0.02     0.26   0.24   0.28
     8   1     0.16   0.36  -0.29    -0.04  -0.10   0.09     0.07   0.16  -0.13
     9   1     0.02  -0.04  -0.11     0.01   0.03  -0.05     0.01   0.21   0.35
    10   1    -0.01   0.15  -0.03    -0.07   0.44  -0.23    -0.02  -0.01  -0.03
    11   1     0.26   0.54  -0.46    -0.08  -0.16   0.16     0.14   0.29  -0.25
    12   9     0.01  -0.00   0.01    -0.00   0.00  -0.00     0.00  -0.00   0.00
    13   6     0.01  -0.05   0.01     0.03  -0.03   0.09    -0.00   0.04  -0.02
    14   1    -0.04  -0.20  -0.07    -0.04  -0.49  -0.19     0.01   0.19   0.07
    15   1    -0.04   0.00  -0.04    -0.13   0.31  -0.13     0.03  -0.03   0.03
    16   1    -0.01   0.05  -0.04    -0.01   0.28  -0.18    -0.00  -0.00   0.05
    17   6     0.01   0.03  -0.00     0.06   0.03   0.16     0.01  -0.07   0.07
    18   1    -0.07  -0.08  -0.07     0.05   0.00   0.11     0.18   0.19   0.23
    19   1     0.06  -0.00   0.19     0.07   0.03   0.18    -0.12   0.02  -0.34
    20   1    -0.03  -0.08  -0.08     0.03   0.01   0.11     0.06   0.19   0.21
                     25                     26                     27
                      A                      A                      A
 Frequencies --   1094.1648              1124.8344              1131.9784
 Red. masses --      1.5199                 1.2784                 1.8873
 Frc consts  --      1.0721                 0.9530                 1.4249
 IR Inten    --      1.3567                 1.4178                27.9374
  Atom  AN      X      Y      Z        X      Y      Z        X      Y      Z
     1   6     0.15   0.00  -0.06    -0.07  -0.00   0.03     0.04   0.17   0.10
     2   6     0.01  -0.00   0.00    -0.01   0.00  -0.00    -0.02   0.00  -0.01
     3   6    -0.03   0.00   0.00    -0.04   0.00  -0.00     0.02  -0.01   0.05
     4   6    -0.00  -0.00   0.00     0.00   0.00  -0.00     0.01   0.00  -0.01
     5   7    -0.04   0.00   0.02    -0.03  -0.00   0.01    -0.02  -0.02  -0.06
     6   1     0.01  -0.02  -0.02    -0.01   0.01   0.01    -0.02   0.02   0.03
     7   1     0.01  -0.23  -0.07     0.03  -0.18  -0.03    -0.12  -0.06  -0.11
     8   1     0.01   0.01  -0.00    -0.01  -0.01   0.01    -0.03  -0.02   0.01
     9   1     0.09   0.25   0.10     0.07   0.23   0.10     0.02  -0.06  -0.16
    10   1    -0.46  -0.01   0.19     0.42  -0.01  -0.16     0.01   0.58  -0.03
    11   1     0.01   0.04  -0.01    -0.02  -0.04   0.01    -0.04  -0.09   0.03
    12   9    -0.00   0.00  -0.00     0.00  -0.00   0.00     0.01   0.00   0.00
    13   6    -0.11  -0.00   0.04     0.04   0.00  -0.02    -0.05  -0.10  -0.12
    14   1     0.24   0.01  -0.09    -0.09   0.02   0.04    -0.00   0.11   0.02
    15   1     0.12   0.36   0.09    -0.04  -0.13  -0.03     0.09  -0.41   0.07
    16   1     0.05  -0.38  -0.17    -0.02   0.12   0.07     0.00  -0.42   0.09
    17   6     0.06  -0.01  -0.02     0.11  -0.01  -0.04     0.01  -0.04   0.03
    18   1     0.01   0.00   0.26     0.01  -0.01   0.48     0.13   0.14   0.16
    19   1    -0.13   0.04   0.08    -0.23   0.07   0.18    -0.08   0.01  -0.17
    20   1    -0.15   0.01  -0.24    -0.28  -0.02  -0.47     0.02   0.14   0.11
                     28                     29                     30
                      A                      A                      A
 Frequencies --   1178.5773              1204.2968              1241.1684
 Red. masses --      3.0175                 1.8913                 1.3244
 Frc consts  --      2.4695                 1.6162                 1.2021
 IR Inten    --    117.3166                 2.9735                18.2952
  Atom  AN      X      Y      Z        X      Y      Z        X      Y      Z
     1   6    -0.01   0.01   0.02    -0.04   0.05  -0.10     0.03   0.00  -0.01
     2   6     0.31  -0.06   0.09     0.01  -0.00   0.00     0.00  -0.00  -0.00
     3   6    -0.00   0.00   0.00     0.01  -0.06   0.04     0.09  -0.01  -0.03
     4   6    -0.12   0.06   0.01    -0.00   0.00  -0.00    -0.00  -0.00   0.00
     5   7     0.00  -0.01  -0.01     0.03   0.16   0.04    -0.11   0.00   0.04
     6   1     0.17  -0.29  -0.26     0.01  -0.02  -0.01    -0.01   0.01   0.01
     7   1    -0.00  -0.02  -0.01    -0.16  -0.10  -0.14     0.05   0.60   0.22
     8   1     0.46   0.06   0.30     0.02   0.01   0.02     0.01   0.01   0.01
     9   1    -0.00   0.01  -0.00     0.02  -0.10  -0.19    -0.21  -0.59  -0.19
    10   1     0.04   0.07  -0.01     0.01  -0.17  -0.04    -0.08   0.01   0.03
    11   1     0.14   0.37   0.42     0.00   0.01   0.02     0.02   0.02   0.00
    12   9    -0.16  -0.00  -0.09    -0.01  -0.00  -0.00    -0.00  -0.00  -0.00
    13   6     0.00  -0.01  -0.02     0.03  -0.04   0.07    -0.01  -0.00   0.00
    14   1    -0.03   0.04   0.02    -0.02  -0.28  -0.06     0.01   0.00  -0.00
    15   1     0.02  -0.06   0.01    -0.13   0.11  -0.09     0.00   0.01   0.00
    16   1    -0.02  -0.01   0.06     0.03   0.13  -0.14     0.01  -0.03  -0.01
    17   6     0.00   0.01  -0.00    -0.00  -0.14  -0.00     0.06  -0.00  -0.02
    18   1    -0.01  -0.01   0.02     0.24   0.24   0.30    -0.03  -0.05   0.18
    19   1     0.01   0.00   0.02    -0.26  -0.01  -0.50    -0.16   0.04   0.09
    20   1     0.00  -0.02  -0.01    -0.00   0.30   0.15    -0.10   0.04  -0.18
                     31                     32                     33
                      A                      A                      A
 Frequencies --   1339.7319              1346.9704              1394.3407
 Red. masses --      1.1485                 1.3262                 1.2546
 Frc consts  --      1.2145                 1.4176                 1.4372
 IR Inten    --      1.6737                 4.8882                15.0174
  Atom  AN      X      Y      Z        X      Y      Z        X      Y      Z
     1   6     0.00   0.00   0.00    -0.01  -0.08  -0.04     0.01   0.04   0.03
     2   6    -0.05   0.04   0.02    -0.01   0.00  -0.00     0.01   0.02   0.03
     3   6     0.00  -0.00   0.00    -0.00   0.01  -0.01     0.00  -0.03   0.01
     4   6     0.06  -0.06  -0.04     0.00  -0.01  -0.00    -0.00   0.01   0.01
     5   7    -0.00  -0.00  -0.01     0.04   0.03   0.10    -0.03   0.01  -0.06
     6   1     0.06  -0.08  -0.05    -0.01   0.01   0.01     0.11  -0.14  -0.10
     7   1    -0.01   0.02   0.00     0.05  -0.09   0.00    -0.15   0.21  -0.02
     8   1     0.38   0.41   0.70     0.02   0.03   0.05    -0.07  -0.04  -0.08
     9   1     0.01   0.02  -0.01    -0.05  -0.08   0.04     0.12   0.17  -0.13
    10   1     0.01  -0.04   0.02    -0.11   0.69  -0.27     0.06  -0.33   0.15
    11   1    -0.10  -0.25  -0.31    -0.00  -0.02  -0.01    -0.10  -0.10  -0.15
    12   9    -0.03   0.01  -0.01    -0.00   0.00   0.00     0.00  -0.00  -0.00
    13   6     0.00   0.01   0.00    -0.01  -0.06  -0.03    -0.01  -0.10  -0.04
    14   1     0.00  -0.01  -0.01     0.05   0.26   0.15     0.01   0.15   0.12
    15   1    -0.01  -0.02   0.00     0.19   0.31   0.01     0.36   0.40   0.08
    16   1     0.01  -0.02  -0.01    -0.14   0.30   0.14    -0.21   0.34   0.33
    17   6     0.00   0.00   0.00    -0.01  -0.01  -0.02     0.00  -0.00   0.01
    18   1     0.00   0.00  -0.01    -0.03  -0.05  -0.06     0.04   0.05   0.06
    19   1     0.01  -0.00   0.01    -0.06   0.01  -0.13     0.03  -0.01   0.09
    20   1    -0.00   0.00  -0.00    -0.04  -0.03  -0.06     0.03   0.05   0.05
                     34                     35                     36
                      A                      A                      A
 Frequencies --   1412.9186              1428.6166              1438.9707
 Red. masses --      1.1859                 1.1756                 1.0930
 Frc consts  --      1.3949                 1.4136                 1.3334
 IR Inten    --      4.6742                 2.7285                19.5550
  Atom  AN      X      Y      Z        X      Y      Z        X      Y      Z
     1   6     0.00   0.03   0.01    -0.01  -0.01  -0.02     0.00  -0.04   0.02
     2   6    -0.03  -0.05  -0.08    -0.01  -0.01  -0.02    -0.01  -0.01  -0.02
     3   6     0.00   0.01   0.00    -0.00  -0.00   0.00    -0.00  -0.06   0.00
     4   6     0.01  -0.03  -0.03     0.00  -0.01  -0.01     0.00  -0.00  -0.01
     5   7    -0.01   0.00  -0.03     0.01  -0.01   0.02     0.01   0.00   0.01
     6   1    -0.31   0.41   0.30    -0.07   0.10   0.07    -0.07   0.10   0.08
     7   1     0.05  -0.11  -0.01    -0.06   0.08  -0.01    -0.33   0.50  -0.04
     8   1     0.18   0.13   0.24     0.04   0.03   0.06     0.04   0.02   0.05
     9   1    -0.06  -0.08   0.06     0.05   0.09  -0.04     0.30   0.46  -0.26
    10   1     0.03  -0.18   0.07    -0.03   0.09  -0.05    -0.01   0.10  -0.02
    11   1     0.29   0.27   0.44     0.07   0.06   0.10     0.07   0.07   0.14
    12   9     0.01   0.01   0.01     0.00   0.00   0.00     0.00   0.00   0.00
    13   6    -0.01  -0.04  -0.01     0.00   0.01  -0.00     0.00   0.01   0.01
    14   1     0.02   0.04   0.03    -0.06  -0.06  -0.03     0.07   0.13   0.06
    15   1     0.14   0.14   0.04     0.03   0.02   0.02    -0.14  -0.07  -0.07
    16   1    -0.08   0.13   0.11    -0.00  -0.02   0.07     0.05  -0.00  -0.19
    17   6     0.00  -0.00   0.02    -0.03   0.00  -0.11     0.01   0.01   0.03
    18   1     0.07   0.05  -0.09    -0.16  -0.00   0.56    -0.09  -0.14  -0.07
    19   1     0.03  -0.01  -0.00     0.00  -0.06   0.36    -0.09   0.06  -0.20
    20   1    -0.09   0.05  -0.06     0.47  -0.03   0.43    -0.03  -0.11  -0.06
                     37                     38                     39
                      A                      A                      A
 Frequencies --   1455.0239              1458.9616              1475.0473
 Red. masses --      1.0492                 1.1450                 1.0422
 Frc consts  --      1.3087                 1.4360                 1.3361
 IR Inten    --     28.9307                 7.9279                 1.1131
  Atom  AN      X      Y      Z        X      Y      Z        X      Y      Z
     1   6     0.01  -0.02  -0.00     0.01   0.06   0.02    -0.02  -0.01   0.01
     2   6    -0.00  -0.00  -0.00     0.00   0.00   0.00     0.00  -0.00   0.00
     3   6    -0.01  -0.00   0.00    -0.00   0.02   0.00    -0.00   0.00   0.00
     4   6     0.00  -0.00  -0.00     0.00  -0.00   0.00    -0.00   0.00   0.00
     5   7     0.01  -0.00  -0.00     0.00  -0.01  -0.03     0.01  -0.00  -0.01
     6   1    -0.01   0.01   0.01     0.01  -0.01  -0.01     0.01  -0.01  -0.01
     7   1    -0.03   0.02  -0.02     0.10  -0.18   0.01    -0.00  -0.01  -0.01
     8   1     0.00   0.00   0.00    -0.00   0.00  -0.00    -0.00  -0.00  -0.01
     9   1     0.04   0.07  -0.01    -0.09  -0.13   0.09     0.01   0.02   0.01
    10   1    -0.03   0.04  -0.01     0.03  -0.12   0.08     0.01   0.01  -0.01
    11   1     0.00   0.00   0.01    -0.01  -0.01  -0.02    -0.01  -0.00  -0.01
    12   9     0.00   0.00   0.00    -0.00  -0.00  -0.00    -0.00  -0.00  -0.00
    13   6     0.03   0.02  -0.01     0.01  -0.08   0.01    -0.04   0.01   0.01
    14   1    -0.45  -0.07   0.12     0.06   0.40   0.30     0.48  -0.04  -0.23
    15   1    -0.08   0.21  -0.14    -0.31   0.14  -0.28     0.18  -0.30   0.25
    16   1     0.05  -0.28   0.25     0.04   0.11  -0.38    -0.07   0.28  -0.16
    17   6     0.02  -0.02  -0.00     0.02   0.02   0.00     0.02  -0.02  -0.01
    18   1    -0.02  -0.14  -0.31    -0.23  -0.29   0.05    -0.06  -0.15  -0.20
    19   1    -0.38   0.07   0.24    -0.27   0.11  -0.06    -0.36   0.07   0.23
    20   1    -0.04   0.46   0.09     0.17  -0.04   0.15     0.02   0.38   0.13
                     40                     41                     42
                      A                      A                      A
 Frequencies --   1479.7949              1748.0576              1806.5430
 Red. masses --      1.0706                 4.8757                 7.7028
 Frc consts  --      1.3813                 8.7781                14.8113
 IR Inten    --     12.0012               100.5714                31.8591
  Atom  AN      X      Y      Z        X      Y      Z        X      Y      Z
     1   6     0.01  -0.02   0.02    -0.00   0.01  -0.00    -0.12   0.46  -0.30
     2   6     0.00  -0.00  -0.00     0.04   0.27   0.34    -0.00  -0.01  -0.01
     3   6     0.00  -0.00  -0.00    -0.00  -0.00  -0.00    -0.01  -0.00  -0.03
     4   6    -0.00   0.00   0.00     0.02  -0.26  -0.29     0.00   0.01   0.01
     5   7    -0.01  -0.01   0.01     0.00  -0.01   0.00     0.12  -0.36   0.32
     6   1     0.00  -0.00  -0.00    -0.37   0.17  -0.00     0.01  -0.01  -0.00
     7   1    -0.04   0.07  -0.00    -0.01   0.01  -0.00    -0.06   0.27   0.10
     8   1     0.00  -0.00  -0.00    -0.42  -0.00  -0.23     0.01   0.00   0.01
     9   1     0.03   0.04  -0.04     0.01   0.01  -0.00     0.15   0.25  -0.02
    10   1     0.00   0.06  -0.01     0.00  -0.01   0.00    -0.06  -0.27  -0.11
    11   1    -0.00   0.00   0.00     0.43   0.03   0.26    -0.02  -0.01  -0.02
    12   9    -0.00  -0.00  -0.00    -0.02  -0.02  -0.03     0.00   0.00   0.00
    13   6     0.00  -0.02   0.01     0.00  -0.00   0.00     0.01  -0.08   0.01
    14   1     0.09   0.26   0.15     0.01  -0.00  -0.00    -0.01  -0.19  -0.04
    15   1    -0.23   0.02  -0.17    -0.01  -0.02  -0.00     0.03   0.05  -0.00
    16   1     0.04   0.07  -0.31     0.00   0.00  -0.01    -0.03   0.06   0.01
    17   6    -0.04  -0.04  -0.04     0.00  -0.00   0.00    -0.02   0.03  -0.04
    18   1     0.32   0.42  -0.06     0.01   0.00  -0.02    -0.01  -0.04  -0.26
    19   1     0.30  -0.17   0.43    -0.00   0.00   0.00     0.04  -0.01   0.15
    20   1    -0.14   0.31  -0.05    -0.02   0.01  -0.01    -0.13   0.01  -0.14
                     43                     44                     45
                      A                      A                      A
 Frequencies --   2970.8734              3016.5456              3064.7202
 Red. masses --      1.0567                 1.0999                 1.0391
 Frc consts  --      5.4952                 5.8969                 5.7505
 IR Inten    --     72.1163               109.5321                 1.4862
  Atom  AN      X      Y      Z        X      Y      Z        X      Y      Z
     1   6     0.00  -0.00   0.00    -0.00  -0.00   0.00     0.00   0.00   0.00
     2   6    -0.00   0.00   0.00    -0.00   0.00   0.00    -0.00   0.00   0.00
     3   6    -0.00   0.05  -0.05    -0.09   0.01   0.03     0.00  -0.00   0.00
     4   6     0.00  -0.00  -0.00     0.00  -0.00  -0.00     0.00  -0.00  -0.00
     5   7    -0.00   0.00  -0.00    -0.00   0.00  -0.00    -0.00   0.00  -0.00
     6   1     0.00   0.00   0.00     0.00   0.00   0.00     0.00   0.00   0.00
     7   1    -0.49  -0.25   0.54     0.37   0.22  -0.46     0.00   0.00  -0.00
     8   1     0.00   0.00   0.00     0.00  -0.00   0.00     0.00  -0.00  -0.00
     9   1     0.56  -0.29   0.07     0.67  -0.37   0.13    -0.00   0.00  -0.00
    10   1     0.00  -0.00  -0.00    -0.00  -0.00   0.00     0.00  -0.00   0.00
    11   1    -0.02   0.01   0.00    -0.02   0.01   0.01    -0.00   0.00   0.00
    12   9     0.00  -0.00   0.00     0.00   0.00   0.00     0.00   0.00  -0.00
    13   6    -0.00   0.00  -0.00     0.00   0.00  -0.00    -0.01  -0.05  -0.02
    14   1     0.00   0.00   0.00    -0.00   0.00   0.00    -0.14   0.22  -0.34
    15   1    -0.00   0.00   0.00     0.00  -0.00  -0.00    -0.35   0.14   0.48
    16   1     0.00   0.00  -0.00     0.00   0.00   0.00     0.63   0.18   0.13
    17   6     0.00  -0.00   0.00     0.00  -0.00  -0.00     0.00   0.00  -0.00
    18   1    -0.01   0.01  -0.00    -0.01   0.01   0.00     0.00   0.00   0.00
    19   1    -0.00  -0.01   0.00     0.00  -0.00  -0.00    -0.00  -0.01  -0.00
    20   1     0.01   0.00  -0.01    -0.00  -0.00   0.00    -0.00  -0.00   0.00
                     46                     47                     48
                      A                      A                      A
 Frequencies --   3075.1849              3103.4371              3155.6898
 Red. masses --      1.0332                 1.0748                 1.1024
 Frc consts  --      5.7568                 6.0992                 6.4679
 IR Inten    --     20.4413               110.0552                 0.4134
  Atom  AN      X      Y      Z        X      Y      Z        X      Y      Z
     1   6     0.00  -0.00   0.00    -0.00  -0.00  -0.00    -0.00   0.00   0.00
     2   6    -0.00   0.00   0.00    -0.00  -0.00  -0.01     0.00  -0.00   0.00
     3   6    -0.00   0.00  -0.00    -0.00   0.00  -0.00    -0.00   0.00   0.00
     4   6     0.00  -0.00  -0.00    -0.04   0.05   0.04     0.00  -0.00  -0.00
     5   7    -0.00   0.00  -0.00    -0.00  -0.00  -0.00     0.00  -0.00  -0.00
     6   1     0.01   0.00   0.00    -0.31  -0.06  -0.24     0.00   0.00   0.00
     7   1    -0.01  -0.01   0.01    -0.01   0.00  -0.00    -0.00  -0.00  -0.00
     8   1    -0.00   0.00   0.00     0.05  -0.04  -0.02    -0.00   0.00   0.00
     9   1     0.01  -0.01   0.00     0.03  -0.01   0.01    -0.00   0.00   0.00
    10   1     0.00   0.00   0.01     0.00  -0.00   0.00    -0.01  -0.00  -0.00
    11   1    -0.01   0.01   0.00     0.76  -0.48  -0.14    -0.00   0.00   0.00
    12   9     0.00  -0.00   0.00    -0.00   0.00  -0.00    -0.00  -0.00   0.00
    13   6     0.00  -0.00   0.00    -0.00  -0.00  -0.00    -0.09   0.00   0.03
    14   1    -0.00   0.00  -0.00     0.00   0.00   0.00     0.01  -0.04   0.07
    15   1    -0.00   0.00   0.00     0.00   0.00  -0.00     0.39  -0.17  -0.57
    16   1    -0.00  -0.00   0.00     0.01   0.00   0.00     0.65   0.19   0.15
    17   6    -0.01  -0.01  -0.04     0.00   0.00  -0.00    -0.00  -0.00   0.00
    18   1     0.41  -0.32   0.08     0.01  -0.01   0.00     0.01  -0.01   0.00
    19   1     0.17   0.58   0.06     0.00   0.00   0.00     0.00   0.02   0.00
    20   1    -0.42  -0.13   0.39    -0.01  -0.00   0.01     0.02   0.00  -0.01
                     49                     50                     51
                      A                      A                      A
 Frequencies --   3187.0478              3194.5146              3195.9748
 Red. masses --      1.1068                 1.1057                 1.1051
 Frc consts  --      6.6235                 6.6482                 6.6506
 IR Inten    --     13.6104                 7.1776                 4.4900
  Atom  AN      X      Y      Z        X      Y      Z        X      Y      Z
     1   6    -0.00   0.00   0.00     0.00   0.00   0.01    -0.00  -0.00  -0.01
     2   6    -0.00   0.00   0.00     0.00  -0.00   0.00     0.00   0.00   0.00
     3   6    -0.00  -0.00  -0.00    -0.00   0.00   0.00     0.00  -0.00   0.00
     4   6     0.00   0.00   0.00     0.00  -0.00  -0.00    -0.00  -0.00  -0.00
     5   7     0.00  -0.00   0.00    -0.00   0.00  -0.00    -0.00   0.00  -0.00
     6   1    -0.01  -0.00  -0.00     0.00   0.00   0.00     0.00   0.00   0.00
     7   1     0.01   0.00  -0.00     0.00   0.00  -0.00    -0.00  -0.00   0.00
     8   1     0.01  -0.00  -0.00    -0.00   0.00   0.00     0.00  -0.00  -0.00
     9   1     0.00  -0.00   0.00     0.00  -0.00  -0.00     0.00  -0.00  -0.00
    10   1    -0.01  -0.00  -0.01    -0.04  -0.03  -0.09     0.05   0.05   0.14
    11   1     0.01  -0.00  -0.00    -0.00   0.00   0.00    -0.00   0.00   0.00
    12   9    -0.00   0.00  -0.00    -0.00   0.00  -0.00    -0.00  -0.00  -0.00
    13   6     0.01  -0.00   0.01    -0.02   0.02  -0.06     0.02  -0.02   0.05
    14   1    -0.04   0.07  -0.11     0.21  -0.34   0.52    -0.19   0.30  -0.45
    15   1     0.01  -0.01  -0.02    -0.15   0.06   0.20     0.13  -0.05  -0.17
    16   1    -0.05  -0.01  -0.01     0.17   0.05   0.03    -0.16  -0.05  -0.03
    17   6    -0.07  -0.05   0.03    -0.04   0.05   0.01    -0.03   0.06   0.00
    18   1     0.12  -0.11   0.03     0.44  -0.34   0.08     0.47  -0.37   0.09
    19   1     0.16   0.57   0.06    -0.08  -0.26  -0.02    -0.12  -0.41  -0.04
    20   1     0.55   0.17  -0.51     0.16   0.06  -0.15     0.06   0.03  -0.06
                     52                     53                     54
                      A                      A                      A
 Frequencies --   3222.9630              3223.2908              3267.5779
 Red. masses --      1.0924                 1.0979                 1.1125
 Frc consts  --      6.6853                 6.7206                 6.9981
 IR Inten    --      1.3482                21.3027                 9.5261
  Atom  AN      X      Y      Z        X      Y      Z        X      Y      Z
     1   6    -0.03  -0.02  -0.07    -0.01  -0.01  -0.02     0.00   0.00   0.00
     2   6     0.02  -0.01  -0.01    -0.06   0.05   0.02    -0.02   0.01   0.01
     3   6    -0.00  -0.00  -0.00     0.00  -0.00   0.00     0.00   0.00  -0.00
     4   6    -0.01   0.00  -0.00     0.02  -0.01   0.00    -0.08   0.00  -0.04
     5   7     0.00  -0.00   0.00     0.00  -0.00   0.00    -0.00  -0.00  -0.00
     6   1     0.04   0.01   0.03    -0.14  -0.02  -0.10     0.71   0.13   0.54
     7   1    -0.00   0.00   0.00     0.00  -0.00   0.00    -0.00  -0.00  -0.00
     8   1    -0.20   0.14   0.05     0.76  -0.52  -0.20     0.17  -0.12  -0.05
     9   1     0.00   0.00   0.00    -0.00   0.00  -0.00     0.00  -0.00   0.00
    10   1     0.34   0.30   0.83     0.09   0.08   0.22    -0.00  -0.00  -0.01
    11   1     0.03  -0.02  -0.01    -0.10   0.06   0.02     0.30  -0.19  -0.06
    12   9     0.00   0.00   0.00    -0.00  -0.00  -0.00     0.00   0.00   0.00
    13   6    -0.00   0.01  -0.01    -0.00   0.00  -0.00     0.00  -0.00   0.00
    14   1     0.05  -0.08   0.12     0.01  -0.02   0.03    -0.00   0.00  -0.00
    15   1    -0.03   0.02   0.04    -0.01   0.00   0.01    -0.00   0.00   0.00
    16   1     0.04   0.02   0.01     0.01   0.00   0.00    -0.00  -0.00  -0.00
    17   6     0.00  -0.01   0.00     0.00  -0.00   0.00     0.00  -0.00  -0.00
    18   1    -0.03   0.02  -0.00    -0.01   0.01  -0.00    -0.00   0.00  -0.00
    19   1     0.01   0.04   0.00     0.00   0.01   0.00     0.00   0.00   0.00
    20   1     0.02   0.00  -0.01     0.00   0.00  -0.00     0.00  -0.00  -0.00

 -------------------
 - Thermochemistry -
 -------------------
 Temperature   298.150 Kelvin.  Pressure   1.00000 Atm.
 Atom     1 has atomic number  6 and mass  12.00000
 Atom     2 has atomic number  6 and mass  12.00000
 Atom     3 has atomic number  6 and mass  12.00000
 Atom     4 has atomic number  6 and mass  12.00000
 Atom     5 has atomic number  7 and mass  14.00307
 Atom     6 has atomic number  1 and mass   1.00783
 Atom     7 has atomic number  1 and mass   1.00783
 Atom     8 has atomic number  1 and mass   1.00783
 Atom     9 has atomic number  1 and mass   1.00783
 Atom    10 has atomic number  1 and mass   1.00783
 Atom    11 has atomic number  1 and mass   1.00783
 Atom    12 has atomic number  9 and mass  18.99840
 Atom    13 has atomic number  6 and mass  12.00000
 Atom    14 has atomic number  1 and mass   1.00783
 Atom    15 has atomic number  1 and mass   1.00783
 Atom    16 has atomic number  1 and mass   1.00783
 Atom    17 has atomic number  6 and mass  12.00000
 Atom    18 has atomic number  1 and mass   1.00783
 Atom    19 has atomic number  1 and mass   1.00783
 Atom    20 has atomic number  1 and mass   1.00783
 Molecular mass:   117.09538 amu.
 Principal axes and moments of inertia in atomic units:
                           1         2         3
     Eigenvalues --   782.095661390.533421575.77922
           X            0.99876   0.02158   0.04489
           Y           -0.01898   0.99816  -0.05755
           Z           -0.04605   0.05663   0.99733
 This molecule is an asymmetric top.
 Rotational symmetry number  1.
 Warning -- assumption of classical behavior for rotation
           may cause significant error
 Rotational temperatures (Kelvin)      0.11075     0.06229     0.05497
 Rotational constants (GHZ):           2.30757     1.29788     1.14530
    1 imaginary frequencies ignored.
 Zero-point vibrational energy     445153.2 (Joules/Mol)
                                  106.39417 (Kcal/Mol)
 Warning -- explicit consideration of  14 degrees of freedom as
           vibrations may cause significant error
 Vibrational temperatures:     68.35   106.18   116.55   168.94   184.97
          (Kelvin)            208.51   227.11   265.48   438.81   476.84
                              650.98   700.15   755.58   819.83  1081.43
                             1158.03  1235.41  1364.35  1379.23  1397.78
                             1462.48  1484.75  1493.43  1574.26  1618.39
                             1628.66  1695.71  1732.71  1785.76  1927.58
                             1937.99  2006.15  2032.87  2055.46  2070.36
                             2093.45  2099.12  2122.26  2129.09  2515.06
                             2599.21  4274.42  4340.14  4409.45  4424.51
                             4465.15  4540.33  4585.45  4596.19  4598.29
                             4637.12  4637.60  4701.32
 
 Zero-point correction=                           0.169550 (Hartree/Particle)
 Thermal correction to Energy=                    0.180359
 Thermal correction to Enthalpy=                  0.181304
 Thermal correction to Gibbs Free Energy=         0.132578
 Sum of electronic and zero-point Energies=           -389.729938
 Sum of electronic and thermal Energies=              -389.719128
 Sum of electronic and thermal Enthalpies=            -389.718184
 Sum of electronic and thermal Free Energies=         -389.766909
 
                     E (Thermal)             CV                S
                      KCal/Mol        Cal/Mol-Kelvin    Cal/Mol-Kelvin
 Total                  113.177             36.288            102.551
 Electronic               0.000              0.000              0.000
 Translational            0.889              2.981             40.188
 Rotational               0.889              2.981             28.929
 Vibrational            111.400             30.326             33.434
 Vibration     1          0.595              1.979              4.918
 Vibration     2          0.599              1.966              4.049
 Vibration     3          0.600              1.962              3.866
 Vibration     4          0.608              1.935              3.142
 Vibration     5          0.611              1.925              2.967
 Vibration     6          0.616              1.908              2.738
 Vibration     7          0.621              1.894              2.575
 Vibration     8          0.631              1.861              2.282
 Vibration     9          0.696              1.664              1.389
 Vibration    10          0.714              1.613              1.253
 Vibration    11          0.811              1.355              0.788
 Vibration    12          0.843              1.280              0.692
 Vibration    13          0.880              1.194              0.598
 Vibration    14          0.926              1.097              0.505
                       Q            Log10(Q)             Ln(Q)
 Total Bot       0.104298D-60        -60.981724       -140.415609
 Total V=0       0.101333D+18         17.005751         39.157188
 Vib (Bot)       0.446887D-74        -74.349802       -171.196745
 Vib (Bot)    1  0.435232D+01          0.638721          1.470709
 Vib (Bot)    2  0.279308D+01          0.446083          1.027145
 Vib (Bot)    3  0.254196D+01          0.405169          0.932937
 Vib (Bot)    4  0.174146D+01          0.240913          0.554722
 Vib (Bot)    5  0.158633D+01          0.200393          0.461422
 Vib (Bot)    6  0.140119D+01          0.146498          0.337324
 Vib (Bot)    7  0.128160D+01          0.107753          0.248110
 Vib (Bot)    8  0.108682D+01          0.036156          0.083253
 Vib (Bot)    9  0.621799D+00         -0.206350         -0.475139
 Vib (Bot)   10  0.563286D+00         -0.249271         -0.573968
 Vib (Bot)   11  0.378261D+00         -0.422209         -0.972171
 Vib (Bot)   12  0.341722D+00         -0.466327         -1.073758
 Vib (Bot)   13  0.305908D+00         -0.514409         -1.184471
 Vib (Bot)   14  0.270149D+00         -0.568396         -1.308780
 Vib (V=0)       0.434183D+04          3.637673          8.376052
 Vib (V=0)    1  0.488094D+01          0.688504          1.585339
 Vib (V=0)    2  0.333748D+01          0.523419          1.205216
 Vib (V=0)    3  0.309067D+01          0.490053          1.128388
 Vib (V=0)    4  0.231181D+01          0.363953          0.838033
 Vib (V=0)    5  0.216326D+01          0.335109          0.771617
 Vib (V=0)    6  0.198773D+01          0.298358          0.686994
 Vib (V=0)    7  0.187568D+01          0.273159          0.628973
 Vib (V=0)    8  0.169632D+01          0.229507          0.528459
 Vib (V=0)    9  0.129789D+01          0.113239          0.260742
 Vib (V=0)   10  0.125319D+01          0.098016          0.225690
 Vib (V=0)   11  0.112696D+01          0.051909          0.119525
 Vib (V=0)   12  0.110562D+01          0.043605          0.100405
 Vib (V=0)   13  0.108616D+01          0.035892          0.082645
[...]
 25528278,0.00000569,-0.00012093,0.00008054,0.13680972,-0.14359666,0.04
 478048,0.00046141,-0.00015409,0.00017865,0.01663470,-0.00196706,0.0034
 2947,0.00010473,-0.00012939,0.00001310,-0.00157075,-0.00282651,-0.0027
 4852,-0.00004183,-0.00001958,-0.00006074,-0.14413019,0.13568315,-0.000
 04657,0.00006289,-0.00013325,-0.05557934,0.04548386,-0.06460691,-0.000
 49457,0.00021290,-0.00013074,-0.01801740,0.01338234,0.00299651,0.00017
 286,0.00012362,-0.00000940,-0.00123834,-0.00290277,-0.00181206,0.00010
 523,-0.00000585,-0.00023255,0.04215220,-0.05272339,0.06212236,-0.00000
 212,-0.00025854,-0.00084314,-0.00050086,-0.00031778,0.00061330,-0.2394
 7660,0.10802734,0.02827329,-0.00039510,0.00028470,0.00033375,0.0053527
 7,-0.00763346,0.00438360,-0.00029955,0.00024876,-0.00008199,-0.0199817
 5,0.01008355,0.00483366,-0.00002199,0.00009569,-0.00017174,0.25303015,
 -0.00114738,-0.00234775,0.00360579,-0.00050087,-0.00013015,0.00037551,
 0.08656554,-0.08685780,-0.01587507,-0.00039687,0.00039442,0.00008277,0
 .03326741,-0.03073547,-0.00667623,-0.00010483,0.00009482,-0.00002580,-
 0.00920637,0.00592169,0.00131096,0.00000579,0.00002618,-0.00009368,-0.
 10892686,0.11499197,-0.00082042,-0.00044123,0.00146840,0.00085007,0.00
 024662,-0.00087494,0.06408502,-0.03581554,-0.02734658,0.00125019,-0.00
 098568,0.00046826,-0.00516904,0.00484918,-0.00504450,0.00024971,-0.000
 18228,0.00006218,-0.02246681,0.01078140,0.00195546,-0.00000610,-0.0001
 4802,0.00021083,-0.03540510,0.02040155,0.02696492,-0.08500601,-0.03269
 861,0.09053480,0.00001469,0.00003475,-0.00014354,-0.00765223,-0.001905
 56,-0.00292864,-0.00037457,-0.00004906,0.00008809,0.00217100,-0.000512
 73,0.01489100,-0.00003851,-0.00006155,-0.00004854,0.00109111,-0.001499
 71,-0.00168481,0.00000134,-0.00002062,0.00000213,0.00020468,0.00102491
 ,0.00106919,0.07202824,-0.03760264,-0.08217048,0.09606816,0.00016877,-
 0.00009338,-0.00005480,0.00113050,0.00018391,-0.00163109,-0.00005942,-
 0.00004686,-0.00005259,0.01119244,0.00722390,-0.02791156,0.00005312,-0
 .00004107,0.00001388,-0.00012691,-0.00074058,0.00035200,0.00000089,-0.
 00002360,0.00005235,-0.00023872,-0.00062137,0.00060336,0.03461370,0.08
 909966,0.09059779,0.08106485,-0.27500635,0.00000946,0.00013547,-0.0002
 2994,-0.00255769,0.00462576,-0.00120795,-0.00001463,0.00023599,0.00015
 482,0.01280475,0.00343119,-0.02367755,0.00011329,-0.00003781,0.0000270
 9,0.00034546,-0.00047185,-0.00001584,-0.00000429,-0.00004329,0.0000141
 4,-0.00032964,0.00055025,0.00091147,-0.10675737,-0.08473942,0.29221109
 ,-0.00103567,-0.00076616,-0.00034615,0.00752537,0.00002416,0.00100744,
 0.00281119,-0.00230451,0.00294129,-0.24860758,0.12871604,-0.03361526,-
 0.00187902,-0.00107711,0.00105514,-0.00781709,0.00910535,-0.00524182,-
 0.00207193,0.00036020,0.00159999,0.00174355,0.00116144,0.00316414,0.00
 106621,0.00050324,-0.00274589,-0.00056248,-0.00093883,-0.00036738,0.25
 109740,-0.00136647,-0.00128111,0.00048787,0.01660367,-0.00239955,0.004
 87496,-0.00116948,-0.00057342,-0.00134295,0.12660131,-0.12642466,0.032
 17185,-0.00076709,0.00030935,0.00074630,-0.00672543,0.00584732,-0.0008
 5704,0.00126609,-0.00026798,-0.00136071,0.00172091,0.00405576,0.005864
 00,-0.00034806,-0.00042192,0.00093474,-0.00070115,-0.00020224,-0.00032
 255,-0.13336781,0.12501496,-0.00031091,0.00006591,0.00069186,-0.017783
 59,0.01425907,0.00262528,0.00149745,0.00036916,0.00014236,-0.03046289,
 0.03059296,-0.05668718,0.00054889,-0.00022509,-0.00092072,0.01322846,-
 0.00969919,0.00578836,0.00094669,-0.00044775,-0.00164256,0.00238827,0.
 00616447,0.00127223,-0.00061958,-0.00020139,-0.00050600,-0.00048896,-0
 .00060880,-0.00032604,0.03310689,-0.03477455,0.05071641,-0.00087768,0.
 00001125,0.00227294,-0.21904096,-0.02149151,0.12185912,0.00178898,-0.0
 0114498,0.00034250,-0.00065043,-0.01060127,0.01853238,-0.00310455,-0.0
 0054733,-0.00203834,0.00331138,0.00285153,0.00215822,-0.00024962,-0.00
 024261,0.00046688,-0.02938514,-0.00939726,0.03011415,0.00035398,0.0004
 2990,-0.00050566,-0.00001122,-0.00008207,-0.00000266,-0.00286235,-0.00
 132708,-0.00226167,0.25228316,0.00031121,-0.00121412,0.00062455,-0.020
 06501,-0.06858466,0.04202126,0.00042347,-0.00011392,-0.00005432,-0.031
 47920,0.00153041,0.02591523,0.00049016,-0.00030483,0.00040901,0.004014
 99,0.00404542,0.00895464,-0.00017718,0.00038478,0.00047498,0.00962973,
 0.00897738,-0.00922712,0.00029923,0.00015076,-0.00022678,-0.00001308,0
 .00002543,-0.00006227,-0.00275444,-0.00277181,-0.00581643,0.03948596,0
 .05785349,-0.00104774,0.00057873,-0.00150687,0.12306319,0.04338113,-0.
 16066346,-0.00160016,0.00033732,-0.00016037,0.04172372,0.01392985,-0.0
 3130562,-0.00180521,0.00098031,-0.00122834,0.00093149,0.00952739,0.001
 96497,0.00044225,0.00009790,-0.00023832,0.00747326,0.00107917,0.000080
 64,-0.00039054,-0.00017195,0.00053363,0.00029576,0.00009344,0.00018456
 ,-0.00036766,-0.00647048,-0.00099890,-0.16748194,-0.06187800,0.1936835
 4,-0.08291929,-0.00895913,0.01146943,0.00028277,0.00024012,-0.00018737
 ,0.01023797,-0.00043549,0.00362748,0.00003533,-0.00016839,-0.00000240,
 0.01100586,0.00778662,-0.00393933,0.00000070,0.00000792,0.00000681,-0.
 00180473,0.00277928,0.00214389,0.00001852,0.00000902,0.00005107,-0.000
 12598,-0.00183805,-0.00209224,0.01072111,-0.00751788,0.00354494,-0.000
 12300,0.00016898,0.00005654,-0.00041770,-0.00055726,-0.00028289,0.5570
 7344,-0.01385695,-0.24169980,0.03547637,0.00025490,-0.00000636,-0.0002
 3940,0.00097697,0.00154912,-0.00085605,-0.00006946,-0.00001284,0.00004
 574,0.00135171,-0.03037899,-0.00250972,0.00000270,0.00003107,0.0000224
 1,0.00009867,-0.00102100,-0.00047052,-0.00003970,0.00000434,0.00000156
 ,0.00005571,-0.00118386,-0.00056387,0.00132212,-0.00485911,-0.00171679
 ,0.00023390,-0.00006154,-0.00001964,-0.00047212,-0.00037912,0.00020077
 ,-0.00627739,0.52599033,0.01113238,0.03106518,-0.10191530,-0.00042290,
 -0.00012801,0.00011590,0.00506754,0.00245651,0.00123155,-0.00005977,-0
 .00008782,-0.00014922,-0.00256637,-0.02425373,0.01150388,0.00004455,0.
 00001270,0.00001555,-0.00074006,0.00081481,0.00128974,0.00001082,-0.00
 002585,0.00001591,-0.00048496,-0.00125992,-0.00078230,0.00287204,0.017
 50429,0.00437003,-0.00027719,0.00005171,0.00001023,0.00005774,0.000145
 85,0.00013895,-0.01617822,0.02943341,0.58912003,-0.00145994,-0.0028572
 2,-0.00319528,0.00020549,0.00010896,-0.00021254,0.00049864,-0.00001762
 ,0.00005587,0.00002207,0.00000663,0.00014684,0.00096305,-0.00092369,0.
 00050835,-0.00000463,-0.00000890,0.00000541,0.00000288,0.00014404,-0.0
 0006859,-0.00004266,-0.00001224,-0.00001194,-0.00004504,-0.00013861,0.
 00009347,0.00005540,-0.00016228,-0.00033860,0.00001669,-0.00001882,-0.
 00002376,-0.00027021,-0.00007911,0.00012547,-0.07732427,0.04920337,0.0
 7493033,0.07698936,0.01192456,-0.01501136,-0.02889028,0.00008850,0.000
 06220,-0.00008419,0.00027876,0.00047954,-0.00051893,0.00000711,0.00002
 122,0.00009101,-0.00113580,-0.00630326,0.00245173,-0.00002835,-0.00000
 113,-0.00001076,-0.00003681,-0.00033915,-0.00003316,-0.00001737,0.0000
 0054,-0.00001229,-0.00001755,-0.00038725,0.00004393,-0.00004486,0.0007
 3210,0.00016633,0.00008933,-0.00004264,-0.00003778,-0.00009395,0.00002
 507,0.00002360,0.04683669,-0.12189406,-0.11416894,-0.05093363,0.133730
 20,-0.00411277,0.00756082,0.00703251,0.00025169,0.00006411,-0.00026603
 ,0.00011946,-0.00003966,0.00025830,-0.00002742,-0.00000579,0.00009981,
 0.00046757,0.00233694,0.00027949,-0.00000393,-0.00000468,0.00001013,0.
 00004944,0.00009317,-0.00005544,-0.00005064,-0.00000840,-0.00000207,-0
 .00003937,-0.00002289,0.00000106,-0.00033462,0.00036082,0.00059717,0.0
 0002031,-0.00001644,-0.00000903,-0.00035825,-0.00011633,0.00013185,0.0
 7523135,-0.12008129,-0.23119579,-0.08064650,0.12416408,0.24158461,0.00
 060379,-0.00110585,0.00407421,-0.00111436,-0.00037226,0.00068852,-0.00
 019432,0.00011321,0.00016450,0.00020242,0.00016041,-0.00014645,0.00097
 644,0.00028419,-0.00027369,-0.00000660,0.00002823,-0.00003364,0.000026
 02,0.00001586,-0.00010138,0.00003698,-0.00001072,-0.00002538,-0.000056
 68,0.00004594,-0.00004448,-0.00124702,-0.00073105,-0.00013109,0.000068
 26,-0.00005018,0.00000337,-0.00021037,-0.00011023,-0.00102880,-0.13115
 564,0.03785201,-0.12553344,0.00695739,-0.00388123,0.00984840,0.1391865
 1,0.01982568,-0.00829107,0.02607868,-0.00204502,-0.00044495,0.00157023
 ,-0.00227343,-0.00098437,-0.00121885,0.00037134,0.00027516,-0.00032511
 ,-0.00193775,0.00125152,0.00093975,-0.00001720,0.00004711,-0.00007570,
 0.00045468,-0.00071255,-0.00078205,0.00018942,0.00001980,-0.00012266,0
 .00007398,0.00026480,0.00081267,-0.00113464,-0.00229657,-0.00073807,0.
 00028358,-0.00014468,0.00002740,0.00162117,0.00042789,-0.00125148,0.03
 887239,-0.05902314,0.04996719,-0.01072276,0.00407753,-0.01216005,-0.04
 009906,0.06421557,-0.00059821,0.00461944,-0.00394539,0.00026733,0.0002
 8941,0.00002509,0.00018835,0.00040801,-0.00013914,0.00002908,-0.000055
 39,-0.00000334,0.00114157,-0.00247266,-0.00115432,-0.00002043,-0.00002
 118,-0.00002593,-0.00032806,-0.00011518,0.00028592,0.00005142,0.000021
 64,0.00004043,-0.00002832,-0.00008798,-0.00012318,-0.00020255,0.000856
 84,0.00051429,-0.00006348,0.00005464,0.00000512,-0.00086767,-0.0009328
 1,-0.00092073,-0.12732388,0.04744088,-0.21985403,-0.01406265,0.0071988
 7,-0.01525785,0.13571296,-0.05436960,0.23375956,0.00208744,-0.00089313
 ,-0.00054038,0.00021341,0.00006010,-0.00013255,-0.00003085,-0.00025000
 ,-0.00039445,-0.00001542,-0.00004037,0.00000850,0.00032010,0.00078554,
 0.00187009,-0.00000114,-0.00000649,0.00000072,-0.00017996,-0.00002078,
 0.00010524,0.00000513,0.00001053,0.00002560,-0.00004925,0.00006088,-0.
 00016922,-0.00057188,0.00007004,-0.00095844,-0.00004330,0.00003884,0.0
 0000015,-0.00021988,-0.00018564,0.00001083,-0.29075660,-0.06997942,0.0
 5267676,-0.00661182,-0.00262800,-0.00058137,-0.01380541,-0.00471783,0.
 00563301,0.30938180,-0.03174647,-0.00778486,0.00596486,-0.00005462,-0.
 00002881,0.00005330,0.00207534,-0.00061135,0.00004325,0.00001781,0.000
 00021,0.00002655,0.00181284,0.00053462,0.00134130,-0.00002382,0.000010
 73,-0.00000620,-0.00049450,0.00037306,0.00055701,-0.00001797,0.0000037
 4,-0.00002357,0.00009010,-0.00053891,-0.00040937,0.00125269,-0.0025198
 5,0.00029994,0.00006788,-0.00000583,-0.00000757,0.00006510,0.00009302,
 -0.00003832,-0.07285239,-0.06526992,0.01323091,0.01604308,0.00479639,-
 0.00176721,0.00758101,0.00180524,-0.00224995,0.07673225,0.06988781,0.0
 0462347,0.00468421,-0.00450654,0.00034472,0.00012655,-0.00022847,-0.00
 012749,0.00006536,-0.00012184,-0.00001961,0.00001066,0.00008065,0.0007
 0178,-0.00161614,-0.00073571,-0.00000451,-0.00001983,0.00000102,0.0001
 5556,-0.00012032,-0.00016870,-0.00001615,0.00000011,0.00001477,0.00001
 477,-0.00009161,0.00039530,-0.00079334,0.00125475,-0.00013476,0.000002
 04,-0.00000213,-0.00001572,-0.00037927,-0.00028318,-0.00003258,0.05421
 887,0.01199273,-0.05125467,0.02255795,0.00868687,-0.00294347,-0.023223
 65,-0.00778679,0.00631108,-0.05773121,-0.01524422,0.05372544,0.0036940
 7,0.00250962,0.01302495,-0.00059799,0.00000736,0.00037932,-0.00172356,
 -0.00922171,0.00992020,0.00033638,0.00061919,-0.00003867,-0.10493984,-
 0.00110775,0.04152352,0.00013172,-0.00004904,0.00001345,0.00247221,0.0
 0017906,-0.00207832,0.00007327,-0.00008648,-0.00008214,0.00007555,0.00
 133397,0.00100495,0.01019737,-0.00047107,0.00436321,0.00053254,-0.0005
 1245,0.00018143,0.00029710,0.00008746,0.00008356,-0.00580902,-0.000357
 54,-0.00009581,0.00004963,-0.00063298,0.00057232,0.00078110,0.00047048
 ,-0.00011542,-0.00023603,-0.00086467,-0.00023179,0.58504244,0.01031089
 ,0.01234638,-0.02834899,-0.00098575,-0.00033376,0.00084962,-0.01224172
 ,-0.01224315,0.02860808,-0.00007347,0.00043936,-0.00034215,-0.00709301
 ,-0.10492857,0.02043868,-0.00000483,0.00004165,-0.00000912,0.00118654,
 0.00098623,0.00079168,0.00012605,0.00005229,-0.00014089,-0.00141461,0.
 00077686,0.00016514,-0.00006087,-0.00415311,-0.00234055,0.00050225,-0.
 00063915,0.00030910,0.00103731,0.00019959,-0.00084151,-0.00007709,-0.0
 0061430,-0.00103751,-0.00011048,-0.00018071,0.00037522,0.00056105,-0.0
 0034178,0.00022043,0.00038054,-0.00089050,-0.00105902,-0.00849817,0.63
 293812,0.01642383,-0.00694711,-0.03191421,0.00003146,-0.00018081,0.000
 38554,0.00615623,0.01557213,-0.00632885,0.00012866,-0.00001219,0.00002
 437,0.03901558,0.00762577,-0.19031667,-0.00002728,-0.00000574,-0.00004
 765,0.00026425,-0.00182471,-0.00150253,0.00006539,0.00009037,0.0000008
 3,0.00067406,-0.00238982,0.00126153,0.00335719,-0.00067433,0.00243966,
 0.00034144,-0.00006620,0.00000746,-0.00040927,0.00013657,-0.00112112,-
 0.00105782,0.00279941,-0.00291283,0.00040981,0.00121114,-0.00038934,-0
 .00031699,0.00031734,0.00095300,0.00021494,-0.00006252,0.00081732,0.03
 210092,0.02281699,0.49343596,-0.00037526,-0.00256852,0.00045743,0.0003
 8592,0.00012275,-0.00034526,0.00108842,0.00031176,-0.00140353,0.000018
 37,-0.00006787,0.00008092,-0.00872212,0.00769720,0.00521585,0.00001038
 ,-0.00001723,0.00001363,-0.00019400,0.00003169,-0.00018089,-0.00005175
 ,-0.00001572,0.00003920,0.00057212,-0.00061309,0.00062811,0.00031893,0
 .00033845,0.00027662,-0.00008464,0.00007558,-0.00004438,-0.00046190,-0
 .00004155,0.00033367,-0.00002400,-0.00029229,-0.00049958,0.00004511,0.
 00008356,-0.00009447,-0.00011373,0.00008142,0.00001440,0.00017547,0.00
 005074,-0.00002051,-0.22059855,0.13471929,0.03124809,0.23221154,-0.000
 10760,-0.00033755,0.00222938,-0.00005550,-0.00000369,0.00004088,-0.001
 77877,0.00048095,0.00054908,-0.00006097,-0.00005006,-0.00003247,-0.006
 46924,0.00320511,-0.00044280,-0.00001272,0.00000384,-0.00000612,-0.000
 45994,0.00005654,0.00042302,-0.00000233,0.00000096,0.00000840,0.000170
 40,0.00011429,0.00036123,0.00076265,0.00040314,0.00021739,-0.00005900,
 0.00005845,0.00000612,0.00005586,0.00001306,0.00002482,-0.00083247,-0.
 00056277,-0.00094538,0.00008159,0.00009491,-0.00017288,-0.00023327,0.0
 0040709,0.00002262,0.00049643,-0.00012796,-0.00001341,0.13963006,-0.15
 655272,-0.02379124,-0.14598626,0.16019678,0.00152168,0.00399899,-0.003
 35929,0.00017727,0.00011538,-0.00027641,-0.00059365,-0.00232844,0.0014
 4762,-0.00009411,0.00004005,0.00002043,0.03242621,-0.02129669,-0.01475
 381,0.00000373,0.00000153,0.00001935,-0.00024771,0.00019999,0.00004980
 ,-0.00004611,-0.00000957,0.00001551,-0.00053857,0.00080263,-0.00041103
 ,-0.00153135,-0.00099549,-0.00132019,0.00007505,-0.00010008,0.00001698
 ,-0.00033790,-0.00002318,0.00035681,0.00064384,0.00011681,0.00061612,0
 .00000545,-0.00012095,0.00005289,0.00001623,-0.00026054,0.00001262,-0.
 00004127,0.00003053,-0.00012629,0.02481388,-0.01906786,-0.04818155,-0.
 03812799,0.02412384,0.06090269,0.00062330,-0.00164144,0.00012921,-0.00
 031261,-0.00015193,0.00037237,0.00012681,-0.00024713,0.00239851,0.0000
 2469,0.00008588,-0.00008181,-0.00462620,-0.01034583,-0.00035224,-0.000
 01059,0.00001341,-0.00001325,0.00064026,0.00044632,-0.00029081,0.00002
 580,0.00000395,-0.00004206,0.00043599,-0.00024526,0.00010592,0.0000031
 2,0.00000581,-0.00012091,0.00011096,-0.00005312,0.00002305,0.00039862,
 0.00023538,-0.00028718,0.00016815,0.00032841,-0.00019378,-0.00004131,0
 .00012311,-0.00028259,-0.00080996,0.00081831,0.00079787,0.00032007,0.0
 0001050,0.00005084,-0.07207797,-0.07049954,0.00929399,0.00999674,0.022
 23037,-0.00287320,0.06840007,0.00028483,-0.00120653,-0.00037974,-0.000
 19644,-0.00008617,0.00023126,-0.00183418,0.00030157,0.00368699,-0.0000
 8154,0.00006605,-0.00010134,0.00004254,-0.00264831,0.00071336,-0.00004
 140,0.00003100,-0.00001154,0.00047693,0.00018611,-0.00029007,0.0000019
 4,0.00003035,-0.00003242,-0.00027538,0.00039364,-0.00074987,-0.0000124
 5,-0.00003195,-0.00004184,0.00027095,-0.00012686,0.00008709,0.00013634
 ,0.00008950,-0.00016805,0.00184112,-0.00095850,-0.00265716,0.00022135,
 0.00012951,-0.00053170,0.00008648,-0.00028299,-0.00064703,0.00027918,-
 0.00030561,-0.00098870,-0.07428430,-0.30493528,0.02669041,-0.00743244,
 -0.01231500,0.00109360,0.07945917,0.32521082,-0.00037121,0.00221485,0.
 00133921,0.00027148,0.00009123,-0.00028423,0.00260551,0.00063251,-0.00
 541681,0.00007985,-0.00012248,0.00014089,0.00832853,0.03240555,-0.0026
 0228,0.00001808,-0.00001259,0.00000865,0.00005933,-0.00016064,0.000712
 61,-0.00002147,-0.00002426,0.00003696,-0.00028518,-0.00026170,0.000486
 19,-0.00024511,0.00024597,0.00001179,-0.00031402,0.00020566,-0.0001110
 0,-0.00026556,-0.00004001,0.00019578,0.00105996,-0.00081580,-0.0005636
 0,-0.00028027,-0.00005264,0.00002307,0.00030479,-0.00041878,-0.0002907
 9,-0.00000569,-0.00146041,-0.00107611,0.00703964,0.01824539,-0.0552413
 9,-0.00213961,-0.00384778,0.00036584,-0.01264055,-0.02722855,0.0581957
 9,-0.00107204,-0.00025143,0.00186099,-0.00098442,-0.00035858,0.0007716
 1,0.00014644,0.00078702,0.00036199,0.00011074,0.00018561,-0.00027329,0
 .01296184,0.00271101,0.01400038,0.00002284,0.00004088,0.00000657,0.000
 23768,-0.00008624,-0.00002291,0.00009179,-0.00001108,-0.00011710,-0.00
 013655,-0.00011939,0.00008833,-0.00134307,0.00035714,-0.00047283,0.000
 11487,-0.00006823,0.00001456,-0.00067120,0.00048510,-0.00019108,0.0009
 1639,-0.00033560,0.00025992,-0.00000583,0.00001891,-0.00002863,-0.0001
 2483,-0.00011475,-0.00022529,0.00001812,0.00025511,-0.00012247,-0.1977
 0040,-0.04776438,-0.13791450,-0.01419704,-0.00736928,-0.01525148,-0.00
 339593,0.00105731,-0.00319849,0.20501060,-0.00028339,-0.00069325,-0.00
 004049,0.00073812,0.00039025,-0.00075183,0.00055279,-0.00008473,0.0002
 3407,-0.00010569,-0.00012753,0.00022113,0.00471404,0.00109392,0.003491
 28,0.00000235,-0.00003622,0.00001713,-0.00046800,-0.00023805,0.0002481
 3,-0.00010957,-0.00001667,0.00009270,0.00000150,0.00009508,0.00032281,
 -0.00029593,0.00013201,-0.00021272,-0.00005045,0.00007754,-0.00004309,
 -0.00029424,-0.00044733,0.00056537,0.00097339,0.00035044,-0.00011825,0
 .00017634,0.00001035,-0.00002786,-0.00013454,-0.00026962,-0.00018100,-
 0.00019268,0.00057877,0.00040411,-0.04875104,-0.06196744,-0.04130548,0
 .01352254,0.00491461,0.01367945,-0.02057638,-0.00354134,-0.01959551,0.
 05058086,0.05977920,0.00017794,0.00482419,-0.00139417,0.00090904,0.000
 42452,-0.00102038,-0.00023092,-0.00210249,0.00190097,-0.00003294,0.000
 00241,0.00032521,-0.01840987,-0.00810614,-0.03364022,0.00000658,-0.000
 01578,0.00003714,0.00079479,0.00073731,-0.00011185,-0.00017964,-0.0000
 4596,0.00010587,0.00009171,0.00002859,0.00036931,0.00204862,-0.0007377
 9,0.00048252,0.00002510,-0.00007860,-0.00005913,-0.00089574,-0.0000216
 7,0.00090558,-0.00099003,-0.00025701,0.00019984,0.00000119,-0.00010764
 ,0.00004811,0.00004599,-0.00020358,-0.00019242,0.00000875,-0.00027830,
 -0.00000072,-0.13237919,-0.03963273,-0.16136951,0.00454830,0.00124530,
 0.00455193,0.00400661,0.00132530,0.00406943,0.14045370,0.04300005,0.18
 479250\\0.00000303,-0.00000014,-0.00000558,-0.00000512,0.00000871,-0.0
 0000272,0.00000770,-0.00000108,0.00000748,-0.00000214,-0.00000393,0.00
 002298,-0.00000152,0.00000613,-0.00000630,0.00000818,0.00000513,0.0000
 0718,-0.00000437,-0.00000203,0.00000375,0.00000172,-0.00000299,0.00000
 858,-0.00000283,-0.00000061,0.00000210,0.00000526,0.00000409,0.0000018
 5,0.00000095,0.00000244,0.00000469,-0.00000335,-0.00000308,0.00000459,
 0.00000646,0.00000454,-0.00001126,0.00000364,0.00000440,-0.00000644,0.
 00000017,-0.00000144,-0.00000647,0.00000049,-0.00000016,-0.00001093,-0
 .00000545,-0.00000841,0.00000086,-0.00000417,-0.00000419,-0.00000426,-
 0.00000338,-0.00000126,-0.00000773,-0.00000527,-0.00000611,-0.00000239
 \\\@
 The archive entry for this job was punched.


 "WOULD YOU TELL ME PLEASE, WHICH WAY I OUGHT TO WALK FROM HERE?"
 "THAT DEPENDS A GREAT DEAL ON WHERE YOU WANT TO GO," SAID THE CAT.
 "I DON'T MUCH CARE WHERE -- ", SAID ALICE.
 "THEN IT DOESN'T MATTER WHICH WAY YOU WALK," SAID THE CAT.

                                      -- LEWIS CARROLL
 Job cpu time:       0 days  0 hours 13 minutes 25.3 seconds.
 Elapsed time:       0 days  0 hours  1 minutes  7.9 seconds.
 File lengths (MBytes):  RWF=    114 Int=      0 D2E=      0 Chk=      8 Scr=      1
 Normal termination of Gaussian 16 at Sat Dec 30 20:49:48 2023.
