Unloading slurm/anatra/current
  ERROR: No such file or directory on
    '/cm/local/modulefiles/slurm/anatra/current'
environment: line 0: unalias: gv: not found
environment: line 0: unalias: sl: not found
 Entering Gaussian System, Link 0=g16
 Initial command:
 /apps/gaussian/g16/C.01/g16/l1.exe "/local/jobs/1153154/Gau-1513278.inp" -scrdir="/local/jobs/1153154/"
 Entering Link 1 = /apps/gaussian/g16/C.01/g16/l1.exe PID=   1513279.
  
 Copyright (c) 1988-2019, Gaussian, Inc.  All Rights Reserved.
  
 This is part of the Gaussian(R) 16 program.  It is based on
 the Gaussian(R) 09 system (copyright 2009, Gaussian, Inc.),
 the Gaussian(R) 03 system (copyright 2003, Gaussian, Inc.),
 the Gaussian(R) 98 system (copyright 1998, Gaussian, Inc.),
 the Gaussian(R) 94 system (copyright 1995, Gaussian, Inc.),
 the Gaussian 92(TM) system (copyright 1992, Gaussian, Inc.),
 the Gaussian 90(TM) system (copyright 1990, Gaussian, Inc.),
 the Gaussian 88(TM) system (copyright 1988, Gaussian, Inc.),
 the Gaussian 86(TM) system (copyright 1986, Carnegie Mellon
 University), and the Gaussian 82(TM) system (copyright 1983,
 Carnegie Mellon University). Gaussian is a federally registered
 trademark of Gaussian, Inc.
  
 This software contains proprietary and confidential information,
 including trade secrets, belonging to Gaussian, Inc.
  
 This software is provided under written license and may be
 used, copied, transmitted, or stored only in accord with that
 written license.
  
 The following legend is applicable only to US Government
 contracts under FAR:
  
                    RESTRICTED RIGHTS LEGEND
  
 Use, reproduction and disclosure by the US Government is
 subject to restrictions as set forth in subparagraphs (a)
 and (c) of the Commercial Computer Software - Restricted
 Rights clause in FAR 52.227-19.
  
 Gaussian, Inc.
 340 Quinnipiac St., Bldg. 40, Wallingford CT 06492
  
  
 ---------------------------------------------------------------
 Warning -- This program may not be used in any manner that
 competes with the business of Gaussian, Inc. or will provide
 assistance to any competitor of Gaussian, Inc.  The licensee
 of this program is prohibited from giving any competitor of
 Gaussian, Inc. access to this program.  By using this program,
 the user acknowledges that Gaussian, Inc. is engaged in the
 business of creating and licensing software in the field of
 computational chemistry and represents and warrants to the
 licensee that it is not a competitor of Gaussian, Inc. and that
 it will not use this program in any manner prohibited above.
 ---------------------------------------------------------------
  

 Cite this work as:
 Gaussian 16, Revision C.01,
 M. J. Frisch, G. W. Trucks, H. B. Schlegel, G. E. Scuseria, 
 M. A. Robb, J. R. Cheeseman, G. Scalmani, V. Barone, 
 G. A. Petersson, H. Nakatsuji, X. Li, M. Caricato, A. V. Marenich, 
 J. Bloino, B. G. Janesko, R. Gomperts, B. Mennucci, H. P. Hratchian, 
 J. V. Ortiz, A. F. Izmaylov, J. L. Sonnenberg, D. Williams-Young, 
 F. Ding, F. Lipparini, F. Egidi, J. Goings, B. Peng, A. Petrone, 
 T. Henderson, D. Ranasinghe, V. G. Zakrzewski, J. Gao, N. Rega, 
 G. Zheng, W. Liang, M. Hada, M. Ehara, K. Toyota, R. Fukuda, 
 J. Hasegawa, M. Ishida, T. Nakajima, Y. Honda, O. Kitao, H. Nakai, 
 T. Vreven, K. Throssell, J. A. Montgomery, Jr., J. E. Peralta, 
 F. Ogliaro, M. J. Bearpark, J. J. Heyd, E. N. Brothers, K. N. Kudin, 
 V. N. Staroverov, T. A. Keith, R. Kobayashi, J. Normand, 
 K. Raghavachari, A. P. Rendell, J. C. Burant, S. S. Iyengar, 
 J. Tomasi, M. Cossi, J. M. Millam, M. Klene, C. Adamo, R. Cammi, 
 J. W. Ochterski, R. L. Martin, K. Morokuma, O. Farkas, 
 J. B. Foresman, and D. J. Fox, Gaussian, Inc., Wallingford CT, 2019.
 
 ******************************************
 Gaussian 16:  ES64L-G16RevC.01  3-Jul-2019
                30-Dec-2023 
 ******************************************
 %chk=allylic-1_1_opt_sqm_reopt_freq.chk
 %nprocshared=12
 Will use up to   12 processors via shared memory.
 %mem=48GB
 -----------------------------------------------------------
 # wb97xd def2svp scrf=(iefpcm,solvent=toluene) freq=noraman
 -----------------------------------------------------------
 1/10=4,30=1,38=1/1,3;
 2/12=2,17=6,18=5,40=1/2;
 3/5=43,7=101,11=2,25=1,30=1,70=2201,71=2,72=13,74=-58,140=1/1,2,3;
 4//1;
 5/5=2,38=5,53=13,98=1/2;
 8/6=4,10=90,11=11/1;
 11/6=1,8=1,9=11,15=111,16=1/1,2,10;
 10/6=1/2;
 6/7=2,8=2,9=2,10=2,28=1/1;
 7/8=1,10=1,25=1/1,2,3,16;
 1/10=4,30=1/3;
 99//99;
 -----------------------------
 allylic-1_1_opt_sqm_reopt.out
 -----------------------------
 Symbolic Z-matrix:
 Charge =  0 Multiplicity = 1
 C                    -0.92363  -0.45801  -0.94048 
 C                     2.39595  -0.1997    0.26503 
 C                    -0.97564   1.89398  -0.5274 
 C                     2.28811   0.68468  -0.71419 
 N                    -1.24021   0.48672  -0.13411 
 H                     3.15015   0.83705  -1.36562 
 H                    -0.31242   2.25828   0.28778 
 H                     3.27816  -0.80446   0.49211 
 H                    -1.93839   2.41332  -0.33448 
 H                    -0.53498  -0.09076  -1.89501 
 H                     1.37169   1.26687  -0.88844 
 F                     1.38836  -0.4597    1.11889 
 C                    -1.01686  -1.91839  -0.66223 
 H                    -2.05224  -2.22483  -0.44652 
 H                    -0.66084  -2.48835  -1.52785 
 H                    -0.39631  -2.17755   0.20921 
 C                    -1.77148   0.20687   1.19812 
 H                    -2.62673   0.87253   1.36698 
 H                    -2.0821   -0.83776   1.3282 
 H                    -0.98845   0.44936   1.92931 
 

 GradGradGradGradGradGradGradGradGradGradGradGradGradGradGradGradGradGrad
 Berny optimization.
 Initialization pass.
 Trust Radius=3.00D-01 FncErr=1.00D-07 GrdErr=1.00D-07 EigMax=2.50D+02 EigMin=1.00D-04
 Number of steps in this run=      2 maximum allowed number of steps=      2.
 GradGradGradGradGradGradGradGradGradGradGradGradGradGradGradGradGradGrad

                          Input orientation:                          
 ---------------------------------------------------------------------
 Center     Atomic      Atomic             Coordinates (Angstroms)
 Number     Number       Type             X           Y           Z
 ---------------------------------------------------------------------
      1          6           0       -0.923630   -0.458010   -0.940480
      2          6           0        2.395950   -0.199700    0.265030
      3          6           0       -0.975640    1.893980   -0.527400
      4          6           0        2.288110    0.684680   -0.714190
      5          7           0       -1.240210    0.486720   -0.134110
      6          1           0        3.150150    0.837050   -1.365620
      7          1           0       -0.312420    2.258280    0.287780
      8          1           0        3.278160   -0.804460    0.492110
      9          1           0       -1.938390    2.413320   -0.334480
     10          1           0       -0.534980   -0.090760   -1.895010
     11          1           0        1.371690    1.266870   -0.888440
     12          9           0        1.388360   -0.459700    1.118890
     13          6           0       -1.016860   -1.918390   -0.662230
     14          1           0       -2.052240   -2.224830   -0.446520
     15          1           0       -0.660840   -2.488350   -1.527850
     16          1           0       -0.396310   -2.177550    0.209210
     17          6           0       -1.771480    0.206870    1.198120
     18          1           0       -2.626730    0.872530    1.366980
     19          1           0       -2.082100   -0.837760    1.328200
     20          1           0       -0.988450    0.449360    1.929310
 ---------------------------------------------------------------------
                    Distance matrix (angstroms):
                    1          2          3          4          5
     1  C    0.000000
     2  C    3.541128   0.000000
     3  C    2.388555   4.047105   0.000000
     4  C    3.416463   1.323869   3.485593   0.000000
     5  N    1.281784   3.721847   1.484943   3.581162   0.000000
     6  H    4.295766   2.074292   4.340721   1.091188   4.573249
     7  H    3.043096   3.657520   1.112247   3.200456   2.043822
     8  H    4.452795   1.093432   5.139630   2.157057   4.740777
     9  H    3.105078   5.096449   1.110774   4.582104   2.058978
    10  H    1.094097   3.642525   2.450251   3.156815   1.982827
    11  H    2.871657   2.128480   2.456334   1.099606   2.828369
    12  F    3.096176   1.346074   3.720024   2.340799   3.061879
    13  C    1.489572   3.932045   3.814976   4.207315   2.472519
    14  H    2.153929   4.939013   4.257958   5.232163   2.847718
    15  H    2.129869   4.218566   4.506086   4.407547   3.336049
    16  H    2.134636   3.422239   4.177987   4.031270   2.815736
    17  C    2.394687   4.289922   2.541087   4.512815   1.461301
    18  H    3.161528   5.252741   2.712588   5.340619   2.079557
    19  H    2.575494   4.646545   3.482802   5.058450   2.145082
    20  H    3.010518   3.826914   2.850003   4.216552   2.079058
                    6          7          8          9         10
     6  H    0.000000
     7  H    4.091823   0.000000
     8  H    2.482358   4.723811   0.000000
     9  H    5.425967   1.747863   6.184638   0.000000
    10  H    3.836830   3.214357   4.554969   3.267297   0.000000
    11  H    1.890864   2.280924   3.135435   3.546526   2.547888
    12  F    3.310325   3.312222   2.020657   4.629665   3.594294
    13  C    5.044916   4.340890   4.584816   4.440760   2.256587
    14  H    6.106121   4.864612   5.595681   4.640900   2.992400
    15  H    5.060459   5.093958   4.736185   5.204098   2.428803
    16  H    4.913785   4.437319   3.932828   4.873366   2.966760
    17  C    5.585010   2.676912   5.198086   2.691680   3.344394
    18  H    6.390673   2.905341   6.200437   2.396416   3.992984
    19  H    6.118668   3.714795   5.425177   3.654405   3.652488
    20  H    5.304232   2.534527   4.673496   3.143926   3.888803
                   11         12         13         14         15
    11  H    0.000000
    12  F    2.647772   0.000000
    13  C    3.987759   3.329452   0.000000
    14  H    4.910250   4.171801   1.101112   0.000000
    15  H    4.317604   3.914061   1.095857   1.781772   0.000000
    16  H    4.024262   2.638858   1.100752   1.781663   1.784363
    17  C    3.918782   3.230353   2.923540   2.949039   3.991071
    18  H    4.607579   4.237609   3.807704   3.634895   4.851832
    19  H    4.612117   3.497261   2.502860   2.252662   3.591859
    20  H    3.765408   2.670655   3.510431   3.731958   4.548563
                   16         17         18         19         20
    16  H    0.000000
    17  C    2.924807   0.000000
    18  H    3.951986   1.096845   0.000000
    19  H    2.426739   1.097569   1.795332   0.000000
    20  H    3.195314   1.098443   1.783045   1.792786   0.000000
 Stoichiometry    C6H12FN
 Framework group  C1[X(C6H12FN)]
 Deg. of freedom    54
 Full point group                 C1      NOp   1
 Largest Abelian subgroup         C1      NOp   1
 Largest concise Abelian subgroup C1      NOp   1
                         Standard orientation:                         
 ---------------------------------------------------------------------
 Center     Atomic      Atomic             Coordinates (Angstroms)
 Number     Number       Type             X           Y           Z
 ---------------------------------------------------------------------
      1          6           0        0.923631    0.458009   -0.940480
      2          6           0       -2.395950    0.199704    0.265030
      3          6           0        0.975637   -1.893981   -0.527400
      4          6           0       -2.288111   -0.684676   -0.714190
      5          7           0        1.240209   -0.486722   -0.134110
      6          1           0       -3.150151   -0.837044   -1.365620
      7          1           0        0.312416   -2.258280    0.287780
      8          1           0       -3.278158    0.804466    0.492110
      9          1           0        1.938386   -2.413323   -0.334480
     10          1           0        0.534980    0.090759   -1.895010
     11          1           0       -1.371692   -1.266867   -0.888440
     12          9           0       -1.388359    0.459703    1.118890
     13          6           0        1.016863    1.918389   -0.662230
     14          1           0        2.052244    2.224827   -0.446520
     15          1           0        0.660844    2.488349   -1.527850
     16          1           0        0.396314    2.177550    0.209210
     17          6           0        1.771480   -0.206873    1.198120
     18          1           0        2.626729   -0.872534    1.366980
     19          1           0        2.082102    0.837757    1.328200
     20          1           0        0.988449   -0.449361    1.929310
 ---------------------------------------------------------------------
 Rotational constants (GHZ):           2.3078712           1.2976269           1.1449096
 Standard basis: def2SVP (5D, 7F)
 There are   180 symmetry adapted cartesian basis functions of A   symmetry.
 There are   172 symmetry adapted basis functions of A   symmetry.
   172 basis functions,   284 primitive gaussians,   180 cartesian basis functions
    32 alpha electrons       32 beta electrons
       nuclear repulsion energy       384.9282703466 Hartrees.
 NAtoms=   20 NActive=   20 NUniq=   20 SFac= 1.00D+00 NAtFMM=   60 NAOKFM=F Big=F
 Integral buffers will be    131072 words long.
 Raffenetti 2 integral format.
 Two-electron integral symmetry is turned on.
 Nuclear repulsion after empirical dispersion term =      384.9159277206 Hartrees.
 Force inversion solution in PCM.
 ------------------------------------------------------------------------------
 Polarizable Continuum Model (PCM)
 =================================
 Model                : PCM.
 Atomic radii         : UFF (Universal Force Field).
 Polarization charges : Total charges.
 Charge compensation  : None.
 Solution method      : Matrix inversion.
 Cavity type          : Scaled VdW (van der Waals Surface) (Alpha=1.100).
 Cavity algorithm     : GePol (No added spheres)
                        Default sphere list used, NSphG=   20.
                        Lebedev-Laikov grids with approx.  5.0 points / Ang**2.
                        Smoothing algorithm: York/Karplus (Gamma=1.0000).
                        Polarization charges: spherical gaussians, with
                                              point-specific exponents (IZeta= 3).
                        Self-potential: point-specific (ISelfS= 7).
                        Self-field    : sphere-specific E.n sum rule (ISelfD= 2).
 1st derivatives      : Analytical E(r).r(x)/FMM algorithm (CHGder, D1EAlg=3).
                        Cavity 1st derivative terms included.
 2nd derivatives      : Analytical E(r).r(xy)/FMM algorithm (CHGder, D2EAlg=3).
                        Cavity 2nd derivative terms included.
 Solvent              : Toluene, Eps=   2.374100 Eps(inf)=   2.238315
 ------------------------------------------------------------------------------
 Spheres list:
 ISph  on   Nord     Re0    Alpha      Xe            Ye            Ze
    1   C      1    1.9255  1.100      0.923631      0.458009     -0.940480
    2   C      2    1.9255  1.100     -2.395950      0.199704      0.265030
    3   C      3    1.9255  1.100      0.975637     -1.893981     -0.527400
    4   C      4    1.9255  1.100     -2.288111     -0.684676     -0.714190
    5   N      5    1.8300  1.100      1.240209     -0.486722     -0.134110
    6   H      6    1.4430  1.100     -3.150151     -0.837044     -1.365620
    7   H      7    1.4430  1.100      0.312416     -2.258280      0.287780
    8   H      8    1.4430  1.100     -3.278158      0.804466      0.492110
    9   H      9    1.4430  1.100      1.938386     -2.413323     -0.334480
   10   H     10    1.4430  1.100      0.534980      0.090759     -1.895010
   11   H     11    1.4430  1.100     -1.371692     -1.266867     -0.888440
   12   F     12    1.6820  1.100     -1.388359      0.459703      1.118890
   13   C     13    1.9255  1.100      1.016863      1.918389     -0.662230
   14   H     14    1.4430  1.100      2.052244      2.224827     -0.446520
   15   H     15    1.4430  1.100      0.660844      2.488349     -1.527850
   16   H     16    1.4430  1.100      0.396314      2.177550      0.209210
   17   C     17    1.9255  1.100      1.771480     -0.206873      1.198120
   18   H     18    1.4430  1.100      2.626729     -0.872534      1.366980
   19   H     19    1.4430  1.100      2.082102      0.837757      1.328200
   20   H     20    1.4430  1.100      0.988449     -0.449361      1.929310
 ------------------------------------------------------------------------------
 One-electron integrals computed using PRISM.
   1 Symmetry operations used in ECPInt.
 ECPInt:  NShTT=    3570 NPrTT=   12386 LenC2=    3546 LenP2D=    9917.
 LDataN:  DoStor=T MaxTD1= 4 Len=   56
 NBasis=   172 RedAO= T EigKep=  2.98D-03  NBF=   172
 NBsUse=   172 1.00D-06 EigRej= -1.00D+00 NBFU=   172
 ExpMin= 1.22D-01 ExpMax= 2.89D+03 ExpMxC= 4.35D+02 IAcc=3 IRadAn=         5 AccDes= 0.00D+00
 Harris functional with IExCor= 4639 and IRadAn=       5 diagonalized for initial guess.
 HarFok:  IExCor= 4639 AccDes= 0.00D+00 IRadAn=         5 IDoV= 1 UseB2=F ITyADJ=14
 ICtDFT=  3500011 ScaDFX=  1.000000  1.000000  1.000000  1.000000
 FoFCou: FMM=F IPFlag=           0 FMFlag=      100000 FMFlg1=           0
         NFxFlg=           0 DoJE=T BraDBF=F KetDBF=T FulRan=T
         wScrn=  0.000000 ICntrl=       500 IOpCl=  0 I1Cent=   200000004 NGrid=           0
         NMat0=    1 NMatS0=      1 NMatT0=    0 NMatD0=    1 NMtDS0=    0 NMtDT0=    0
 Petite list used in FoFCou.
 Requested convergence on RMS density matrix=1.00D-08 within 128 cycles.
 Requested convergence on MAX density matrix=1.00D-06.
 Requested convergence on             energy=1.00D-06.
 No special actions if energy rises.
 Inv3:  Mode=1 IEnd=     7004352.
 Iteration    1 A*A^-1 deviation from unit magnitude is 3.22D-15 for    733.
 Iteration    1 A*A^-1 deviation from orthogonality  is 1.44D-15 for   1343    615.
 Iteration    1 A^-1*A deviation from unit magnitude is 3.22D-15 for    733.
 Iteration    1 A^-1*A deviation from orthogonality  is 2.25D-15 for   1218    225.
 Error on total polarization charges =  0.00602
 SCF Done:  E(RwB97XD) =  -389.899487295     A.U. after   16 cycles
            NFock= 16  Conv=0.30D-08     -V/T= 2.0102
 DoSCS=F DFT=T ScalE2(SS,OS)=  1.000000  1.000000
 Range of M.O.s used for correlation:     1   172
 NBasis=   172 NAE=    32 NBE=    32 NFC=     0 NFV=     0
 NROrb=    172 NOA=    32 NOB=    32 NVA=   140 NVB=   140
   1 Symmetry operations used in ECPInt.
 ECPInt:  NShTT=    3570 NPrTT=   12386 LenC2=    3546 LenP2D=    9917.
 LDataN:  DoStor=T MaxTD1= 5 Len=  102
 Symmetrizing basis deriv contribution to polar:
 IMax=3 JMax=2 DiffMx= 0.00D+00
 G2DrvN: will do    21 centers at a time, making    1 passes.
 Calling FoFCou, ICntrl=  3107 FMM=F I1Cent=   0 AccDes= 0.00D+00.
 NEqPCM:  Using equilibrium solvation (IEInf=0, Eps=   2.3741, EpsInf=   2.2383)
 G2PCM: DoFxE=T DoFxN=T DoGrad=T DoDP/DQ/DG/TGxP=FFFF NFrqRd=   0 IEInf=0 SqF1=F DoCFld=F IF1Alg=4.
 End of G2Drv F.D. properties file   721 does not exist.
 End of G2Drv F.D. properties file   722 does not exist.
 End of G2Drv F.D. properties file   788 does not exist.
          IDoAtm=11111111111111111111
 NEqPCM:  Using equilibrium solvation (IEInf=0, Eps=   2.3741, EpsInf=   2.2383)
          Differentiating once with respect to electric field.
                with respect to dipole field.
          Differentiating once with respect to nuclear coordinates.
 Keep R1 ints in memory in canonical form, NReq=236059372.
          There are    63 degrees of freedom in the 1st order CPHF.  IDoFFX=6 NUNeed=     3.
     60 vectors produced by pass  0 Test12= 7.11D-15 1.59D-09 XBig12= 3.71D+01 3.06D+00.
 AX will form    60 AO Fock derivatives at one time.
     60 vectors produced by pass  1 Test12= 7.11D-15 1.59D-09 XBig12= 2.74D+00 3.46D-01.
     60 vectors produced by pass  2 Test12= 7.11D-15 1.59D-09 XBig12= 6.82D-02 5.07D-02.
     60 vectors produced by pass  3 Test12= 7.11D-15 1.59D-09 XBig12= 4.76D-04 4.18D-03.
     60 vectors produced by pass  4 Test12= 7.11D-15 1.59D-09 XBig12= 2.62D-06 1.97D-04.
     60 vectors produced by pass  5 Test12= 7.11D-15 1.59D-09 XBig12= 1.23D-08 1.75D-05.
     40 vectors produced by pass  6 Test12= 7.11D-15 1.59D-09 XBig12= 5.03D-11 7.07D-07.
      6 vectors produced by pass  7 Test12= 7.11D-15 1.59D-09 XBig12= 1.87D-13 4.54D-08.
      3 vectors produced by pass  8 Test12= 7.11D-15 1.59D-09 XBig12= 6.57D-16 3.22D-09.
 InvSVY:  IOpt=1 It=  1 EMax= 9.71D-16
 Solved reduced A of dimension   409 with    63 vectors.
 Isotropic polarizability for W=    0.000000       85.68 Bohr**3.
 End of Minotr F.D. properties file   721 does not exist.
 End of Minotr F.D. properties file   722 does not exist.
 End of Minotr F.D. properties file   788 does not exist.

 **********************************************************************

            Population analysis using the SCF Density.

 **********************************************************************

 Orbital symmetries:
       Occupied  (A) (A) (A) (A) (A) (A) (A) (A) (A) (A) (A) (A)
                 (A) (A) (A) (A) (A) (A) (A) (A) (A) (A) (A) (A)
                 (A) (A) (A) (A) (A) (A) (A) (A)
       Virtual   (A) (A) (A) (A) (A) (A) (A) (A) (A) (A) (A) (A)
                 (A) (A) (A) (A) (A) (A) (A) (A) (A) (A) (A) (A)
                 (A) (A) (A) (A) (A) (A) (A) (A) (A) (A) (A) (A)
                 (A) (A) (A) (A) (A) (A) (A) (A) (A) (A) (A) (A)
                 (A) (A) (A) (A) (A) (A) (A) (A) (A) (A) (A) (A)
                 (A) (A) (A) (A) (A) (A) (A) (A) (A) (A) (A) (A)
                 (A) (A) (A) (A) (A) (A) (A) (A) (A) (A) (A) (A)
                 (A) (A) (A) (A) (A) (A) (A) (A) (A) (A) (A) (A)
                 (A) (A) (A) (A) (A) (A) (A) (A) (A) (A) (A) (A)
                 (A) (A) (A) (A) (A) (A) (A) (A) (A) (A) (A) (A)
                 (A) (A) (A) (A) (A) (A) (A) (A) (A) (A) (A) (A)
                 (A) (A) (A) (A) (A) (A) (A) (A)
 The electronic state is 1-A.
 Alpha  occ. eigenvalues --  -24.82783 -14.52797 -10.37907 -10.37702 -10.34001
 Alpha  occ. eigenvalues --  -10.32438 -10.29223 -10.23170  -1.31072  -1.08263
 Alpha  occ. eigenvalues --   -0.87366  -0.85641  -0.82209  -0.74816  -0.69451
 Alpha  occ. eigenvalues --   -0.65607  -0.61752  -0.58437  -0.57669  -0.56359
 Alpha  occ. eigenvalues --   -0.56198  -0.55561  -0.51702  -0.49765  -0.48712
 Alpha  occ. eigenvalues --   -0.48440  -0.46087  -0.45171  -0.44299  -0.37055
 Alpha  occ. eigenvalues --   -0.34607  -0.22341
 Alpha virt. eigenvalues --    0.02600   0.09011   0.13261   0.16439   0.16692
 Alpha virt. eigenvalues --    0.17042   0.19363   0.20792   0.21178   0.21585
 Alpha virt. eigenvalues --    0.22621   0.22914   0.24364   0.25106   0.27206
 Alpha virt. eigenvalues --    0.28946   0.32326   0.36033   0.37484   0.41356
 Alpha virt. eigenvalues --    0.44217   0.48872   0.48883   0.51133   0.53635
 Alpha virt. eigenvalues --    0.54842   0.55847   0.56980   0.58502   0.59899
 Alpha virt. eigenvalues --    0.61948   0.65424   0.66629   0.67965   0.69424
 Alpha virt. eigenvalues --    0.71089   0.71674   0.72161   0.72961   0.74290
 Alpha virt. eigenvalues --    0.74859   0.75001   0.75378   0.76495   0.76719
 Alpha virt. eigenvalues --    0.77661   0.80102   0.82149   0.83473   0.84377
 Alpha virt. eigenvalues --    0.88466   0.88710   0.91750   0.92127   1.00312
 Alpha virt. eigenvalues --    1.08451   1.11052   1.15048   1.19205   1.20734
 Alpha virt. eigenvalues --    1.27929   1.28136   1.30716   1.32783   1.33743
 Alpha virt. eigenvalues --    1.36098   1.39725   1.46057   1.49159   1.55169
 Alpha virt. eigenvalues --    1.58999   1.59651   1.60414   1.61827   1.64842
 Alpha virt. eigenvalues --    1.66960   1.68405   1.71482   1.73677   1.76469
 Alpha virt. eigenvalues --    1.77569   1.79569   1.81604   1.82640   1.84933
 Alpha virt. eigenvalues --    1.85238   1.85497   1.88297   1.91251   1.91688
 Alpha virt. eigenvalues --    1.93100   1.96487   1.97552   1.98392   2.02669
 Alpha virt. eigenvalues --    2.04527   2.05143   2.05593   2.10414   2.13689
 Alpha virt. eigenvalues --    2.17335   2.18298   2.18585   2.21405   2.24061
 Alpha virt. eigenvalues --    2.31820   2.34480   2.35623   2.38060   2.40214
 Alpha virt. eigenvalues --    2.41890   2.49956   2.51757   2.52351   2.55013
 Alpha virt. eigenvalues --    2.58119   2.63200   2.72234   2.73713   2.76713
 Alpha virt. eigenvalues --    2.78923   2.81517   2.84346   2.88200   2.91704
 Alpha virt. eigenvalues --    2.94354   2.98840   3.01744   3.02476   3.05641
 Alpha virt. eigenvalues --    3.08104   3.10349   3.14710   3.17348   3.29380
 Alpha virt. eigenvalues --    3.31488   3.39556   3.44920   3.61269   3.94559
          Condensed to atoms (all electrons):
               1          2          3          4          5          6
     1  C    4.922901  -0.000984  -0.090097   0.007566   0.539406  -0.000026
     2  C   -0.000984   4.545351  -0.000166   0.611126  -0.000846  -0.005788
     3  C   -0.090097  -0.000166   5.349233  -0.031816   0.264214   0.000241
     4  C    0.007566   0.611126  -0.031816   5.002958   0.000282   0.370475
     5  N    0.539406  -0.000846   0.264214   0.000282   6.285793   0.000057
     6  H   -0.000026  -0.005788   0.000241   0.370475   0.000057   0.591405
     7  H   -0.000037  -0.000112   0.363527   0.002739  -0.033880   0.000108
     8  H    0.000274   0.421855  -0.000048  -0.061826  -0.000029  -0.006865
     9  H    0.004246   0.000009   0.358755   0.000790  -0.031860  -0.000008
    10  H    0.383980  -0.000287   0.032370  -0.004011  -0.026531   0.000116
    11  H   -0.010799  -0.013939   0.079293   0.319639  -0.003093  -0.023049
    12  F    0.009884   0.295217  -0.000877  -0.059381  -0.002406   0.002615
    13  C    0.299535   0.001237   0.010999  -0.001284  -0.042364   0.000012
    14  H   -0.010475  -0.000004  -0.000212   0.000012  -0.004742   0.000000
    15  H   -0.008798   0.000139  -0.000244   0.000202   0.004131  -0.000003
    16  H   -0.003197  -0.001527  -0.000361  -0.000677  -0.007921  -0.000027
    17  C   -0.086773  -0.000023  -0.037547  -0.001105   0.307605   0.000004
    18  H    0.005768   0.000001  -0.000638   0.000020  -0.022709  -0.000000
    19  H   -0.009609  -0.000024   0.006345   0.000221  -0.013229  -0.000000
    20  H    0.000448  -0.000039  -0.001100  -0.000059  -0.022183  -0.000007
               7          8          9         10         11         12
     1  C   -0.000037   0.000274   0.004246   0.383980  -0.010799   0.009884
     2  C   -0.000112   0.421855   0.000009  -0.000287  -0.013939   0.295217
     3  C    0.363527  -0.000048   0.358755   0.032370   0.079293  -0.000877
     4  C    0.002739  -0.061826   0.000790  -0.004011   0.319639  -0.059381
     5  N   -0.033880  -0.000029  -0.031860  -0.026531  -0.003093  -0.002406
     6  H    0.000108  -0.006865  -0.000008   0.000116  -0.023049   0.002615
     7  H    0.733619   0.000029  -0.039531  -0.001557  -0.007269   0.001152
     8  H    0.000029   0.616762   0.000001  -0.000031   0.004837  -0.031046
     9  H   -0.039531   0.000001   0.743776  -0.000461  -0.002735   0.000002
    10  H   -0.001557  -0.000031  -0.000461   0.555317   0.008467  -0.000122
    11  H   -0.007269   0.004837  -0.002735   0.008467   0.572102  -0.001797
    12  F    0.001152  -0.031046   0.000002  -0.000122  -0.001797   9.005928
    13  C   -0.000969  -0.000140  -0.000850  -0.034327   0.002362  -0.006921
    14  H   -0.000038   0.000001   0.000083   0.002943  -0.000009   0.000092
    15  H    0.000023   0.000004   0.000019  -0.008474  -0.000124  -0.000078
    16  H    0.000182   0.000029  -0.000015   0.002422  -0.000231   0.011929
    17  C   -0.003378  -0.000008  -0.009276   0.009247   0.002195   0.000124
    18  H   -0.001927   0.000001   0.008804  -0.000351  -0.000087   0.000095
    19  H    0.000967   0.000001   0.000938  -0.000893  -0.000432  -0.000333
    20  H    0.005425   0.000072  -0.001520  -0.000318  -0.000062   0.006927
              13         14         15         16         17         18
     1  C    0.299535  -0.010475  -0.008798  -0.003197  -0.086773   0.005768
     2  C    0.001237  -0.000004   0.000139  -0.001527  -0.000023   0.000001
     3  C    0.010999  -0.000212  -0.000244  -0.000361  -0.037547  -0.000638
     4  C   -0.001284   0.000012   0.000202  -0.000677  -0.001105   0.000020
     5  N   -0.042364  -0.004742   0.004131  -0.007921   0.307605  -0.022709
     6  H    0.000012   0.000000  -0.000003  -0.000027   0.000004  -0.000000
     7  H   -0.000969  -0.000038   0.000023   0.000182  -0.003378  -0.001927
     8  H   -0.000140   0.000001   0.000004   0.000029  -0.000008   0.000001
     9  H   -0.000850   0.000083   0.000019  -0.000015  -0.009276   0.008804
    10  H   -0.034327   0.002943  -0.008474   0.002422   0.009247  -0.000351
    11  H    0.002362  -0.000009  -0.000124  -0.000231   0.002195  -0.000087
    12  F   -0.006921   0.000092  -0.000078   0.011929   0.000124   0.000095
    13  C    4.679527   0.386555   0.387248   0.373181   0.009305  -0.000476
    14  H    0.386555   0.559236  -0.014349  -0.013560  -0.002152   0.000351
    15  H    0.387248  -0.014349   0.577696  -0.014641   0.000428  -0.000014
    16  H    0.373181  -0.013560  -0.014641   0.564067  -0.000032  -0.000031
    17  C    0.009305  -0.002152   0.000428  -0.000032   4.605822   0.395019
    18  H   -0.000476   0.000351  -0.000014  -0.000031   0.395019   0.578342
    19  H    0.004190   0.002486   0.000353  -0.000151   0.360167  -0.018329
    20  H   -0.000500  -0.000320  -0.000013   0.000672   0.397526  -0.014971
              19         20
     1  C   -0.009609   0.000448
     2  C   -0.000024  -0.000039
     3  C    0.006345  -0.001100
     4  C    0.000221  -0.000059
     5  N   -0.013229  -0.022183
     6  H   -0.000000  -0.000007
     7  H    0.000967   0.005425
     8  H    0.000001   0.000072
     9  H    0.000938  -0.001520
    10  H   -0.000893  -0.000318
    11  H   -0.000432  -0.000062
    12  F   -0.000333   0.006927
    13  C    0.004190  -0.000500
    14  H    0.002486  -0.000320
    15  H    0.000353  -0.000013
    16  H   -0.000151   0.000672
    17  C    0.360167   0.397526
    18  H   -0.018329  -0.014971
    19  H    0.635804  -0.018002
    20  H   -0.018002   0.566716
 Mulliken charges:
               1
     1  C    0.046786
     2  C    0.148803
     3  C   -0.301870
     4  C   -0.155871
     5  N   -0.189695
     6  H    0.070738
     7  H   -0.019072
     8  H    0.056129
     9  H   -0.031163
    10  H    0.082501
    11  H    0.074731
    12  F   -0.231004
    13  C   -0.066320
    14  H    0.094102
    15  H    0.076495
    16  H    0.089889
    17  C    0.052850
    18  H    0.071132
    19  H    0.049530
    20  H    0.081307
 Sum of Mulliken charges =  -0.00000
 Mulliken charges with hydrogens summed into heavy atoms:
               1
     1  C    0.129287
     2  C    0.204932
     3  C   -0.352105
     4  C   -0.010402
     5  N   -0.189695
    12  F   -0.231004
    13  C    0.194167
    17  C    0.254820
 APT charges:
               1
     1  C    0.361602
     2  C    0.594166
     3  C   -0.343705
     4  C   -0.311039
     5  N   -0.241983
     6  H    0.064406
     7  H   -0.052326
     8  H    0.047720
     9  H   -0.074689
    10  H    0.097354
    11  H    0.199041
    12  F   -0.593745
    13  C   -0.086476
    14  H    0.038533
    15  H    0.040259
    16  H    0.048559
    17  C    0.139379
    18  H    0.044708
    19  H   -0.018829
    20  H    0.047063
 Sum of APT charges =  -0.00000
 APT charges with hydrogens summed into heavy atoms:
               1
     1  C    0.458956
     2  C    0.641885
     3  C   -0.470720
     4  C   -0.047592
     5  N   -0.241983
    12  F   -0.593745
    13  C    0.040876
    17  C    0.212322
 Electronic spatial extent (au):  <R**2>=           1205.3001
 Charge=             -0.0000 electrons
 Dipole moment (field-independent basis, Debye):
    X=              0.2878    Y=              5.8872    Z=              1.6035  Tot=              6.1084
 Quadrupole moment (field-independent basis, Debye-Ang):
   XX=            -41.7794   YY=            -56.7124   ZZ=            -50.8872
   XY=              3.7428   XZ=              4.0238   YZ=             -6.6436
 Traceless Quadrupole moment (field-independent basis, Debye-Ang):
   XX=              8.0136   YY=             -6.9194   ZZ=             -1.0942
   XY=              3.7428   XZ=              4.0238   YZ=             -6.6436
 Octapole moment (field-independent basis, Debye-Ang**2):
  XXX=            -19.9254  YYY=             39.3144  ZZZ=             13.7434  XYY=             -5.4801
  XXY=             12.6774  XXZ=              6.8322  XZZ=             -2.2109  YZZ=             12.3893
  YYZ=             13.5867  XYZ=             -8.5584
 Hexadecapole moment (field-independent basis, Debye-Ang**3):
 XXXX=           -772.4728 YYYY=           -506.5186 ZZZZ=           -266.8193 XXXY=            -10.9897
 XXXZ=              9.1900 YYYX=             18.6666 YYYZ=            -32.1423 ZZZX=             -0.2551
 ZZZY=            -18.8140 XXYY=           -220.7870 XXZZ=           -182.8327 YYZZ=           -136.9946
 XXYZ=              2.0697 YYXZ=              5.6073 ZZXY=              9.5761
 N-N= 3.849159277206D+02 E-N=-1.678254431420D+03  KE= 3.859528323785D+02
  Exact polarizability:      78.839      -4.301      97.531       7.477       1.732      80.659
 Approx polarizability:      71.414      -3.647      90.282       5.967       3.195      81.741
   1 Symmetry operations used in ECPInt.
 ECPInt:  NShTT=    3570 NPrTT=   12386 LenC2=    3546 LenP2D=    9917.
 LDataN:  DoStor=T MaxTD1= 6 Len=  172
 D2PCM: PCM CHGder 2nd derivatives, FixD1E=F FixD2E=F DoIter=F DoCFld=F I1PDM=0
 Calling FoFJK, ICntrl=    100127 FMM=F ISym2X=0 I1Cent= 0 IOpClX= 0 NMat=1 NMatS=1 NMatT=0.
 Full mass-weighted force constant matrix:
 Low frequencies --- -360.2430   -0.0010   -0.0010   -0.0004   11.5168   14.3047
 Low frequencies ---   26.8961   48.1465   73.9413
 ******    1 imaginary frequencies (negative Signs) ****** 
 Diagonal vibrational polarizability:
      141.0104044      43.0446011      53.9187190
 Harmonic frequencies (cm**-1), IR intensities (KM/Mole), Raman scattering
 activities (A**4/AMU), depolarization ratios for plane and unpolarized
 incident light, reduced masses (AMU), force constants (mDyne/A),
 and normal coordinates:
                      1                      2                      3
                      A                      A                      A
 Frequencies --   -360.2420                47.4233                73.7212
 Red. masses --      1.0887                 3.8056                 3.4017
 Frc consts  --      0.0832                 0.0050                 0.0109
 IR Inten    --     61.4231                 5.8195                21.4349
  Atom  AN      X      Y      Z        X      Y      Z        X      Y      Z
     1   6     0.00  -0.00  -0.00     0.06   0.06   0.04     0.03  -0.04  -0.03
     2   6    -0.00  -0.00   0.00    -0.13  -0.13   0.05     0.03   0.05   0.03
     3   6     0.04   0.01  -0.00    -0.05   0.04  -0.05     0.20  -0.06  -0.15
     4   6    -0.02   0.01  -0.01    -0.13  -0.19   0.10     0.07  -0.02   0.10
     5   7     0.03  -0.01  -0.01     0.03   0.02  -0.01     0.01  -0.05  -0.03
     6   1    -0.03   0.02   0.01    -0.22  -0.44   0.28     0.07  -0.13   0.13
     7   1    -0.54   0.19  -0.40    -0.06   0.05  -0.06     0.09  -0.16  -0.28
     8   1    -0.00  -0.00   0.01    -0.22  -0.30   0.16    -0.02   0.00  -0.01
     9   1    -0.17  -0.13   0.65    -0.07  -0.01  -0.09     0.21   0.02   0.00
    10   1     0.08  -0.00  -0.03     0.00   0.12   0.04     0.19  -0.04  -0.10
    11   1    -0.04   0.02  -0.05    -0.03  -0.01  -0.01     0.09   0.02   0.11
    12   9     0.00  -0.01  -0.00    -0.03   0.17  -0.16     0.01   0.20  -0.00
    13   6    -0.04  -0.00   0.02     0.16   0.05   0.09    -0.14  -0.04   0.04
    14   1    -0.03  -0.00  -0.03     0.17  -0.04   0.15    -0.19   0.04   0.16
    15   1    -0.07  -0.00   0.03     0.25   0.10   0.09    -0.09  -0.04   0.02
    16   1    -0.00   0.01   0.04     0.14   0.06   0.07    -0.25  -0.13  -0.02
    17   6     0.04   0.00  -0.01     0.07  -0.06  -0.01    -0.17  -0.08   0.04
    18   1     0.03  -0.02  -0.01    -0.02  -0.18  -0.01    -0.03   0.10   0.05
    19   1     0.07  -0.01  -0.03     0.22  -0.10  -0.01    -0.43  -0.02   0.19
    20   1     0.04   0.03  -0.01     0.04   0.05  -0.01    -0.18  -0.35  -0.06
                      4                      5                      6
                      A                      A                      A
 Frequencies --     80.7051               117.2607               128.2627
 Red. masses --      2.4665                 5.0697                 1.2121
 Frc consts  --      0.0095                 0.0411                 0.0117
 IR Inten    --      1.2082                 0.3472                 0.2975
  Atom  AN      X      Y      Z        X      Y      Z        X      Y      Z
     1   6    -0.11  -0.03   0.07    -0.13   0.04   0.07    -0.03  -0.00   0.03
     2   6     0.01   0.08  -0.10     0.19  -0.01  -0.05    -0.01   0.03  -0.02
     3   6     0.03  -0.04   0.01    -0.15   0.03   0.05     0.01  -0.00   0.03
     4   6     0.03  -0.02  -0.01     0.00  -0.09   0.01    -0.06   0.01  -0.01
     5   7     0.04  -0.04   0.01    -0.14   0.02   0.06     0.02  -0.00   0.02
     6   1     0.08  -0.01  -0.07    -0.10  -0.09   0.13    -0.06   0.04  -0.01
     7   1     0.17  -0.08   0.11    -0.16   0.04   0.04     0.02  -0.00   0.04
     8   1     0.03   0.17  -0.24     0.26   0.06   0.03     0.02   0.08  -0.02
     9   1     0.08  -0.01  -0.15    -0.16   0.02   0.05     0.01  -0.00   0.00
    10   1    -0.21  -0.02   0.11    -0.15   0.06   0.07    -0.10  -0.02   0.06
    11   1     0.01  -0.10   0.12    -0.05  -0.15  -0.07    -0.08  -0.02   0.01
    12   9    -0.05   0.08  -0.03     0.31  -0.01  -0.19     0.00  -0.01  -0.03
    13   6    -0.14  -0.04   0.11    -0.08   0.04   0.07    -0.03   0.00   0.00
    14   1    -0.10   0.02  -0.14    -0.02   0.03  -0.19    -0.12  -0.03   0.46
    15   1    -0.40  -0.02   0.23    -0.29   0.04   0.16     0.37  -0.01  -0.17
    16   1     0.07  -0.10   0.28     0.14   0.05   0.22    -0.41   0.05  -0.28
    17   6     0.19  -0.03  -0.05    -0.09  -0.01   0.04     0.09  -0.02  -0.01
    18   1     0.08  -0.16  -0.07     0.08   0.18  -0.11     0.27   0.17  -0.17
    19   1     0.38  -0.07  -0.16    -0.33   0.05   0.15    -0.16   0.04   0.08
    20   1     0.20   0.16   0.03     0.03  -0.30   0.08     0.22  -0.30   0.04
                      7                      8                      9
                      A                      A                      A
 Frequencies --    144.6257               157.4068               184.3449
 Red. masses --      1.4808                 2.0500                 2.1425
 Frc consts  --      0.0182                 0.0299                 0.0429
 IR Inten    --      1.8863                12.5400                 3.4679
  Atom  AN      X      Y      Z        X      Y      Z        X      Y      Z
     1   6    -0.03   0.01  -0.01    -0.03   0.03  -0.00    -0.02  -0.04   0.02
     2   6     0.07  -0.03  -0.01     0.03  -0.03  -0.04    -0.05  -0.12   0.10
     3   6    -0.09   0.01  -0.01    -0.10   0.02  -0.00    -0.03  -0.02   0.05
     4   6     0.13  -0.04   0.01     0.17  -0.07   0.01     0.09   0.15  -0.13
     5   7    -0.03   0.00  -0.02    -0.06   0.01  -0.01     0.00  -0.02   0.02
     6   1     0.15  -0.07  -0.01     0.24  -0.11  -0.07     0.02  -0.01   0.01
     7   1    -0.12   0.06  -0.00    -0.18   0.06  -0.05     0.02  -0.02   0.10
     8   1     0.04  -0.05  -0.06    -0.02  -0.05  -0.18    -0.23  -0.50   0.41
     9   1    -0.13  -0.04   0.01    -0.15  -0.03   0.08    -0.02  -0.03  -0.04
    10   1    -0.05   0.03  -0.01    -0.06   0.04   0.00    -0.03  -0.05   0.02
    11   1     0.15  -0.03   0.04     0.19  -0.06   0.11     0.22   0.41  -0.37
    12   9     0.02   0.03   0.03    -0.09   0.05   0.08     0.02   0.07  -0.04
    13   6    -0.04   0.01   0.02     0.07   0.03  -0.02    -0.07  -0.03  -0.01
    14   1    -0.11  -0.02   0.41     0.12  -0.03  -0.17    -0.08   0.02  -0.04
    15   1     0.29   0.03  -0.09    -0.00   0.03   0.01    -0.12  -0.06  -0.01
    16   1    -0.35   0.00  -0.20     0.20   0.08   0.05    -0.06  -0.05   0.00
    17   6    -0.03  -0.00  -0.02     0.03  -0.04  -0.04     0.05  -0.00  -0.00
    18   1    -0.26  -0.26   0.12     0.29   0.23  -0.27     0.10   0.05  -0.05
    19   1     0.31  -0.09  -0.14    -0.32   0.04   0.12    -0.01   0.01  -0.01
    20   1    -0.16   0.35  -0.04     0.21  -0.45   0.02     0.10  -0.06   0.04
                     10                     11                     12
                      A                      A                      A
 Frequencies --    304.7957               331.2086               452.4006
 Red. masses --      2.5404                 2.6716                 2.6346
 Frc consts  --      0.1391                 0.1727                 0.3177
 IR Inten    --     23.7047                 4.9525                11.4471
  Atom  AN      X      Y      Z        X      Y      Z        X      Y      Z
     1   6     0.24   0.00  -0.09    -0.03  -0.03  -0.09    -0.05   0.08  -0.06
     2   6    -0.01   0.02  -0.01    -0.00  -0.00   0.01    -0.01   0.00   0.01
     3   6    -0.18   0.02   0.06     0.03  -0.08   0.09     0.09  -0.03   0.23
     4   6    -0.02  -0.02   0.02     0.00   0.01  -0.01     0.00   0.01  -0.00
     5   7     0.11   0.00  -0.04    -0.04  -0.03  -0.10     0.03   0.05  -0.11
     6   1    -0.01  -0.02   0.01    -0.00   0.00   0.00     0.02  -0.01  -0.01
     7   1    -0.03   0.19   0.26     0.05   0.00   0.14     0.18   0.17   0.39
     8   1     0.01   0.06  -0.04    -0.01  -0.02   0.02    -0.02  -0.01   0.03
     9   1    -0.22  -0.14  -0.16     0.05  -0.01   0.16     0.14   0.10   0.37
    10   1     0.36  -0.00  -0.14    -0.05   0.10  -0.13    -0.14   0.13  -0.05
    11   1    -0.01  -0.03   0.06    -0.00   0.01  -0.01     0.01   0.01   0.03
    12   9    -0.01  -0.01  -0.00     0.00   0.00  -0.00     0.00  -0.00  -0.01
    13   6    -0.12   0.00   0.05     0.08  -0.09   0.21    -0.01   0.09  -0.01
    14   1    -0.22   0.33   0.06     0.10  -0.23   0.33     0.01   0.03  -0.02
    15   1    -0.34  -0.01   0.13     0.18   0.17   0.34    -0.00   0.15   0.02
    16   1    -0.18  -0.33   0.10     0.06  -0.25   0.24     0.03   0.08   0.02
    17   6     0.01  -0.01  -0.00    -0.06   0.18  -0.14    -0.05  -0.19  -0.07
    18   1     0.08   0.07  -0.01     0.06   0.35  -0.09    -0.16  -0.34  -0.11
    19   1    -0.11   0.01   0.07    -0.23   0.23  -0.21     0.05  -0.25   0.19
    20   1     0.01  -0.15  -0.05    -0.01   0.12  -0.11    -0.16  -0.27  -0.21
                     13                     14                     15
                      A                      A                      A
 Frequencies --    486.5542               525.0951               569.8138
 Red. masses --      2.4198                 2.5066                 3.2130
 Frc consts  --      0.3375                 0.4072                 0.6146
 IR Inten    --      1.7726                 3.1420                13.0662
  Atom  AN      X      Y      Z        X      Y      Z        X      Y      Z
     1   6    -0.12  -0.02   0.07    -0.00   0.00   0.00    -0.07  -0.08  -0.16
     2   6    -0.02   0.01   0.00     0.17  -0.11  -0.04     0.01  -0.00  -0.00
     3   6    -0.06   0.02  -0.03    -0.00  -0.01   0.01     0.02   0.29   0.02
     4   6     0.02   0.01   0.01    -0.12  -0.07  -0.14    -0.01  -0.00  -0.01
     5   7     0.27  -0.02  -0.09     0.03  -0.00  -0.01     0.00   0.13   0.03
     6   1     0.05  -0.02  -0.02    -0.42   0.33   0.15    -0.02   0.01   0.01
     7   1    -0.07   0.23   0.06     0.03   0.02   0.05     0.00   0.18  -0.05
     8   1    -0.01   0.01   0.01     0.13  -0.14  -0.13     0.01  -0.01  -0.00
     9   1    -0.19  -0.24  -0.13     0.01  -0.02  -0.03     0.00   0.22  -0.09
    10   1    -0.45  -0.03   0.21    -0.04   0.01   0.02    -0.02  -0.25  -0.11
    11   1     0.03   0.02   0.06    -0.35  -0.30  -0.55    -0.01  -0.01  -0.02
    12   9    -0.00  -0.01  -0.01    -0.01   0.12   0.13     0.00   0.01   0.00
    13   6     0.01  -0.02  -0.01    -0.00   0.01  -0.00    -0.00  -0.23   0.00
    14   1     0.06  -0.16  -0.07    -0.00   0.02  -0.00     0.05  -0.46   0.10
    15   1     0.04  -0.04  -0.03    -0.01   0.00  -0.00     0.08   0.07   0.17
    16   1     0.08   0.13   0.00     0.00   0.01  -0.00     0.06  -0.41   0.10
    17   6    -0.05   0.04   0.04    -0.00  -0.00   0.00     0.03  -0.04   0.08
    18   1    -0.02   0.15   0.36    -0.00   0.01   0.04    -0.04  -0.18  -0.08
    19   1    -0.26   0.09   0.15    -0.02   0.00   0.02     0.13  -0.10   0.31
    20   1    -0.29  -0.06  -0.25    -0.03  -0.01  -0.03     0.01  -0.15   0.02
                     16                     17                     18
                      A                      A                      A
 Frequencies --    751.6425               804.8509               858.5905
 Red. masses --      1.4197                 3.2220                 1.1230
 Frc consts  --      0.4726                 1.2297                 0.4878
 IR Inten    --      8.5772                 3.9324                38.6654
  Atom  AN      X      Y      Z        X      Y      Z        X      Y      Z
     1   6     0.00   0.00  -0.00     0.07  -0.03   0.17    -0.04  -0.00   0.02
     2   6    -0.06  -0.13   0.11    -0.00  -0.00  -0.00     0.00  -0.00   0.00
     3   6    -0.00  -0.00  -0.01     0.05   0.26   0.08    -0.01   0.00   0.01
     4   6    -0.00  -0.00  -0.00    -0.00  -0.01   0.00    -0.00  -0.01   0.01
     5   7    -0.00   0.00   0.00    -0.01  -0.10   0.02     0.03  -0.01  -0.01
     6   1     0.29   0.62  -0.53     0.01   0.02  -0.02     0.01   0.03  -0.02
     7   1     0.00   0.00  -0.00    -0.00   0.12  -0.04     0.04   0.08   0.09
     8   1     0.12   0.25  -0.21     0.01   0.01  -0.01     0.01   0.01  -0.01
     9   1    -0.00   0.00   0.01     0.02   0.17  -0.08    -0.03  -0.09  -0.11
    10   1    -0.01  -0.01   0.00     0.04   0.04   0.17     0.64  -0.01  -0.25
    11   1    -0.11  -0.23   0.20     0.01   0.01  -0.01     0.01   0.02  -0.02
    12   9     0.02   0.05  -0.04     0.00   0.00   0.00    -0.00   0.00  -0.00
    13   6     0.00   0.00   0.00     0.02  -0.08   0.04    -0.08   0.01   0.03
    14   1    -0.00   0.01   0.00    -0.03   0.22  -0.12     0.09  -0.41  -0.12
    15   1    -0.01   0.00   0.01    -0.08  -0.52  -0.21     0.24   0.01  -0.09
    16   1    -0.00  -0.01   0.00    -0.08   0.17  -0.11     0.13   0.43   0.04
    17   6     0.00   0.00   0.00    -0.09  -0.06  -0.23    -0.01   0.00  -0.01
    18   1     0.00   0.00   0.00    -0.04   0.04  -0.12     0.01  -0.00  -0.08
    19   1     0.00   0.00   0.00    -0.18  -0.01  -0.44     0.02  -0.00  -0.03
    20   1     0.00   0.00   0.01    -0.08   0.04  -0.18     0.05   0.01   0.06
                     19                     20                     21
                      A                      A                      A
 Frequencies --    948.2423               958.5866               971.4823
 Red. masses --      1.9458                 1.4077                 1.7625
 Frc consts  --      1.0308                 0.7621                 0.9801
 IR Inten    --     45.6224                 7.8000                25.7061
  Atom  AN      X      Y      Z        X      Y      Z        X      Y      Z
     1   6    -0.00  -0.01  -0.01     0.01   0.00   0.01     0.02   0.06   0.07
     2   6     0.07   0.03   0.04    -0.03  -0.09   0.08     0.02   0.02  -0.01
     3   6     0.00   0.01   0.02    -0.01  -0.00  -0.02    -0.05  -0.08  -0.13
     4   6     0.12   0.01   0.14     0.06   0.10  -0.06     0.00  -0.01   0.02
     5   7    -0.00  -0.01  -0.00     0.00   0.01   0.00     0.01   0.11   0.01
     6   1    -0.21   0.67   0.43    -0.27  -0.38   0.49     0.01   0.13  -0.02
     7   1    -0.04  -0.04  -0.05     0.05   0.05   0.06     0.32   0.26   0.38
     8   1    -0.08  -0.14  -0.08     0.21   0.44  -0.41    -0.07  -0.15   0.11
     9   1     0.01  -0.01  -0.08    -0.00   0.03   0.07     0.02   0.22   0.52
    10   1    -0.02  -0.00  -0.00     0.02   0.00   0.00     0.03   0.15   0.04
    11   1    -0.09  -0.13  -0.42    -0.12  -0.23   0.12    -0.04  -0.07   0.02
    12   9    -0.10  -0.05  -0.11    -0.02  -0.00  -0.02    -0.01  -0.00  -0.01
    13   6     0.00   0.01   0.00    -0.00  -0.01   0.01     0.01  -0.13   0.02
    14   1    -0.00   0.02   0.01     0.00  -0.01  -0.02    -0.00  -0.03  -0.10
    15   1    -0.00   0.02   0.01     0.00  -0.04  -0.02    -0.03  -0.38  -0.12
    16   1     0.00   0.01   0.00    -0.00   0.02  -0.01    -0.05   0.00  -0.07
    17   6     0.00   0.00   0.00    -0.00   0.00  -0.00    -0.01   0.02  -0.02
    18   1    -0.00  -0.00   0.01    -0.00   0.00  -0.01    -0.03  -0.03  -0.11
    19   1    -0.00   0.00   0.01     0.01  -0.00  -0.00     0.06  -0.02   0.08
    20   1    -0.00  -0.01  -0.00     0.01   0.00   0.01     0.02  -0.03  -0.00
                     22                     23                     24
                      A                      A                      A
 Frequencies --   1016.4175              1031.9615              1037.9212
 Red. masses --      1.1587                 1.9812                 1.3516
 Frc consts  --      0.7053                 1.2431                 0.8579
 IR Inten    --     56.8090                 1.1960                28.6341
  Atom  AN      X      Y      Z        X      Y      Z        X      Y      Z
     1   6    -0.00   0.03   0.01    -0.03   0.00  -0.08    -0.02  -0.03  -0.02
     2   6    -0.02  -0.02   0.01     0.01   0.00  -0.00    -0.01  -0.01   0.00
     3   6     0.00  -0.04   0.02     0.02   0.05   0.03    -0.01   0.06  -0.06
     4   6    -0.02  -0.05   0.04     0.00   0.02  -0.01    -0.01  -0.03   0.02
     5   7    -0.00   0.03  -0.01    -0.06  -0.09  -0.14    -0.01  -0.08  -0.03
     6   1     0.03  -0.02  -0.05    -0.00  -0.02  -0.00     0.01   0.02  -0.02
     7   1    -0.08  -0.08  -0.08    -0.02   0.03  -0.02     0.26   0.24   0.28
     8   1     0.16   0.36  -0.29    -0.04  -0.10   0.09     0.07   0.16  -0.13
     9   1     0.02  -0.04  -0.11     0.01   0.02  -0.06     0.01   0.22   0.35
    10   1    -0.01   0.15  -0.03    -0.07   0.44  -0.23    -0.02  -0.01  -0.03
    11   1     0.26   0.54  -0.46    -0.08  -0.16   0.16     0.14   0.29  -0.25
    12   9     0.01  -0.00   0.01    -0.00   0.00  -0.00     0.00  -0.00   0.00
    13   6     0.01  -0.05   0.01     0.03  -0.03   0.09    -0.00   0.04  -0.02
    14   1    -0.01   0.05  -0.04    -0.01   0.28  -0.18    -0.00  -0.00   0.05
    15   1    -0.04  -0.20  -0.07    -0.04  -0.49  -0.19     0.01   0.19   0.07
    16   1    -0.04   0.00  -0.04    -0.13   0.31  -0.13     0.03  -0.03   0.03
    17   6     0.01   0.03  -0.00     0.06   0.03   0.16     0.01  -0.07   0.07
    18   1    -0.07  -0.08  -0.07     0.05   0.00   0.11     0.18   0.19   0.23
    19   1     0.06  -0.00   0.19     0.07   0.03   0.18    -0.12   0.02  -0.34
    20   1    -0.03  -0.08  -0.08     0.03   0.01   0.11     0.06   0.19   0.21
                     25                     26                     27
                      A                      A                      A
 Frequencies --   1094.1532              1124.7358              1131.9508
 Red. masses --      1.5201                 1.2786                 1.8873
 Frc consts  --      1.0722                 0.9530                 1.4247
 IR Inten    --      1.3472                 1.4942                27.8832
  Atom  AN      X      Y      Z        X      Y      Z        X      Y      Z
     1   6     0.15   0.00  -0.06    -0.07  -0.00   0.03     0.04   0.17   0.10
     2   6     0.01  -0.00   0.00    -0.01   0.00  -0.00    -0.02   0.00  -0.01
     3   6    -0.03   0.00   0.00    -0.04   0.00  -0.00     0.02  -0.01   0.05
     4   6    -0.00  -0.00   0.00     0.00   0.00  -0.00     0.01   0.00  -0.01
     5   7    -0.04   0.00   0.02    -0.03  -0.00   0.01    -0.02  -0.02  -0.06
     6   1     0.01  -0.02  -0.02    -0.01   0.01   0.01    -0.02   0.02   0.03
     7   1     0.01  -0.23  -0.07     0.03  -0.18  -0.02    -0.12  -0.06  -0.11
     8   1     0.01   0.01  -0.00    -0.01  -0.01   0.01    -0.03  -0.02   0.01
     9   1     0.09   0.25   0.10     0.07   0.23   0.10     0.02  -0.06  -0.16
    10   1    -0.46  -0.01   0.19     0.42  -0.01  -0.16     0.02   0.58  -0.03
    11   1     0.01   0.04  -0.01    -0.02  -0.04   0.01    -0.04  -0.09   0.03
    12   9    -0.00   0.00  -0.00     0.00  -0.00   0.00     0.01   0.00   0.00
    13   6    -0.11  -0.00   0.04     0.04   0.00  -0.02    -0.05  -0.10  -0.12
    14   1     0.05  -0.38  -0.17    -0.02   0.12   0.07     0.00  -0.42   0.09
    15   1     0.24   0.01  -0.09    -0.09   0.02   0.04    -0.00   0.11   0.02
    16   1     0.12   0.36   0.09    -0.04  -0.13  -0.03     0.09  -0.41   0.07
    17   6     0.06  -0.01  -0.02     0.11  -0.01  -0.04     0.01  -0.04   0.03
    18   1     0.01   0.01   0.26     0.01  -0.01   0.48     0.13   0.14   0.17
    19   1    -0.13   0.04   0.08    -0.23   0.07   0.18    -0.08   0.01  -0.17
    20   1    -0.15   0.01  -0.24    -0.29  -0.02  -0.47     0.02   0.14   0.11
                     28                     29                     30
                      A                      A                      A
 Frequencies --   1178.5834              1204.2523              1241.1871
 Red. masses --      3.0176                 1.8917                 1.3244
 Frc consts  --      2.4696                 1.6163                 1.2021
 IR Inten    --    117.3278                 2.9615                18.2911
  Atom  AN      X      Y      Z        X      Y      Z        X      Y      Z
     1   6    -0.01   0.01   0.02    -0.04   0.05  -0.10     0.03   0.00  -0.01
     2   6     0.31  -0.06   0.09     0.01  -0.00   0.00     0.00  -0.00  -0.00
     3   6    -0.00   0.00   0.00     0.01  -0.06   0.04     0.09  -0.01  -0.03
     4   6    -0.12   0.06   0.01    -0.00   0.00  -0.00    -0.00  -0.00   0.00
     5   7     0.00  -0.01  -0.01     0.03   0.16   0.04    -0.11   0.00   0.04
     6   1     0.17  -0.28  -0.26     0.01  -0.02  -0.01    -0.01   0.01   0.01
     7   1    -0.00  -0.02  -0.01    -0.16  -0.10  -0.14     0.05   0.60   0.22
     8   1     0.46   0.06   0.30     0.02   0.01   0.02     0.01   0.01   0.01
     9   1    -0.00   0.01  -0.00     0.02  -0.10  -0.19    -0.21  -0.59  -0.19
    10   1     0.04   0.07  -0.01     0.01  -0.17  -0.04    -0.08   0.01   0.03
    11   1     0.14   0.37   0.42     0.00   0.01   0.02     0.02   0.02   0.00
    12   9    -0.16  -0.00  -0.09    -0.01  -0.00  -0.00    -0.00  -0.00  -0.00
    13   6     0.00  -0.01  -0.02     0.03  -0.04   0.07    -0.01  -0.00   0.00
    14   1    -0.02  -0.01   0.06     0.02   0.13  -0.14     0.01  -0.03  -0.01
    15   1    -0.03   0.04   0.02    -0.02  -0.28  -0.06     0.01   0.00  -0.00
    16   1     0.02  -0.06   0.01    -0.13   0.11  -0.09     0.00   0.01   0.00
    17   6     0.00   0.01  -0.00    -0.00  -0.14  -0.00     0.06  -0.00  -0.02
    18   1    -0.01  -0.01   0.02     0.24   0.24   0.30    -0.03  -0.05   0.18
    19   1     0.01   0.00   0.02    -0.26  -0.01  -0.50    -0.16   0.04   0.09
    20   1     0.00  -0.02  -0.01    -0.00   0.30   0.15    -0.10   0.04  -0.18
                     31                     32                     33
                      A                      A                      A
 Frequencies --   1339.7233              1346.9711              1394.3426
 Red. masses --      1.1485                 1.3262                 1.2543
 Frc consts  --      1.2146                 1.4177                 1.4368
 IR Inten    --      1.6752                 4.8789                15.0016
  Atom  AN      X      Y      Z        X      Y      Z        X      Y      Z
     1   6     0.00   0.00   0.00    -0.01  -0.08  -0.04     0.01   0.04   0.03
     2   6    -0.05   0.04   0.02    -0.01   0.00  -0.00     0.01   0.02   0.03
     3   6     0.00  -0.00   0.00    -0.00   0.01  -0.01     0.00  -0.03   0.01
     4   6     0.06  -0.06  -0.04     0.00  -0.01  -0.00    -0.00   0.01   0.01
     5   7    -0.00  -0.00  -0.01     0.04   0.03   0.10    -0.03   0.01  -0.06
     6   1     0.06  -0.08  -0.05    -0.01   0.01   0.01     0.11  -0.14  -0.11
     7   1    -0.01   0.02   0.00     0.05  -0.09   0.00    -0.15   0.21  -0.02
     8   1     0.38   0.41   0.70     0.02   0.03   0.05    -0.07  -0.04  -0.08
     9   1     0.01   0.02  -0.01    -0.05  -0.08   0.04     0.12   0.17  -0.13
    10   1     0.01  -0.04   0.02    -0.11   0.69  -0.27     0.06  -0.32   0.15
    11   1    -0.10  -0.25  -0.31    -0.00  -0.02  -0.01    -0.10  -0.10  -0.15
    12   9    -0.03   0.01  -0.01    -0.00   0.00   0.00     0.00  -0.00  -0.00
    13   6     0.00   0.01   0.00    -0.01  -0.06  -0.03    -0.01  -0.10  -0.04
    14   1     0.01  -0.02  -0.01    -0.14   0.30   0.14    -0.21   0.34   0.33
    15   1     0.00  -0.01  -0.01     0.05   0.26   0.14     0.01   0.15   0.12
    16   1    -0.01  -0.02   0.00     0.19   0.31   0.01     0.36   0.40   0.08
    17   6     0.00   0.00   0.00    -0.01  -0.01  -0.02     0.00  -0.00   0.01
    18   1     0.00   0.00  -0.01    -0.03  -0.05  -0.06     0.04   0.05   0.06
    19   1     0.01  -0.00   0.01    -0.06   0.01  -0.13     0.03  -0.01   0.09
    20   1    -0.00   0.00  -0.00    -0.04  -0.03  -0.06     0.03   0.05   0.05
                     34                     35                     36
                      A                      A                      A
 Frequencies --   1412.8532              1428.5128              1438.9287
 Red. masses --      1.1861                 1.1757                 1.0929
 Frc consts  --      1.3950                 1.4136                 1.3333
 IR Inten    --      4.6713                 2.7145                19.6001
  Atom  AN      X      Y      Z        X      Y      Z        X      Y      Z
     1   6     0.00   0.03   0.01    -0.01  -0.01  -0.02     0.00  -0.04   0.02
     2   6    -0.03  -0.05  -0.08    -0.01  -0.01  -0.02    -0.01  -0.01  -0.02
     3   6     0.00   0.01   0.00    -0.00  -0.00   0.00    -0.00  -0.06   0.00
     4   6     0.01  -0.03  -0.03     0.00  -0.01  -0.01     0.00  -0.00  -0.01
     5   7    -0.01   0.00  -0.03     0.01  -0.01   0.02     0.01   0.00   0.01
     6   1    -0.31   0.41   0.30    -0.07   0.10   0.07    -0.07   0.10   0.07
     7   1     0.05  -0.11  -0.01    -0.06   0.08  -0.01    -0.33   0.50  -0.04
     8   1     0.18   0.13   0.24     0.04   0.03   0.06     0.04   0.02   0.05
     9   1    -0.06  -0.08   0.06     0.05   0.09  -0.04     0.30   0.46  -0.26
    10   1     0.03  -0.18   0.07    -0.03   0.09  -0.05    -0.02   0.10  -0.02
    11   1     0.29   0.27   0.44     0.07   0.06   0.10     0.07   0.07   0.14
    12   9     0.01   0.01   0.01     0.00   0.00   0.00     0.00   0.00   0.00
    13   6    -0.01  -0.04  -0.01     0.00   0.01  -0.00     0.00   0.01   0.01
    14   1    -0.08   0.13   0.11    -0.00  -0.02   0.07     0.05  -0.00  -0.19
    15   1     0.02   0.04   0.03    -0.06  -0.06  -0.03     0.07   0.13   0.06
    16   1     0.14   0.14   0.04     0.03   0.02   0.02    -0.14  -0.06  -0.07
    17   6     0.00  -0.00   0.02    -0.03   0.00  -0.11     0.01   0.01   0.03
    18   1     0.07   0.05  -0.09    -0.16  -0.00   0.56    -0.09  -0.14  -0.07
    19   1     0.03  -0.01  -0.00     0.00  -0.06   0.36    -0.09   0.06  -0.20
    20   1    -0.09   0.05  -0.06     0.47  -0.03   0.43    -0.03  -0.11  -0.06
                     37                     38                     39
                      A                      A                      A
 Frequencies --   1454.9891              1458.9404              1475.0592
 Red. masses --      1.0502                 1.1437                 1.0425
 Frc consts  --      1.3099                 1.4343                 1.3365
 IR Inten    --     28.5606                 8.3041                 1.3302
  Atom  AN      X      Y      Z        X      Y      Z        X      Y      Z
     1   6     0.01  -0.02  -0.00     0.01   0.06   0.02    -0.02  -0.01   0.01
     2   6    -0.00  -0.00  -0.00     0.00   0.00   0.00     0.00  -0.00   0.00
     3   6    -0.01  -0.00   0.00    -0.00   0.02   0.00    -0.00   0.00   0.00
     4   6     0.00  -0.00  -0.00     0.00  -0.00   0.00    -0.00   0.00   0.00
     5   7     0.01  -0.00  -0.00     0.00  -0.01  -0.03     0.01  -0.00  -0.01
     6   1    -0.01   0.01   0.01     0.01  -0.01  -0.01     0.01  -0.01  -0.01
     7   1    -0.04   0.02  -0.02     0.10  -0.18   0.01    -0.00  -0.01  -0.01
     8   1     0.00   0.00   0.00    -0.00   0.00  -0.00    -0.00  -0.00  -0.01
     9   1     0.04   0.08  -0.01    -0.09  -0.13   0.09     0.01   0.02   0.01
    10   1    -0.03   0.04  -0.01     0.03  -0.12   0.08     0.01   0.01  -0.01
    11   1     0.00   0.00   0.01    -0.01  -0.01  -0.02    -0.01  -0.00  -0.01
    12   9     0.00   0.00   0.00    -0.00  -0.00  -0.00    -0.00  -0.00  -0.00
    13   6     0.03   0.02  -0.01     0.01  -0.08   0.01    -0.04   0.01   0.01
    14   1     0.05  -0.28   0.26     0.04   0.10  -0.37    -0.07   0.29  -0.17
    15   1    -0.45  -0.08   0.12     0.06   0.40   0.30     0.48  -0.03  -0.23
    16   1    -0.07   0.21  -0.13    -0.31   0.14  -0.28     0.18  -0.30   0.24
    17   6     0.02  -0.03  -0.00     0.02   0.02   0.00     0.02  -0.02  -0.01
    18   1    -0.01  -0.13  -0.31    -0.23  -0.29   0.04    -0.05  -0.14  -0.20
    19   1    -0.38   0.07   0.25    -0.28   0.11  -0.05    -0.35   0.07   0.25
    20   1    -0.04   0.46   0.09     0.17  -0.03   0.16     0.02   0.39   0.13
                     40                     41                     42
                      A                      A                      A
 Frequencies --   1479.6792              1748.0142              1806.5819
 Red. masses --      1.0704                 4.8759                 7.7035
 Frc consts  --      1.3808                 8.7780                14.8133
 IR Inten    --     11.7965               100.5692                31.8689
  Atom  AN      X      Y      Z        X      Y      Z        X      Y      Z
     1   6     0.01  -0.02   0.02    -0.00   0.01  -0.00    -0.12   0.46  -0.30
     2   6     0.00  -0.00  -0.00     0.04   0.27   0.34    -0.00  -0.01  -0.01
     3   6     0.00  -0.00  -0.00    -0.00  -0.00  -0.00    -0.01  -0.00  -0.03
     4   6    -0.00   0.00   0.00     0.02  -0.26  -0.29     0.00   0.01   0.01
     5   7    -0.01  -0.01   0.01     0.00  -0.01   0.00     0.12  -0.36   0.32
     6   1     0.00  -0.00  -0.00    -0.37   0.17  -0.00     0.01  -0.01  -0.00
     7   1    -0.04   0.07  -0.00    -0.01   0.01  -0.00    -0.06   0.27   0.10
     8   1     0.00  -0.00  -0.00    -0.42  -0.00  -0.23     0.01   0.00   0.01
     9   1     0.03   0.04  -0.04     0.01   0.01  -0.00     0.15   0.25  -0.02
    10   1     0.00   0.06  -0.01     0.00  -0.01   0.00    -0.06  -0.27  -0.11
    11   1    -0.00   0.00   0.00     0.43   0.03   0.26    -0.02  -0.01  -0.02
    12   9    -0.00  -0.00  -0.00    -0.02  -0.02  -0.03     0.00   0.00   0.00
    13   6     0.00  -0.02   0.01     0.00  -0.00   0.00     0.01  -0.08   0.01
    14   1     0.04   0.06  -0.30     0.00   0.00  -0.01    -0.03   0.06   0.02
    15   1     0.08   0.26   0.16     0.01  -0.00  -0.00    -0.01  -0.19  -0.04
    16   1    -0.23   0.03  -0.18    -0.01  -0.02  -0.00     0.03   0.05  -0.00
    17   6    -0.04  -0.04  -0.04     0.00  -0.00   0.00    -0.02   0.03  -0.04
    18   1     0.32   0.42  -0.06     0.01   0.00  -0.02    -0.01  -0.04  -0.26
    19   1     0.30  -0.17   0.42    -0.00   0.00   0.00     0.04  -0.01   0.15
    20   1    -0.14   0.30  -0.05    -0.02   0.01  -0.01    -0.13   0.01  -0.14
                     43                     44                     45
                      A                      A                      A
 Frequencies --   2970.7826              3016.4721              3064.5935
 Red. masses --      1.0567                 1.0999                 1.0392
 Frc consts  --      5.4949                 5.8965                 5.7501
 IR Inten    --     72.1033               109.5757                 1.4795
  Atom  AN      X      Y      Z        X      Y      Z        X      Y      Z
     1   6     0.00  -0.00   0.00    -0.00  -0.00   0.00     0.00   0.00   0.00
     2   6    -0.00   0.00   0.00    -0.00   0.00   0.00    -0.00   0.00   0.00
     3   6    -0.00   0.05  -0.05    -0.09   0.01   0.03     0.00  -0.00   0.00
     4   6     0.00  -0.00  -0.00     0.00  -0.00  -0.00     0.00  -0.00  -0.00
     5   7    -0.00   0.00  -0.00    -0.00   0.00  -0.00    -0.00   0.00  -0.00
     6   1     0.00   0.00   0.00     0.00   0.00   0.00     0.00   0.00   0.00
     7   1    -0.49  -0.25   0.54     0.37   0.22  -0.46     0.00   0.00  -0.00
     8   1     0.00   0.00   0.00     0.00  -0.00   0.00     0.00  -0.00  -0.00
     9   1     0.56  -0.29   0.07     0.67  -0.37   0.13    -0.00   0.00  -0.00
    10   1     0.00  -0.00  -0.00    -0.00  -0.00   0.00     0.00  -0.00   0.00
    11   1    -0.02   0.01   0.00    -0.02   0.01   0.01    -0.00   0.00   0.00
    12   9     0.00  -0.00   0.00     0.00   0.00   0.00     0.00   0.00  -0.00
    13   6    -0.00   0.00  -0.00     0.00   0.00  -0.00    -0.01  -0.05  -0.02
    14   1     0.00   0.00  -0.00     0.00   0.00   0.00     0.63   0.18   0.13
    15   1     0.00   0.00   0.00    -0.00   0.00   0.00    -0.14   0.22  -0.34
    16   1    -0.00   0.00   0.00     0.00  -0.00  -0.00    -0.35   0.14   0.48
    17   6     0.00  -0.00   0.00     0.00  -0.00  -0.00     0.00   0.00  -0.00
    18   1    -0.01   0.01  -0.00    -0.01   0.01   0.00     0.00   0.00   0.00
    19   1    -0.00  -0.01   0.00     0.00  -0.00  -0.00    -0.00  -0.01  -0.00
    20   1     0.01   0.00  -0.01    -0.00  -0.00   0.00    -0.00  -0.00   0.00
                     46                     47                     48
                      A                      A                      A
 Frequencies --   3075.1198              3103.3758              3155.5066
 Red. masses --      1.0332                 1.0748                 1.1024
 Frc consts  --      5.7565                 6.0989                 6.4672
 IR Inten    --     20.4355               110.2547                 0.4102
  Atom  AN      X      Y      Z        X      Y      Z        X      Y      Z
     1   6     0.00  -0.00   0.00    -0.00  -0.00  -0.00    -0.00   0.00   0.00
     2   6    -0.00   0.00   0.00    -0.00  -0.00  -0.01     0.00  -0.00   0.00
     3   6    -0.00   0.00  -0.00    -0.00   0.00  -0.00    -0.00   0.00   0.00
     4   6     0.00  -0.00  -0.00    -0.04   0.05   0.04     0.00  -0.00  -0.00
     5   7    -0.00   0.00  -0.00    -0.00  -0.00  -0.00     0.00  -0.00  -0.00
     6   1     0.01   0.00   0.00    -0.31  -0.06  -0.24     0.00   0.00   0.00
     7   1    -0.01  -0.01   0.01    -0.01   0.00  -0.00    -0.00  -0.00  -0.00
     8   1    -0.00   0.00   0.00     0.05  -0.04  -0.02    -0.00   0.00   0.00
     9   1     0.01  -0.01   0.00     0.03  -0.01   0.01    -0.00   0.00   0.00
    10   1     0.00   0.00   0.01     0.00  -0.00   0.00    -0.01  -0.00  -0.00
    11   1    -0.01   0.01   0.00     0.76  -0.48  -0.14    -0.00   0.00   0.00
    12   9     0.00  -0.00   0.00    -0.00   0.00  -0.00    -0.00  -0.00   0.00
    13   6     0.00  -0.00   0.00    -0.00  -0.00  -0.00    -0.09   0.00   0.03
    14   1    -0.00  -0.00   0.00     0.01   0.00   0.00     0.65   0.19   0.15
    15   1    -0.00   0.00  -0.00     0.00   0.00   0.00     0.01  -0.04   0.07
    16   1    -0.00   0.00   0.00     0.00   0.00  -0.00     0.39  -0.17  -0.57
    17   6    -0.01  -0.01  -0.04     0.00   0.00  -0.00    -0.00  -0.00   0.00
    18   1     0.41  -0.32   0.08     0.01  -0.01   0.00     0.01  -0.01   0.00
    19   1     0.17   0.58   0.06     0.00   0.00   0.00     0.01   0.02   0.00
    20   1    -0.42  -0.13   0.39    -0.01  -0.00   0.01     0.02   0.00  -0.01
                     49                     50                     51
                      A                      A                      A
 Frequencies --   3186.9495              3194.5775              3196.0262
 Red. masses --      1.1068                 1.1059                 1.1049
 Frc consts  --      6.6231                 6.6495                 6.6497
 IR Inten    --     13.5941                 7.4466                 4.2325
  Atom  AN      X      Y      Z        X      Y      Z        X      Y      Z
     1   6    -0.00   0.00   0.00     0.00   0.00   0.01     0.01   0.00   0.01
     2   6    -0.00   0.00   0.00     0.00  -0.00   0.00     0.00  -0.00  -0.00
     3   6    -0.00  -0.00  -0.00    -0.00   0.00   0.00    -0.00   0.00  -0.00
     4   6     0.00   0.00   0.00     0.00  -0.00  -0.00     0.00   0.00   0.00
     5   7     0.00  -0.00   0.00    -0.00   0.00  -0.00     0.00  -0.00   0.00
     6   1    -0.01  -0.00  -0.00     0.00   0.00   0.00    -0.00  -0.00  -0.00
     7   1     0.01   0.00  -0.00     0.00   0.00  -0.00     0.00   0.00  -0.00
     8   1     0.01  -0.00  -0.00    -0.00   0.00   0.00    -0.00   0.00   0.00
     9   1     0.00  -0.00   0.00     0.00  -0.00  -0.00    -0.00   0.00   0.00
    10   1    -0.01  -0.00  -0.01    -0.04  -0.03  -0.09    -0.06  -0.05  -0.14
    11   1     0.01  -0.00  -0.00    -0.00   0.00   0.00     0.00  -0.00  -0.00
    12   9    -0.00   0.00  -0.00    -0.00   0.00  -0.00     0.00   0.00   0.00
    13   6     0.01  -0.00   0.01    -0.02   0.02  -0.06    -0.02   0.02  -0.06
    14   1    -0.05  -0.01  -0.01     0.16   0.05   0.03     0.16   0.05   0.03
    15   1    -0.04   0.07  -0.10     0.21  -0.33   0.50     0.20  -0.31   0.48
    16   1     0.01  -0.01  -0.01    -0.14   0.06   0.19    -0.14   0.06   0.18
    17   6    -0.07  -0.05   0.03    -0.05   0.05   0.01     0.03  -0.06  -0.00
    18   1     0.12  -0.11   0.03     0.46  -0.36   0.09    -0.45   0.35  -0.08
    19   1     0.16   0.57   0.06    -0.08  -0.28  -0.03     0.12   0.40   0.04
    20   1     0.55   0.16  -0.51     0.16   0.06  -0.15    -0.06  -0.03   0.06
                     52                     53                     54
                      A                      A                      A
 Frequencies --   3222.9502              3223.2184              3267.5795
 Red. masses --      1.0926                 1.0977                 1.1125
 Frc consts  --      6.6866                 6.7190                 6.9983
 IR Inten    --      1.9464                20.7343                 9.5719
  Atom  AN      X      Y      Z        X      Y      Z        X      Y      Z
     1   6    -0.03  -0.02  -0.07    -0.01  -0.01  -0.02     0.00   0.00   0.00
     2   6     0.02  -0.02  -0.01    -0.06   0.05   0.02    -0.02   0.01   0.01
     3   6    -0.00  -0.00  -0.00     0.00  -0.00   0.00     0.00   0.00  -0.00
     4   6    -0.01   0.00  -0.00     0.02  -0.01   0.00    -0.08   0.00  -0.04
     5   7     0.00  -0.00   0.00     0.00  -0.00   0.00    -0.00  -0.00  -0.00
     6   1     0.05   0.01   0.04    -0.13  -0.02  -0.10     0.71   0.13   0.54
     7   1    -0.00   0.00   0.00     0.00  -0.00   0.00    -0.00  -0.00  -0.00
     8   1    -0.25   0.17   0.06     0.74  -0.51  -0.20     0.17  -0.12  -0.05
     9   1     0.00   0.00   0.00    -0.00   0.00  -0.00     0.00  -0.00   0.00
    10   1     0.33   0.29   0.82     0.11   0.10   0.27    -0.00  -0.00  -0.01
    11   1     0.03  -0.02  -0.01    -0.10   0.06   0.02     0.30  -0.19  -0.06
    12   9     0.00   0.00   0.00    -0.00  -0.00  -0.00     0.00   0.00   0.00
    13   6    -0.00   0.01  -0.01    -0.00   0.00  -0.00     0.00  -0.00   0.00
    14   1     0.04   0.02   0.01     0.02   0.01   0.00    -0.00  -0.00  -0.00
    15   1     0.05  -0.08   0.12     0.02  -0.03   0.04    -0.00   0.00  -0.00
    16   1    -0.03   0.02   0.04    -0.01   0.01   0.01    -0.00   0.00   0.00
    17   6    -0.00  -0.01   0.00     0.00  -0.00   0.00     0.00  -0.00  -0.00
    18   1    -0.03   0.02  -0.00    -0.01   0.01  -0.00    -0.00   0.00  -0.00
    19   1     0.01   0.04   0.00     0.00   0.01   0.00     0.00   0.00   0.00
    20   1     0.02   0.00  -0.01     0.00   0.00  -0.00     0.00  -0.00  -0.00

 -------------------
 - Thermochemistry -
 -------------------
 Temperature   298.150 Kelvin.  Pressure   1.00000 Atm.
 Atom     1 has atomic number  6 and mass  12.00000
 Atom     2 has atomic number  6 and mass  12.00000
 Atom     3 has atomic number  6 and mass  12.00000
 Atom     4 has atomic number  6 and mass  12.00000
 Atom     5 has atomic number  7 and mass  14.00307
 Atom     6 has atomic number  1 and mass   1.00783
 Atom     7 has atomic number  1 and mass   1.00783
 Atom     8 has atomic number  1 and mass   1.00783
 Atom     9 has atomic number  1 and mass   1.00783
 Atom    10 has atomic number  1 and mass   1.00783
 Atom    11 has atomic number  1 and mass   1.00783
 Atom    12 has atomic number  9 and mass  18.99840
 Atom    13 has atomic number  6 and mass  12.00000
 Atom    14 has atomic number  1 and mass   1.00783
 Atom    15 has atomic number  1 and mass   1.00783
 Atom    16 has atomic number  1 and mass   1.00783
 Atom    17 has atomic number  6 and mass  12.00000
 Atom    18 has atomic number  1 and mass   1.00783
 Atom    19 has atomic number  1 and mass   1.00783
 Atom    20 has atomic number  1 and mass   1.00783
 Molecular mass:   117.09538 amu.
 Principal axes and moments of inertia in atomic units:
                           1         2         3
     Eigenvalues --   781.993891390.801271576.31771
           X            0.99876   0.02163   0.04482
           Y           -0.01903   0.99816  -0.05755
           Z           -0.04598   0.05663   0.99734
 This molecule is an asymmetric top.
 Rotational symmetry number  1.
 Warning -- assumption of classical behavior for rotation
           may cause significant error
 Rotational temperatures (Kelvin)      0.11076     0.06228     0.05495
 Rotational constants (GHZ):           2.30787     1.29763     1.14491
    1 imaginary frequencies ignored.
 Zero-point vibrational energy     445130.0 (Joules/Mol)
                                  106.38862 (Kcal/Mol)
 Warning -- explicit consideration of  14 degrees of freedom as
           vibrations may cause significant error
 Vibrational temperatures:     68.23   106.07   116.12   168.71   184.54
          (Kelvin)            208.08   226.47   265.23   438.53   476.54
                              650.90   700.04   755.49   819.84  1081.45
                             1158.00  1235.32  1364.31  1379.19  1397.75
                             1462.40  1484.76  1493.34  1574.24  1618.24
                             1628.62  1695.72  1732.65  1785.79  1927.56
                             1937.99  2006.15  2032.78  2055.31  2070.30
                             2093.40  2099.09  2122.28  2128.93  2515.00
                             2599.27  4274.29  4340.03  4409.27  4424.41
                             4465.07  4540.07  4585.31  4596.28  4598.37
                             4637.11  4637.49  4701.32
 
 Zero-point correction=                           0.169541 (Hartree/Particle)
 Thermal correction to Energy=                    0.180355
 Thermal correction to Enthalpy=                  0.181299
 Thermal correction to Gibbs Free Energy=         0.132557
 Sum of electronic and zero-point Energies=           -389.729946
 Sum of electronic and thermal Energies=              -389.719133
 Sum of electronic and thermal Enthalpies=            -389.718189
 Sum of electronic and thermal Free Energies=         -389.766930
 
                     E (Thermal)             CV                S
                      KCal/Mol        Cal/Mol-Kelvin    Cal/Mol-Kelvin
 Total                  113.174             36.291            102.585
 Electronic               0.000              0.000              0.000
 Translational            0.889              2.981             40.188
 Rotational               0.889              2.981             28.929
 Vibrational            111.397             30.329             33.467
 Vibration     1          0.595              1.979              4.922
 Vibration     2          0.599              1.966              4.051
 Vibration     3          0.600              1.962              3.874
 Vibration     4          0.608              1.935              3.145
 Vibration     5          0.611              1.925              2.972
 Vibration     6          0.616              1.908              2.742
 Vibration     7          0.621              1.894              2.581
 Vibration     8          0.631              1.861              2.284
 Vibration     9          0.696              1.665              1.390
 Vibration    10          0.714              1.613              1.254
 Vibration    11          0.811              1.356              0.789
 Vibration    12          0.843              1.280              0.693
 Vibration    13          0.880              1.194              0.598
 Vibration    14          0.926              1.097              0.505
                       Q            Log10(Q)             Ln(Q)
 Total Bot       0.106645D-60        -60.972058       -140.393352
 Total V=0       0.102647D+18         17.011348         39.170076
 Vib (Bot)       0.456853D-74        -74.340223       -171.174690
 Vib (Bot)    1  0.436015D+01          0.639502          1.472507
 Vib (Bot)    2  0.279615D+01          0.446561          1.028245
 Vib (Bot)    3  0.255152D+01          0.406799          0.936689
 Vib (Bot)    4  0.174385D+01          0.241510          0.556097
 Vib (Bot)    5  0.159012D+01          0.201431          0.463811
 Vib (Bot)    6  0.140416D+01          0.147417          0.339441
 Vib (Bot)    7  0.128537D+01          0.109027          0.251043
 Vib (Bot)    8  0.108789D+01          0.036583          0.084236
 Vib (Bot)    9  0.622253D+00         -0.206033         -0.474408
 Vib (Bot)   10  0.563714D+00         -0.248941         -0.573208
 Vib (Bot)   11  0.378321D+00         -0.422140         -0.972013
 Vib (Bot)   12  0.341799D+00         -0.466230         -1.073534
 Vib (Bot)   13  0.305960D+00         -0.514335         -1.184300
 Vib (Bot)   14  0.270147D+00         -0.568400         -1.308790
 Vib (V=0)       0.439726D+04          3.643182          8.388738
 Vib (V=0)    1  0.488873D+01          0.689196          1.586932
 Vib (V=0)    2  0.334051D+01          0.523812          1.206123
 Vib (V=0)    3  0.310005D+01          0.491369          1.131418
 Vib (V=0)    4  0.231412D+01          0.364386          0.839029
 Vib (V=0)    5  0.216688D+01          0.335835          0.773288
 Vib (V=0)    6  0.199053D+01          0.298968          0.688399
 Vib (V=0)    7  0.187919D+01          0.273971          0.630841
 Vib (V=0)    8  0.169729D+01          0.229755          0.529031
 Vib (V=0)    9  0.129825D+01          0.113357          0.261015
 Vib (V=0)   10  0.125351D+01          0.098127          0.225946
 Vib (V=0)   11  0.112700D+01          0.051923          0.119557
 Vib (V=0)   12  0.110566D+01          0.043622          0.100444
 Vib (V=0)   13  0.108618D+01          0.035903          0.082671
[...]
 421,0.00000570,-0.00012084,0.00008096,0.13674405,-0.14350972,0.0448313
 1,0.00046132,-0.00015437,0.00017843,0.01664470,-0.00196493,0.00343933,
 0.00010421,-0.00012959,0.00001307,-0.00156593,-0.00282337,-0.00275111,
 -0.00004164,-0.00001962,-0.00006094,-0.14404213,0.13559364,-0.00004688
 ,0.00006289,-0.00013336,-0.05567511,0.04553222,-0.06466035,-0.00049490
 ,0.00021304,-0.00013158,-0.01801515,0.01336934,0.00299728,0.00017281,0
 .00012349,-0.00000901,-0.00123496,-0.00290462,-0.00181697,0.00010550,-
 0.00000591,-0.00023219,0.04226842,-0.05278597,0.06214492,-0.00000058,-
 0.00025890,-0.00084264,-0.00050131,-0.00031871,0.00061300,-0.23944107,
 0.10812063,0.02813809,-0.00039697,0.00028683,0.00033395,0.00536886,-0.
 00765796,0.00438636,-0.00029970,0.00024870,-0.00008205,-0.01996673,0.0
 1008754,0.00482027,-0.00002201,0.00009573,-0.00017196,0.25296371,-0.00
 114890,-0.00234549,0.00360497,-0.00050099,-0.00013058,0.00037505,0.086
 63825,-0.08693649,-0.01584595,-0.00039722,0.00039483,0.00008272,0.0332
 5284,-0.03074746,-0.00665719,-0.00010467,0.00009461,-0.00002577,-0.009
 18822,0.00591811,0.00130246,0.00000587,0.00002609,-0.00009365,-0.10900
 007,0.11508303,-0.00082375,-0.00044894,0.00146420,0.00084988,0.0002477
 8,-0.00087339,0.06392905,-0.03579219,-0.02726915,0.00125184,-0.0009875
 1,0.00046708,-0.00514829,0.00485101,-0.00505343,0.00024974,-0.00018212
 ,0.00006229,-0.02248053,0.01080374,0.00194376,-0.00000612,-0.00014789,
 0.00021079,-0.03525597,0.02036400,0.02691117,-0.08506726,-0.03272469,0
 .09060232,0.00001597,0.00003586,-0.00014411,-0.00764385,-0.00189502,-0
 .00293033,-0.00037100,-0.00004717,0.00009037,0.00217034,-0.00051538,0.
 01488456,-0.00003811,-0.00006142,-0.00004844,0.00109070,-0.00150039,-0
 .00168287,0.00000134,-0.00002066,0.00000210,0.00020432,0.00102462,0.00
 107024,0.07208094,-0.03763000,-0.08215890,0.09603265,0.00016958,-0.000
 09275,-0.00005508,0.00113865,0.00018534,-0.00162720,-0.00005723,-0.000
 04668,-0.00005204,0.01119958,0.00722150,-0.02790923,0.00005310,-0.0000
 4111,0.00001387,-0.00012927,-0.00074011,0.00035396,0.00000087,-0.00002
 357,0.00005234,-0.00023927,-0.00062128,0.00060063,0.03463293,0.0890815
 0,0.09066120,0.08103141,-0.27495517,0.00000891,0.00013540,-0.00022958,
 -0.00254838,0.00462990,-0.00121873,-0.00001427,0.00023589,0.00015463,0
 .01281091,0.00342977,-0.02367004,0.00011333,-0.00003772,0.00002727,0.0
 0034518,-0.00047216,-0.00001533,-0.00000421,-0.00004333,0.00001417,-0.
 00033028,0.00055010,0.00091200,-0.10683411,-0.08470639,0.29215790,-0.0
 0103010,-0.00076660,-0.00034680,0.00752638,0.00002633,0.00100498,0.002
 80785,-0.00230405,0.00294098,-0.24873176,0.12864481,-0.03365798,-0.001
 87578,-0.00107427,0.00105561,-0.00781684,0.00910388,-0.00524378,-0.002
 06893,0.00035939,0.00159667,0.00173803,0.00115495,0.00316321,0.0010685
 4,0.00050294,-0.00274650,-0.00056023,-0.00093608,-0.00036718,0.2512052
 0,-0.00136430,-0.00127949,0.00048915,0.01662136,-0.00240657,0.00488881
 ,-0.00116781,-0.00057582,-0.00134669,0.12653180,-0.12631528,0.03217812
 ,-0.00076740,0.00031054,0.00074649,-0.00674639,0.00585726,-0.00086681,
 0.00126616,-0.00026883,-0.00135935,0.00171373,0.00405002,0.00586776,-0
 .00035002,-0.00042208,0.00093638,-0.00069944,-0.00019952,-0.00032325,-
 0.13329574,0.12490099,-0.00031028,0.00006594,0.00069200,-0.01778542,0.
 01425340,0.00262734,0.00149027,0.00036838,0.00014232,-0.03049579,0.030
 59504,-0.05667476,0.00054971,-0.00022488,-0.00092040,0.01321646,-0.009
 68549,0.00578505,0.00094934,-0.00044707,-0.00164344,0.00238659,0.00616
 984,0.00128106,-0.00061958,-0.00020128,-0.00050499,-0.00048731,-0.0006
 0851,-0.00032434,0.03315197,-0.03478274,0.05069877,-0.00088377,0.00001
 729,0.00227010,-0.21921928,-0.02165111,0.12178285,0.00179008,-0.001146
 13,0.00034539,-0.00067272,-0.01061867,0.01853981,-0.00310020,-0.000547
 58,-0.00203565,0.00330496,0.00284231,0.00215733,-0.00024938,-0.0002417
 0,0.00046539,-0.02941636,-0.00942798,0.03008988,0.00035427,0.00043038,
 -0.00050578,-0.00001140,-0.00008247,-0.00000221,-0.00285560,-0.0013214
 3,-0.00225695,0.25244522,0.00031628,-0.00121167,0.00062546,-0.02022160
 ,-0.06863822,0.04210212,0.00042524,-0.00011440,-0.00005325,-0.03151906
 ,0.00148670,0.02591850,0.00049302,-0.00030637,0.00040958,0.00400552,0.
 00403940,0.00896021,-0.00017769,0.00038408,0.00047514,0.00961711,0.008
 98069,-0.00920168,0.00030013,0.00015088,-0.00022707,-0.00001355,0.0000
 2511,-0.00006241,-0.00275445,-0.00276536,-0.00582428,0.03970758,0.0579
 5390,-0.00105632,0.00058371,-0.00150525,0.12299303,0.04346498,-0.16042
 807,-0.00159845,0.00033652,-0.00016166,0.04172911,0.01396127,-0.031245
 17,-0.00180449,0.00097879,-0.00122767,0.00092861,0.00952923,0.00197794
 ,0.00044209,0.00009781,-0.00023542,0.00745304,0.00107874,0.00010753,-0
 .00039012,-0.00017135,0.00053257,0.00029637,0.00009348,0.00018470,-0.0
 0036095,-0.00647627,-0.00100353,-0.16740146,-0.06199451,0.19333289,-0.
 08293454,-0.00898540,0.01146725,0.00028206,0.00024028,-0.00019035,0.01
 023231,-0.00045201,0.00363644,0.00003423,-0.00016847,-0.00000166,0.011
 02674,0.00777809,-0.00394397,0.00000044,0.00000803,0.00000687,-0.00180
 423,0.00277781,0.00214012,0.00001801,0.00000906,0.00005119,-0.00012482
 ,-0.00184049,-0.00209154,0.01071144,-0.00751331,0.00354163,-0.00012221
 ,0.00016836,0.00005629,-0.00042406,-0.00055928,-0.00028216,0.55706996,
 -0.01392609,-0.24165958,0.03545632,0.00025228,-0.00000656,-0.00023828,
 0.00097224,0.00154897,-0.00085754,-0.00006920,-0.00001247,0.00004573,0
 .00132895,-0.03038637,-0.00251697,0.00000268,0.00003116,0.00002241,0.0
 0009998,-0.00102253,-0.00047197,-0.00003960,0.00000432,0.00000148,0.00
 005573,-0.00118277,-0.00056219,0.00132299,-0.00485636,-0.00171584,0.00
 023401,-0.00006209,-0.00001977,-0.00047117,-0.00037587,0.00020071,-0.0
 0641034,0.52596071,0.01115246,0.03106679,-0.10190840,-0.00042654,-0.00
 012922,0.00011965,0.00506519,0.00244964,0.00123640,-0.00005955,-0.0000
 8708,-0.00015088,-0.00258763,-0.02425466,0.01148914,0.00004437,0.00001
 260,0.00001531,-0.00074051,0.00081282,0.00128912,0.00001134,-0.0000257
 3,0.00001579,-0.00048373,-0.00125932,-0.00078386,0.00289538,0.01750594
 ,0.00437817,-0.00027648,0.00005174,0.00001043,0.00006422,0.00014899,0.
 00013833,-0.01618145,0.02943047,0.58914624,0.00207843,-0.00091275,-0.0
 0052857,0.00021326,0.00006017,-0.00013289,-0.00003026,-0.00025091,-0.0
 0039295,-0.00001535,-0.00004057,0.00000869,0.00031625,0.00079115,0.001
 87410,-0.00000113,-0.00000644,0.00000074,-0.00018022,-0.00002004,0.000
 10543,0.00000502,0.00001051,0.00002558,-0.00004927,0.00006123,-0.00017
 014,-0.00057080,0.00006474,-0.00095710,-0.00004340,0.00003882,0.000000
 19,-0.00022054,-0.00018541,0.00001124,-0.29098740,-0.06994049,0.052155
 92,0.30962998,-0.03175915,-0.00778668,0.00588667,-0.00005510,-0.000029
 03,0.00005349,0.00207759,-0.00061412,0.00004686,0.00001754,0.00000027,
 0.00002646,0.00181280,0.00052970,0.00134500,-0.00002383,0.00001078,-0.
 00000622,-0.00049535,0.00037375,0.00055742,-0.00001795,0.00000374,-0.0
 0002359,0.00008983,-0.00054009,-0.00041012,0.00125346,-0.00251374,0.00
 030303,0.00006802,-0.00000603,-0.00000753,0.00006545,0.00009342,-0.000
 03819,-0.07283472,-0.06522868,0.01306794,0.07671298,0.06983894,0.00463
 340,0.00467001,-0.00448938,0.00034561,0.00012693,-0.00022968,-0.000126
 77,0.00006527,-0.00012374,-0.00001953,0.00001040,0.00008116,0.00070214
 ,-0.00161700,-0.00073126,-0.00000441,-0.00001978,0.00000110,0.00015521
 ,-0.00012010,-0.00016825,-0.00001632,0.00000007,0.00001483,0.00001418,
 -0.00009146,0.00039479,-0.00079835,0.00125233,-0.00014016,0.00000163,-
 0.00000213,-0.00001584,-0.00038185,-0.00028396,-0.00003264,0.05370312,
 0.01183682,-0.05103021,-0.05716593,-0.01507338,0.05346095,-0.00144111,
 -0.00288440,-0.00321498,0.00020354,0.00010890,-0.00021087,0.00049780,-
 0.00001782,0.00005626,0.00002217,0.00000660,0.00014650,0.00095807,-0.0
 0092813,0.00050980,-0.00000450,-0.00000879,0.00000542,0.00000315,0.000
 14409,-0.00006856,-0.00004251,-0.00001231,-0.00001205,-0.00004534,-0.0
 0013814,0.00009289,0.00005661,-0.00016223,-0.00033757,0.00001677,-0.00
 001890,-0.00002370,-0.00026760,-0.00007735,0.00012545,-0.07761579,0.04
 946812,0.07523802,-0.00665735,0.01604961,0.02255429,0.07730274,0.01198
 061,-0.01501496,-0.02886798,0.00008820,0.00006241,-0.00008423,0.000273
 75,0.00047961,-0.00052060,0.00000706,0.00002132,0.00009125,-0.00114112
 ,-0.00630331,0.00245097,-0.00002827,-0.00000107,-0.00001074,-0.0000364
 2,-0.00034084,-0.00003366,-0.00001737,0.00000049,-0.00001233,-0.000017
 44,-0.00038597,0.00004419,-0.00004660,0.00073248,0.00016572,0.00008959
 ,-0.00004290,-0.00003787,-0.00009394,0.00002504,0.00002360,0.04708723,
 -0.12191032,-0.11409986,-0.00264523,0.00479508,0.00867846,-0.05119635,
 0.13374927,-0.00413206,0.00755210,0.00701627,0.00025017,0.00006383,-0.
 00026486,0.00012206,-0.00003979,0.00025949,-0.00002732,-0.00000583,0.0
 0009962,0.00047348,0.00233542,0.00028304,-0.00000386,-0.00000457,0.000
 01014,0.00004964,0.00009415,-0.00005543,-0.00005064,-0.00000846,-0.000
 00215,-0.00003959,-0.00002350,0.00000095,-0.00033772,0.00036081,0.0005
 9540,0.00002034,-0.00001652,-0.00000904,-0.00035707,-0.00011499,0.0001
 3159,0.07554284,-0.12000694,-0.23091762,-0.00059007,-0.00173371,-0.002
 89734,-0.08097964,0.12408969,0.24128109,0.00061007,-0.00113399,0.00410
 026,-0.00112085,-0.00037324,0.00069447,-0.00019514,0.00011158,0.000165
 05,0.00020324,0.00016125,-0.00014739,0.00097552,0.00028970,-0.00026669
 ,-0.00000670,0.00002813,-0.00003391,0.00002730,0.00001618,-0.00010220,
 0.00003787,-0.00001060,-0.00002600,-0.00005658,0.00004628,-0.00004409,
 -0.00124412,-0.00073621,-0.00013100,0.00006870,-0.00005033,0.00000368,
 -0.00017711,-0.00011027,-0.00101406,-0.13060652,0.03777865,-0.12533568
 ,-0.01376520,0.00758764,-0.02326801,0.00696395,-0.00389686,0.00989179,
 0.13855800,0.01976027,-0.00828838,0.02612799,-0.00203958,-0.00044409,0
 .00156640,-0.00226791,-0.00098027,-0.00122158,0.00037018,0.00027469,-0
 .00032429,-0.00193474,0.00125260,0.00093665,-0.00001719,0.00004685,-0.
 00007555,0.00045346,-0.00071127,-0.00078006,0.00018940,0.00002001,-0.0
 0012250,0.00007343,0.00026427,0.00081152,-0.00113161,-0.00230267,-0.00
 073905,0.00028322,-0.00014400,0.00002750,0.00161430,0.00041385,-0.0012
 5200,0.03877595,-0.05905872,0.05005836,-0.00469772,0.00180446,-0.00779
 406,-0.01069797,0.00407959,-0.01218348,-0.03999363,0.06426569,-0.00057
 400,0.00461141,-0.00393718,0.00027084,0.00028970,0.00002237,0.00018813
 ,0.00040707,-0.00013790,0.00002838,-0.00005581,-0.00000241,0.00114557,
 -0.00246907,-0.00115012,-0.00002037,-0.00002112,-0.00002572,-0.0003282
 6,-0.00011496,0.00028542,0.00005092,0.00002154,0.00004032,-0.00002859,
 -0.00008794,-0.00012298,-0.00020907,0.00085631,0.00051425,-0.00006366,
 0.00005455,0.00000499,-0.00085425,-0.00093293,-0.00090675,-0.12711836,
 0.04754414,-0.22039701,0.00558862,-0.00223484,0.00627203,-0.01401480,0
 .00719383,-0.01526545,0.13545867,-0.05446584,0.23433221,0.00369485,0.0
 0252728,0.01302652,-0.00059824,0.00000716,0.00037750,-0.00174252,-0.00
 923026,0.00993297,0.00033560,0.00061937,-0.00003894,-0.10496663,-0.001
 13426,0.04156810,0.00013192,-0.00004909,0.00001372,0.00247612,0.000178
 33,-0.00207523,0.00007322,-0.00008645,-0.00008179,0.00007427,0.0013335
 2,0.00100502,0.01019513,-0.00047613,0.00436237,0.00053236,-0.00051292,
 0.00018130,0.00030419,0.00008572,0.00008233,-0.00582464,-0.00035488,-0
 .00009719,-0.00023512,-0.00086743,-0.00023490,0.00005068,-0.00063255,0
 .00057532,0.00078076,0.00047289,-0.00010716,0.58500924,0.01031709,0.01
 234118,-0.02834517,-0.00098721,-0.00033488,0.00084951,-0.01225638,-0.0
 1224244,0.02859627,-0.00007417,0.00044003,-0.00034223,-0.00710758,-0.1
 0492345,0.02043889,-0.00000491,0.00004164,-0.00000911,0.00118702,0.000
 98703,0.00079297,0.00012603,0.00005234,-0.00014079,-0.00141233,0.00077
 561,0.00016580,-0.00006966,-0.00415208,-0.00234525,0.00050208,-0.00063
 954,0.00030891,0.00103571,0.00020190,-0.00083900,-0.00006996,-0.000617
 28,-0.00104564,0.00038366,-0.00088736,-0.00105458,-0.00011143,-0.00018
 019,0.00037397,0.00056426,-0.00034488,0.00021757,-0.00849392,0.6329315
 2,0.01643149,-0.00694266,-0.03191794,0.00003063,-0.00018101,0.00038404
 ,0.00617245,0.01556495,-0.00631255,0.00012910,-0.00001162,0.00002451,0
 .03903547,0.00762320,-0.19029791,-0.00002690,-0.00000571,-0.00004747,0
 .00026782,-0.00182334,-0.00150458,0.00006509,0.00009012,0.00000095,0.0
 0067153,-0.00239186,0.00126480,0.00335890,-0.00067691,0.00244059,0.000
 34186,-0.00006677,0.00000744,-0.00041229,0.00013872,-0.00111910,-0.001
 04478,0.00280236,-0.00290750,0.00021046,-0.00006100,0.00082046,0.00040
 651,0.00121112,-0.00038955,-0.00031604,0.00031454,0.00094803,0.0321013
 6,0.02284031,0.49345803,-0.00037827,-0.00256790,0.00046272,0.00038609,
 0.00012307,-0.00034474,0.00108973,0.00031253,-0.00140546,0.00001853,-0
 .00006813,0.00008086,-0.00873018,0.00771193,0.00521762,0.00001039,-0.0
 0001724,0.00001361,-0.00019565,0.00003142,-0.00018021,-0.00005171,-0.0
 0001573,0.00003916,0.00057149,-0.00061301,0.00062908,0.00032022,0.0003
 3914,0.00027715,-0.00008489,0.00007580,-0.00004440,-0.00046127,-0.0000
 4213,0.00033285,-0.00002220,-0.00029418,-0.00050128,0.00017580,0.00005
 081,-0.00001983,0.00004491,0.00008354,-0.00009493,-0.00011462,0.000081
 58,0.00001362,-0.22027002,0.13478597,0.03126775,0.23186376,-0.00010978
 ,-0.00033956,0.00223168,-0.00005570,-0.00000382,0.00004121,-0.00178084
 ,0.00048227,0.00055334,-0.00006101,-0.00005004,-0.00003255,-0.00647140
 ,0.00321351,-0.00043633,-0.00001276,0.00000389,-0.00000615,-0.00046055
 ,0.00005691,0.00042283,-0.00000226,0.00000101,0.00000834,0.00017007,0.
 00011555,0.00035997,0.00076338,0.00040326,0.00021801,-0.00005882,0.000
 05837,0.00000627,0.00005662,0.00001263,0.00002414,-0.00082868,-0.00056
 269,-0.00094671,0.00049510,-0.00012823,-0.00001150,0.00008109,0.000095
 19,-0.00017315,-0.00023420,0.00040685,0.00002139,0.13970399,-0.1568677
 7,-0.02387327,-0.14605897,0.16053537,0.00152603,0.00399635,-0.00336098
 ,0.00017693,0.00011531,-0.00027527,-0.00059564,-0.00232983,0.00144983,
 -0.00009429,0.00004020,0.00002016,0.03239674,-0.02132087,-0.01475786,0
 .00000366,0.00000150,0.00001929,-0.00024687,0.00020024,0.00004903,-0.0
 0004601,-0.00000956,0.00001538,-0.00053846,0.00080303,-0.00041210,-0.0
 0153009,-0.00099531,-0.00132014,0.00007520,-0.00010012,0.00001705,-0.0
 0033634,-0.00002349,0.00035583,0.00064156,0.00011736,0.00061533,-0.000
 04054,0.00003071,-0.00012670,0.00000587,-0.00012099,0.00005297,0.00001
 629,-0.00026021,0.00001284,0.02483594,-0.01913645,-0.04819617,-0.03815
 030,0.02420248,0.06092022,0.00062272,-0.00164569,0.00013044,-0.0003121
 9,-0.00015197,0.00037147,0.00012501,-0.00024694,0.00239705,0.00002461,
 0.00008587,-0.00008160,-0.00463858,-0.01034387,-0.00035772,-0.00001062
 ,0.00001342,-0.00001322,0.00064079,0.00044594,-0.00029002,0.00002573,0
 .00000400,-0.00004200,0.00043494,-0.00024499,0.00010657,0.00000340,0.0
 0000597,-0.00012079,0.00011109,-0.00005323,0.00002306,0.00039796,0.000
 23523,-0.00028623,0.00017354,0.00032635,-0.00019793,0.00031960,0.00001
 183,0.00004869,-0.00004069,0.00012351,-0.00028405,-0.00081347,0.000820
 90,0.00080082,-0.07225867,-0.07080236,0.00928629,0.01001601,0.02220332
 ,-0.00285800,0.06860047,0.00028662,-0.00120499,-0.00038315,-0.00019578
 ,-0.00008620,0.00023019,-0.00183777,0.00030073,0.00368822,-0.00008181,
 0.00006644,-0.00010106,0.00004235,-0.00265233,0.00071524,-0.00004138,0
 .00003094,-0.00001152,0.00047855,0.00018602,-0.00029106,0.00000184,0.0
 0003033,-0.00003238,-0.00027440,0.00039369,-0.00074886,-0.00001296,-0.
 00003215,-0.00004178,0.00027131,-0.00012726,0.00008715,0.00013558,0.00
 008920,-0.00016727,0.00184585,-0.00095538,-0.00264297,0.00027461,-0.00
 029420,-0.00097565,0.00021961,0.00012903,-0.00053190,0.00008899,-0.000
 28495,-0.00065340,-0.07458915,-0.30477194,0.02653303,-0.00745960,-0.01
 233206,0.00108904,0.07978864,0.32502170,-0.00036831,0.00221561,0.00133
 752,0.00027183,0.00009150,-0.00028410,0.00260659,0.00063277,-0.0054141
 8,0.00007974,-0.00012296,0.00014075,0.00837066,0.03239448,-0.00258997,
 0.00001801,-0.00001255,0.00000865,0.00005802,-0.00016097,0.00071396,-0
 .00002150,-0.00002426,0.00003694,-0.00028573,-0.00026124,0.00048445,-0
 .00024571,0.00024593,0.00001162,-0.00031406,0.00020609,-0.00011088,-0.
 00026610,-0.00004013,0.00019606,0.00105822,-0.00081026,-0.00055647,-0.
 00001207,-0.00145071,-0.00106003,-0.00028057,-0.00005304,0.00002247,0.
 00030902,-0.00042042,-0.00029426,0.00702054,0.01809689,-0.05520608,-0.
 00214652,-0.00384852,0.00036351,-0.01262819,-0.02707856,0.05813990,-0.
 00107217,-0.00025161,0.00186123,-0.00098406,-0.00035988,0.00077132,0.0
 0014649,0.00078663,0.00035926,0.00011089,0.00018564,-0.00027317,0.0129
 7263,0.00269331,0.01400985,0.00002277,0.00004086,0.00000661,0.00023652
 ,-0.00008616,-0.00002190,0.00009209,-0.00001081,-0.00011704,-0.0001360
 4,-0.00011920,0.00008840,-0.00134364,0.00035764,-0.00047360,0.00011479
 ,-0.00006812,0.00001457,-0.00063739,0.00047498,-0.00019988,0.00091768,
 -0.00033604,0.00026105,0.00001770,0.00025600,-0.00012238,-0.00000551,0
 .00001868,-0.00002870,-0.00012510,-0.00011524,-0.00022703,-0.19776250,
 -0.04751189,-0.13797670,-0.01418813,-0.00733860,-0.01524169,-0.0034216
 4,0.00105889,-0.00322387,0.20504461,-0.00028154,-0.00069196,-0.0000441
 8,0.00073797,0.00039072,-0.00075005,0.00055205,-0.00008429,0.00023014,
 -0.00010563,-0.00012785,0.00022071,0.00471144,0.00108559,0.00349058,0.
 00000228,-0.00003619,0.00001704,-0.00046930,-0.00023898,0.00024873,-0.
 00010945,-0.00001666,0.00009250,0.00000050,0.00009555,0.00032186,-0.00
 029471,0.00013174,-0.00021203,-0.00005053,0.00007759,-0.00004302,-0.00
 030305,-0.00044492,0.00056562,0.00097200,0.00035251,-0.00011411,-0.000
 19338,0.00057803,0.00040331,0.00017579,0.00001006,-0.00002715,-0.00013
 333,-0.00026963,-0.00018157,-0.04850121,-0.06180944,-0.04108420,0.0135
 4111,0.00489937,0.01370060,-0.02057594,-0.00350662,-0.01959964,0.05032
 494,0.05960538,0.00018025,0.00482603,-0.00138846,0.00090981,0.00042537
 ,-0.00101890,-0.00023033,-0.00210221,0.00189588,-0.00003327,0.00000238
 ,0.00032489,-0.01840719,-0.00806704,-0.03364030,0.00000663,-0.00001594
 ,0.00003712,0.00079458,0.00073599,-0.00011054,-0.00017966,-0.00004616,
 0.00010566,0.00009132,0.00002816,0.00037102,0.00204789,-0.00073755,0.0
 0048279,0.00002494,-0.00007844,-0.00005924,-0.00090504,-0.00002003,0.0
 0090781,-0.00099128,-0.00025804,0.00019805,0.00000928,-0.00027830,-0.0
 0000010,0.00000173,-0.00010753,0.00004839,0.00004585,-0.00020394,-0.00
 019268,-0.13244776,-0.03942287,-0.16144998,0.00455324,0.00123853,0.004
 55779,0.00399536,0.00131668,0.00406013,0.14053366,0.04276490,0.1848706
 9\\0.00000143,0.00001733,-0.00000352,-0.00002162,0.00000462,0.00000469
 ,0.00000486,0.00000791,0.00000196,0.00000332,0.00000845,-0.00001242,-0
 .00000335,-0.00000665,-0.00000505,0.00001473,0.00001073,0.00001286,-0.
 00000372,-0.00001302,0.00001170,0.00000708,-0.00000582,0.00001115,-0.0
 0000077,0.00000032,0.00000144,-0.00000109,0.00000342,-0.00000634,0.000
 00328,-0.00001593,0.00002567,0.00000040,0.00000307,0.00000171,0.000008
 50,-0.00001275,-0.00002999,-0.00000295,0.00000121,-0.00000914,0.000004
 88,0.00001601,0.00000802,0.00000419,-0.00000575,0.00000535,-0.00000880
 ,-0.00000878,-0.00001018,-0.00000624,-0.00000201,-0.00000169,-0.000001
 23,0.00000200,-0.00000939,-0.00000292,-0.00000437,0.00000316\\\@
 The archive entry for this job was punched.


 "WOULD YOU TELL ME PLEASE, WHICH WAY I OUGHT TO WALK FROM HERE?"
 "THAT DEPENDS A GREAT DEAL ON WHERE YOU WANT TO GO," SAID THE CAT.
 "I DON'T MUCH CARE WHERE -- ", SAID ALICE.
 "THEN IT DOESN'T MATTER WHICH WAY YOU WALK," SAID THE CAT.

                                      -- LEWIS CARROLL
 Job cpu time:       0 days  0 hours 13 minutes 20.4 seconds.
 Elapsed time:       0 days  0 hours  1 minutes  7.4 seconds.
 File lengths (MBytes):  RWF=    114 Int=      0 D2E=      0 Chk=      8 Scr=      1
 Normal termination of Gaussian 16 at Sat Dec 30 20:49:48 2023.
