Unloading slurm/anatra/current
  ERROR: No such file or directory on
    '/cm/local/modulefiles/slurm/anatra/current'
environment: line 0: unalias: gv: not found
environment: line 0: unalias: sl: not found
 Entering Gaussian System, Link 0=g16
 Initial command:
 /apps/gaussian/g16/C.01/g16/l1.exe "/local/jobs/1153153/Gau-1513263.inp" -scrdir="/local/jobs/1153153/"
 Entering Link 1 = /apps/gaussian/g16/C.01/g16/l1.exe PID=   1513264.
  
 Copyright (c) 1988-2019, Gaussian, Inc.  All Rights Reserved.
  
 This is part of the Gaussian(R) 16 program.  It is based on
 the Gaussian(R) 09 system (copyright 2009, Gaussian, Inc.),
 the Gaussian(R) 03 system (copyright 2003, Gaussian, Inc.),
 the Gaussian(R) 98 system (copyright 1998, Gaussian, Inc.),
 the Gaussian(R) 94 system (copyright 1995, Gaussian, Inc.),
 the Gaussian 92(TM) system (copyright 1992, Gaussian, Inc.),
 the Gaussian 90(TM) system (copyright 1990, Gaussian, Inc.),
 the Gaussian 88(TM) system (copyright 1988, Gaussian, Inc.),
 the Gaussian 86(TM) system (copyright 1986, Carnegie Mellon
 University), and the Gaussian 82(TM) system (copyright 1983,
 Carnegie Mellon University). Gaussian is a federally registered
 trademark of Gaussian, Inc.
  
 This software contains proprietary and confidential information,
 including trade secrets, belonging to Gaussian, Inc.
  
 This software is provided under written license and may be
 used, copied, transmitted, or stored only in accord with that
 written license.
  
 The following legend is applicable only to US Government
 contracts under FAR:
  
                    RESTRICTED RIGHTS LEGEND
  
 Use, reproduction and disclosure by the US Government is
 subject to restrictions as set forth in subparagraphs (a)
 and (c) of the Commercial Computer Software - Restricted
 Rights clause in FAR 52.227-19.
  
 Gaussian, Inc.
 340 Quinnipiac St., Bldg. 40, Wallingford CT 06492
  
  
 ---------------------------------------------------------------
 Warning -- This program may not be used in any manner that
 competes with the business of Gaussian, Inc. or will provide
 assistance to any competitor of Gaussian, Inc.  The licensee
 of this program is prohibited from giving any competitor of
 Gaussian, Inc. access to this program.  By using this program,
 the user acknowledges that Gaussian, Inc. is engaged in the
 business of creating and licensing software in the field of
 computational chemistry and represents and warrants to the
 licensee that it is not a competitor of Gaussian, Inc. and that
 it will not use this program in any manner prohibited above.
 ---------------------------------------------------------------
  

 Cite this work as:
 Gaussian 16, Revision C.01,
 M. J. Frisch, G. W. Trucks, H. B. Schlegel, G. E. Scuseria, 
 M. A. Robb, J. R. Cheeseman, G. Scalmani, V. Barone, 
 G. A. Petersson, H. Nakatsuji, X. Li, M. Caricato, A. V. Marenich, 
 J. Bloino, B. G. Janesko, R. Gomperts, B. Mennucci, H. P. Hratchian, 
 J. V. Ortiz, A. F. Izmaylov, J. L. Sonnenberg, D. Williams-Young, 
 F. Ding, F. Lipparini, F. Egidi, J. Goings, B. Peng, A. Petrone, 
 T. Henderson, D. Ranasinghe, V. G. Zakrzewski, J. Gao, N. Rega, 
 G. Zheng, W. Liang, M. Hada, M. Ehara, K. Toyota, R. Fukuda, 
 J. Hasegawa, M. Ishida, T. Nakajima, Y. Honda, O. Kitao, H. Nakai, 
 T. Vreven, K. Throssell, J. A. Montgomery, Jr., J. E. Peralta, 
 F. Ogliaro, M. J. Bearpark, J. J. Heyd, E. N. Brothers, K. N. Kudin, 
 V. N. Staroverov, T. A. Keith, R. Kobayashi, J. Normand, 
 K. Raghavachari, A. P. Rendell, J. C. Burant, S. S. Iyengar, 
 J. Tomasi, M. Cossi, J. M. Millam, M. Klene, C. Adamo, R. Cammi, 
 J. W. Ochterski, R. L. Martin, K. Morokuma, O. Farkas, 
 J. B. Foresman, and D. J. Fox, Gaussian, Inc., Wallingford CT, 2019.
 
 ******************************************
 Gaussian 16:  ES64L-G16RevC.01  3-Jul-2019
                30-Dec-2023 
 ******************************************
 %chk=allylic-1_1_opt_sqm_re_freq.chk
 %nprocshared=12
 Will use up to   12 processors via shared memory.
 %mem=48GB
 -----------------------------------------------------------
 # wb97xd def2svp scrf=(iefpcm,solvent=toluene) freq=noraman
 -----------------------------------------------------------
 1/10=4,30=1,38=1/1,3;
 2/12=2,17=6,18=5,40=1/2;
 3/5=43,7=101,11=2,25=1,30=1,70=2201,71=2,72=13,74=-58,140=1/1,2,3;
 4//1;
 5/5=2,38=5,53=13,98=1/2;
 8/6=4,10=90,11=11/1;
 11/6=1,8=1,9=11,15=111,16=1/1,2,10;
 10/6=1/2;
 6/7=2,8=2,9=2,10=2,28=1/1;
 7/8=1,10=1,25=1/1,2,3,16;
 1/10=4,30=1/3;
 99//99;
 --------------------------
 allylic-1_1_opt_sqm_re.out
 --------------------------
 Symbolic Z-matrix:
 Charge =  0 Multiplicity = 1
 C                     0.92333   0.4583   -0.94045 
 C                    -2.39556   0.19928   0.26487 
 C                     0.9766   -1.8937   -0.52775 
 C                    -2.28738  -0.68491  -0.71449 
 N                     1.24018  -0.48637  -0.1341 
 H                    -3.14901  -0.83656  -1.36662 
 H                     0.313    -2.25861   0.28684 
 H                    -3.2777    0.80433   0.49138 
 H                     1.93948  -2.41257  -0.33427 
 H                     0.53497   0.09089  -1.89504 
 H                    -1.37118  -1.26751  -0.88853 
 F                    -1.3885    0.45876   1.1195 
 C                     1.01589   1.9187   -0.6622 
 H                     2.0508    2.22541  -0.44472 
 H                     0.66122   2.48856  -1.52847 
 H                     0.39379   2.17776   0.20816 
 C                     1.7711   -0.20649   1.19826 
 H                     2.62736  -0.87095   1.3667 
 H                     2.08013   0.83854   1.32897 
 H                     0.98847  -0.45059   1.92933 
 

 GradGradGradGradGradGradGradGradGradGradGradGradGradGradGradGradGradGrad
 Berny optimization.
 Initialization pass.
 Trust Radius=3.00D-01 FncErr=1.00D-07 GrdErr=1.00D-07 EigMax=2.50D+02 EigMin=1.00D-04
 Number of steps in this run=      2 maximum allowed number of steps=      2.
 GradGradGradGradGradGradGradGradGradGradGradGradGradGradGradGradGradGrad

                          Input orientation:                          
 ---------------------------------------------------------------------
 Center     Atomic      Atomic             Coordinates (Angstroms)
 Number     Number       Type             X           Y           Z
 ---------------------------------------------------------------------
      1          6           0        0.923330    0.458300   -0.940450
      2          6           0       -2.395560    0.199280    0.264870
      3          6           0        0.976600   -1.893700   -0.527750
      4          6           0       -2.287380   -0.684910   -0.714490
      5          7           0        1.240180   -0.486370   -0.134100
      6          1           0       -3.149010   -0.836560   -1.366620
      7          1           0        0.313000   -2.258610    0.286840
      8          1           0       -3.277700    0.804330    0.491380
      9          1           0        1.939480   -2.412570   -0.334270
     10          1           0        0.534970    0.090890   -1.895040
     11          1           0       -1.371180   -1.267510   -0.888530
     12          9           0       -1.388500    0.458760    1.119500
     13          6           0        1.015890    1.918700   -0.662200
     14          1           0        2.050800    2.225410   -0.444720
     15          1           0        0.661220    2.488560   -1.528470
     16          1           0        0.393790    2.177760    0.208160
     17          6           0        1.771100   -0.206490    1.198260
     18          1           0        2.627360   -0.870950    1.366700
     19          1           0        2.080130    0.838540    1.328970
     20          1           0        0.988470   -0.450590    1.929330
 ---------------------------------------------------------------------
                    Distance matrix (angstroms):
                    1          2          3          4          5
     1  C    0.000000
     2  C    3.540469   0.000000
     3  C    2.388527   4.047255   0.000000
     4  C    3.415647   1.323873   3.485629   0.000000
     5  N    1.281794   3.721276   1.484928   3.580496   0.000000
     6  H    4.294442   2.074225   4.340726   1.091182   4.572387
     7  H    3.043081   3.657595   1.112241   3.200183   2.043939
     8  H    4.451800   1.093418   5.139753   2.157010   4.740081
     9  H    3.105142   5.096401   1.110765   4.582109   2.058965
    10  H    1.094100   3.642110   2.450126   3.156141   1.982791
    11  H    2.871566   2.128652   2.456491   1.099607   2.828170
    12  F    3.096442   1.346065   3.720376   2.340830   3.061820
    13  C    1.489550   3.931139   3.814972   4.206318   2.472561
    14  H    2.153976   4.937493   4.257683   5.230922   2.847339
    15  H    2.129888   4.219096   4.506119   4.407688   3.336116
    16  H    2.134540   3.420245   4.178279   4.029247   2.816222
    17  C    2.394732   4.289163   2.541066   4.512068   1.461298
    18  H    3.161260   5.252537   2.712926   5.340471   2.079560
    19  H    2.575468   4.644649   3.482861   5.056854   2.145105
    20  H    3.010974   3.826802   2.849553   4.216146   2.079034
                    6          7          8          9         10
     6  H    0.000000
     7  H    4.091659   0.000000
     8  H    2.482186   4.724041   0.000000
     9  H    5.426075   1.747833   6.184587   0.000000
    10  H    3.835505   3.214035   4.554168   3.267409   0.000000
    11  H    1.890758   2.280403   3.135521   3.546666   2.547886
    12  F    3.310293   3.312480   2.020651   4.629626   3.594790
    13  C    5.043219   4.341043   4.583392   4.440772   2.256561
    14  H    6.104391   4.864315   5.593627   4.640630   2.992882
    15  H    5.059691   5.094333   4.736192   5.203954   2.428813
    16  H    4.910956   4.437803   3.930186   4.873861   2.966211
    17  C    5.584181   2.677301   5.197289   2.691429   3.344392
    18  H    6.390514   2.906537   6.200200   2.396470   3.992766
    19  H    6.116868   3.714986   5.423013   3.654568   3.652498
    20  H    5.303867   2.534358   4.673621   3.142876   3.889045
                   11         12         13         14         15
    11  H    0.000000
    12  F    2.648111   0.000000
    13  C    3.987639   3.329710   0.000000
    14  H    4.909929   4.170926   1.101094   0.000000
    15  H    4.318360   3.915761   1.095881   1.781767   0.000000
    16  H    4.023398   2.638571   1.100748   1.781630   1.784376
    17  C    3.918466   3.229835   2.923711   2.948178   3.991264
    18  H    4.607781   4.237495   3.807285   3.633333   4.851188
    19  H    4.611322   3.495641   2.502820   2.251720   3.591773
    20  H    3.765055   2.670717   3.511455   3.731707   4.549953
                   16         17         18         19         20
    16  H    0.000000
    17  C    2.926077   0.000000
    18  H    3.952933   1.096841   0.000000
    19  H    2.427647   1.097576   1.795338   0.000000
    20  H    3.197545   1.098434   1.783035   1.792766   0.000000
 Stoichiometry    C6H12FN
 Framework group  C1[X(C6H12FN)]
 Deg. of freedom    54
 Full point group                 C1      NOp   1
 Largest Abelian subgroup         C1      NOp   1
 Largest concise Abelian subgroup C1      NOp   1
                         Standard orientation:                         
 ---------------------------------------------------------------------
 Center     Atomic      Atomic             Coordinates (Angstroms)
 Number     Number       Type             X           Y           Z
 ---------------------------------------------------------------------
      1          6           0        0.923330    0.458301   -0.940450
      2          6           0       -2.395560    0.199277    0.264870
      3          6           0        0.976603   -1.893699   -0.527750
      4          6           0       -2.287379   -0.684913   -0.714490
      5          7           0        1.240181   -0.486369   -0.134100
      6          1           0       -3.149009   -0.836564   -1.366620
      7          1           0        0.313003   -2.258610    0.286840
      8          1           0       -3.277700    0.804326    0.491380
      9          1           0        1.939483   -2.412568   -0.334270
     10          1           0        0.534970    0.090890   -1.895040
     11          1           0       -1.371178   -1.267512   -0.888530
     12          9           0       -1.388500    0.458758    1.119500
     13          6           0        1.015888    1.918701   -0.662200
     14          1           0        2.050798    2.225412   -0.444720
     15          1           0        0.661218    2.488560   -1.528470
     16          1           0        0.393788    2.177760    0.208160
     17          6           0        1.771101   -0.206488    1.198260
     18          1           0        2.627361   -0.870947    1.366700
     19          1           0        2.080129    0.838542    1.328970
     20          1           0        0.988471   -0.450589    1.929330
 ---------------------------------------------------------------------
 Rotational constants (GHZ):           2.3076008           1.2978251           1.1452018
 Standard basis: def2SVP (5D, 7F)
 There are   180 symmetry adapted cartesian basis functions of A   symmetry.
 There are   172 symmetry adapted basis functions of A   symmetry.
   172 basis functions,   284 primitive gaussians,   180 cartesian basis functions
    32 alpha electrons       32 beta electrons
       nuclear repulsion energy       384.9386584701 Hartrees.
 NAtoms=   20 NActive=   20 NUniq=   20 SFac= 1.00D+00 NAtFMM=   60 NAOKFM=F Big=F
 Integral buffers will be    131072 words long.
 Raffenetti 2 integral format.
 Two-electron integral symmetry is turned on.
 Nuclear repulsion after empirical dispersion term =      384.9263145106 Hartrees.
 Force inversion solution in PCM.
 ------------------------------------------------------------------------------
 Polarizable Continuum Model (PCM)
 =================================
 Model                : PCM.
 Atomic radii         : UFF (Universal Force Field).
 Polarization charges : Total charges.
 Charge compensation  : None.
 Solution method      : Matrix inversion.
 Cavity type          : Scaled VdW (van der Waals Surface) (Alpha=1.100).
 Cavity algorithm     : GePol (No added spheres)
                        Default sphere list used, NSphG=   20.
                        Lebedev-Laikov grids with approx.  5.0 points / Ang**2.
                        Smoothing algorithm: York/Karplus (Gamma=1.0000).
                        Polarization charges: spherical gaussians, with
                                              point-specific exponents (IZeta= 3).
                        Self-potential: point-specific (ISelfS= 7).
                        Self-field    : sphere-specific E.n sum rule (ISelfD= 2).
 1st derivatives      : Analytical E(r).r(x)/FMM algorithm (CHGder, D1EAlg=3).
                        Cavity 1st derivative terms included.
 2nd derivatives      : Analytical E(r).r(xy)/FMM algorithm (CHGder, D2EAlg=3).
                        Cavity 2nd derivative terms included.
 Solvent              : Toluene, Eps=   2.374100 Eps(inf)=   2.238315
 ------------------------------------------------------------------------------
 Spheres list:
 ISph  on   Nord     Re0    Alpha      Xe            Ye            Ze
    1   C      1    1.9255  1.100      0.923330      0.458301     -0.940450
    2   C      2    1.9255  1.100     -2.395560      0.199277      0.264870
    3   C      3    1.9255  1.100      0.976603     -1.893699     -0.527750
    4   C      4    1.9255  1.100     -2.287379     -0.684913     -0.714490
    5   N      5    1.8300  1.100      1.240181     -0.486369     -0.134100
    6   H      6    1.4430  1.100     -3.149009     -0.836564     -1.366620
    7   H      7    1.4430  1.100      0.313003     -2.258610      0.286840
    8   H      8    1.4430  1.100     -3.277700      0.804326      0.491380
    9   H      9    1.4430  1.100      1.939483     -2.412568     -0.334270
   10   H     10    1.4430  1.100      0.534970      0.090890     -1.895040
   11   H     11    1.4430  1.100     -1.371178     -1.267512     -0.888530
   12   F     12    1.6820  1.100     -1.388500      0.458758      1.119500
   13   C     13    1.9255  1.100      1.015888      1.918701     -0.662200
   14   H     14    1.4430  1.100      2.050798      2.225412     -0.444720
   15   H     15    1.4430  1.100      0.661218      2.488560     -1.528470
   16   H     16    1.4430  1.100      0.393788      2.177760      0.208160
   17   C     17    1.9255  1.100      1.771101     -0.206488      1.198260
   18   H     18    1.4430  1.100      2.627361     -0.870947      1.366700
   19   H     19    1.4430  1.100      2.080129      0.838542      1.328970
   20   H     20    1.4430  1.100      0.988471     -0.450589      1.929330
 ------------------------------------------------------------------------------
 One-electron integrals computed using PRISM.
   1 Symmetry operations used in ECPInt.
 ECPInt:  NShTT=    3570 NPrTT=   12386 LenC2=    3546 LenP2D=    9917.
 LDataN:  DoStor=T MaxTD1= 4 Len=   56
 NBasis=   172 RedAO= T EigKep=  2.98D-03  NBF=   172
 NBsUse=   172 1.00D-06 EigRej= -1.00D+00 NBFU=   172
 ExpMin= 1.22D-01 ExpMax= 2.89D+03 ExpMxC= 4.35D+02 IAcc=3 IRadAn=         5 AccDes= 0.00D+00
 Harris functional with IExCor= 4639 and IRadAn=       5 diagonalized for initial guess.
 HarFok:  IExCor= 4639 AccDes= 0.00D+00 IRadAn=         5 IDoV= 1 UseB2=F ITyADJ=14
 ICtDFT=  3500011 ScaDFX=  1.000000  1.000000  1.000000  1.000000
 FoFCou: FMM=F IPFlag=           0 FMFlag=      100000 FMFlg1=           0
         NFxFlg=           0 DoJE=T BraDBF=F KetDBF=T FulRan=T
         wScrn=  0.000000 ICntrl=       500 IOpCl=  0 I1Cent=   200000004 NGrid=           0
         NMat0=    1 NMatS0=      1 NMatT0=    0 NMatD0=    1 NMtDS0=    0 NMtDT0=    0
 Petite list used in FoFCou.
 Requested convergence on RMS density matrix=1.00D-08 within 128 cycles.
 Requested convergence on MAX density matrix=1.00D-06.
 Requested convergence on             energy=1.00D-06.
 No special actions if energy rises.
 Inv3:  Mode=1 IEnd=     6995187.
 Iteration    1 A*A^-1 deviation from unit magnitude is 2.89D-15 for    187.
 Iteration    1 A*A^-1 deviation from orthogonality  is 2.13D-15 for    970     73.
 Iteration    1 A^-1*A deviation from unit magnitude is 2.89D-15 for    187.
 Iteration    1 A^-1*A deviation from orthogonality  is 1.39D-15 for   1159    207.
 Error on total polarization charges =  0.00602
 SCF Done:  E(RwB97XD) =  -389.899487429     A.U. after   16 cycles
            NFock= 16  Conv=0.30D-08     -V/T= 2.0102
 DoSCS=F DFT=T ScalE2(SS,OS)=  1.000000  1.000000
 Range of M.O.s used for correlation:     1   172
 NBasis=   172 NAE=    32 NBE=    32 NFC=     0 NFV=     0
 NROrb=    172 NOA=    32 NOB=    32 NVA=   140 NVB=   140
   1 Symmetry operations used in ECPInt.
 ECPInt:  NShTT=    3570 NPrTT=   12386 LenC2=    3546 LenP2D=    9917.
 LDataN:  DoStor=T MaxTD1= 5 Len=  102
 Symmetrizing basis deriv contribution to polar:
 IMax=3 JMax=2 DiffMx= 0.00D+00
 G2DrvN: will do    21 centers at a time, making    1 passes.
 Calling FoFCou, ICntrl=  3107 FMM=F I1Cent=   0 AccDes= 0.00D+00.
 NEqPCM:  Using equilibrium solvation (IEInf=0, Eps=   2.3741, EpsInf=   2.2383)
 G2PCM: DoFxE=T DoFxN=T DoGrad=T DoDP/DQ/DG/TGxP=FFFF NFrqRd=   0 IEInf=0 SqF1=F DoCFld=F IF1Alg=4.
 End of G2Drv F.D. properties file   721 does not exist.
 End of G2Drv F.D. properties file   722 does not exist.
 End of G2Drv F.D. properties file   788 does not exist.
          IDoAtm=11111111111111111111
 NEqPCM:  Using equilibrium solvation (IEInf=0, Eps=   2.3741, EpsInf=   2.2383)
          Differentiating once with respect to electric field.
                with respect to dipole field.
          Differentiating once with respect to nuclear coordinates.
 Keep R1 ints in memory in canonical form, NReq=236059372.
          There are    63 degrees of freedom in the 1st order CPHF.  IDoFFX=6 NUNeed=     3.
     60 vectors produced by pass  0 Test12= 7.11D-15 1.59D-09 XBig12= 3.71D+01 3.06D+00.
 AX will form    60 AO Fock derivatives at one time.
     60 vectors produced by pass  1 Test12= 7.11D-15 1.59D-09 XBig12= 2.74D+00 3.46D-01.
     60 vectors produced by pass  2 Test12= 7.11D-15 1.59D-09 XBig12= 6.83D-02 5.08D-02.
     60 vectors produced by pass  3 Test12= 7.11D-15 1.59D-09 XBig12= 4.77D-04 4.19D-03.
     60 vectors produced by pass  4 Test12= 7.11D-15 1.59D-09 XBig12= 2.63D-06 1.97D-04.
     60 vectors produced by pass  5 Test12= 7.11D-15 1.59D-09 XBig12= 1.23D-08 1.75D-05.
     40 vectors produced by pass  6 Test12= 7.11D-15 1.59D-09 XBig12= 5.04D-11 7.05D-07.
      6 vectors produced by pass  7 Test12= 7.11D-15 1.59D-09 XBig12= 1.87D-13 4.54D-08.
      3 vectors produced by pass  8 Test12= 7.11D-15 1.59D-09 XBig12= 6.58D-16 3.22D-09.
 InvSVY:  IOpt=1 It=  1 EMax= 2.66D-15
 Solved reduced A of dimension   409 with    63 vectors.
 Isotropic polarizability for W=    0.000000       85.68 Bohr**3.
 End of Minotr F.D. properties file   721 does not exist.
 End of Minotr F.D. properties file   722 does not exist.
 End of Minotr F.D. properties file   788 does not exist.

 **********************************************************************

            Population analysis using the SCF Density.

 **********************************************************************

 Orbital symmetries:
       Occupied  (A) (A) (A) (A) (A) (A) (A) (A) (A) (A) (A) (A)
                 (A) (A) (A) (A) (A) (A) (A) (A) (A) (A) (A) (A)
                 (A) (A) (A) (A) (A) (A) (A) (A)
       Virtual   (A) (A) (A) (A) (A) (A) (A) (A) (A) (A) (A) (A)
                 (A) (A) (A) (A) (A) (A) (A) (A) (A) (A) (A) (A)
                 (A) (A) (A) (A) (A) (A) (A) (A) (A) (A) (A) (A)
                 (A) (A) (A) (A) (A) (A) (A) (A) (A) (A) (A) (A)
                 (A) (A) (A) (A) (A) (A) (A) (A) (A) (A) (A) (A)
                 (A) (A) (A) (A) (A) (A) (A) (A) (A) (A) (A) (A)
                 (A) (A) (A) (A) (A) (A) (A) (A) (A) (A) (A) (A)
                 (A) (A) (A) (A) (A) (A) (A) (A) (A) (A) (A) (A)
                 (A) (A) (A) (A) (A) (A) (A) (A) (A) (A) (A) (A)
                 (A) (A) (A) (A) (A) (A) (A) (A) (A) (A) (A) (A)
                 (A) (A) (A) (A) (A) (A) (A) (A) (A) (A) (A) (A)
                 (A) (A) (A) (A) (A) (A) (A) (A)
 The electronic state is 1-A.
 Alpha  occ. eigenvalues --  -24.82785 -14.52797 -10.37909 -10.37702 -10.34000
 Alpha  occ. eigenvalues --  -10.32438 -10.29225 -10.23169  -1.31074  -1.08262
 Alpha  occ. eigenvalues --   -0.87366  -0.85643  -0.82209  -0.74816  -0.69453
 Alpha  occ. eigenvalues --   -0.65607  -0.61754  -0.58437  -0.57669  -0.56362
 Alpha  occ. eigenvalues --   -0.56199  -0.55562  -0.51703  -0.49765  -0.48712
 Alpha  occ. eigenvalues --   -0.48441  -0.46088  -0.45171  -0.44299  -0.37055
 Alpha  occ. eigenvalues --   -0.34608  -0.22340
 Alpha virt. eigenvalues --    0.02601   0.09009   0.13262   0.16438   0.16691
 Alpha virt. eigenvalues --    0.17040   0.19364   0.20794   0.21179   0.21585
 Alpha virt. eigenvalues --    0.22621   0.22912   0.24365   0.25106   0.27207
 Alpha virt. eigenvalues --    0.28948   0.32326   0.36034   0.37480   0.41356
 Alpha virt. eigenvalues --    0.44215   0.48874   0.48884   0.51134   0.53635
 Alpha virt. eigenvalues --    0.54841   0.55843   0.56975   0.58500   0.59906
 Alpha virt. eigenvalues --    0.61947   0.65427   0.66629   0.67968   0.69424
 Alpha virt. eigenvalues --    0.71093   0.71678   0.72160   0.72961   0.74283
 Alpha virt. eigenvalues --    0.74858   0.75000   0.75379   0.76495   0.76721
 Alpha virt. eigenvalues --    0.77662   0.80105   0.82146   0.83467   0.84381
 Alpha virt. eigenvalues --    0.88471   0.88710   0.91741   0.92132   1.00309
 Alpha virt. eigenvalues --    1.08430   1.11062   1.15051   1.19209   1.20735
 Alpha virt. eigenvalues --    1.27922   1.28141   1.30715   1.32779   1.33742
 Alpha virt. eigenvalues --    1.36106   1.39727   1.46058   1.49162   1.55168
 Alpha virt. eigenvalues --    1.58999   1.59656   1.60421   1.61824   1.64840
 Alpha virt. eigenvalues --    1.66954   1.68411   1.71483   1.73679   1.76469
 Alpha virt. eigenvalues --    1.77569   1.79568   1.81603   1.82643   1.84933
 Alpha virt. eigenvalues --    1.85228   1.85503   1.88300   1.91248   1.91685
 Alpha virt. eigenvalues --    1.93103   1.96490   1.97550   1.98393   2.02668
 Alpha virt. eigenvalues --    2.04532   2.05144   2.05592   2.10414   2.13690
 Alpha virt. eigenvalues --    2.17333   2.18298   2.18577   2.21406   2.24060
 Alpha virt. eigenvalues --    2.31819   2.34485   2.35625   2.38056   2.40210
 Alpha virt. eigenvalues --    2.41888   2.49956   2.51755   2.52353   2.55012
 Alpha virt. eigenvalues --    2.58119   2.63203   2.72238   2.73715   2.76715
 Alpha virt. eigenvalues --    2.78920   2.81522   2.84346   2.88205   2.91704
 Alpha virt. eigenvalues --    2.94355   2.98839   3.01743   3.02465   3.05640
 Alpha virt. eigenvalues --    3.08106   3.10348   3.14708   3.17346   3.29379
 Alpha virt. eigenvalues --    3.31487   3.39556   3.44921   3.61269   3.94561
          Condensed to atoms (all electrons):
               1          2          3          4          5          6
     1  C    4.922894  -0.000984  -0.090099   0.007566   0.539428  -0.000026
     2  C   -0.000984   4.545359  -0.000167   0.611098  -0.000848  -0.005776
     3  C   -0.090099  -0.000167   5.349327  -0.031786   0.264224   0.000241
     4  C    0.007566   0.611098  -0.031786   5.002921   0.000282   0.370469
     5  N    0.539428  -0.000848   0.264224   0.000282   6.285756   0.000057
     6  H   -0.000026  -0.005776   0.000241   0.370469   0.000057   0.591412
     7  H   -0.000040  -0.000114   0.363494   0.002741  -0.033862   0.000108
     8  H    0.000274   0.421857  -0.000048  -0.061823  -0.000029  -0.006868
     9  H    0.004247   0.000009   0.358751   0.000790  -0.031874  -0.000008
    10  H    0.383959  -0.000289   0.032399  -0.004012  -0.026538   0.000117
    11  H   -0.010795  -0.013949   0.079223   0.319686  -0.003098  -0.023060
    12  F    0.009874   0.295217  -0.000878  -0.059385  -0.002404   0.002616
    13  C    0.299532   0.001246   0.011000  -0.001282  -0.042364   0.000012
    14  H   -0.010479  -0.000004  -0.000212   0.000012  -0.004747   0.000000
    15  H   -0.008800   0.000138  -0.000244   0.000201   0.004130  -0.000003
    16  H   -0.003177  -0.001533  -0.000361  -0.000682  -0.007911  -0.000027
    17  C   -0.086754  -0.000023  -0.037540  -0.001108   0.307603   0.000004
    18  H    0.005759   0.000001  -0.000650   0.000020  -0.022713  -0.000000
    19  H   -0.009605  -0.000024   0.006347   0.000221  -0.013231  -0.000000
    20  H    0.000456  -0.000038  -0.001096  -0.000059  -0.022182  -0.000007
               7          8          9         10         11         12
     1  C   -0.000040   0.000274   0.004247   0.383959  -0.010795   0.009874
     2  C   -0.000114   0.421857   0.000009  -0.000289  -0.013949   0.295217
     3  C    0.363494  -0.000048   0.358751   0.032399   0.079223  -0.000878
     4  C    0.002741  -0.061823   0.000790  -0.004012   0.319686  -0.059385
     5  N   -0.033862  -0.000029  -0.031874  -0.026538  -0.003098  -0.002404
     6  H    0.000108  -0.006868  -0.000008   0.000117  -0.023060   0.002616
     7  H    0.733613   0.000029  -0.039521  -0.001559  -0.007272   0.001151
     8  H    0.000029   0.616751   0.000001  -0.000031   0.004837  -0.031046
     9  H   -0.039521   0.000001   0.743806  -0.000462  -0.002735   0.000002
    10  H   -0.001559  -0.000031  -0.000462   0.555339   0.008464  -0.000122
    11  H   -0.007272   0.004837  -0.002735   0.008464   0.572130  -0.001796
    12  F    0.001151  -0.031046   0.000002  -0.000122  -0.001796   9.005916
    13  C   -0.000969  -0.000140  -0.000850  -0.034325   0.002363  -0.006933
    14  H   -0.000038   0.000001   0.000082   0.002948  -0.000009   0.000091
    15  H    0.000023   0.000004   0.000019  -0.008476  -0.000124  -0.000077
    16  H    0.000182   0.000029  -0.000015   0.002418  -0.000232   0.011946
    17  C   -0.003392  -0.000008  -0.009255   0.009250   0.002197   0.000141
    18  H   -0.001927   0.000001   0.008794  -0.000351  -0.000086   0.000096
    19  H    0.000966   0.000001   0.000939  -0.000894  -0.000432  -0.000334
    20  H    0.005434   0.000072  -0.001524  -0.000318  -0.000062   0.006916
              13         14         15         16         17         18
     1  C    0.299532  -0.010479  -0.008800  -0.003177  -0.086754   0.005759
     2  C    0.001246  -0.000004   0.000138  -0.001533  -0.000023   0.000001
     3  C    0.011000  -0.000212  -0.000244  -0.000361  -0.037540  -0.000650
     4  C   -0.001282   0.000012   0.000201  -0.000682  -0.001108   0.000020
     5  N   -0.042364  -0.004747   0.004130  -0.007911   0.307603  -0.022713
     6  H    0.000012   0.000000  -0.000003  -0.000027   0.000004  -0.000000
     7  H   -0.000969  -0.000038   0.000023   0.000182  -0.003392  -0.001927
     8  H   -0.000140   0.000001   0.000004   0.000029  -0.000008   0.000001
     9  H   -0.000850   0.000082   0.000019  -0.000015  -0.009255   0.008794
    10  H   -0.034325   0.002948  -0.008476   0.002418   0.009250  -0.000351
    11  H    0.002363  -0.000009  -0.000124  -0.000232   0.002197  -0.000086
    12  F   -0.006933   0.000091  -0.000077   0.011946   0.000141   0.000096
    13  C    4.679539   0.386584   0.387244   0.373124   0.009291  -0.000477
    14  H    0.386584   0.559252  -0.014362  -0.013561  -0.002152   0.000351
    15  H    0.387244  -0.014362   0.577701  -0.014625   0.000429  -0.000014
    16  H    0.373124  -0.013561  -0.014625   0.564072  -0.000041  -0.000032
    17  C    0.009291  -0.002152   0.000429  -0.000041   4.605764   0.395041
    18  H   -0.000477   0.000351  -0.000014  -0.000032   0.395041   0.578354
    19  H    0.004184   0.002485   0.000353  -0.000142   0.360161  -0.018339
    20  H   -0.000496  -0.000320  -0.000013   0.000668   0.397523  -0.014974
              19         20
     1  C   -0.009605   0.000456
     2  C   -0.000024  -0.000038
     3  C    0.006347  -0.001096
     4  C    0.000221  -0.000059
     5  N   -0.013231  -0.022182
     6  H   -0.000000  -0.000007
     7  H    0.000966   0.005434
     8  H    0.000001   0.000072
     9  H    0.000939  -0.001524
    10  H   -0.000894  -0.000318
    11  H   -0.000432  -0.000062
    12  F   -0.000334   0.006916
    13  C    0.004184  -0.000496
    14  H    0.002485  -0.000320
    15  H    0.000353  -0.000013
    16  H   -0.000142   0.000668
    17  C    0.360161   0.397523
    18  H   -0.018339  -0.014974
    19  H    0.635834  -0.017999
    20  H   -0.017999   0.566730
 Mulliken charges:
               1
     1  C    0.046771
     2  C    0.148823
     3  C   -0.301923
     4  C   -0.155870
     5  N   -0.189680
     6  H    0.070738
     7  H   -0.019047
     8  H    0.056137
     9  H   -0.031195
    10  H    0.082484
    11  H    0.074751
    12  F   -0.230992
    13  C   -0.066282
    14  H    0.094076
    15  H    0.076497
    16  H    0.089899
    17  C    0.052870
    18  H    0.071147
    19  H    0.049510
    20  H    0.081288
 Sum of Mulliken charges =  -0.00000
 Mulliken charges with hydrogens summed into heavy atoms:
               1
     1  C    0.129255
     2  C    0.204961
     3  C   -0.352166
     4  C   -0.010381
     5  N   -0.189680
    12  F   -0.230992
    13  C    0.194189
    17  C    0.254814
 APT charges:
               1
     1  C    0.361588
     2  C    0.594131
     3  C   -0.343835
     4  C   -0.310950
     5  N   -0.241872
     6  H    0.064387
     7  H   -0.052310
     8  H    0.047740
     9  H   -0.074649
    10  H    0.097337
    11  H    0.198968
    12  F   -0.593698
    13  C   -0.086447
    14  H    0.038518
    15  H    0.040250
    16  H    0.048554
    17  C    0.139399
    18  H    0.044659
    19  H   -0.018842
    20  H    0.047072
 Sum of APT charges =  -0.00000
 APT charges with hydrogens summed into heavy atoms:
               1
     1  C    0.458925
     2  C    0.641871
     3  C   -0.470794
     4  C   -0.047595
     5  N   -0.241872
    12  F   -0.593698
    13  C    0.040875
    17  C    0.212287
 Electronic spatial extent (au):  <R**2>=           1205.1510
 Charge=             -0.0000 electrons
 Dipole moment (field-independent basis, Debye):
    X=              0.2831    Y=              5.8882    Z=              1.6039  Tot=              6.1093
 Quadrupole moment (field-independent basis, Debye-Ang):
   XX=            -41.7900   YY=            -56.7085   ZZ=            -50.8907
   XY=              3.7469   XZ=              4.0329   YZ=             -6.6453
 Traceless Quadrupole moment (field-independent basis, Debye-Ang):
   XX=              8.0064   YY=             -6.9121   ZZ=             -1.0943
   XY=              3.7469   XZ=              4.0329   YZ=             -6.6453
 Octapole moment (field-independent basis, Debye-Ang**2):
  XXX=            -19.9289  YYY=             39.3058  ZZZ=             13.7483  XYY=             -5.4986
  XXY=             12.6893  XXZ=              6.8383  XZZ=             -2.2241  YZZ=             12.3926
  YYZ=             13.5916  XYZ=             -8.5632
 Hexadecapole moment (field-independent basis, Debye-Ang**3):
 XXXX=           -772.2991 YYYY=           -506.4683 ZZZZ=           -266.9062 XXXY=            -11.0038
 XXXZ=              9.2267 YYYX=             18.7122 YYYZ=            -32.1497 ZZZX=             -0.2302
 ZZZY=            -18.8426 XXYY=           -220.7793 XXZZ=           -182.8066 YYZZ=           -137.0106
 XXYZ=              2.0496 YYXZ=              5.6225 ZZXY=              9.6043
 N-N= 3.849263145106D+02 E-N=-1.678274669941D+03  KE= 3.859528301103D+02
  Exact polarizability:      78.834      -4.319      97.535       7.481       1.734      80.665
 Approx polarizability:      71.411      -3.663      90.284       5.969       3.196      81.749
   1 Symmetry operations used in ECPInt.
 ECPInt:  NShTT=    3570 NPrTT=   12386 LenC2=    3546 LenP2D=    9917.
 LDataN:  DoStor=T MaxTD1= 6 Len=  172
 D2PCM: PCM CHGder 2nd derivatives, FixD1E=F FixD2E=F DoIter=F DoCFld=F I1PDM=0
 Calling FoFJK, ICntrl=    100127 FMM=F ISym2X=0 I1Cent= 0 IOpClX= 0 NMat=1 NMatS=1 NMatT=0.
 Full mass-weighted force constant matrix:
 Low frequencies --- -360.1161   -0.0005    0.0003    0.0004   11.6234   14.5502
 Low frequencies ---   26.8684   48.1139   74.0220
 ******    1 imaginary frequencies (negative Signs) ****** 
 Diagonal vibrational polarizability:
      140.9695770      43.1341500      53.9017891
 Harmonic frequencies (cm**-1), IR intensities (KM/Mole), Raman scattering
 activities (A**4/AMU), depolarization ratios for plane and unpolarized
 incident light, reduced masses (AMU), force constants (mDyne/A),
 and normal coordinates:
                      1                      2                      3
                      A                      A                      A
 Frequencies --   -360.1151                47.3889                73.7841
 Red. masses --      1.0888                 3.8037                 3.4071
 Frc consts  --      0.0832                 0.0050                 0.0109
 IR Inten    --     61.4563                 5.8195                21.4576
  Atom  AN      X      Y      Z        X      Y      Z        X      Y      Z
     1   6     0.00  -0.00  -0.00     0.06   0.06   0.04     0.03  -0.04  -0.03
     2   6    -0.00  -0.00   0.00    -0.13  -0.13   0.05     0.02   0.05   0.03
     3   6     0.04   0.01  -0.00    -0.05   0.04  -0.05     0.20  -0.06  -0.15
     4   6    -0.02   0.01  -0.01    -0.12  -0.19   0.10     0.07  -0.02   0.10
     5   7     0.03  -0.01  -0.01     0.03   0.02  -0.01     0.01  -0.05  -0.03
     6   1    -0.03   0.02   0.01    -0.22  -0.44   0.28     0.07  -0.13   0.13
     7   1    -0.54   0.19  -0.40    -0.06   0.05  -0.06     0.09  -0.16  -0.28
     8   1    -0.00  -0.00   0.01    -0.22  -0.30   0.16    -0.02   0.00  -0.01
     9   1    -0.17  -0.13   0.65    -0.07  -0.01  -0.09     0.21   0.02   0.00
    10   1     0.08  -0.00  -0.03     0.00   0.12   0.04     0.19  -0.04  -0.10
    11   1    -0.04   0.02  -0.05    -0.03  -0.01  -0.01     0.09   0.02   0.11
    12   9     0.00  -0.01  -0.00    -0.03   0.17  -0.16     0.01   0.20  -0.00
    13   6    -0.04  -0.00   0.02     0.16   0.05   0.09    -0.14  -0.04   0.04
    14   1    -0.03  -0.00  -0.03     0.17  -0.04   0.15    -0.19   0.04   0.16
    15   1    -0.07  -0.00   0.03     0.25   0.10   0.09    -0.09  -0.04   0.02
    16   1    -0.00   0.01   0.04     0.14   0.06   0.07    -0.25  -0.13  -0.02
    17   6     0.04   0.00  -0.01     0.07  -0.06  -0.01    -0.17  -0.08   0.04
    18   1     0.03  -0.02  -0.01    -0.02  -0.18  -0.01    -0.03   0.10   0.05
    19   1     0.07  -0.01  -0.03     0.22  -0.10  -0.01    -0.43  -0.02   0.19
    20   1     0.04   0.03  -0.01     0.04   0.05  -0.01    -0.18  -0.35  -0.06
                      4                      5                      6
                      A                      A                      A
 Frequencies --     80.8437               117.3624               128.3116
 Red. masses --      2.4622                 5.0202                 1.2134
 Frc consts  --      0.0095                 0.0407                 0.0118
 IR Inten    --      1.2256                 0.3520                 0.2875
  Atom  AN      X      Y      Z        X      Y      Z        X      Y      Z
     1   6    -0.11  -0.03   0.07    -0.13   0.04   0.07    -0.03  -0.00   0.03
     2   6     0.01   0.08  -0.10     0.19  -0.01  -0.05    -0.01   0.03  -0.02
     3   6     0.03  -0.04   0.01    -0.15   0.03   0.05     0.01  -0.00   0.03
     4   6     0.03  -0.02  -0.01     0.00  -0.09   0.01    -0.06   0.01  -0.01
     5   7     0.04  -0.04   0.01    -0.14   0.02   0.05     0.02  -0.00   0.02
     6   1     0.08  -0.01  -0.07    -0.09  -0.09   0.13    -0.06   0.04  -0.00
     7   1     0.17  -0.08   0.11    -0.16   0.04   0.04     0.02   0.00   0.04
     8   1     0.03   0.17  -0.24     0.26   0.06   0.02     0.02   0.08  -0.02
     9   1     0.08  -0.01  -0.15    -0.16   0.02   0.05     0.01  -0.00   0.00
    10   1    -0.21  -0.02   0.11    -0.15   0.06   0.07    -0.10  -0.01   0.06
    11   1     0.01  -0.10   0.12    -0.04  -0.15  -0.07    -0.08  -0.03   0.01
    12   9    -0.05   0.08  -0.03     0.31  -0.01  -0.19     0.01  -0.01  -0.03
    13   6    -0.14  -0.04   0.11    -0.08   0.04   0.07    -0.03   0.00   0.00
    14   1    -0.10   0.02  -0.15    -0.02   0.03  -0.20    -0.12  -0.03   0.46
    15   1    -0.40  -0.02   0.22    -0.30   0.04   0.16     0.36  -0.01  -0.17
    16   1     0.07  -0.10   0.28     0.15   0.04   0.23    -0.41   0.05  -0.28
    17   6     0.19  -0.03  -0.05    -0.10  -0.01   0.04     0.09  -0.02  -0.01
    18   1     0.08  -0.17  -0.07     0.08   0.17  -0.11     0.27   0.17  -0.17
    19   1     0.38  -0.07  -0.16    -0.33   0.05   0.15    -0.16   0.04   0.08
    20   1     0.20   0.16   0.03     0.02  -0.29   0.08     0.22  -0.30   0.04
                      7                      8                      9
                      A                      A                      A
 Frequencies --    144.7640               157.6082               184.4463
 Red. masses --      1.4915                 2.0358                 2.1426
 Frc consts  --      0.0184                 0.0298                 0.0429
 IR Inten    --      1.9665                12.4369                 3.4751
  Atom  AN      X      Y      Z        X      Y      Z        X      Y      Z
     1   6    -0.03   0.01  -0.01    -0.03   0.03  -0.00    -0.02  -0.04   0.02
     2   6     0.07  -0.03  -0.01     0.03  -0.03  -0.04    -0.05  -0.12   0.10
     3   6    -0.10   0.01  -0.01    -0.10   0.02  -0.00    -0.03  -0.02   0.05
     4   6     0.13  -0.04   0.01     0.17  -0.07   0.01     0.10   0.15  -0.13
     5   7    -0.03   0.00  -0.02    -0.06   0.01  -0.01     0.00  -0.02   0.02
     6   1     0.16  -0.07  -0.02     0.24  -0.11  -0.07     0.02  -0.01   0.01
     7   1    -0.12   0.06  -0.00    -0.18   0.06  -0.05     0.02  -0.02   0.10
     8   1     0.04  -0.05  -0.07    -0.02  -0.05  -0.18    -0.23  -0.50   0.41
     9   1    -0.13  -0.04   0.01    -0.15  -0.03   0.08    -0.02  -0.03  -0.04
    10   1    -0.05   0.03  -0.01    -0.06   0.04   0.00    -0.03  -0.05   0.02
    11   1     0.15  -0.03   0.04     0.19  -0.06   0.11     0.22   0.41  -0.37
    12   9     0.02   0.03   0.03    -0.09   0.05   0.08     0.02   0.07  -0.04
    13   6    -0.04   0.01   0.02     0.08   0.03  -0.02    -0.07  -0.03  -0.01
    14   1    -0.11  -0.02   0.41     0.12  -0.03  -0.17    -0.08   0.02  -0.04
    15   1     0.29   0.03  -0.09    -0.00   0.03   0.02    -0.12  -0.06  -0.01
    16   1    -0.35   0.00  -0.20     0.20   0.08   0.05    -0.06  -0.05   0.00
    17   6    -0.03  -0.01  -0.02     0.03  -0.04  -0.04     0.05  -0.00  -0.00
    18   1    -0.26  -0.27   0.12     0.29   0.23  -0.27     0.10   0.05  -0.05
    19   1     0.31  -0.09  -0.14    -0.32   0.04   0.12    -0.01   0.01  -0.01
    20   1    -0.16   0.35  -0.04     0.22  -0.46   0.02     0.10  -0.06   0.04
                     10                     11                     12
                      A                      A                      A
 Frequencies --    304.9596               331.3389               452.4277
 Red. masses --      2.5397                 2.6721                 2.6348
 Frc consts  --      0.1392                 0.1728                 0.3178
 IR Inten    --     23.6582                 4.9734                11.4397
  Atom  AN      X      Y      Z        X      Y      Z        X      Y      Z
     1   6     0.24   0.00  -0.09    -0.03  -0.03  -0.09    -0.05   0.08  -0.06
     2   6    -0.01   0.02  -0.01    -0.00  -0.00   0.01    -0.01   0.00   0.01
     3   6    -0.18   0.02   0.06     0.03  -0.08   0.09     0.09  -0.03   0.23
     4   6    -0.02  -0.02   0.02     0.00   0.01  -0.01     0.00   0.01  -0.00
     5   7     0.11   0.00  -0.04    -0.04  -0.03  -0.10     0.03   0.05  -0.11
     6   1    -0.01  -0.02   0.01    -0.00   0.00   0.00     0.02  -0.01  -0.01
     7   1    -0.03   0.19   0.26     0.05   0.00   0.14     0.18   0.17   0.39
     8   1     0.01   0.06  -0.04    -0.01  -0.02   0.02    -0.02  -0.01   0.03
     9   1    -0.22  -0.14  -0.16     0.05  -0.01   0.16     0.14   0.10   0.37
    10   1     0.36  -0.00  -0.14    -0.05   0.10  -0.13    -0.14   0.13  -0.05
    11   1    -0.01  -0.03   0.06    -0.00   0.01  -0.01     0.01   0.01   0.03
    12   9    -0.01  -0.01  -0.00     0.00   0.00  -0.00     0.00  -0.00  -0.01
    13   6    -0.12   0.00   0.05     0.08  -0.09   0.21    -0.01   0.09  -0.01
    14   1    -0.22   0.33   0.06     0.10  -0.23   0.33     0.01   0.03  -0.02
    15   1    -0.34  -0.01   0.13     0.18   0.17   0.34    -0.00   0.15   0.02
    16   1    -0.18  -0.33   0.10     0.06  -0.25   0.24     0.03   0.08   0.02
    17   6     0.01  -0.01  -0.00    -0.06   0.18  -0.14    -0.05  -0.19  -0.07
    18   1     0.08   0.07  -0.01     0.06   0.34  -0.09    -0.16  -0.34  -0.11
    19   1    -0.11   0.02   0.07    -0.22   0.23  -0.21     0.05  -0.25   0.19
    20   1     0.01  -0.15  -0.05    -0.01   0.12  -0.11    -0.16  -0.27  -0.21
                     13                     14                     15
                      A                      A                      A
 Frequencies --    486.5771               525.1317               569.8014
 Red. masses --      2.4199                 2.5068                 3.2129
 Frc consts  --      0.3376                 0.4073                 0.6146
 IR Inten    --      1.7684                 3.1425                13.0788
  Atom  AN      X      Y      Z        X      Y      Z        X      Y      Z
     1   6    -0.12  -0.02   0.07    -0.00   0.00   0.00    -0.07  -0.08  -0.16
     2   6    -0.02   0.01   0.00     0.17  -0.11  -0.04     0.01  -0.00  -0.00
     3   6    -0.06   0.02  -0.03    -0.00  -0.01   0.01     0.02   0.29   0.02
     4   6     0.02   0.01   0.01    -0.12  -0.07  -0.14    -0.01  -0.00  -0.01
     5   7     0.27  -0.02  -0.09     0.03  -0.00  -0.01     0.00   0.13   0.03
     6   1     0.05  -0.02  -0.02    -0.42   0.33   0.15    -0.02   0.01   0.01
     7   1    -0.07   0.23   0.06     0.03   0.02   0.05     0.00   0.18  -0.05
     8   1    -0.01   0.01   0.01     0.13  -0.14  -0.13     0.01  -0.01  -0.00
     9   1    -0.19  -0.24  -0.13     0.01  -0.02  -0.03     0.00   0.22  -0.09
    10   1    -0.45  -0.03   0.21    -0.04   0.01   0.02    -0.02  -0.25  -0.11
    11   1     0.03   0.02   0.06    -0.35  -0.30  -0.55    -0.01  -0.01  -0.02
    12   9    -0.00  -0.01  -0.01    -0.01   0.12   0.13     0.00   0.01   0.00
    13   6     0.01  -0.02  -0.01    -0.00   0.01  -0.00    -0.00  -0.23   0.00
    14   1     0.06  -0.16  -0.07    -0.00   0.02  -0.00     0.05  -0.47   0.10
    15   1     0.05  -0.04  -0.03    -0.01   0.00  -0.00     0.08   0.07   0.17
    16   1     0.08   0.13   0.00     0.00   0.01  -0.00     0.06  -0.41   0.10
    17   6    -0.05   0.04   0.04    -0.00  -0.00   0.00     0.03  -0.04   0.08
    18   1    -0.02   0.15   0.36    -0.00   0.01   0.04    -0.04  -0.18  -0.08
    19   1    -0.26   0.09   0.15    -0.02   0.00   0.02     0.13  -0.10   0.31
    20   1    -0.29  -0.06  -0.25    -0.03  -0.01  -0.03     0.01  -0.15   0.02
                     16                     17                     18
                      A                      A                      A
 Frequencies --    751.6001               804.8593               858.6664
 Red. masses --      1.4199                 3.2221                 1.1230
 Frc consts  --      0.4726                 1.2298                 0.4878
 IR Inten    --      8.5641                 3.9347                38.6795
  Atom  AN      X      Y      Z        X      Y      Z        X      Y      Z
     1   6     0.00   0.00  -0.00     0.07  -0.03   0.17    -0.04  -0.00   0.02
     2   6    -0.06  -0.13   0.11    -0.00  -0.00  -0.00     0.00  -0.00   0.00
     3   6    -0.00  -0.00  -0.01     0.05   0.26   0.08    -0.01   0.00   0.01
     4   6    -0.00  -0.00  -0.00    -0.00  -0.01   0.00    -0.00  -0.01   0.01
     5   7    -0.00   0.00   0.00    -0.01  -0.10   0.02     0.03  -0.01  -0.01
     6   1     0.29   0.62  -0.53     0.01   0.02  -0.02     0.01   0.03  -0.02
     7   1     0.00   0.00  -0.00    -0.00   0.12  -0.04     0.04   0.08   0.09
     8   1     0.12   0.25  -0.21     0.01   0.01  -0.01     0.01   0.01  -0.01
     9   1    -0.00   0.00   0.01     0.02   0.17  -0.08    -0.03  -0.09  -0.11
    10   1    -0.01  -0.01   0.00     0.04   0.04   0.17     0.64  -0.01  -0.25
    11   1    -0.11  -0.23   0.20     0.01   0.01  -0.01     0.01   0.02  -0.02
    12   9     0.02   0.05  -0.04     0.00   0.00   0.00    -0.00   0.00  -0.00
    13   6     0.00   0.00   0.00     0.02  -0.08   0.04    -0.08   0.01   0.03
    14   1    -0.00   0.01   0.00    -0.03   0.22  -0.12     0.09  -0.41  -0.12
    15   1    -0.01   0.00   0.01    -0.08  -0.52  -0.20     0.24   0.01  -0.09
    16   1    -0.00  -0.01   0.00    -0.08   0.17  -0.11     0.13   0.43   0.04
    17   6     0.00   0.00   0.00    -0.09  -0.06  -0.23    -0.01   0.00  -0.01
    18   1     0.00   0.00   0.00    -0.04   0.04  -0.12     0.01  -0.00  -0.08
    19   1     0.00   0.00   0.00    -0.18  -0.01  -0.44     0.02  -0.00  -0.03
    20   1     0.00   0.00   0.01    -0.08   0.04  -0.18     0.05   0.01   0.06
                     19                     20                     21
                      A                      A                      A
 Frequencies --    948.2529               958.5786               971.4871
 Red. masses --      1.9457                 1.4074                 1.7627
 Frc consts  --      1.0308                 0.7619                 0.9802
 IR Inten    --     45.5958                 7.7455                25.7781
  Atom  AN      X      Y      Z        X      Y      Z        X      Y      Z
     1   6    -0.00  -0.01  -0.01     0.01   0.00   0.01     0.02   0.06   0.07
     2   6     0.07   0.03   0.04    -0.03  -0.09   0.08     0.02   0.02  -0.01
     3   6     0.00   0.01   0.02    -0.01  -0.00  -0.02    -0.05  -0.08  -0.13
     4   6     0.12   0.01   0.14     0.06   0.10  -0.06     0.00  -0.01   0.02
     5   7    -0.00  -0.01  -0.00     0.00   0.01   0.00     0.01   0.11   0.01
     6   1    -0.21   0.67   0.43    -0.27  -0.38   0.49     0.01   0.13  -0.02
     7   1    -0.04  -0.04  -0.05     0.05   0.05   0.06     0.32   0.26   0.38
     8   1    -0.08  -0.14  -0.08     0.21   0.44  -0.41    -0.07  -0.15   0.11
     9   1     0.01  -0.01  -0.08    -0.00   0.03   0.07     0.02   0.22   0.52
    10   1    -0.02  -0.00  -0.00     0.02   0.00   0.00     0.03   0.14   0.04
    11   1    -0.09  -0.13  -0.42    -0.12  -0.23   0.12    -0.04  -0.07   0.02
    12   9    -0.10  -0.05  -0.11    -0.02  -0.00  -0.02    -0.01  -0.00  -0.01
    13   6     0.00   0.01   0.00    -0.00  -0.01   0.01     0.01  -0.13   0.02
    14   1    -0.00   0.02   0.01     0.00  -0.01  -0.02    -0.00  -0.03  -0.10
    15   1    -0.00   0.02   0.01     0.00  -0.04  -0.02    -0.03  -0.38  -0.12
    16   1     0.00   0.01   0.00    -0.00   0.02  -0.01    -0.05   0.00  -0.07
    17   6     0.00   0.00   0.00    -0.00   0.00  -0.00    -0.01   0.02  -0.02
    18   1    -0.00  -0.00   0.01    -0.00   0.00  -0.01    -0.03  -0.03  -0.11
    19   1    -0.00   0.00   0.01     0.01  -0.00  -0.00     0.06  -0.02   0.08
    20   1    -0.00  -0.01  -0.00     0.01   0.00   0.01     0.02  -0.03  -0.00
                     22                     23                     24
                      A                      A                      A
 Frequencies --   1016.4404              1031.9672              1037.9544
 Red. masses --      1.1588                 1.9843                 1.3500
 Frc consts  --      0.7054                 1.2451                 0.8569
 IR Inten    --     56.8771                 1.1615                28.7101
  Atom  AN      X      Y      Z        X      Y      Z        X      Y      Z
     1   6    -0.00   0.03   0.01    -0.03   0.00  -0.08    -0.02  -0.03  -0.02
     2   6    -0.02  -0.02   0.01     0.01   0.00  -0.00    -0.01  -0.01   0.00
     3   6     0.00  -0.04   0.02     0.02   0.05   0.03    -0.01   0.06  -0.06
     4   6    -0.02  -0.05   0.04     0.00   0.02  -0.01    -0.01  -0.03   0.02
     5   7    -0.00   0.03  -0.01    -0.06  -0.09  -0.14    -0.01  -0.08  -0.03
     6   1     0.03  -0.02  -0.05    -0.00  -0.02  -0.00     0.01   0.02  -0.02
     7   1    -0.08  -0.08  -0.08    -0.02   0.03  -0.02     0.26   0.24   0.28
     8   1     0.16   0.36  -0.29    -0.04  -0.10   0.09     0.07   0.16  -0.13
     9   1     0.02  -0.04  -0.11     0.01   0.02  -0.05     0.01   0.21   0.35
    10   1    -0.01   0.15  -0.03    -0.07   0.44  -0.23    -0.02  -0.01  -0.03
    11   1     0.26   0.54  -0.46    -0.08  -0.16   0.16     0.14   0.29  -0.25
    12   9     0.01  -0.00   0.01    -0.00   0.00  -0.00     0.00  -0.00   0.00
    13   6     0.01  -0.05   0.01     0.03  -0.03   0.09    -0.00   0.04  -0.02
    14   1    -0.01   0.05  -0.04    -0.01   0.28  -0.18    -0.00  -0.00   0.05
    15   1    -0.04  -0.20  -0.07    -0.04  -0.49  -0.19     0.01   0.19   0.07
    16   1    -0.04   0.00  -0.04    -0.13   0.31  -0.13     0.03  -0.03   0.03
    17   6     0.01   0.03  -0.00     0.06   0.03   0.16     0.01  -0.07   0.07
    18   1    -0.07  -0.08  -0.07     0.05   0.00   0.11     0.18   0.19   0.23
    19   1     0.06  -0.00   0.19     0.07   0.03   0.18    -0.12   0.02  -0.34
    20   1    -0.03  -0.08  -0.08     0.03   0.01   0.11     0.06   0.19   0.21
                     25                     26                     27
                      A                      A                      A
 Frequencies --   1094.1655              1124.7980              1131.9760
 Red. masses --      1.5197                 1.2786                 1.8873
 Frc consts  --      1.0720                 0.9531                 1.4249
 IR Inten    --      1.3554                 1.4286                27.9331
  Atom  AN      X      Y      Z        X      Y      Z        X      Y      Z
     1   6     0.15   0.00  -0.06    -0.07  -0.00   0.03     0.04   0.17   0.10
     2   6     0.01  -0.00   0.00    -0.01   0.00  -0.00    -0.02   0.00  -0.01
     3   6    -0.03   0.00   0.00    -0.04   0.00  -0.00     0.02  -0.01   0.05
     4   6    -0.00  -0.00   0.00     0.00   0.00  -0.00     0.01   0.00  -0.01
     5   7    -0.04   0.00   0.02    -0.03  -0.00   0.01    -0.02  -0.02  -0.06
     6   1     0.01  -0.02  -0.02    -0.01   0.01   0.01    -0.02   0.02   0.03
     7   1     0.01  -0.23  -0.07     0.03  -0.18  -0.03    -0.12  -0.06  -0.11
     8   1     0.01   0.01  -0.00    -0.01  -0.01   0.01    -0.03  -0.02   0.01
     9   1     0.09   0.25   0.10     0.07   0.23   0.10     0.02  -0.06  -0.16
    10   1    -0.46  -0.01   0.19     0.42  -0.01  -0.16     0.02   0.58  -0.03
    11   1     0.01   0.04  -0.01    -0.02  -0.04   0.01    -0.04  -0.09   0.03
    12   9    -0.00   0.00  -0.00     0.00  -0.00   0.00     0.01   0.00   0.00
    13   6    -0.11  -0.00   0.04     0.04   0.00  -0.02    -0.05  -0.10  -0.12
    14   1     0.05  -0.38  -0.17    -0.02   0.12   0.07     0.00  -0.42   0.09
    15   1     0.24   0.01  -0.09    -0.09   0.02   0.04    -0.00   0.11   0.02
    16   1     0.12   0.36   0.09    -0.04  -0.13  -0.03     0.09  -0.41   0.07
    17   6     0.06  -0.01  -0.02     0.11  -0.01  -0.04     0.01  -0.04   0.03
    18   1     0.01   0.01   0.26     0.01  -0.01   0.48     0.13   0.14   0.16
    19   1    -0.13   0.04   0.08    -0.23   0.07   0.18    -0.08   0.01  -0.17
    20   1    -0.15   0.01  -0.24    -0.28  -0.02  -0.47     0.02   0.14   0.11
                     28                     29                     30
                      A                      A                      A
 Frequencies --   1178.5840              1204.2755              1241.1510
 Red. masses --      3.0177                 1.8916                 1.3245
 Frc consts  --      2.4697                 1.6163                 1.2021
 IR Inten    --    117.3174                 2.9721                18.2992
  Atom  AN      X      Y      Z        X      Y      Z        X      Y      Z
     1   6    -0.01   0.01   0.02    -0.04   0.05  -0.10     0.03   0.00  -0.01
     2   6     0.31  -0.06   0.09     0.01  -0.00   0.00     0.00  -0.00  -0.00
     3   6    -0.00   0.00   0.00     0.01  -0.06   0.04     0.09  -0.01  -0.03
     4   6    -0.12   0.06   0.01    -0.00   0.00  -0.00    -0.00  -0.00   0.00
     5   7     0.00  -0.01  -0.01     0.03   0.16   0.04    -0.11   0.00   0.04
     6   1     0.17  -0.28  -0.26     0.01  -0.02  -0.01    -0.01   0.01   0.01
     7   1    -0.00  -0.02  -0.01    -0.16  -0.10  -0.14     0.05   0.60   0.22
     8   1     0.46   0.06   0.30     0.02   0.01   0.02     0.01   0.01   0.01
     9   1    -0.00   0.01  -0.00     0.02  -0.10  -0.19    -0.21  -0.59  -0.19
    10   1     0.04   0.07  -0.01     0.01  -0.17  -0.04    -0.08   0.01   0.03
    11   1     0.14   0.37   0.42     0.00   0.01   0.02     0.02   0.02   0.00
    12   9    -0.16  -0.00  -0.09    -0.01  -0.00  -0.00    -0.00  -0.00  -0.00
    13   6     0.00  -0.01  -0.02     0.03  -0.04   0.07    -0.01  -0.00   0.00
    14   1    -0.02  -0.01   0.06     0.03   0.13  -0.14     0.01  -0.03  -0.01
    15   1    -0.03   0.04   0.02    -0.02  -0.28  -0.06     0.01   0.00  -0.00
    16   1     0.02  -0.06   0.01    -0.13   0.11  -0.09     0.00   0.01   0.00
    17   6     0.00   0.01  -0.00    -0.00  -0.14  -0.00     0.06  -0.00  -0.02
    18   1    -0.01  -0.01   0.02     0.24   0.24   0.30    -0.03  -0.05   0.18
    19   1     0.01   0.00   0.02    -0.26  -0.01  -0.50    -0.16   0.04   0.09
    20   1     0.00  -0.02  -0.01    -0.00   0.30   0.15    -0.10   0.04  -0.18
                     31                     32                     33
                      A                      A                      A
 Frequencies --   1339.7136              1346.9816              1394.3447
 Red. masses --      1.1485                 1.3261                 1.2545
 Frc consts  --      1.2145                 1.4176                 1.4370
 IR Inten    --      1.6753                 4.8892                15.0124
  Atom  AN      X      Y      Z        X      Y      Z        X      Y      Z
     1   6     0.00   0.00   0.00    -0.01  -0.08  -0.04     0.01   0.04   0.03
     2   6    -0.05   0.04   0.02    -0.01   0.00  -0.00     0.01   0.02   0.03
     3   6     0.00  -0.00   0.00    -0.00   0.01  -0.01     0.00  -0.03   0.01
     4   6     0.06  -0.06  -0.04     0.00  -0.01  -0.00    -0.00   0.01   0.01
     5   7    -0.00  -0.00  -0.01     0.04   0.03   0.10    -0.03   0.01  -0.06
     6   1     0.06  -0.08  -0.05    -0.01   0.01   0.01     0.11  -0.14  -0.10
     7   1    -0.01   0.02   0.00     0.05  -0.09   0.00    -0.15   0.21  -0.02
     8   1     0.38   0.41   0.70     0.02   0.03   0.05    -0.07  -0.04  -0.08
     9   1     0.01   0.02  -0.01    -0.05  -0.08   0.04     0.12   0.17  -0.13
    10   1     0.01  -0.04   0.02    -0.11   0.69  -0.27     0.06  -0.32   0.15
    11   1    -0.10  -0.25  -0.31    -0.00  -0.02  -0.01    -0.10  -0.10  -0.15
    12   9    -0.03   0.01  -0.01    -0.00   0.00   0.00     0.00  -0.00  -0.00
    13   6     0.00   0.01   0.00    -0.01  -0.06  -0.03    -0.01  -0.10  -0.04
    14   1     0.01  -0.02  -0.01    -0.14   0.30   0.14    -0.21   0.34   0.33
    15   1     0.00  -0.01  -0.01     0.05   0.26   0.15     0.01   0.15   0.12
    16   1    -0.01  -0.02   0.00     0.19   0.31   0.01     0.36   0.40   0.08
    17   6     0.00   0.00   0.00    -0.01  -0.01  -0.02     0.00  -0.00   0.01
    18   1     0.00   0.00  -0.01    -0.03  -0.05  -0.06     0.04   0.05   0.06
    19   1     0.01  -0.00   0.01    -0.06   0.01  -0.13     0.03  -0.01   0.09
    20   1    -0.00   0.00  -0.00    -0.04  -0.03  -0.06     0.03   0.05   0.05
                     34                     35                     36
                      A                      A                      A
 Frequencies --   1412.9027              1428.5263              1438.9590
 Red. masses --      1.1860                 1.1756                 1.0930
 Frc consts  --      1.3950                 1.4134                 1.3334
 IR Inten    --      4.6752                 2.7242                19.5633
  Atom  AN      X      Y      Z        X      Y      Z        X      Y      Z
     1   6     0.00   0.03   0.01    -0.01  -0.01  -0.02     0.00  -0.04   0.02
     2   6    -0.03  -0.05  -0.08    -0.01  -0.01  -0.02    -0.01  -0.01  -0.02
     3   6     0.00   0.01   0.00    -0.00  -0.00   0.00    -0.00  -0.06   0.00
     4   6     0.01  -0.03  -0.03     0.00  -0.01  -0.01     0.00  -0.00  -0.01
     5   7    -0.01   0.00  -0.03     0.01  -0.01   0.02     0.01   0.00   0.01
     6   1    -0.31   0.41   0.30    -0.07   0.10   0.07    -0.07   0.10   0.08
     7   1     0.05  -0.11  -0.01    -0.06   0.08  -0.01    -0.33   0.50  -0.04
     8   1     0.18   0.13   0.24     0.04   0.03   0.06     0.04   0.02   0.05
     9   1    -0.06  -0.08   0.06     0.05   0.09  -0.04     0.30   0.46  -0.26
    10   1     0.03  -0.18   0.07    -0.03   0.09  -0.05    -0.01   0.10  -0.02
    11   1     0.29   0.27   0.44     0.07   0.06   0.10     0.07   0.07   0.14
    12   9     0.01   0.01   0.01     0.00   0.00   0.00     0.00   0.00   0.00
    13   6    -0.01  -0.04  -0.01     0.00   0.01  -0.00     0.00   0.01   0.01
    14   1    -0.08   0.13   0.11    -0.00  -0.02   0.07     0.05  -0.00  -0.19
    15   1     0.02   0.04   0.03    -0.06  -0.06  -0.03     0.07   0.13   0.06
    16   1     0.14   0.14   0.04     0.03   0.02   0.02    -0.14  -0.06  -0.07
    17   6     0.00  -0.00   0.02    -0.03   0.00  -0.11     0.01   0.01   0.03
    18   1     0.07   0.05  -0.10    -0.16  -0.00   0.56    -0.09  -0.14  -0.07
    19   1     0.03  -0.01  -0.00     0.00  -0.06   0.36    -0.09   0.06  -0.20
    20   1    -0.09   0.05  -0.06     0.47  -0.03   0.43    -0.03  -0.11  -0.06
                     37                     38                     39
                      A                      A                      A
 Frequencies --   1455.0260              1458.9422              1475.0646
 Red. masses --      1.0495                 1.1448                 1.0423
 Frc consts  --      1.3091                 1.4357                 1.3362
 IR Inten    --     28.8584                 8.0135                 1.1492
  Atom  AN      X      Y      Z        X      Y      Z        X      Y      Z
     1   6     0.01  -0.02  -0.00     0.01   0.06   0.02    -0.02  -0.01   0.01
     2   6    -0.00  -0.00  -0.00     0.00   0.00   0.00     0.00  -0.00   0.00
     3   6    -0.01  -0.00   0.00    -0.00   0.02   0.00    -0.00   0.00   0.00
     4   6     0.00  -0.00  -0.00     0.00  -0.00   0.00    -0.00   0.00   0.00
     5   7     0.01  -0.00  -0.00     0.00  -0.01  -0.03     0.01  -0.00  -0.01
     6   1    -0.01   0.01   0.01     0.01  -0.01  -0.01     0.01  -0.01  -0.01
     7   1    -0.03   0.02  -0.02     0.10  -0.18   0.01    -0.00  -0.01  -0.01
     8   1     0.00   0.00   0.00    -0.00   0.00  -0.00    -0.00  -0.00  -0.01
     9   1     0.04   0.08  -0.01    -0.09  -0.13   0.09     0.01   0.02   0.01
    10   1    -0.03   0.04  -0.01     0.03  -0.12   0.08     0.01   0.01  -0.01
    11   1     0.00   0.00   0.01    -0.01  -0.01  -0.02    -0.01  -0.00  -0.01
    12   9     0.00   0.00   0.00    -0.00  -0.00  -0.00    -0.00  -0.00  -0.00
    13   6     0.03   0.02  -0.01     0.01  -0.08   0.01    -0.04   0.01   0.01
    14   1     0.05  -0.28   0.25     0.04   0.11  -0.38    -0.07   0.28  -0.16
    15   1    -0.45  -0.07   0.12     0.06   0.40   0.30     0.48  -0.04  -0.23
    16   1    -0.07   0.21  -0.13    -0.31   0.14  -0.28     0.18  -0.30   0.25
    17   6     0.02  -0.02  -0.00     0.02   0.02   0.00     0.02  -0.02  -0.01
    18   1    -0.01  -0.14  -0.31    -0.23  -0.29   0.05    -0.05  -0.15  -0.20
    19   1    -0.38   0.07   0.25    -0.28   0.11  -0.06    -0.36   0.07   0.24
    20   1    -0.04   0.46   0.09     0.17  -0.04   0.15     0.02   0.38   0.13
                     40                     41                     42
                      A                      A                      A
 Frequencies --   1479.7405              1748.0122              1806.5552
 Red. masses --      1.0706                 4.8756                 7.7032
 Frc consts  --      1.3812                 8.7773                14.8123
 IR Inten    --     11.9568               100.5729                31.8607
  Atom  AN      X      Y      Z        X      Y      Z        X      Y      Z
     1   6     0.01  -0.02   0.02    -0.00   0.01  -0.00    -0.12   0.46  -0.30
     2   6     0.00  -0.00  -0.00     0.04   0.27   0.34    -0.00  -0.01  -0.01
     3   6     0.00  -0.00  -0.00    -0.00  -0.00  -0.00    -0.01  -0.00  -0.03
     4   6    -0.00   0.00   0.00     0.02  -0.26  -0.29     0.00   0.01   0.01
     5   7    -0.01  -0.01   0.01     0.00  -0.01   0.00     0.12  -0.36   0.32
     6   1     0.00  -0.00  -0.00    -0.37   0.17  -0.00     0.01  -0.01  -0.00
     7   1    -0.04   0.07  -0.00    -0.01   0.01  -0.00    -0.06   0.27   0.10
     8   1     0.00  -0.00  -0.00    -0.42  -0.00  -0.23     0.01   0.00   0.01
     9   1     0.03   0.04  -0.04     0.01   0.01  -0.00     0.15   0.25  -0.02
    10   1     0.00   0.06  -0.01     0.00  -0.01   0.00    -0.06  -0.27  -0.11
    11   1    -0.00   0.00   0.00     0.43   0.03   0.26    -0.02  -0.01  -0.02
    12   9    -0.00  -0.00  -0.00    -0.02  -0.02  -0.03     0.00   0.00   0.00
    13   6     0.00  -0.02   0.01     0.00  -0.00   0.00     0.01  -0.08   0.01
    14   1     0.04   0.07  -0.31     0.00   0.00  -0.01    -0.03   0.06   0.01
    15   1     0.09   0.26   0.16     0.01  -0.00  -0.00    -0.01  -0.19  -0.04
    16   1    -0.23   0.03  -0.17    -0.01  -0.02  -0.00     0.03   0.05  -0.00
    17   6    -0.04  -0.04  -0.04     0.00  -0.00   0.00    -0.02   0.03  -0.04
    18   1     0.32   0.42  -0.06     0.01   0.00  -0.02    -0.01  -0.04  -0.26
    19   1     0.30  -0.17   0.43    -0.00   0.00   0.00     0.04  -0.01   0.15
    20   1    -0.14   0.31  -0.05    -0.02   0.01  -0.01    -0.13   0.01  -0.14
                     43                     44                     45
                      A                      A                      A
 Frequencies --   2970.8933              3016.5813              3064.7063
 Red. masses --      1.0567                 1.0999                 1.0391
 Frc consts  --      5.4953                 5.8970                 5.7504
 IR Inten    --     72.0708               109.5873                 1.4853
  Atom  AN      X      Y      Z        X      Y      Z        X      Y      Z
     1   6     0.00  -0.00   0.00    -0.00  -0.00   0.00     0.00   0.00   0.00
     2   6    -0.00   0.00   0.00    -0.00   0.00   0.00    -0.00   0.00   0.00
     3   6    -0.00   0.05  -0.05    -0.09   0.01   0.03     0.00  -0.00   0.00
     4   6     0.00  -0.00  -0.00     0.00  -0.00  -0.00     0.00  -0.00  -0.00
     5   7    -0.00   0.00  -0.00    -0.00   0.00  -0.00    -0.00   0.00  -0.00
     6   1     0.00   0.00   0.00     0.00   0.00   0.00     0.00   0.00   0.00
     7   1    -0.49  -0.25   0.54     0.37   0.22  -0.46     0.00   0.00  -0.00
     8   1     0.00   0.00   0.00     0.00  -0.00   0.00     0.00  -0.00  -0.00
     9   1     0.56  -0.29   0.07     0.67  -0.37   0.13    -0.00   0.00  -0.00
    10   1     0.00  -0.00  -0.00    -0.00  -0.00   0.00     0.00  -0.00   0.00
    11   1    -0.02   0.01   0.00    -0.02   0.01   0.01    -0.00   0.00   0.00
    12   9     0.00  -0.00   0.00     0.00   0.00   0.00     0.00   0.00  -0.00
    13   6    -0.00   0.00  -0.00     0.00   0.00  -0.00    -0.01  -0.05  -0.02
    14   1     0.00   0.00  -0.00     0.00   0.00   0.00     0.63   0.18   0.13
    15   1     0.00   0.00   0.00    -0.00   0.00   0.00    -0.14   0.22  -0.34
    16   1    -0.00   0.00   0.00     0.00  -0.00  -0.00    -0.35   0.14   0.48
    17   6     0.00  -0.00   0.00     0.00  -0.00  -0.00     0.00   0.00  -0.00
    18   1    -0.01   0.01  -0.00    -0.01   0.01   0.00     0.00   0.00   0.00
    19   1    -0.00  -0.01   0.00     0.00  -0.00  -0.00    -0.00  -0.01  -0.00
    20   1     0.01   0.00  -0.01    -0.00  -0.00   0.00    -0.00  -0.00   0.00
                     46                     47                     48
                      A                      A                      A
 Frequencies --   3075.1344              3103.4663              3155.6712
 Red. masses --      1.0332                 1.0748                 1.1024
 Frc consts  --      5.7566                 6.0993                 6.4678
 IR Inten    --     20.4408               110.0412                 0.4123
  Atom  AN      X      Y      Z        X      Y      Z        X      Y      Z
     1   6     0.00  -0.00   0.00    -0.00  -0.00  -0.00    -0.00   0.00   0.00
     2   6    -0.00   0.00   0.00    -0.00  -0.00  -0.01     0.00  -0.00   0.00
     3   6    -0.00   0.00  -0.00    -0.00   0.00  -0.00    -0.00   0.00   0.00
     4   6     0.00  -0.00  -0.00    -0.04   0.05   0.04     0.00  -0.00  -0.00
     5   7    -0.00   0.00  -0.00    -0.00  -0.00  -0.00     0.00  -0.00  -0.00
     6   1     0.01   0.00   0.00    -0.31  -0.06  -0.24     0.00   0.00   0.00
     7   1    -0.01  -0.01   0.01    -0.01   0.00  -0.00    -0.00  -0.00  -0.00
     8   1    -0.00   0.00   0.00     0.05  -0.04  -0.02    -0.00   0.00   0.00
     9   1     0.01  -0.01   0.00     0.03  -0.01   0.01    -0.00   0.00   0.00
    10   1     0.00   0.00   0.01     0.00  -0.00   0.00    -0.01  -0.00  -0.00
    11   1    -0.01   0.01   0.00     0.76  -0.48  -0.14    -0.00   0.00   0.00
    12   9     0.00  -0.00   0.00    -0.00   0.00  -0.00    -0.00  -0.00   0.00
    13   6     0.00  -0.00   0.00    -0.00  -0.00  -0.00    -0.09   0.00   0.03
    14   1    -0.00  -0.00   0.00     0.01   0.00   0.00     0.65   0.19   0.15
    15   1    -0.00   0.00  -0.00     0.00   0.00   0.00     0.01  -0.04   0.07
    16   1    -0.00   0.00   0.00     0.00   0.00  -0.00     0.39  -0.17  -0.57
    17   6    -0.01  -0.01  -0.04     0.00   0.00  -0.00    -0.00  -0.00   0.00
    18   1     0.41  -0.32   0.08     0.01  -0.01   0.00     0.01  -0.01   0.00
    19   1     0.17   0.58   0.06     0.00   0.00   0.00     0.00   0.02   0.00
    20   1    -0.42  -0.13   0.39    -0.01  -0.00   0.01     0.02   0.00  -0.01
                     49                     50                     51
                      A                      A                      A
 Frequencies --   3186.9518              3194.5163              3195.9755
 Red. masses --      1.1068                 1.1057                 1.1051
 Frc consts  --      6.6232                 6.6481                 6.6507
 IR Inten    --     13.6260                 7.1620                 4.4946
  Atom  AN      X      Y      Z        X      Y      Z        X      Y      Z
     1   6    -0.00   0.00   0.00     0.00   0.00   0.01    -0.00  -0.00  -0.01
     2   6    -0.00   0.00   0.00     0.00  -0.00   0.00     0.00   0.00   0.00
     3   6    -0.00  -0.00  -0.00    -0.00   0.00   0.00     0.00  -0.00   0.00
     4   6     0.00   0.00   0.00     0.00  -0.00  -0.00    -0.00  -0.00  -0.00
     5   7     0.00  -0.00   0.00    -0.00   0.00  -0.00    -0.00   0.00  -0.00
     6   1    -0.01  -0.00  -0.00     0.00   0.00   0.00     0.00   0.00   0.00
     7   1     0.01   0.00  -0.00     0.00   0.00  -0.00    -0.00  -0.00   0.00
     8   1     0.01  -0.00  -0.00    -0.00   0.00   0.00     0.00  -0.00  -0.00
     9   1     0.00  -0.00   0.00     0.00  -0.00  -0.00     0.00  -0.00  -0.00
    10   1    -0.01  -0.00  -0.01    -0.04  -0.03  -0.09     0.05   0.05   0.14
    11   1     0.01  -0.00  -0.00    -0.00   0.00   0.00    -0.00   0.00   0.00
    12   9    -0.00   0.00  -0.00    -0.00   0.00  -0.00    -0.00  -0.00  -0.00
    13   6     0.01  -0.00   0.01    -0.02   0.02  -0.06     0.02  -0.02   0.05
    14   1    -0.05  -0.01  -0.01     0.17   0.05   0.03    -0.16  -0.05  -0.03
    15   1    -0.04   0.07  -0.10     0.22  -0.34   0.53    -0.19   0.29  -0.45
    16   1     0.01  -0.01  -0.02    -0.15   0.06   0.20     0.13  -0.05  -0.17
    17   6    -0.07  -0.05   0.03    -0.04   0.05   0.01    -0.04   0.06   0.00
    18   1     0.12  -0.11   0.03     0.44  -0.34   0.08     0.47  -0.37   0.09
    19   1     0.16   0.57   0.06    -0.08  -0.26  -0.02    -0.12  -0.42  -0.04
    20   1     0.55   0.17  -0.51     0.15   0.06  -0.15     0.07   0.03  -0.07
                     52                     53                     54
                      A                      A                      A
 Frequencies --   3222.8768              3223.3232              3267.6387
 Red. masses --      1.0922                 1.0981                 1.1124
 Frc consts  --      6.6839                 6.7218                 6.9984
 IR Inten    --      0.8742                21.7711                 9.5251
  Atom  AN      X      Y      Z        X      Y      Z        X      Y      Z
     1   6    -0.03  -0.02  -0.07    -0.01  -0.00  -0.01     0.00   0.00   0.00
     2   6     0.01  -0.01  -0.00    -0.07   0.05   0.02    -0.02   0.01   0.01
     3   6    -0.00  -0.00  -0.00     0.00  -0.00   0.00     0.00   0.00  -0.00
     4   6    -0.00   0.00  -0.00     0.02  -0.01   0.00    -0.08   0.00  -0.04
     5   7     0.00  -0.00   0.00     0.00  -0.00   0.00    -0.00  -0.00  -0.00
     6   1     0.03   0.01   0.02    -0.14  -0.02  -0.10     0.71   0.13   0.54
     7   1    -0.00   0.00   0.00     0.00  -0.00   0.00    -0.00  -0.00  -0.00
     8   1    -0.14   0.10   0.04     0.77  -0.53  -0.20     0.17  -0.12  -0.05
     9   1     0.00   0.00   0.00    -0.00   0.00  -0.00     0.00  -0.00   0.00
    10   1     0.34   0.31   0.84     0.06   0.06   0.16    -0.00  -0.00  -0.01
    11   1     0.02  -0.01  -0.00    -0.10   0.07   0.02     0.30  -0.19  -0.06
    12   9     0.00   0.00   0.00    -0.00  -0.00  -0.00     0.00   0.00   0.00
    13   6    -0.00   0.01  -0.01    -0.00   0.00  -0.00     0.00  -0.00   0.00
    14   1     0.05   0.02   0.01     0.01   0.00   0.00    -0.00  -0.00  -0.00
    15   1     0.05  -0.09   0.12     0.01  -0.02   0.03    -0.00   0.00  -0.00
    16   1    -0.03   0.02   0.05    -0.01   0.00   0.01    -0.00   0.00   0.00
    17   6     0.00  -0.01   0.00     0.00  -0.00   0.00     0.00  -0.00  -0.00
    18   1    -0.03   0.02  -0.00    -0.01   0.00  -0.00    -0.00   0.00  -0.00
    19   1     0.01   0.04   0.00     0.00   0.00   0.00     0.00   0.00   0.00
    20   1     0.02   0.00  -0.01    -0.00  -0.00   0.00     0.00  -0.00  -0.00

 -------------------
 - Thermochemistry -
 -------------------
 Temperature   298.150 Kelvin.  Pressure   1.00000 Atm.
 Atom     1 has atomic number  6 and mass  12.00000
 Atom     2 has atomic number  6 and mass  12.00000
 Atom     3 has atomic number  6 and mass  12.00000
 Atom     4 has atomic number  6 and mass  12.00000
 Atom     5 has atomic number  7 and mass  14.00307
 Atom     6 has atomic number  1 and mass   1.00783
 Atom     7 has atomic number  1 and mass   1.00783
 Atom     8 has atomic number  1 and mass   1.00783
 Atom     9 has atomic number  1 and mass   1.00783
 Atom    10 has atomic number  1 and mass   1.00783
 Atom    11 has atomic number  1 and mass   1.00783
 Atom    12 has atomic number  9 and mass  18.99840
 Atom    13 has atomic number  6 and mass  12.00000
 Atom    14 has atomic number  1 and mass   1.00783
 Atom    15 has atomic number  1 and mass   1.00783
 Atom    16 has atomic number  1 and mass   1.00783
 Atom    17 has atomic number  6 and mass  12.00000
 Atom    18 has atomic number  1 and mass   1.00783
 Atom    19 has atomic number  1 and mass   1.00783
 Atom    20 has atomic number  1 and mass   1.00783
 Molecular mass:   117.09538 amu.
 Principal axes and moments of inertia in atomic units:
                           1         2         3
     Eigenvalues --   782.085531390.588961575.91541
           X            0.99876   0.02159   0.04488
           Y           -0.01899   0.99816  -0.05754
           Z           -0.04604   0.05662   0.99733
 This molecule is an asymmetric top.
 Rotational symmetry number  1.
 Warning -- assumption of classical behavior for rotation
           may cause significant error
 Rotational temperatures (Kelvin)      0.11075     0.06229     0.05496
 Rotational constants (GHZ):           2.30760     1.29783     1.14520
    1 imaginary frequencies ignored.
 Zero-point vibrational energy     445142.4 (Joules/Mol)
                                  106.39160 (Kcal/Mol)
 Warning -- explicit consideration of  14 degrees of freedom as
           vibrations may cause significant error
 Vibrational temperatures:     68.18   106.16   116.32   168.86   184.61
          (Kelvin)            208.28   226.76   265.38   438.77   476.72
                              650.94   700.08   755.55   819.82  1081.38
                             1158.01  1235.43  1364.32  1379.18  1397.75
                             1462.43  1484.77  1493.38  1574.26  1618.33
                             1628.66  1695.72  1732.68  1785.74  1927.55
                             1938.01  2006.15  2032.85  2055.33  2070.34
                             2093.46  2099.09  2122.29  2129.02  2515.00
                             2599.23  4274.45  4340.19  4409.43  4424.43
                             4465.20  4540.31  4585.31  4596.20  4598.30
                             4637.00  4637.64  4701.40
 
 Zero-point correction=                           0.169546 (Hartree/Particle)
 Thermal correction to Energy=                    0.180357
 Thermal correction to Enthalpy=                  0.181302
 Thermal correction to Gibbs Free Energy=         0.132567
 Sum of electronic and zero-point Energies=           -389.729942
 Sum of electronic and thermal Energies=              -389.719130
 Sum of electronic and thermal Enthalpies=            -389.718186
 Sum of electronic and thermal Free Energies=         -389.766921
 
                     E (Thermal)             CV                S
                      KCal/Mol        Cal/Mol-Kelvin    Cal/Mol-Kelvin
 Total                  113.176             36.289            102.572
 Electronic               0.000              0.000              0.000
 Translational            0.889              2.981             40.188
 Rotational               0.889              2.981             28.929
 Vibrational            111.399             30.328             33.454
 Vibration     1          0.595              1.979              4.923
 Vibration     2          0.599              1.966              4.050
 Vibration     3          0.600              1.962              3.870
 Vibration     4          0.608              1.935              3.143
 Vibration     5          0.611              1.925              2.971
 Vibration     6          0.616              1.908              2.740
 Vibration     7          0.621              1.894              2.578
 Vibration     8          0.631              1.861              2.283
 Vibration     9          0.696              1.664              1.390
 Vibration    10          0.714              1.613              1.254
 Vibration    11          0.811              1.356              0.788
 Vibration    12          0.843              1.280              0.693
 Vibration    13          0.880              1.194              0.598
 Vibration    14          0.926              1.097              0.505
                       Q            Log10(Q)             Ln(Q)
 Total Bot       0.105600D-60        -60.976337       -140.403204
 Total V=0       0.102153D+18         17.009251         39.165247
 Vib (Bot)       0.452440D-74        -74.344439       -171.184397
 Vib (Bot)    1  0.436334D+01          0.639819          1.473238
 Vib (Bot)    2  0.279374D+01          0.446187          1.027383
 Vib (Bot)    3  0.254709D+01          0.406045          0.934952
 Vib (Bot)    4  0.174230D+01          0.241123          0.555207
 Vib (Bot)    5  0.158950D+01          0.201260          0.463417
 Vib (Bot)    6  0.140277D+01          0.146985          0.338447
 Vib (Bot)    7  0.128365D+01          0.108445          0.249704
 Vib (Bot)    8  0.108725D+01          0.036329          0.083650
 Vib (Bot)    9  0.621861D+00         -0.206307         -0.475039
 Vib (Bot)   10  0.563447D+00         -0.249147         -0.573682
 Vib (Bot)   11  0.378290D+00         -0.422176         -0.972095
 Vib (Bot)   12  0.341776D+00         -0.466259         -1.073601
 Vib (Bot)   13  0.305928D+00         -0.514380         -1.184404
 Vib (Bot)   14  0.270156D+00         -0.568385         -1.308756
 Vib (V=0)       0.437672D+04          3.641149          8.384054
 Vib (V=0)    1  0.489189D+01          0.689477          1.587579
 Vib (V=0)    2  0.333813D+01          0.523504          1.205412
 Vib (V=0)    3  0.309570D+01          0.490759          1.130015
 Vib (V=0)    4  0.231263D+01          0.364106          0.838384
 Vib (V=0)    5  0.216628D+01          0.335715          0.773013
 Vib (V=0)    6  0.198921D+01          0.298681          0.687739
 Vib (V=0)    7  0.187759D+01          0.273600          0.629987
 Vib (V=0)    8  0.169671D+01          0.229607          0.528690
 Vib (V=0)    9  0.129794D+01          0.113255          0.260780
 Vib (V=0)   10  0.125331D+01          0.098058          0.225786
 Vib (V=0)   11  0.112698D+01          0.051916          0.119541
 Vib (V=0)   12  0.110565D+01          0.043617          0.100432
 Vib (V=0)   13  0.108617D+01          0.035897          0.082655
[...]
 12095,-0.00008059,0.13681943,-0.14360212,-0.04476558,0.00046160,-0.000
 15415,-0.00017871,0.01663965,-0.00197011,-0.00342864,0.00010460,-0.000
 12944,-0.00001312,-0.00156995,-0.00282500,0.00274894,-0.00004188,-0.00
 001959,0.00006063,-0.14413339,0.13569102,0.00004660,-0.00006283,-0.000
 13327,0.05555755,-0.04546855,-0.06458959,0.00049434,-0.00021283,-0.000
 13073,0.01801398,-0.01337924,0.00300066,-0.00017289,-0.00012358,-0.000
 00926,0.00123828,0.00290313,-0.00181366,-0.00010524,0.00000587,-0.0002
 3258,-0.04213112,0.05271061,0.06209821,-0.00000192,-0.00025847,0.00084
 321,-0.00050109,-0.00031794,-0.00061329,-0.23949908,0.10803565,-0.0282
 6662,-0.00039516,0.00028467,-0.00033357,0.00535267,-0.00763437,-0.0043
 8405,-0.00029955,0.00024874,0.00008195,-0.01998123,0.01008174,-0.00483
 161,-0.00002197,0.00009575,0.00017172,0.25305217,-0.00114711,-0.002347
 59,-0.00360566,-0.00050103,-0.00013031,-0.00037559,0.08657066,-0.08685
 616,0.01587248,-0.00039698,0.00039442,-0.00008269,0.03326803,-0.030732
 62,0.00667534,-0.00010485,0.00009482,0.00002579,-0.00920638,0.00592133
 ,-0.00131022,0.00000581,0.00002622,0.00009369,-0.10893281,0.11498766,0
 .00082143,0.00044197,0.00146790,-0.00084992,-0.00024682,-0.00087469,-0
 .06407775,0.03581138,-0.02733709,-0.00125016,0.00098539,0.00046829,0.0
 0516704,-0.00484907,-0.00504509,-0.00024966,0.00018223,0.00006212,0.02
 247003,-0.01078139,0.00195468,0.00000611,0.00014808,0.00021074,0.03539
 677,-0.02039890,0.02695759,-0.08500771,-0.03270376,-0.09052593,0.00001
 485,0.00003496,0.00014365,-0.00765137,-0.00190535,0.00292986,-0.000373
 75,-0.00004858,-0.00008849,0.00216982,-0.00051262,-0.01489155,-0.00003
 845,-0.00006153,0.00004852,0.00109127,-0.00149953,0.00168479,0.0000013
 3,-0.00002063,-0.00000209,0.00020452,0.00102486,-0.00106944,0.07202858
 ,-0.03760871,-0.08218184,-0.09607349,0.00016894,-0.00009327,0.00005487
 ,0.00113147,0.00018555,0.00163251,-0.00005901,-0.00004663,0.00005236,0
 .01119277,0.00722519,0.02790867,0.00005311,-0.00004108,-0.00001387,-0.
 00012681,-0.00074063,-0.00035182,0.00000089,-0.00002362,-0.00005233,-0
 .00023868,-0.00062147,-0.00060336,0.03461646,0.08910870,-0.09059071,-0
 .08107082,-0.27497761,-0.00000946,-0.00013559,-0.00023000,0.00255872,-
 0.00462418,-0.00120929,0.00001470,-0.00023610,0.00015490,-0.01280727,-
 0.00343311,-0.02367863,-0.00011334,0.00003780,0.00002713,-0.00034536,0
 .00047189,-0.00001555,0.00000428,0.00004332,0.00001413,0.00032982,-0.0
 0055013,0.00091163,0.10675125,0.08474487,0.29218187,-0.00103504,-0.000
 76599,0.00034653,0.00752420,0.00002426,-0.00100784,0.00281198,-0.00230
 509,-0.00294239,-0.24863443,0.12871847,0.03358820,-0.00187821,-0.00107
 684,-0.00105489,-0.00781735,0.00910621,0.00524018,-0.00207121,0.000359
 90,-0.00160033,0.00174301,0.00116024,-0.00316398,0.00106650,0.00050346
 ,0.00274535,-0.00056160,-0.00093798,0.00036676,0.25112041,-0.00136609,
 -0.00128141,-0.00048781,0.01660989,-0.00240372,-0.00487405,-0.00116963
 ,-0.00057341,0.00134419,0.12660378,-0.12642338,-0.03215465,-0.00076769
 ,0.00030906,-0.00074649,-0.00673064,0.00585049,0.00085792,0.00126574,-
 0.00026776,0.00136016,0.00171968,0.00405257,-0.00586525,-0.00034796,-0
 .00042190,-0.00093431,-0.00070080,-0.00020189,0.00032276,-0.13337050,0
 .12501406,0.00031088,-0.00006571,0.00069179,0.01778057,-0.01425675,0.0
 0262943,-0.00149901,-0.00036777,0.00014506,0.03043591,-0.03057510,-0.0
 5666999,-0.00054898,0.00022505,-0.00092054,-0.01322655,0.00969783,0.00
 578570,-0.00094666,0.00044739,-0.00164258,-0.00238831,-0.00616565,0.00
 127567,0.00061938,0.00020133,-0.00050623,0.00048842,0.00060865,-0.0003
 2558,-0.03307564,0.03475434,0.05069351,-0.00087903,0.00001204,-0.00227
 243,-0.21906655,-0.02154035,-0.12185490,0.00178893,-0.00114507,-0.0003
 4279,-0.00065075,-0.01060676,-0.01852910,-0.00310289,-0.00054827,0.002
 03873,0.00331067,0.00285020,-0.00215841,-0.00024983,-0.00024172,-0.000
 46689,-0.02938753,-0.00940863,-0.03011011,0.00035403,0.00043003,0.0005
 0559,-0.00001126,-0.00008214,0.00000267,-0.00286044,-0.00132654,0.0022
 6081,0.25226619,0.00031234,-0.00121384,-0.00062506,-0.02011519,-0.0686
 1112,-0.04205723,0.00042390,-0.00011391,0.00005410,-0.03149262,0.00151
 642,-0.02592370,0.00049011,-0.00030481,-0.00040900,0.00401411,0.004040
 93,-0.00895566,-0.00017691,0.00038385,-0.00047510,0.00962575,0.0089797
 3,0.00922218,0.00029938,0.00015085,0.00022692,-0.00001317,0.00002536,0
 .00006233,-0.00275441,-0.00276829,0.00581815,0.03956272,0.05789277,0.0
 0104962,-0.00058002,-0.00150695,-0.12306077,-0.04341699,-0.16063126,0.
 00159989,-0.00033715,-0.00016060,-0.04171754,-0.01394173,-0.03129160,0
 .00180464,-0.00097971,-0.00122793,-0.00093188,-0.00952825,0.00197025,-
 0.00044212,-0.00009795,-0.00023813,-0.00747323,-0.00108133,0.00008174,
 0.00039047,0.00017194,0.00053350,-0.00029593,-0.00009350,0.00018465,0.
 00036759,0.00647163,-0.00100115,0.16746596,0.06193101,0.19362775,-0.08
 291994,-0.00895808,-0.01146719,0.00028307,0.00024019,0.00018794,0.0102
 3767,-0.00043543,-0.00362782,0.00003515,-0.00016840,0.00000232,0.01100
 762,0.00778564,0.00393795,0.00000066,0.00000794,-0.00000682,-0.0018050
 6,0.00277865,-0.00214365,0.00001844,0.00000902,-0.00005111,-0.00012555
 ,-0.00183842,0.00209184,0.01071986,-0.00751534,-0.00354390,-0.00012292
 ,0.00016884,-0.00005650,-0.00041907,-0.00055777,0.00028281,0.55707812,
 -0.01386111,-0.24170674,-0.03546613,0.00025445,-0.00000634,0.00023919,
 0.00097595,0.00154927,0.00085637,-0.00006937,-0.00001285,-0.00004572,0
 .00134954,-0.03037685,0.00251237,0.00000269,0.00003109,-0.00002241,0.0
 0009869,-0.00102127,0.00047056,-0.00003967,0.00000435,-0.00000155,0.00
 005580,-0.00118353,0.00056400,0.00132237,-0.00486033,0.00171716,0.0002
 3390,-0.00006153,0.00001963,-0.00047197,-0.00037867,-0.00020068,-0.006
 29550,0.52598542,-0.01113141,-0.03105736,-0.10190923,0.00042348,0.0001
 2824,0.00011652,-0.00506661,-0.00245671,0.00123183,0.00005973,0.000087
 67,-0.00014950,0.00256611,0.02425650,0.01150013,-0.00004451,-0.0000126
 9,0.00001551,0.00074030,-0.00081425,0.00128999,-0.00001090,0.00002583,
 0.00001589,0.00048468,0.00125994,-0.00078249,-0.00287579,-0.01750421,0
 .00437262,0.00027701,-0.00005165,0.00001026,-0.00005876,-0.00014638,0.
 00013892,0.01618033,-0.02941705,0.58911786,0.00208732,-0.00089561,0.00
 053840,0.00021339,0.00006015,0.00013265,-0.00003082,-0.00025021,0.0003
 9417,-0.00001541,-0.00004039,-0.00000853,0.00031956,0.00078688,-0.0018
 7013,-0.00000113,-0.00000648,-0.00000073,-0.00017988,-0.00002067,-0.00
 010521,0.00000512,0.00001052,-0.00002560,-0.00004929,0.00006096,0.0001
 6926,-0.00057173,0.00006916,0.00095813,-0.00004331,0.00003882,-0.00000
 016,-0.00022001,-0.00018564,-0.00001093,-0.29080174,-0.06999151,-0.052
 56923,0.30943041,-0.03174863,-0.00778845,-0.00594938,-0.00005470,-0.00
 002888,-0.00005335,0.00207606,-0.00061122,-0.00004376,0.00001778,0.000
 00022,-0.00002651,0.00181201,0.00053358,-0.00134257,-0.00002382,0.0000
 1074,0.00000620,-0.00049463,0.00037310,-0.00055704,-0.00001798,0.00000
 375,0.00002357,0.00009010,-0.00053914,0.00040938,0.00125296,-0.0025185
 1,-0.00030034,0.00006789,-0.00000585,0.00000756,0.00006515,0.00009313,
 0.00003830,-0.07286834,-0.06527199,-0.01320110,0.07674835,0.06988881,-
 0.00462272,-0.00468069,-0.00450227,-0.00034491,-0.00012669,-0.00022874
 ,0.00012722,-0.00006527,-0.00012212,0.00001960,-0.00001060,0.00008076,
 -0.00070151,0.00161614,-0.00073409,0.00000449,0.00001982,0.00000103,-0
 .00015546,0.00012022,-0.00016865,0.00001619,-0.00000010,0.00001478,-0.
 00001471,0.00009162,0.00039515,0.00079443,-0.00125396,-0.00013582,-0.0
 0000199,0.00000212,-0.00001574,0.00037980,0.00028340,-0.00003260,-0.05
 411229,-0.01196476,-0.05120799,0.05761391,0.01521317,0.05366921,-0.001
 45679,-0.00286152,0.00319767,0.00020512,0.00010898,0.00021221,0.000498
 43,-0.00001762,-0.00005596,0.00002210,0.00000660,-0.00014677,0.0009623
 1,-0.00092404,-0.00050811,-0.00000460,-0.00000888,-0.00000541,0.000002
 92,0.00014406,0.00006859,-0.00004264,-0.00001225,0.00001197,-0.0000450
 8,-0.00013850,-0.00009337,0.00005560,-0.00016219,0.00033838,0.00001670
 ,-0.00001882,0.00002374,-0.00026971,-0.00007880,-0.00012548,-0.0773866
 0,0.04925031,-0.07499886,-0.00662176,0.01604196,-0.02255827,0.07705673
 ,0.01193638,-0.01501065,0.02888761,0.00008843,0.00006226,0.00008419,0.
 00027770,0.00047953,0.00051921,0.00000713,0.00002121,-0.00009105,-0.00
 113606,-0.00630332,-0.00245118,-0.00002834,-0.00000112,0.00001076,-0.0
 0003668,-0.00033945,0.00003327,-0.00001738,0.00000053,0.00001230,-0.00
 001751,-0.00038700,-0.00004401,-0.00004513,0.00073201,-0.00016610,0.00
 008935,-0.00004266,0.00003778,-0.00009395,0.00002506,-0.00002359,0.046
 88091,-0.12187202,0.11413905,-0.00263199,0.00479621,-0.00868691,-0.050
 98061,0.13370790,0.00411573,-0.00755761,0.00702744,-0.00025139,-0.0000
 6409,-0.00026582,-0.00011995,0.00003965,0.00025850,0.00002740,0.000005
 80,0.00009978,-0.00046832,-0.00233618,0.00028041,0.00000392,0.00000466
 ,0.00001013,-0.00004946,-0.00009332,-0.00005544,0.00005065,0.00000841,
 -0.00000209,0.00003941,0.00002302,0.00000104,0.00033525,-0.00036085,0.
 00059716,-0.00002032,0.00001645,-0.00000903,0.00035803,0.00011611,0.00
 013181,-0.07530092,0.12005079,-0.23115447,0.00058299,0.00176011,-0.002
 93399,0.08072096,-0.12413287,0.24153951,0.00060373,-0.00111083,-0.0040
 7781,-0.00111534,-0.00037249,-0.00068957,-0.00019439,0.00011288,-0.000
 16468,0.00020258,0.00016059,0.00014661,0.00097636,0.00028525,0.0002724
 1,-0.00000663,0.00002821,0.00003369,0.00002624,0.00001597,0.00010147,0
 .00003713,-0.00001069,0.00002548,-0.00005667,0.00004600,0.00004446,-0.
 00124635,-0.00073206,0.00013104,0.00006832,-0.00005018,-0.00000343,-0.
 00020516,-0.00011016,0.00102675,-0.13105144,0.03784309,0.12549320,-0.0
 1379734,0.00758350,0.02323172,0.00695950,-0.00388498,-0.00985723,0.139
 06849,0.01981404,-0.00829111,-0.02608836,-0.00204405,-0.00044512,-0.00
 156976,-0.00227237,-0.00098428,0.00121893,0.00037117,0.00027512,0.0003
 2497,-0.00193797,0.00125228,-0.00093870,-0.00001722,0.00004708,0.00007
 568,0.00045468,-0.00071214,0.00078201,0.00018942,0.00001986,0.00012266
 ,0.00007390,0.00026472,-0.00081250,-0.00113399,-0.00229797,0.00073849,
 0.00028348,-0.00014451,-0.00002742,0.00162002,0.00042576,0.00125200,0.
 03885943,-0.05903431,-0.04999111,-0.00471500,0.00180606,0.00778976,-0.
 01071654,0.00407756,0.01216252,-0.04008631,0.06423068,0.00059208,-0.00
 461774,-0.00394160,-0.00026781,-0.00028947,0.00002470,-0.00018806,-0.0
 0040802,-0.00013917,-0.00002899,0.00005545,-0.00000320,-0.00114208,0.0
 0247156,-0.00115343,0.00002042,0.00002117,-0.00002590,0.00032813,0.000
 11524,0.00028591,-0.00005136,-0.00002162,0.00004040,0.00002836,0.00008
 793,-0.00012318,0.00020393,-0.00085651,0.00051439,0.00006349,-0.000054
 60,0.00000511,0.00086555,0.00093287,-0.00091865,0.12728148,-0.04746691
 ,-0.21995018,-0.00562386,0.00224716,0.00630267,0.01405447,-0.00719864,
 -0.01525973,-0.13566309,0.05439499,0.23386158,0.00369293,0.00250994,-0
 .01302926,-0.00059746,0.00000757,-0.00037827,-0.00172256,-0.00922348,-
 0.00991516,0.00033602,0.00061886,0.00003844,-0.10495395,-0.00111004,-0
 .04153829,0.00013170,-0.00004904,-0.00001348,0.00247149,0.00017941,0.0
 0207707,0.00007314,-0.00008645,0.00008203,0.00007508,0.00133430,-0.001
 00564,0.01019775,-0.00047127,-0.00436243,0.00053216,-0.00051212,-0.000
 18128,0.00030150,0.00008521,-0.00008267,-0.00581085,-0.00035810,0.0000
 9748,-0.00023623,-0.00086456,0.00023183,0.00005040,-0.00063280,-0.0005
 7253,0.00078059,0.00047062,0.00011472,0.58502449,0.01031284,0.01234824
 ,0.02834624,-0.00098583,-0.00033390,-0.00084921,-0.01224500,-0.0122448
 0,-0.02860655,-0.00007364,0.00043934,0.00034203,-0.00709830,-0.1049317
 4,-0.02044723,-0.00000481,0.00004163,0.00000909,0.00118603,0.00098606,
 -0.00079270,0.00012601,0.00005233,0.00014081,-0.00141477,0.00077738,-0
 .00016415,-0.00006050,-0.00415286,0.00234033,0.00050217,-0.00063908,-0
 .00030911,0.00103459,0.00020055,0.00083993,-0.00007489,-0.00061387,0.0
 0103854,0.00037953,-0.00088900,0.00105703,-0.00011090,-0.00018087,-0.0
 0037531,0.00056188,-0.00034321,-0.00021897,-0.00851408,0.63292499,-0.0
 1642784,0.00694387,-0.03191260,-0.00003164,0.00018067,0.00038485,-0.00
 615528,-0.01557133,-0.00632653,-0.00012846,0.00001216,0.00002445,-0.03
 902901,-0.00763231,-0.19031938,0.00002726,0.00000572,-0.00004761,-0.00
 026406,0.00182487,-0.00150241,-0.00006524,-0.00009029,0.00000090,-0.00
 067370,0.00238937,0.00126127,-0.00335938,0.00067472,0.00244012,-0.0003
 4153,0.00006616,0.00000746,0.00041010,-0.00013716,-0.00111932,0.001056
 28,-0.00279845,-0.00291268,-0.00021451,0.00006229,0.00081793,-0.000409
 16,-0.00121126,-0.00038947,0.00031717,-0.00031662,0.00095117,-0.032106
 27,-0.02281069,0.49346401,-0.00037529,-0.00256968,-0.00045641,0.000385
 78,0.00012273,0.00034491,0.00108856,0.00031226,0.00140316,0.00001846,-
 0.00006784,-0.00008088,-0.00872779,0.00769761,-0.00521806,0.00001038,-
 0.00001722,-0.00001362,-0.00019348,0.00003171,0.00018110,-0.00005170,-
 0.00001572,-0.00003915,0.00057221,-0.00061333,-0.00062801,0.00031892,0
 .00033839,-0.00027677,-0.00008461,0.00007554,0.00004439,-0.00046166,-0
 .00004160,-0.00033313,-0.00002339,-0.00029166,0.00049963,0.00017511,0.
 00005075,0.00002028,0.00004491,0.00008352,0.00009447,-0.00011380,0.000
 08152,-0.00001452,-0.22068988,0.13471371,-0.03121703,0.23231087,-0.000
 10780,-0.00033820,-0.00222866,-0.00005544,-0.00000370,-0.00004087,-0.0
 0177820,0.00048054,-0.00054806,-0.00006090,-0.00005009,0.00003247,-0.0
 0647079,0.00320527,0.00044416,-0.00001273,0.00000384,0.00000612,-0.000
 45999,0.00005650,-0.00042295,-0.00000232,0.00000096,-0.00000841,0.0001
 7046,0.00011381,-0.00036147,0.00076260,0.00040301,-0.00021736,-0.00005
 903,0.00005846,-0.00000611,0.00005596,0.00001296,-0.00002460,-0.000831
 72,-0.00056253,0.00094586,0.00049619,-0.00012815,0.00001313,0.00008136
 ,0.00009494,0.00017297,-0.00023347,0.00040734,-0.00002275,0.13962299,-
 0.15648164,0.02375096,-0.14597896,0.16012108,-0.00152117,-0.00399901,-
 0.00335747,-0.00017722,-0.00011542,-0.00027624,0.00059374,0.00232790,0
 .00144663,0.00009405,-0.00004003,0.00002041,-0.03243419,0.02128896,-0.
 01474743,-0.00000373,-0.00000153,0.00001935,0.00024790,-0.00019990,0.0
 0004984,0.00004609,0.00000958,0.00001549,0.00053827,-0.00080248,-0.000
 41063,0.00153197,0.00099510,-0.00132026,-0.00007500,0.00010006,0.00001
 695,0.00033754,0.00002333,0.00035650,-0.00064375,-0.00011666,0.0006162
 2,0.00004113,-0.00003047,-0.00012641,-0.00000548,0.00012093,0.00005286
 ,-0.00001618,0.00026050,0.00001272,-0.02478272,0.01903180,-0.04816691,
 0.03809675,-0.02408264,0.06088431,0.00062335,-0.00164105,-0.00012804,-
 0.00031299,-0.00015222,-0.00037266,0.00012615,-0.00024741,-0.00239999,
 0.00002470,0.00008599,0.00008191,-0.00462510,-0.01035324,0.00035128,-0
 .00001058,0.00001342,0.00001325,0.00064031,0.00044640,0.00029080,0.000
 02587,0.00000398,0.00004209,0.00043614,-0.00024533,-0.00010581,0.00000
 308,0.00000562,0.00012081,0.00011099,-0.00005318,-0.00002310,0.0003984
 4,0.00023563,0.00028737,0.00016962,0.00032725,0.00019413,0.00031958,0.
 00001114,-0.00005011,-0.00004167,0.00012306,0.00028270,-0.00081109,0.0
 0082000,-0.00079800,-0.07204068,-0.07043714,-0.00928626,0.00999347,0.0
 2223732,0.00287341,0.06836058,0.00028466,-0.00120592,0.00037927,-0.000
 19664,-0.00008634,-0.00023144,-0.00183414,0.00030114,-0.00368738,-0.00
 008152,0.00006608,0.00010139,0.00004213,-0.00264894,-0.00071194,-0.000
 04140,0.00003100,0.00001154,0.00047719,0.00018625,0.00029022,0.0000019
 6,0.00003037,0.00003243,-0.00027532,0.00039362,0.00074967,-0.00001234,
 -0.00003193,0.00004187,0.00027096,-0.00012683,-0.00008712,0.00013643,0
 .00008969,0.00016827,0.00183941,-0.00095684,0.00265337,0.00027935,-0.0
 0030299,0.00098630,0.00022122,0.00012949,0.00053177,0.00008846,-0.0002
 8422,0.00064735,-0.07422249,-0.30495931,-0.02669828,-0.00742687,-0.012
 31163,-0.00109260,0.07939215,0.32523493,0.00037095,-0.00221528,0.00133
 943,-0.00027137,-0.00009123,-0.00028404,-0.00260616,-0.00063235,-0.005
 41556,-0.00007986,0.00012240,0.00014085,-0.00831907,-0.03240658,-0.002
 60277,-0.00001808,0.00001259,0.00000865,-0.00005976,0.00016049,0.00071
 214,0.00002144,0.00002427,0.00003694,0.00028512,0.00026188,0.00048646,
 0.00024486,-0.00024586,0.00001201,0.00031393,-0.00020557,-0.00011100,0
 .00026562,0.00004005,0.00019561,-0.00105723,0.00081335,-0.00055860,0.0
 0000699,0.00145848,-0.00107244,0.00028007,0.00005286,0.00002325,-0.000
 30596,0.00041862,-0.00029130,-0.00703458,-0.01825282,-0.05524295,0.002
 13631,0.00384333,0.00036522,0.01263222,0.02724215,0.05818753,-0.001073
 09,-0.00025242,-0.00186060,-0.00098375,-0.00035963,-0.00077261,0.00014
 649,0.00078785,-0.00036206,0.00011072,0.00018564,0.00027319,0.01296161
 ,0.00271633,-0.01400817,0.00002278,0.00004085,-0.00000655,0.00023771,-
 0.00008615,0.00002295,0.00009201,-0.00001093,0.00011725,-0.00013673,-0
 .00011937,-0.00008812,-0.00134337,0.00035737,0.00047266,0.00011485,-0.
 00006816,-0.00001448,-0.00063587,0.00047711,0.00019858,0.00091635,-0.0
 0033515,-0.00026001,0.00001818,0.00025501,0.00012250,-0.00000585,0.000
 01892,0.00002861,-0.00012474,-0.00011483,0.00022512,-0.19761564,-0.047
 79691,0.13789856,-0.01419706,-0.00737550,0.01525859,-0.00339018,0.0010
 5681,0.00319454,0.20488554,-0.00028405,-0.00069272,0.00003932,0.000738
 20,0.00039059,0.00075170,0.00055314,-0.00008481,-0.00023524,-0.0001056
 2,-0.00012757,-0.00022103,0.00471576,0.00109499,-0.00349213,0.00000235
 ,-0.00003624,-0.00001711,-0.00046781,-0.00023796,-0.00024799,-0.000109
 59,-0.00001672,-0.00009268,0.00000163,0.00009490,-0.00032303,-0.000296
 28,0.00013221,0.00021290,-0.00005045,0.00007757,0.00004305,-0.00030174
 ,-0.00044641,-0.00056759,0.00097385,0.00034953,0.00011750,-0.00019242,
 0.00057859,-0.00040374,0.00017619,0.00001040,0.00002796,-0.00013464,-0
 .00026961,0.00018151,-0.04878445,-0.06200027,0.04135558,0.01351514,0.0
 0491720,-0.01367741,-0.02057237,-0.00354760,0.01959922,0.05062316,0.05
 981392,-0.00017846,-0.00482454,-0.00139442,-0.00090827,-0.00042438,-0.
 00101877,0.00023152,0.00210253,0.00190151,0.00003291,-0.00000245,0.000
 32484,0.01840075,0.00811335,-0.03363862,-0.00000657,0.00001578,0.00003
 709,-0.00079507,-0.00073743,-0.00011160,0.00017943,0.00004597,0.000105
 65,-0.00009161,-0.00002865,0.00036903,-0.00204834,0.00073802,0.0004821
 4,-0.00002513,0.00007860,-0.00005908,0.00090298,0.00001884,0.00090745,
 0.00099021,0.00025691,0.00019939,-0.00000875,0.00027834,-0.00000067,-0
 .00000120,0.00010765,0.00004813,-0.00004605,0.00020331,-0.00019231,0.1
 3236100,0.03968095,-0.16141232,-0.00454342,-0.00124515,0.00454885,-0.0
 0400600,-0.00132685,0.00407057,-0.14043993,-0.04305080,0.18483313\\-0.
 00000329,0.00000242,0.00000280,0.00000350,0.00000249,0.00001264,0.0000
 0170,0.00000012,0.00000690,0.00000110,-0.00000612,0.00000543,-0.000002
 53,0.00000163,-0.00000354,-0.00000454,-0.00000449,0.00001065,0.0000045
 6,0.00000106,0.00000463,0.00000035,0.00000097,0.00000754,-0.00000373,-
 0.00000040,0.00000114,-0.00000472,-0.00000614,-0.00000526,-0.00000317,
 -0.00000185,0.00000915,-0.00000043,0.00000264,0.00000008,-0.00000171,-
 0.00000516,-0.00001619,-0.00000196,0.00000032,-0.00001137,-0.00000413,
 -0.00000521,-0.00000580,-0.00000147,0.00000205,-0.00000326,0.00001159,
 -0.00000093,-0.00000784,0.00000090,0.00000717,-0.00000416,0.00000343,0
 .00000431,-0.00000700,0.00000456,0.00000515,0.00000346\\\@
 The archive entry for this job was punched.


 "WOULD YOU TELL ME PLEASE, WHICH WAY I OUGHT TO WALK FROM HERE?"
 "THAT DEPENDS A GREAT DEAL ON WHERE YOU WANT TO GO," SAID THE CAT.
 "I DON'T MUCH CARE WHERE -- ", SAID ALICE.
 "THEN IT DOESN'T MATTER WHICH WAY YOU WALK," SAID THE CAT.

                                      -- LEWIS CARROLL
 Job cpu time:       0 days  0 hours 13 minutes 21.3 seconds.
 Elapsed time:       0 days  0 hours  1 minutes  7.5 seconds.
 File lengths (MBytes):  RWF=    114 Int=      0 D2E=      0 Chk=      8 Scr=      1
 Normal termination of Gaussian 16 at Sat Dec 30 20:49:48 2023.
