Unloading slurm/anatra/current
  ERROR: No such file or directory on
    '/cm/local/modulefiles/slurm/anatra/current'
environment: line 0: unalias: gv: not found
environment: line 0: unalias: sl: not found
 Entering Gaussian System, Link 0=g16
 Initial command:
 /apps/gaussian/g16/C.01/g16/l1.exe "/local/jobs/1152776/Gau-1546540.inp" -scrdir="/local/jobs/1152776/"
 Entering Link 1 = /apps/gaussian/g16/C.01/g16/l1.exe PID=   1546543.
  
 Copyright (c) 1988-2019, Gaussian, Inc.  All Rights Reserved.
  
 This is part of the Gaussian(R) 16 program.  It is based on
 the Gaussian(R) 09 system (copyright 2009, Gaussian, Inc.),
 the Gaussian(R) 03 system (copyright 2003, Gaussian, Inc.),
 the Gaussian(R) 98 system (copyright 1998, Gaussian, Inc.),
 the Gaussian(R) 94 system (copyright 1995, Gaussian, Inc.),
 the Gaussian 92(TM) system (copyright 1992, Gaussian, Inc.),
 the Gaussian 90(TM) system (copyright 1990, Gaussian, Inc.),
 the Gaussian 88(TM) system (copyright 1988, Gaussian, Inc.),
 the Gaussian 86(TM) system (copyright 1986, Carnegie Mellon
 University), and the Gaussian 82(TM) system (copyright 1983,
 Carnegie Mellon University). Gaussian is a federally registered
 trademark of Gaussian, Inc.
  
 This software contains proprietary and confidential information,
 including trade secrets, belonging to Gaussian, Inc.
  
 This software is provided under written license and may be
 used, copied, transmitted, or stored only in accord with that
 written license.
  
 The following legend is applicable only to US Government
 contracts under FAR:
  
                    RESTRICTED RIGHTS LEGEND
  
 Use, reproduction and disclosure by the US Government is
 subject to restrictions as set forth in subparagraphs (a)
 and (c) of the Commercial Computer Software - Restricted
 Rights clause in FAR 52.227-19.
  
 Gaussian, Inc.
 340 Quinnipiac St., Bldg. 40, Wallingford CT 06492
  
  
 ---------------------------------------------------------------
 Warning -- This program may not be used in any manner that
 competes with the business of Gaussian, Inc. or will provide
 assistance to any competitor of Gaussian, Inc.  The licensee
 of this program is prohibited from giving any competitor of
 Gaussian, Inc. access to this program.  By using this program,
 the user acknowledges that Gaussian, Inc. is engaged in the
 business of creating and licensing software in the field of
 computational chemistry and represents and warrants to the
 licensee that it is not a competitor of Gaussian, Inc. and that
 it will not use this program in any manner prohibited above.
 ---------------------------------------------------------------
  

 Cite this work as:
 Gaussian 16, Revision C.01,
 M. J. Frisch, G. W. Trucks, H. B. Schlegel, G. E. Scuseria, 
 M. A. Robb, J. R. Cheeseman, G. Scalmani, V. Barone, 
 G. A. Petersson, H. Nakatsuji, X. Li, M. Caricato, A. V. Marenich, 
 J. Bloino, B. G. Janesko, R. Gomperts, B. Mennucci, H. P. Hratchian, 
 J. V. Ortiz, A. F. Izmaylov, J. L. Sonnenberg, D. Williams-Young, 
 F. Ding, F. Lipparini, F. Egidi, J. Goings, B. Peng, A. Petrone, 
 T. Henderson, D. Ranasinghe, V. G. Zakrzewski, J. Gao, N. Rega, 
 G. Zheng, W. Liang, M. Hada, M. Ehara, K. Toyota, R. Fukuda, 
 J. Hasegawa, M. Ishida, T. Nakajima, Y. Honda, O. Kitao, H. Nakai, 
 T. Vreven, K. Throssell, J. A. Montgomery, Jr., J. E. Peralta, 
 F. Ogliaro, M. J. Bearpark, J. J. Heyd, E. N. Brothers, K. N. Kudin, 
 V. N. Staroverov, T. A. Keith, R. Kobayashi, J. Normand, 
 K. Raghavachari, A. P. Rendell, J. C. Burant, S. S. Iyengar, 
 J. Tomasi, M. Cossi, J. M. Millam, M. Klene, C. Adamo, R. Cammi, 
 J. W. Ochterski, R. L. Martin, K. Morokuma, O. Farkas, 
 J. B. Foresman, and D. J. Fox, Gaussian, Inc., Wallingford CT, 2019.
 
 ******************************************
 Gaussian 16:  ES64L-G16RevC.01  3-Jul-2019
                22-Dec-2023 
 ******************************************
 %chk=allylic-1_1_opt_hf_re.chk
 %nprocshared=12
 Will use up to   12 processors via shared memory.
 %mem=48GB
 ----------------------------------------------------------------------
 # wb97xd def2svp geom=allchk scrf=(iefpcm,solvent=toluene) opt=(readfc
 ,ts,noeigen,maxcycles=50,maxstep=10)
 ----------------------------------------------------------------------
 1/5=1,6=50,8=10,10=3,11=1,18=20,26=3,29=7,38=1/1,3;
 2/9=110,12=2,40=1/2;
 3/5=43,7=101,11=2,14=-4,25=1,30=1,70=2201,71=1,72=13,74=-58/1,2,3;
 4//1;
 5/5=2,38=5,53=13/2;
 6/7=2,8=2,9=2,10=2,28=1/1;
 7//1,2,3,16;
 1/5=1,6=50,8=10,11=1,18=20,26=3/3(2);
 2/9=110/2;
 99//99;
 2/9=110/2;
 3/5=43,7=101,11=2,14=-2,25=1,30=1,70=2205,71=1,72=13,74=-58/1,2,3;
 4/5=5,16=3,69=1/1;
 5/5=2,38=5,53=13/2;
 7//1,2,3,16;
 1/5=1,6=50,8=10,11=1,18=20,26=3/3(-5);
 2/9=110/2;
 6/7=2,8=2,9=2,10=2,19=2,28=1/1;
 99/9=1/99;
 Structure from the checkpoint file:  "allylic-1_1_opt_hf_re.chk"
 ----------------------
 allylic-1_1_opt_hf.out
 ----------------------
 Charge =  0 Multiplicity = 1
 Redundant internal coordinates found in file.  (old form).
 C,0,-0.91385,-0.46177,-0.93976
 C,0,2.39874,-0.18784,0.25795
 C,0,-1.00329,1.88827,-0.52563
 C,0,2.27821,0.70456,-0.71259
 N,0,-1.24931,0.47667,-0.13401
 H,0,3.12699,0.85264,-1.38213
 H,0,-0.35435,2.26197,0.29665
 H,0,3.27993,-0.80256,0.46093
 H,0,-1.97626,2.3912,-0.34012
 H,0,-0.52312,-0.08638,-1.89015
 H,0,1.36482,1.29742,-0.86357
 F,0,1.40717,-0.4454,1.13086
 C,0,-0.98867,-1.92408,-0.6664
 H,0,-0.62604,-2.48657,-1.53422
 H,0,-0.36386,-2.17782,0.20359
 H,0,-2.01969,-2.24452,-0.45064
 C,0,-1.78516,0.18819,1.19453
 H,0,-2.65474,0.83707,1.35569
 H,0,-2.07588,-0.86215,1.32441
 H,0,-1.01303,0.44772,1.93135
 Recover connectivity data from disk.

 GradGradGradGradGradGradGradGradGradGradGradGradGradGradGradGradGradGrad
 Berny optimization.
 Initialization pass.
 Force constant matrix read from checkpoint file:
 "allylic-1_1_opt_hf_re.chk"
                           ----------------------------
                           !    Initial Parameters    !
                           ! (Angstroms and Degrees)  !
 --------------------------                            --------------------------
 ! Name  Definition              Value          Derivative Info.                !
 --------------------------------------------------------------------------------
 ! R1    R(1,5)                  1.2816         D2E/DX2 =    0.7728             !
 ! R2    R(1,10)                 1.094          D2E/DX2 =    0.3666             !
 ! R3    R(1,13)                 1.4895         D2E/DX2 =    0.3553             !
 ! R4    R(2,4)                  1.324          D2E/DX2 =    0.7016             !
 ! R5    R(2,8)                  1.0934         D2E/DX2 =    0.3659             !
 ! R6    R(2,12)                 1.3459         D2E/DX2 =    0.4374             !
 ! R7    R(3,5)                  1.4854         D2E/DX2 =    0.2697             !
 ! R8    R(3,7)                  1.1122         D2E/DX2 =    0.3174             !
 ! R9    R(3,9)                  1.1109         D2E/DX2 =    0.3113             !
 ! R10   R(4,6)                  1.0912         D2E/DX2 =    0.3693             !
 ! R11   R(4,11)                 1.0993         D2E/DX2 =    0.3602             !
 ! R12   R(5,17)                 1.4613         D2E/DX2 =    0.3533             !
 ! R13   R(7,11)                 2.2874         D2E/DX2 =    0.0096             !
 ! R14   R(13,14)                1.0959         D2E/DX2 =    0.3549             !
 ! R15   R(13,15)                1.1008         D2E/DX2 =    0.3454             !
 ! R16   R(13,16)                1.101          D2E/DX2 =    0.3432             !
 ! R17   R(17,18)                1.0969         D2E/DX2 =    0.3526             !
 ! R18   R(17,19)                1.0975         D2E/DX2 =    0.3514             !
 ! R19   R(17,20)                1.0984         D2E/DX2 =    0.3499             !
 ! A1    A(5,1,10)             112.8558         D2E/DX2 =    0.132              !
 ! A2    A(5,1,13)             126.1815         D2E/DX2 =    0.1936             !
 ! A3    A(10,1,13)            120.9466         D2E/DX2 =    0.114              !
 ! A4    A(4,2,8)              126.0432         D2E/DX2 =    0.107              !
 ! A5    A(4,2,12)             122.5034         D2E/DX2 =    0.1629             !
 ! A6    A(8,2,12)             111.4532         D2E/DX2 =    0.1301             !
 ! A7    A(5,3,7)              102.7693         D2E/DX2 =    0.3429             !
 ! A8    A(5,3,9)              103.9541         D2E/DX2 =    0.1305             !
 ! A9    A(7,3,9)              103.6192         D2E/DX2 =    0.0652             !
 ! A10   A(2,4,6)              118.0645         D2E/DX2 =    0.0967             !
 ! A11   A(2,4,11)             122.6711         D2E/DX2 =    0.127              !
 ! A12   A(6,4,11)             119.264          D2E/DX2 =    0.0881             !
 ! A13   A(1,5,3)              119.1273         D2E/DX2 =    0.1962             !
 ! A14   A(1,5,17)             121.5357         D2E/DX2 =    0.2199             !
 ! A15   A(3,5,17)             119.2109         D2E/DX2 =    0.1767             !
 ! A16   A(3,7,11)              85.517          D2E/DX2 =    0.1593             !
 ! A17   A(4,11,7)             141.4635         D2E/DX2 =    0.0717             !
 ! A18   A(1,13,14)            109.9952         D2E/DX2 =    0.1293             !
 ! A19   A(1,13,15)            110.05           D2E/DX2 =    0.1175             !
 ! A20   A(1,13,16)            111.637          D2E/DX2 =    0.1168             !
 ! A21   A(14,13,15)           108.6465         D2E/DX2 =    0.0648             !
 ! A22   A(14,13,16)           108.4005         D2E/DX2 =    0.0659             !
 ! A23   A(15,13,16)           108.0329         D2E/DX2 =    0.0625             !
 ! A24   A(5,17,18)            107.9084         D2E/DX2 =    0.1452             !
 ! A25   A(5,17,19)            113.1813         D2E/DX2 =    0.1503             !
 ! A26   A(5,17,20)            107.7858         D2E/DX2 =    0.1427             !
 ! A27   A(18,17,19)           109.8002         D2E/DX2 =    0.0689             !
 ! A28   A(18,17,20)           108.5996         D2E/DX2 =    0.0634             !
 ! A29   A(19,17,20)           109.4475         D2E/DX2 =    0.0678             !
 ! D1    D(10,1,5,3)            -3.644          D2E/DX2 =    0.0161             !
 ! D2    D(10,1,5,17)         -179.5264         D2E/DX2 =    0.0164             !
 ! D3    D(13,1,5,3)           174.9            D2E/DX2 =    0.0163             !
 ! D4    D(13,1,5,17)           -0.9824         D2E/DX2 =    0.0129             !
 ! D5    D(5,1,13,14)         -179.4227         D2E/DX2 =    0.0169             !
 ! D6    D(5,1,13,15)          -59.7538         D2E/DX2 =    0.0169             !
 ! D7    D(5,1,13,16)           60.1989         D2E/DX2 =    0.0165             !
 ! D8    D(10,1,13,14)          -0.9871         D2E/DX2 =    0.0171             !
 ! D9    D(10,1,13,15)         118.6818         D2E/DX2 =    0.0159             !
 ! D10   D(10,1,13,16)        -121.3654         D2E/DX2 =    0.0156             !
 ! D11   D(8,2,4,6)              0.0629         D2E/DX2 =    0.0226             !
 ! D12   D(8,2,4,11)          -179.7091         D2E/DX2 =    0.0272             !
 ! D13   D(12,2,4,6)          -179.7567         D2E/DX2 =    0.0452             !
 ! D14   D(12,2,4,11)            0.4713         D2E/DX2 =    0.031              !
 ! D15   D(7,3,5,1)           -121.9297         D2E/DX2 =    0.0208             !
 ! D16   D(7,3,5,17)            54.0497         D2E/DX2 =    0.0194             !
 ! D17   D(9,3,5,1)            130.3066         D2E/DX2 =    0.0143             !
 ! D18   D(9,3,5,17)           -53.7141         D2E/DX2 =    0.0139             !
 ! D19   D(5,3,7,11)            82.5989         D2E/DX2 =    0.0644             !
 ! D20   D(9,3,7,11)          -169.3827         D2E/DX2 =    0.0404             !
 ! D21   D(2,4,11,7)            32.68           D2E/DX2 =    0.026              !
 ! D22   D(6,4,11,7)          -147.0894         D2E/DX2 =    0.0159             !
 ! D23   D(1,5,17,18)         -134.8751         D2E/DX2 =    0.0163             !
 ! D24   D(1,5,17,19)          -13.1641         D2E/DX2 =    0.0158             !
 ! D25   D(1,5,17,20)          108.0161         D2E/DX2 =    0.0156             !
 ! D26   D(3,5,17,18)           49.2459         D2E/DX2 =    0.0169             !
 ! D27   D(3,5,17,19)          170.9568         D2E/DX2 =    0.0166             !
 ! D28   D(3,5,17,20)          -67.863          D2E/DX2 =    0.0166             !
 ! D29   D(3,7,11,4)          -138.6512         D2E/DX2 =    0.1297             !
 --------------------------------------------------------------------------------
 Trust Radius=1.00D-01 FncErr=1.00D-07 GrdErr=1.00D-06 EigMax=2.50D+02 EigMin=1.00D-04
 Number of steps in this run=     50 maximum allowed number of steps=    120.
 Search for a saddle point of order  1.
 GradGradGradGradGradGradGradGradGradGradGradGradGradGradGradGradGradGrad

                          Input orientation:                          
 ---------------------------------------------------------------------
 Center     Atomic      Atomic             Coordinates (Angstroms)
 Number     Number       Type             X           Y           Z
 ---------------------------------------------------------------------
      1          6           0       -0.913850   -0.461770   -0.939760
      2          6           0        2.398740   -0.187840    0.257950
      3          6           0       -1.003290    1.888270   -0.525630
      4          6           0        2.278210    0.704560   -0.712590
      5          7           0       -1.249310    0.476670   -0.134010
      6          1           0        3.126990    0.852640   -1.382130
      7          1           0       -0.354350    2.261970    0.296650
      8          1           0        3.279930   -0.802560    0.460930
      9          1           0       -1.976260    2.391200   -0.340120
     10          1           0       -0.523120   -0.086380   -1.890150
     11          1           0        1.364820    1.297420   -0.863570
     12          9           0        1.407170   -0.445400    1.130860
     13          6           0       -0.988670   -1.924080   -0.666400
     14          1           0       -0.626040   -2.486570   -1.534220
     15          1           0       -0.363860   -2.177820    0.203590
     16          1           0       -2.019690   -2.244520   -0.450640
     17          6           0       -1.785160    0.188190    1.194530
     18          1           0       -2.654740    0.837070    1.355690
     19          1           0       -2.075880   -0.862150    1.324410
     20          1           0       -1.013030    0.447720    1.931350
 ---------------------------------------------------------------------
                    Distance matrix (angstroms):
                    1          2          3          4          5
     1  C    0.000000
     2  C    3.533101   0.000000
     3  C    2.387926   4.061778   0.000000
     4  C    3.406050   1.323954   3.493475   0.000000
     5  N    1.281576   3.728736   1.485431   3.581911   0.000000
     6  H    4.272207   2.074321   4.343424   1.091164   4.566307
     7  H    3.043109   3.685454   1.112169   3.220941   2.042968
     8  H    4.434621   1.093425   5.153624   2.156850   4.743880
     9  H    3.102857   5.113684   1.110866   4.591732   2.058243
    10  H    1.093997   3.627932   2.447799   3.140013   1.982020
    11  H    2.879738   2.129036   2.463991   1.099345   2.835412
    12  F    3.110445   1.345927   3.741696   2.340818   3.083342
    13  C    1.489521   3.917078   3.814976   4.193374   2.472847
    14  H    2.129796   4.200634   4.505419   4.392386   3.336142
    15  H    2.134143   3.405134   4.180158   4.015972   2.818566
    16  H    2.154140   4.924891   4.256600   5.218969   2.845807
    17  C    2.395167   4.303905   2.541760   4.518265   1.461292
    18  H    3.160186   5.271919   2.715083   5.350639   2.079502
    19  H    2.576254   4.649113   3.483950   5.055892   2.145378
    20  H    3.013351   3.852840   2.848163   4.229497   2.079033
                    6          7          8          9         10
     6  H    0.000000
     7  H    4.113908   0.000000
     8  H    2.481924   4.756713   0.000000
     9  H    5.431032   1.747217   6.202364   0.000000
    10  H    3.803044   3.213304   4.528099   3.263834   0.000000
    11  H    1.889967   2.287359   3.135580   3.554317   2.555990
    12  F    3.310258   3.335972   2.020792   4.653781   3.602973
    13  C    5.016084   4.341986   4.555176   4.438855   2.256422
    14  H    5.025802   5.096522   4.698203   5.200155   2.428619
    15  H    4.887149   4.440775   3.903174   4.875592   2.963652
    16  H    6.078519   4.862124   5.567421   4.637241   2.994909
    17  C    5.586581   2.674690   5.212954   2.691639   3.344157
    18  H    6.397211   2.905805   6.221679   2.398213   3.991496
    19  H    6.110296   3.712153   5.425297   3.655800   3.653256
    20  H    5.318165   2.529349   4.706893   3.140781   3.889619
                   11         12         13         14         15
    11  H    0.000000
    12  F    2.648956   0.000000
    13  C    3.994478   3.340163   0.000000
    14  H    4.328034   3.924662   1.095905   0.000000
    15  H    4.025476   2.645308   1.100752   1.784390   0.000000
    16  H    4.916377   4.181070   1.101016   1.781851   1.781639
    17  C    3.922823   3.255221   2.925601   3.992991   2.932586
    18  H    4.614531   4.265488   3.806388   4.849102   3.957907
    19  H    4.614045   3.513229   2.504605   3.593403   2.432743
    20  H    3.766661   2.701077   3.517717   4.557411   3.209367
                   16         17         18         19         20
    16  H    0.000000
    17  C    2.946127   0.000000
    18  H    3.627990   1.096899   0.000000
    19  H    2.250535   1.097543   1.795385   0.000000
    20  H    3.733014   1.098383   1.782748   1.792703   0.000000
 Stoichiometry    C6H12FN
 Framework group  C1[X(C6H12FN)]
 Deg. of freedom    54
 Full point group                 C1      NOp   1
 Largest Abelian subgroup         C1      NOp   1
 Largest concise Abelian subgroup C1      NOp   1
                         Standard orientation:                         
 ---------------------------------------------------------------------
 Center     Atomic      Atomic             Coordinates (Angstroms)
 Number     Number       Type             X           Y           Z
 ---------------------------------------------------------------------
      1          6           0        0.913850    0.461772   -0.939761
      2          6           0       -2.398740    0.187840    0.257949
      3          6           0        1.003291   -1.888268   -0.525631
      4          6           0       -2.278209   -0.704560   -0.712591
      5          7           0        1.249310   -0.476668   -0.134011
      6          1           0       -3.126989   -0.852640   -1.382131
      7          1           0        0.354351   -2.261968    0.296649
      8          1           0       -3.279930    0.802560    0.460929
      9          1           0        1.976261   -2.391198   -0.340121
     10          1           0        0.523120    0.086382   -1.890151
     11          1           0       -1.364819   -1.297419   -0.863571
     12          9           0       -1.407170    0.445401    1.130859
     13          6           0        0.988669    1.924082   -0.666401
     14          1           0        0.626039    2.486572   -1.534221
     15          1           0        0.363859    2.177822    0.203589
     16          1           0        2.019689    2.244522   -0.450641
     17          6           0        1.785160   -0.188188    1.194529
     18          1           0        2.654741   -0.837067    1.355689
     19          1           0        2.075880    0.862152    1.324409
     20          1           0        1.013030   -0.447718    1.931349
 ---------------------------------------------------------------------
 Rotational constants (GHZ):           2.3055175           1.2924318           1.1418268
 Standard basis: def2SVP (5D, 7F)
 There are   180 symmetry adapted cartesian basis functions of A   symmetry.
 There are   172 symmetry adapted basis functions of A   symmetry.
   172 basis functions,   284 primitive gaussians,   180 cartesian basis functions
    32 alpha electrons       32 beta electrons
       nuclear repulsion energy       384.5983765080 Hartrees.
 NAtoms=   20 NActive=   20 NUniq=   20 SFac= 1.00D+00 NAtFMM=   60 NAOKFM=F Big=F
 Integral buffers will be    131072 words long.
 Raffenetti 2 integral format.
 Two-electron integral symmetry is turned on.
 Nuclear repulsion after empirical dispersion term =      384.5860468748 Hartrees.
 ------------------------------------------------------------------------------
 Polarizable Continuum Model (PCM)
 =================================
 Model                : PCM.
 Atomic radii         : UFF (Universal Force Field).
 Polarization charges : Total charges.
 Charge compensation  : None.
 Solution method      : On-the-fly selection.
 Cavity type          : Scaled VdW (van der Waals Surface) (Alpha=1.100).
 Cavity algorithm     : GePol (No added spheres)
                        Default sphere list used, NSphG=   20.
                        Lebedev-Laikov grids with approx.  5.0 points / Ang**2.
                        Smoothing algorithm: York/Karplus (Gamma=1.0000).
                        Polarization charges: spherical gaussians, with
                                              point-specific exponents (IZeta= 3).
                        Self-potential: point-specific (ISelfS= 7).
                        Self-field    : sphere-specific E.n sum rule (ISelfD= 2).
 1st derivatives      : Analytical E(r).r(x)/FMM algorithm (CHGder, D1EAlg=3).
                        Cavity 1st derivative terms included.
 Solvent              : Toluene, Eps=   2.374100 Eps(inf)=   2.238315
 ------------------------------------------------------------------------------
 Spheres list:
 ISph  on   Nord     Re0    Alpha      Xe            Ye            Ze
    1   C      1    1.9255  1.100      0.913850      0.461772     -0.939761
    2   C      2    1.9255  1.100     -2.398740      0.187840      0.257949
    3   C      3    1.9255  1.100      1.003291     -1.888268     -0.525631
    4   C      4    1.9255  1.100     -2.278209     -0.704560     -0.712591
    5   N      5    1.8300  1.100      1.249310     -0.476668     -0.134011
    6   H      6    1.4430  1.100     -3.126989     -0.852640     -1.382131
    7   H      7    1.4430  1.100      0.354351     -2.261968      0.296649
    8   H      8    1.4430  1.100     -3.279930      0.802560      0.460929
    9   H      9    1.4430  1.100      1.976261     -2.391198     -0.340121
   10   H     10    1.4430  1.100      0.523120      0.086382     -1.890151
   11   H     11    1.4430  1.100     -1.364819     -1.297419     -0.863571
   12   F     12    1.6820  1.100     -1.407170      0.445401      1.130859
   13   C     13    1.9255  1.100      0.988669      1.924082     -0.666401
   14   H     14    1.4430  1.100      0.626039      2.486572     -1.534221
   15   H     15    1.4430  1.100      0.363859      2.177822      0.203589
   16   H     16    1.4430  1.100      2.019689      2.244522     -0.450641
   17   C     17    1.9255  1.100      1.785160     -0.188188      1.194529
   18   H     18    1.4430  1.100      2.654741     -0.837067      1.355689
   19   H     19    1.4430  1.100      2.075880      0.862152      1.324409
   20   H     20    1.4430  1.100      1.013030     -0.447718      1.931349
 ------------------------------------------------------------------------------
 One-electron integrals computed using PRISM.
   1 Symmetry operations used in ECPInt.
 ECPInt:  NShTT=    3570 NPrTT=   12386 LenC2=    3546 LenP2D=    9909.
 LDataN:  DoStor=T MaxTD1= 4 Len=   56
 NBasis=   172 RedAO= T EigKep=  2.98D-03  NBF=   172
 NBsUse=   172 1.00D-06 EigRej= -1.00D+00 NBFU=   172
 ExpMin= 1.22D-01 ExpMax= 2.89D+03 ExpMxC= 4.35D+02 IAcc=3 IRadAn=         5 AccDes= 0.00D+00
 Harris functional with IExCor= 4639 and IRadAn=       5 diagonalized for initial guess.
 HarFok:  IExCor= 4639 AccDes= 0.00D+00 IRadAn=         5 IDoV= 1 UseB2=F ITyADJ=14
 ICtDFT=  3500011 ScaDFX=  1.000000  1.000000  1.000000  1.000000
 FoFCou: FMM=F IPFlag=           0 FMFlag=      100000 FMFlg1=           0
         NFxFlg=           0 DoJE=T BraDBF=F KetDBF=T FulRan=T
         wScrn=  0.000000 ICntrl=       500 IOpCl=  0 I1Cent=   200000004 NGrid=           0
         NMat0=    1 NMatS0=      1 NMatT0=    0 NMatD0=    1 NMtDS0=    0 NMtDT0=    0
 Petite list used in FoFCou.
 Requested convergence on RMS density matrix=1.00D-08 within 128 cycles.
 Requested convergence on MAX density matrix=1.00D-06.
 Requested convergence on             energy=1.00D-06.
 No special actions if energy rises.
 Inv3:  Mode=1 IEnd=     7041072.
 Iteration    1 A*A^-1 deviation from unit magnitude is 3.11D-15 for    801.
 Iteration    1 A*A^-1 deviation from orthogonality  is 2.12D-15 for   1159    406.
 Iteration    1 A^-1*A deviation from unit magnitude is 3.11D-15 for    801.
 Iteration    1 A^-1*A deviation from orthogonality  is 2.05D-15 for    995     44.
 Error on total polarization charges =  0.00600
 SCF Done:  E(RwB97XD) =  -389.899470137     A.U. after   16 cycles
            NFock= 16  Conv=0.30D-08     -V/T= 2.0102

 **********************************************************************

            Population analysis using the SCF Density.

 **********************************************************************

 Orbital symmetries:
       Occupied  (A) (A) (A) (A) (A) (A) (A) (A) (A) (A) (A) (A)
                 (A) (A) (A) (A) (A) (A) (A) (A) (A) (A) (A) (A)
                 (A) (A) (A) (A) (A) (A) (A) (A)
       Virtual   (A) (A) (A) (A) (A) (A) (A) (A) (A) (A) (A) (A)
                 (A) (A) (A) (A) (A) (A) (A) (A) (A) (A) (A) (A)
                 (A) (A) (A) (A) (A) (A) (A) (A) (A) (A) (A) (A)
                 (A) (A) (A) (A) (A) (A) (A) (A) (A) (A) (A) (A)
                 (A) (A) (A) (A) (A) (A) (A) (A) (A) (A) (A) (A)
                 (A) (A) (A) (A) (A) (A) (A) (A) (A) (A) (A) (A)
                 (A) (A) (A) (A) (A) (A) (A) (A) (A) (A) (A) (A)
                 (A) (A) (A) (A) (A) (A) (A) (A) (A) (A) (A) (A)
                 (A) (A) (A) (A) (A) (A) (A) (A) (A) (A) (A) (A)
                 (A) (A) (A) (A) (A) (A) (A) (A) (A) (A) (A) (A)
                 (A) (A) (A) (A) (A) (A) (A) (A) (A) (A) (A) (A)
                 (A) (A) (A) (A) (A) (A) (A) (A)
 The electronic state is 1-A.
 Alpha  occ. eigenvalues --  -24.82779 -14.52798 -10.37920 -10.37702 -10.34019
 Alpha  occ. eigenvalues --  -10.32446 -10.29241 -10.23171  -1.31071  -1.08269
 Alpha  occ. eigenvalues --   -0.87376  -0.85651  -0.82223  -0.74817  -0.69447
 Alpha  occ. eigenvalues --   -0.65614  -0.61756  -0.58447  -0.57672  -0.56388
 Alpha  occ. eigenvalues --   -0.56208  -0.55541  -0.51722  -0.49782  -0.48714
 Alpha  occ. eigenvalues --   -0.48442  -0.46088  -0.45154  -0.44319  -0.37058
 Alpha  occ. eigenvalues --   -0.34616  -0.22352
 Alpha virt. eigenvalues --    0.02607   0.08994   0.13243   0.16457   0.16666
 Alpha virt. eigenvalues --    0.17016   0.19371   0.20786   0.21153   0.21588
 Alpha virt. eigenvalues --    0.22585   0.22890   0.24348   0.25127   0.27194
 Alpha virt. eigenvalues --    0.28930   0.32257   0.36043   0.37426   0.41359
 Alpha virt. eigenvalues --    0.44115   0.48860   0.48883   0.51145   0.53648
 Alpha virt. eigenvalues --    0.54820   0.55778   0.56931   0.58498   0.60051
 Alpha virt. eigenvalues --    0.61961   0.65457   0.66641   0.67993   0.69441
 Alpha virt. eigenvalues --    0.71083   0.71738   0.72169   0.72903   0.74238
 Alpha virt. eigenvalues --    0.74857   0.74997   0.75394   0.76458   0.76745
 Alpha virt. eigenvalues --    0.77690   0.80111   0.82062   0.83496   0.84420
 Alpha virt. eigenvalues --    0.88423   0.88734   0.91705   0.92155   1.00313
 Alpha virt. eigenvalues --    1.08186   1.11123   1.15109   1.19256   1.20648
 Alpha virt. eigenvalues --    1.27903   1.28142   1.30722   1.32612   1.33642
 Alpha virt. eigenvalues --    1.36209   1.39782   1.46033   1.48953   1.54933
 Alpha virt. eigenvalues --    1.58985   1.59663   1.60432   1.61758   1.64742
 Alpha virt. eigenvalues --    1.66979   1.68534   1.71514   1.73678   1.76363
 Alpha virt. eigenvalues --    1.77569   1.79545   1.81563   1.82538   1.84878
 Alpha virt. eigenvalues --    1.85151   1.85673   1.88277   1.91280   1.91647
 Alpha virt. eigenvalues --    1.93037   1.96400   1.97533   1.98385   2.02674
 Alpha virt. eigenvalues --    2.04539   2.05131   2.05562   2.10452   2.13644
 Alpha virt. eigenvalues --    2.17356   2.18283   2.18575   2.21413   2.24024
 Alpha virt. eigenvalues --    2.31821   2.34470   2.35630   2.38022   2.40162
 Alpha virt. eigenvalues --    2.41859   2.49937   2.51732   2.52327   2.55024
 Alpha virt. eigenvalues --    2.58101   2.63200   2.72219   2.73743   2.76661
 Alpha virt. eigenvalues --    2.78827   2.81562   2.84315   2.88147   2.91736
 Alpha virt. eigenvalues --    2.94349   2.98831   3.01708   3.02439   3.05643
 Alpha virt. eigenvalues --    3.08092   3.10345   3.14654   3.17330   3.29374
 Alpha virt. eigenvalues --    3.31493   3.39580   3.44935   3.61288   3.94545
          Condensed to atoms (all electrons):
               1          2          3          4          5          6
     1  C    4.922480  -0.001043  -0.090040   0.007658   0.539741  -0.000028
     2  C   -0.001043   4.545369  -0.000095   0.610444  -0.000860  -0.005818
     3  C   -0.090040  -0.000095   5.350758  -0.031372   0.263373   0.000230
     4  C    0.007658   0.610444  -0.031372   5.002569   0.000275   0.370565
     5  N    0.539741  -0.000860   0.263373   0.000275   6.287099   0.000058
     6  H   -0.000028  -0.005818   0.000230   0.370565   0.000058   0.591385
     7  H    0.000070  -0.000145   0.362715   0.002626  -0.033918   0.000101
     8  H    0.000275   0.421753  -0.000047  -0.061918  -0.000029  -0.006860
     9  H    0.004145   0.000007   0.358620   0.000775  -0.031885  -0.000008
    10  H    0.383622  -0.000293   0.033018  -0.003924  -0.026659   0.000127
    11  H   -0.010790  -0.013417   0.078132   0.320262  -0.003062  -0.023130
    12  F    0.009605   0.295529  -0.000853  -0.059491  -0.002282   0.002616
    13  C    0.299349   0.001326   0.011036  -0.001268  -0.042397   0.000012
    14  H   -0.008786   0.000149  -0.000246   0.000206   0.004132  -0.000003
    15  H   -0.003237  -0.001607  -0.000361  -0.000741  -0.007847  -0.000028
    16  H   -0.010361  -0.000003  -0.000214   0.000015  -0.004769   0.000000
    17  C   -0.086401  -0.000030  -0.037256  -0.001094   0.307362   0.000004
    18  H    0.005703   0.000000  -0.000678   0.000019  -0.022758  -0.000000
    19  H   -0.009660  -0.000025   0.006315   0.000222  -0.013173  -0.000000
    20  H    0.000571  -0.000012  -0.001171  -0.000056  -0.022176  -0.000006
               7          8          9         10         11         12
     1  C    0.000070   0.000275   0.004145   0.383622  -0.010790   0.009605
     2  C   -0.000145   0.421753   0.000007  -0.000293  -0.013417   0.295529
     3  C    0.362715  -0.000047   0.358620   0.033018   0.078132  -0.000853
     4  C    0.002626  -0.061918   0.000775  -0.003924   0.320262  -0.059491
     5  N   -0.033918  -0.000029  -0.031885  -0.026659  -0.003062  -0.002282
     6  H    0.000101  -0.006860  -0.000008   0.000127  -0.023130   0.002616
     7  H    0.734665   0.000026  -0.039484  -0.001568  -0.006959   0.001077
     8  H    0.000026   0.617002   0.000001  -0.000033   0.004895  -0.031098
     9  H   -0.039484   0.000001   0.744085  -0.000483  -0.002701   0.000001
    10  H   -0.001568  -0.000033  -0.000483   0.555583   0.008202  -0.000114
    11  H   -0.006959   0.004895  -0.002701   0.008202   0.571290  -0.001624
    12  F    0.001077  -0.031098   0.000001  -0.000114  -0.001624   9.006122
    13  C   -0.000975  -0.000142  -0.000851  -0.034273   0.002329  -0.006845
    14  H    0.000023   0.000004   0.000019  -0.008492  -0.000120  -0.000076
    15  H    0.000181   0.000024  -0.000016   0.002421  -0.000219   0.011934
    16  H   -0.000037   0.000001   0.000083   0.002952  -0.000011   0.000087
    17  C   -0.003437  -0.000008  -0.009143   0.009283   0.002129   0.000246
    18  H   -0.001948   0.000001   0.008759  -0.000353  -0.000083   0.000089
    19  H    0.000982   0.000001   0.000932  -0.000905  -0.000426  -0.000320
    20  H    0.005485   0.000069  -0.001529  -0.000318  -0.000048   0.006514
              13         14         15         16         17         18
     1  C    0.299349  -0.008786  -0.003237  -0.010361  -0.086401   0.005703
     2  C    0.001326   0.000149  -0.001607  -0.000003  -0.000030   0.000000
     3  C    0.011036  -0.000246  -0.000361  -0.000214  -0.037256  -0.000678
     4  C   -0.001268   0.000206  -0.000741   0.000015  -0.001094   0.000019
     5  N   -0.042397   0.004132  -0.007847  -0.004769   0.307362  -0.022758
     6  H    0.000012  -0.000003  -0.000028   0.000000   0.000004  -0.000000
     7  H   -0.000975   0.000023   0.000181  -0.000037  -0.003437  -0.001948
     8  H   -0.000142   0.000004   0.000024   0.000001  -0.000008   0.000001
     9  H   -0.000851   0.000019  -0.000016   0.000083  -0.009143   0.008759
    10  H   -0.034273  -0.008492   0.002421   0.002952   0.009283  -0.000353
    11  H    0.002329  -0.000120  -0.000219  -0.000011   0.002129  -0.000083
    12  F   -0.006845  -0.000076   0.011934   0.000087   0.000246   0.000089
    13  C    4.679700   0.387262   0.373040   0.386506   0.009186  -0.000477
    14  H    0.387262   0.577644  -0.014592  -0.014399   0.000426  -0.000013
    15  H    0.373040  -0.014592   0.564097  -0.013547  -0.000022  -0.000034
    16  H    0.386506  -0.014399  -0.013547   0.559374  -0.002178   0.000354
    17  C    0.009186   0.000426  -0.000022  -0.002178   4.604828   0.395175
    18  H   -0.000477  -0.000013  -0.000034   0.000354   0.395175   0.578333
    19  H    0.004196   0.000349  -0.000165   0.002544   0.360305  -0.018380
    20  H   -0.000498  -0.000014   0.000665  -0.000313   0.397680  -0.015008
              19         20
     1  C   -0.009660   0.000571
     2  C   -0.000025  -0.000012
     3  C    0.006315  -0.001171
     4  C    0.000222  -0.000056
     5  N   -0.013173  -0.022176
     6  H   -0.000000  -0.000006
     7  H    0.000982   0.005485
     8  H    0.000001   0.000069
     9  H    0.000932  -0.001529
    10  H   -0.000905  -0.000318
    11  H   -0.000426  -0.000048
    12  F   -0.000320   0.006514
    13  C    0.004196  -0.000498
    14  H    0.000349  -0.000014
    15  H   -0.000165   0.000665
    16  H    0.002544  -0.000313
    17  C    0.360305   0.397680
    18  H   -0.018380  -0.015008
    19  H    0.635607  -0.018009
    20  H   -0.018009   0.566851
 Mulliken charges:
               1
     1  C    0.047128
     2  C    0.148770
     3  C   -0.301865
     4  C   -0.155771
     5  N   -0.190224
     6  H    0.070784
     7  H   -0.019481
     8  H    0.056081
     9  H   -0.031326
    10  H    0.082208
    11  H    0.075352
    12  F   -0.231117
    13  C   -0.066216
    14  H    0.076528
    15  H    0.090055
    16  H    0.093915
    17  C    0.052946
    18  H    0.071300
    19  H    0.049610
    20  H    0.081323
 Sum of Mulliken charges =  -0.00000
 Mulliken charges with hydrogens summed into heavy atoms:
               1
     1  C    0.129336
     2  C    0.204852
     3  C   -0.352673
     4  C   -0.009636
     5  N   -0.190224
    12  F   -0.231117
    13  C    0.194283
    17  C    0.255179
 Electronic spatial extent (au):  <R**2>=           1207.9411
 Charge=             -0.0000 electrons
 Dipole moment (field-independent basis, Debye):
    X=              0.2328    Y=              5.9145    Z=              1.5660  Tot=              6.1228
 Quadrupole moment (field-independent basis, Debye-Ang):
   XX=            -41.9279   YY=            -56.6592   ZZ=            -50.9021
   XY=              3.8216   XZ=              4.2332   YZ=             -6.6203
 Traceless Quadrupole moment (field-independent basis, Debye-Ang):
   XX=              7.9019   YY=             -6.8295   ZZ=             -1.0724
   XY=              3.8216   XZ=              4.2332   YZ=             -6.6203
 Octapole moment (field-independent basis, Debye-Ang**2):
  XXX=            -19.9050  YYY=             39.3039  ZZZ=             13.6868  XYY=             -5.9139
  XXY=             12.9043  XXZ=              6.7396  XZZ=             -2.3686  YZZ=             12.3097
  YYZ=             13.4981  XYZ=             -8.5462
 Hexadecapole moment (field-independent basis, Debye-Ang**3):
 XXXX=           -776.1189 YYYY=           -506.4573 ZZZZ=           -266.8099 XXXY=            -11.2669
 XXXZ=             10.0770 YYYX=             19.4018 YYYZ=            -32.0223 ZZZX=              0.1690
 ZZZY=            -18.7448 XXYY=           -221.7232 XXZZ=           -183.4896 YYZZ=           -136.8809
 XXYZ=              1.7756 YYXZ=              5.8856 ZZXY=              9.9288
 N-N= 3.845860468748D+02 E-N=-1.677590366302D+03  KE= 3.859533199901D+02
   1 Symmetry operations used in ECPInt.
 ECPInt:  NShTT=    3570 NPrTT=   12386 LenC2=    3546 LenP2D=    9909.
 LDataN:  DoStor=T MaxTD1= 5 Len=  102
 D1PCM: PCM CHGder 1st derivatives, ID1Alg=3 FixD1E=F DoIter=F DoCFld=F I1PDM=0.
 Calling FoFJK, ICntrl=      2127 FMM=F ISym2X=0 I1Cent= 0 IOpClX= 0 NMat=1 NMatS=1 NMatT=0.
 ***** Axes restored to original set *****
 -------------------------------------------------------------------
 Center     Atomic                   Forces (Hartrees/Bohr)
 Number     Number              X              Y              Z
 -------------------------------------------------------------------
      1        6           0.000071373   -0.000202025   -0.000120148
      2        6          -0.000145789   -0.000045726   -0.000100647
      3        6          -0.000096701   -0.000065732    0.000258323
      4        6           0.000176642    0.000115814    0.000159192
      5        7           0.000165471    0.000065281    0.000001105
      6        1           0.000038556    0.000026852    0.000023471
      7        1           0.000061498    0.000181565    0.000080980
      8        1          -0.000006036   -0.000012917   -0.000006700
      9        1           0.000035493    0.000087041   -0.000100059
     10        1          -0.000018438   -0.000024183   -0.000060968
     11        1          -0.000231552   -0.000235269   -0.000157621
     12        9          -0.000148508    0.000106016   -0.000092341
     13        6          -0.000024821    0.000018217    0.000010595
     14        1           0.000005881   -0.000003373    0.000035844
     15        1           0.000006823   -0.000016411    0.000043163
     16        1          -0.000029136   -0.000007448    0.000047243
     17        6           0.000054784    0.000073754   -0.000026917
     18        1           0.000010662   -0.000020621    0.000016580
     19        1           0.000030534   -0.000037248   -0.000042217
     20        1           0.000043264   -0.000003586    0.000031122
 -------------------------------------------------------------------
 Cartesian Forces:  Max     0.000258323 RMS     0.000095385

 GradGradGradGradGradGradGradGradGradGradGradGradGradGradGradGradGradGrad
 Berny optimization.
 FormGI is forming the generalized inverse of G from B-inverse, IUseBI=4.
 Internal  Forces:  Max     0.000939224 RMS     0.000233812
 Search for a saddle point.
 Step number   1 out of a maximum of   50
 All quantities printed in internal units (Hartrees-Bohrs-Radians)
 Swapping is turned off.
 Second derivative matrix not updated -- first step.
 ITU=  0
     Eigenvalues ---   -0.00025   0.00027   0.00100   0.00165   0.00747
     Eigenvalues ---    0.00917   0.02033   0.02947   0.03059   0.03178
     Eigenvalues ---    0.03729   0.04445   0.05473   0.06446   0.06514
     Eigenvalues ---    0.06778   0.06970   0.07292   0.07620   0.11643
     Eigenvalues ---    0.13170   0.13611   0.14229   0.14747   0.15095
     Eigenvalues ---    0.16096   0.16395   0.17355   0.18907   0.19528
     Eigenvalues ---    0.20048   0.22059   0.24102   0.25067   0.29223
     Eigenvalues ---    0.30121   0.31739   0.33643   0.34171   0.34655
     Eigenvalues ---    0.34795   0.35394   0.35706   0.35855   0.36550
     Eigenvalues ---    0.36605   0.37063   0.37087   0.37835   0.44385
     Eigenvalues ---    0.44962   0.61559   0.71341   0.79393
 Eigenvectors required to have negative eigenvalues:
                          D21       D22       D29       A17       A16
   1                   -0.56998  -0.56518   0.48379   0.19322   0.12329
                          D18       D17       D16       D15       D9
   1                    0.09534   0.09402   0.09174   0.09042   0.07182
 RFO step:  Lambda0=1.002314710D-04 Lambda=-1.95429877D-05.
 Linear search not attempted -- option 19 set.
 Maximum step size (   0.100) exceeded in Quadratic search.
    -- Step size scaled by   0.776
 Iteration  1 RMS(Cart)=  0.06570724 RMS(Int)=  0.00783946
 Iteration  2 RMS(Cart)=  0.02116550 RMS(Int)=  0.00028074
 Iteration  3 RMS(Cart)=  0.00049515 RMS(Int)=  0.00000085
 Iteration  4 RMS(Cart)=  0.00000014 RMS(Int)=  0.00000085
 Variable       Old X    -DE/DX   Delta X   Delta X   Delta X     New X
                                 (Linear)    (Quad)   (Total)
    R1        2.42183   0.00023   0.00000   0.00003   0.00003   2.42186
    R2        2.06735   0.00004   0.00000  -0.00041  -0.00041   2.06695
    R3        2.81479   0.00002   0.00000   0.00033   0.00033   2.81511
    R4        2.50191  -0.00020   0.00000   0.00003   0.00003   2.50194
    R5        2.06627   0.00000   0.00000   0.00005   0.00005   2.06633
    R6        2.54343   0.00003   0.00000  -0.00136  -0.00136   2.54207
    R7        2.80706   0.00008   0.00000  -0.00113  -0.00113   2.80593
    R8        2.10169  -0.00013   0.00000  -0.00051  -0.00051   2.10118
    R9        2.09923  -0.00001   0.00000  -0.00009  -0.00009   2.09914
   R10        2.06200   0.00001   0.00000  -0.00035  -0.00035   2.06165
   R11        2.07746  -0.00018   0.00000  -0.00182  -0.00182   2.07564
   R12        2.76144  -0.00008   0.00000  -0.00004  -0.00004   2.76140
   R13        4.32248  -0.00016   0.00000   0.03106   0.03106   4.35354
   R14        2.07096  -0.00002   0.00000  -0.00004  -0.00004   2.07092
   R15        2.08012   0.00004   0.00000  -0.00023  -0.00023   2.07989
   R16        2.08062   0.00003   0.00000   0.00061   0.00061   2.08123
   R17        2.07284  -0.00002   0.00000   0.00016   0.00016   2.07300
   R18        2.07406   0.00003   0.00000   0.00010   0.00010   2.07415
   R19        2.07564   0.00004   0.00000  -0.00031  -0.00031   2.07533
    A1        1.96970   0.00015   0.00000   0.00011   0.00011   1.96982
    A2        2.20228  -0.00022   0.00000  -0.00146  -0.00146   2.20082
    A3        2.11092   0.00008   0.00000   0.00139   0.00139   2.11231
    A4        2.19987   0.00018   0.00000   0.00077   0.00077   2.20064
    A5        2.13809  -0.00034   0.00000  -0.00233  -0.00233   2.13576
    A6        1.94523   0.00016   0.00000   0.00155   0.00155   1.94678
    A7        1.79366  -0.00043   0.00000   0.00017   0.00017   1.79383
    A8        1.81434   0.00044   0.00000   0.00086   0.00086   1.81520
    A9        1.80850   0.00003   0.00000  -0.00120  -0.00120   1.80730
   A10        2.06061   0.00036   0.00000   0.00437   0.00437   2.06499
   A11        2.14101  -0.00075   0.00000  -0.00659  -0.00659   2.13443
   A12        2.08155   0.00039   0.00000   0.00221   0.00221   2.08376
   A13        2.07916   0.00029   0.00000  -0.00003  -0.00004   2.07913
   A14        2.12120  -0.00028   0.00000   0.00012   0.00012   2.12132
   A15        2.08062  -0.00002   0.00000   0.00015   0.00015   2.08077
   A16        1.49255  -0.00061   0.00000   0.02989   0.02989   1.52244
   A17        2.46900  -0.00094   0.00000   0.07945   0.07945   2.54846
   A18        1.91978   0.00002   0.00000   0.00025   0.00024   1.92002
   A19        1.92074   0.00000   0.00000   0.00300   0.00300   1.92373
   A20        1.94843   0.00000   0.00000  -0.00279  -0.00279   1.94564
   A21        1.89624  -0.00001   0.00000   0.00090   0.00090   1.89713
   A22        1.89195   0.00001   0.00000  -0.00039  -0.00040   1.89155
   A23        1.88553  -0.00002   0.00000  -0.00094  -0.00093   1.88460
   A24        1.88336   0.00006   0.00000  -0.00033  -0.00033   1.88303
   A25        1.97539  -0.00011   0.00000  -0.00027  -0.00027   1.97512
   A26        1.88122   0.00002   0.00000   0.00082   0.00082   1.88204
   A27        1.91638   0.00002   0.00000  -0.00050  -0.00050   1.91587
   A28        1.89542   0.00000   0.00000  -0.00017  -0.00017   1.89525
   A29        1.91022   0.00002   0.00000   0.00046   0.00046   1.91068
    D1       -0.06360  -0.00005   0.00000  -0.00261  -0.00261  -0.06621
    D2       -3.13333  -0.00000   0.00000  -0.00647  -0.00646  -3.13979
    D3        3.05258  -0.00005   0.00000  -0.00077  -0.00077   3.05181
    D4       -0.01715   0.00000   0.00000  -0.00462  -0.00462  -0.02177
    D5       -3.13152   0.00001   0.00000   0.02740   0.02740  -3.10412
    D6       -1.04290   0.00001   0.00000   0.03054   0.03054  -1.01236
    D7        1.05067  -0.00002   0.00000   0.02955   0.02955   1.08022
    D8       -0.01723   0.00001   0.00000   0.02936   0.02936   0.01213
    D9        2.07139   0.00001   0.00000   0.03250   0.03250   2.10389
   D10       -2.11823  -0.00001   0.00000   0.03152   0.03151  -2.08671
   D11        0.00110   0.00004   0.00000  -0.00226  -0.00226  -0.00116
   D12       -3.13652  -0.00006   0.00000  -0.00133  -0.00133  -3.13784
   D13       -3.13735   0.00009   0.00000  -0.00009  -0.00009  -3.13744
   D14        0.00823  -0.00001   0.00000   0.00083   0.00083   0.00906
   D15       -2.12807  -0.00002   0.00000   0.00790   0.00790  -2.12017
   D16        0.94334  -0.00008   0.00000   0.01166   0.01166   0.95501
   D17        2.27428  -0.00005   0.00000   0.00887   0.00887   2.28314
   D18       -0.93749  -0.00011   0.00000   0.01263   0.01263  -0.92486
   D19        1.44162  -0.00052   0.00000  -0.01462  -0.01462   1.42700
   D20       -2.95629  -0.00018   0.00000  -0.01402  -0.01402  -2.97031
   D21        0.57037   0.00034   0.00000  -0.24544  -0.24544   0.32494
   D22       -2.56720   0.00024   0.00000  -0.24450  -0.24450  -2.81170
   D23       -2.35401   0.00000   0.00000   0.01520   0.01520  -2.33882
   D24       -0.22976  -0.00000   0.00000   0.01416   0.01416  -0.21560
   D25        1.88524  -0.00004   0.00000   0.01513   0.01513   1.90037
   D26        0.85950   0.00004   0.00000   0.01135   0.01135   0.87085
   D27        2.98376   0.00003   0.00000   0.01031   0.01031   2.99407
   D28       -1.18443  -0.00001   0.00000   0.01129   0.01129  -1.17315
   D29       -2.41992   0.00077   0.00000   0.21097   0.21097  -2.20895
         Item               Value     Threshold  Converged?
 Maximum Force            0.000939     0.000450     NO 
 RMS     Force            0.000234     0.000300     YES
 Maximum Displacement     0.222965     0.001800     NO 
 RMS     Displacement     0.068646     0.001200     NO 
 Predicted change in Energy= 4.701754D-05
 GradGradGradGradGradGradGradGradGradGradGradGradGradGradGradGradGradGrad

                          Input orientation:                          
 ---------------------------------------------------------------------
 Center     Atomic      Atomic             Coordinates (Angstroms)
 Number     Number       Type             X           Y           Z
 ---------------------------------------------------------------------
      1          6           0       -0.889019   -0.440887   -0.934224
      2          6           0        2.377161   -0.223644    0.246717
      3          6           0       -1.031569    1.905865   -0.519421
      4          6           0        2.263002    0.673407   -0.720321
      5          7           0       -1.251579    0.489700   -0.131081
      6          1           0        3.062158    0.741602   -1.459870
      7          1           0       -0.391439    2.290217    0.304486
      8          1           0        3.208515   -0.920548    0.383890
      9          1           0       -2.013488    2.391054   -0.334105
     10          1           0       -0.499837   -0.056897   -1.881561
     11          1           0        1.398859    1.347090   -0.796795
     12          9           0        1.438899   -0.380712    1.197808
     13          6           0       -0.935731   -1.904397   -0.660097
     14          1           0       -0.527915   -2.458833   -1.512884
     15          1           0       -0.339545   -2.143252    0.233715
     16          1           0       -1.966751   -2.248773   -0.483038
     17          6           0       -1.798120    0.189063    1.190369
     18          1           0       -2.690533    0.810338    1.335245
     19          1           0       -2.057704   -0.869530    1.319645
     20          1           0       -1.046755    0.475757    1.938261
 ---------------------------------------------------------------------
                    Distance matrix (angstroms):
                    1          2          3          4          5
     1  C    0.000000
     2  C    3.479906   0.000000
     3  C    2.387389   4.091604   0.000000
     4  C    3.350021   1.323970   3.523281   0.000000
     5  N    1.281593   3.717438   1.484836   3.568365   0.000000
     6  H    4.157690   2.076863   4.358734   1.090979   4.520782
     7  H    3.039887   3.740051   1.111897   3.272669   2.042405
     8  H    4.330968   1.093454   5.175220   2.157307   4.706000
     9  H    3.105553   5.143131   1.110817   4.624699   2.058366
    10  H    1.093782   3.582526   2.447571   3.084655   1.981935
    11  H    2.906911   2.124428   2.509213   1.098380   2.864108
    12  F    3.157275   1.345206   3.778958   2.338703   3.124458
    13  C    1.489695   3.823938   3.814063   4.108600   2.472108
    14  H    2.130105   4.065923   4.504578   4.269461   3.335703
    15  H    2.136364   3.326493   4.176298   3.951836   2.810217
    16  H    2.152563   4.848016   4.258745   5.146479   2.852119
    17  C    2.395244   4.300439   2.541336   4.514203   1.461273
    18  H    3.156185   5.285408   2.718846   5.364849   2.079304
    19  H    2.574778   4.608294   3.483954   5.021017   2.145215
    20  H    3.019318   3.882484   2.843525   4.249896   2.079500
                    6          7          8          9         10
     6  H    0.000000
     7  H    4.175943   0.000000
     8  H    2.486688   4.824416   0.000000
     9  H    5.454377   1.746141   6.225074   0.000000
    10  H    3.674674   3.209282   4.430580   3.267755   0.000000
    11  H    1.890198   2.303796   3.132260   3.598341   2.598643
    12  F    3.310259   3.358872   2.021244   4.684914   3.653227
    13  C    4.860460   4.338371   4.385504   4.440578   2.257263
    14  H    4.809805   5.086740   4.463741   5.207480   2.430228
    15  H    4.770975   4.434337   3.755834   4.866666   2.975394
    16  H    5.931819   4.868699   5.412867   4.642452   2.985301
    17  C    5.563395   2.679250   5.191150   2.686851   3.344068
    18  H    6.396159   2.922043   6.220917   2.396619   3.987366
    19  H    6.044373   3.713621   5.348953   3.656262   3.651718
    20  H    5.338646   2.528027   4.740576   3.125153   3.895366
                   11         12         13         14         15
    11  H    0.000000
    12  F    2.639193   0.000000
    13  C    4.005142   3.378209   0.000000
    14  H    4.325539   3.941420   1.095882   0.000000
    15  H    4.033173   2.683074   1.100632   1.784848   0.000000
    16  H    4.935180   4.232416   1.101338   1.781840   1.781199
    17  C    3.938339   3.286790   2.924126   3.991534   2.912442
    18  H    4.642932   4.299965   3.798750   4.845227   3.932455
    19  H    4.619583   3.532707   2.499831   3.590175   2.398683
    20  H    3.771045   2.731353   3.525468   4.559760   3.203877
                   16         17         18         19         20
    16  H    0.000000
    17  C    2.961718   0.000000
    18  H    3.631553   1.096983   0.000000
    19  H    2.271619   1.097595   1.795180   0.000000
    20  H    3.759275   1.098219   1.782576   1.792902   0.000000
 Stoichiometry    C6H12FN
 Framework group  C1[X(C6H12FN)]
 Deg. of freedom    54
 Full point group                 C1      NOp   1
 Largest Abelian subgroup         C1      NOp   1
 Largest concise Abelian subgroup C1      NOp   1
                         Standard orientation:                         
 ---------------------------------------------------------------------
 Center     Atomic      Atomic             Coordinates (Angstroms)
 Number     Number       Type             X           Y           Z
 ---------------------------------------------------------------------
      1          6           0        0.876873    0.487132   -0.938709
      2          6           0       -2.379635    0.151948    0.241357
      3          6           0        1.096839   -1.857275   -0.545008
      4          6           0       -2.236634   -0.732171   -0.733723
      5          7           0        1.270373   -0.438167   -0.144065
      6          1           0       -3.033584   -0.820012   -1.473580
      7          1           0        0.470230   -2.269843    0.275639
      8          1           0       -3.233386    0.819856    0.385056
      9          1           0        2.094311   -2.311521   -0.364386
     10          1           0        0.499934    0.099033   -1.889317
     11          1           0       -1.350838   -1.376336   -0.816529
     12          9           0       -1.446444    0.331295    1.193496
     13          6           0        0.875572    1.948875   -0.651491
     14          1           0        0.449188    2.497196   -1.499133
     15          1           0        0.272418    2.159971    0.244631
     16          1           0        1.894813    2.325401   -0.471705
     17          6           0        1.807567   -0.131541    1.179839
     18          1           0        2.720034   -0.724378    1.318834
     19          1           0        2.032255    0.933823    1.318511
     20          1           0        1.066521   -0.449490    1.925388
 ---------------------------------------------------------------------
 Rotational constants (GHZ):           2.2989335           1.2883392           1.1499638
 Standard basis: def2SVP (5D, 7F)
 There are   180 symmetry adapted cartesian basis functions of A   symmetry.
 There are   172 symmetry adapted basis functions of A   symmetry.
   172 basis functions,   284 primitive gaussians,   180 cartesian basis functions
    32 alpha electrons       32 beta electrons
       nuclear repulsion energy       384.5164291372 Hartrees.
 NAtoms=   20 NActive=   20 NUniq=   20 SFac= 1.00D+00 NAtFMM=   60 NAOKFM=F Big=F
 Integral buffers will be    131072 words long.
 Raffenetti 2 integral format.
 Two-electron integral symmetry is turned on.
 Nuclear repulsion after empirical dispersion term =      384.5040404479 Hartrees.
 ------------------------------------------------------------------------------
 Polarizable Continuum Model (PCM)
 =================================
 Model                : PCM.
 Atomic radii         : UFF (Universal Force Field).
 Polarization charges : Total charges.
 Charge compensation  : None.
 Solution method      : On-the-fly selection.
 Cavity type          : Scaled VdW (van der Waals Surface) (Alpha=1.100).
 Cavity algorithm     : GePol (No added spheres)
                        Default sphere list used, NSphG=   20.
                        Lebedev-Laikov grids with approx.  5.0 points / Ang**2.
                        Smoothing algorithm: York/Karplus (Gamma=1.0000).
                        Polarization charges: spherical gaussians, with
                                              point-specific exponents (IZeta= 3).
                        Self-potential: point-specific (ISelfS= 7).
                        Self-field    : sphere-specific E.n sum rule (ISelfD= 2).
 1st derivatives      : Analytical E(r).r(x)/FMM algorithm (CHGder, D1EAlg=3).
                        Cavity 1st derivative terms included.
 Solvent              : Toluene, Eps=   2.374100 Eps(inf)=   2.238315
 ------------------------------------------------------------------------------
 Spheres list:
 ISph  on   Nord     Re0    Alpha      Xe            Ye            Ze
    1   C      1    1.9255  1.100      0.876873      0.487132     -0.938709
    2   C      2    1.9255  1.100     -2.379635      0.151948      0.241357
    3   C      3    1.9255  1.100      1.096839     -1.857275     -0.545008
    4   C      4    1.9255  1.100     -2.236634     -0.732171     -0.733723
    5   N      5    1.8300  1.100      1.270373     -0.438167     -0.144065
    6   H      6    1.4430  1.100     -3.033584     -0.820012     -1.473580
    7   H      7    1.4430  1.100      0.470230     -2.269843      0.275639
    8   H      8    1.4430  1.100     -3.233386      0.819856      0.385056
    9   H      9    1.4430  1.100      2.094311     -2.311521     -0.364386
   10   H     10    1.4430  1.100      0.499934      0.099033     -1.889317
   11   H     11    1.4430  1.100     -1.350838     -1.376336     -0.816529
   12   F     12    1.6820  1.100     -1.446444      0.331295      1.193496
   13   C     13    1.9255  1.100      0.875572      1.948875     -0.651491
   14   H     14    1.4430  1.100      0.449188      2.497196     -1.499133
   15   H     15    1.4430  1.100      0.272418      2.159971      0.244631
   16   H     16    1.4430  1.100      1.894813      2.325401     -0.471705
   17   C     17    1.9255  1.100      1.807567     -0.131541      1.179839
   18   H     18    1.4430  1.100      2.720034     -0.724378      1.318834
   19   H     19    1.4430  1.100      2.032255      0.933823      1.318511
   20   H     20    1.4430  1.100      1.066521     -0.449490      1.925388
 ------------------------------------------------------------------------------
 One-electron integrals computed using PRISM.
   1 Symmetry operations used in ECPInt.
 ECPInt:  NShTT=    3570 NPrTT=   12386 LenC2=    3546 LenP2D=    9913.
 LDataN:  DoStor=T MaxTD1= 4 Len=   56
 NBasis=   172 RedAO= T EigKep=  2.98D-03  NBF=   172
 NBsUse=   172 1.00D-06 EigRej= -1.00D+00 NBFU=   172
 Initial guess from the checkpoint file:  "allylic-1_1_opt_hf_re.chk"
 B after Tr=    -0.000000   -0.000000   -0.000000
         Rot=    0.999820   -0.007100   -0.001251   -0.017549 Ang=  -2.17 deg.
 ExpMin= 1.22D-01 ExpMax= 2.89D+03 ExpMxC= 4.35D+02 IAcc=3 IRadAn=         5 AccDes= 0.00D+00
 Harris functional with IExCor= 4639 and IRadAn=       5 diagonalized for initial guess.
 HarFok:  IExCor= 4639 AccDes= 0.00D+00 IRadAn=         5 IDoV= 1 UseB2=F ITyADJ=14
 ICtDFT=  3500011 ScaDFX=  1.000000  1.000000  1.000000  1.000000
 FoFCou: FMM=F IPFlag=           0 FMFlag=      100000 FMFlg1=           0
         NFxFlg=           0 DoJE=T BraDBF=F KetDBF=T FulRan=T
         wScrn=  0.000000 ICntrl=       500 IOpCl=  0 I1Cent=   200000004 NGrid=           0
         NMat0=    1 NMatS0=      1 NMatT0=    0 NMatD0=    1 NMtDS0=    0 NMtDT0=    0
 Petite list used in FoFCou.
 Requested convergence on RMS density matrix=1.00D-08 within 128 cycles.
 Requested convergence on MAX density matrix=1.00D-06.
 Requested convergence on             energy=1.00D-06.
 No special actions if energy rises.
 Inv3:  Mode=1 IEnd=     7041072.
 Iteration    1 A*A^-1 deviation from unit magnitude is 3.55D-15 for    382.
 Iteration    1 A*A^-1 deviation from orthogonality  is 1.86D-15 for   1213    226.
 Iteration    1 A^-1*A deviation from unit magnitude is 3.33D-15 for    382.
 Iteration    1 A^-1*A deviation from orthogonality  is 2.27D-15 for   1164    411.
 Error on total polarization charges =  0.00625
 SCF Done:  E(RwB97XD) =  -389.899269832     A.U. after   14 cycles
            NFock= 14  Conv=0.56D-08     -V/T= 2.0102
   1 Symmetry operations used in ECPInt.
 ECPInt:  NShTT=    3570 NPrTT=   12386 LenC2=    3546 LenP2D=    9913.
 LDataN:  DoStor=T MaxTD1= 5 Len=  102
 D1PCM: PCM CHGder 1st derivatives, ID1Alg=3 FixD1E=F DoIter=F DoCFld=F I1PDM=0.
 Calling FoFJK, ICntrl=      2127 FMM=F ISym2X=0 I1Cent= 0 IOpClX= 0 NMat=1 NMatS=1 NMatT=0.
 ***** Axes restored to original set *****
 -------------------------------------------------------------------
 Center     Atomic                   Forces (Hartrees/Bohr)
 Number     Number              X              Y              Z
 -------------------------------------------------------------------
      1        6           0.000297506   -0.000176017   -0.000025621
      2        6          -0.000298197   -0.000214277    0.000071501
      3        6          -0.000050014    0.000058591    0.000058444
      4        6           0.000266244    0.000678037    0.000886803
      5        7           0.000034556    0.000237016   -0.000008048
      6        1          -0.000019525    0.000025607   -0.000029660
      7        1           0.000353876    0.000173683    0.000198120
      8        1           0.000001530    0.000010534   -0.000037175
      9        1          -0.000012560    0.000046736    0.000055780
     10        1          -0.000080940    0.000015936   -0.000095094
     11        1          -0.000468747   -0.000696600   -0.001021752
     12        9          -0.000154540   -0.000064909   -0.000260880
     13        6          -0.000023072    0.000010623    0.000114448
     14        1          -0.000001539   -0.000000916    0.000015583
     15        1           0.000031772   -0.000048304    0.000049507
     16        1           0.000097939   -0.000025768   -0.000043049
     17        6          -0.000026793   -0.000052915   -0.000010565
     18        1           0.000021555    0.000003843    0.000029498
     19        1          -0.000010040   -0.000017854   -0.000033480
     20        1           0.000040989    0.000036954    0.000085640
 -------------------------------------------------------------------
 Cartesian Forces:  Max     0.001021752 RMS     0.000250239

 GradGradGradGradGradGradGradGradGradGradGradGradGradGradGradGradGradGrad
 Berny optimization.
 FormGI is forming the generalized inverse of G from B-inverse, IUseBI=4.
 Internal  Forces:  Max     0.001842103 RMS     0.000404506
 Search for a saddle point.
 Step number   2 out of a maximum of   50
 All quantities printed in internal units (Hartrees-Bohrs-Radians)
 Swapping is turned off.
 Update second derivatives using D2CorX and points    1    2
 ITU=  0  0
     Eigenvalues ---   -0.00019   0.00096   0.00153   0.00174   0.00757
     Eigenvalues ---    0.00917   0.02033   0.02948   0.03060   0.03179
     Eigenvalues ---    0.03729   0.04447   0.05487   0.06448   0.06514
     Eigenvalues ---    0.06779   0.06970   0.07292   0.07626   0.11643
     Eigenvalues ---    0.13172   0.13612   0.14229   0.14747   0.15095
     Eigenvalues ---    0.16096   0.16394   0.17355   0.18910   0.19528
     Eigenvalues ---    0.20048   0.22059   0.24102   0.25067   0.29226
     Eigenvalues ---    0.30121   0.31739   0.33644   0.34172   0.34655
     Eigenvalues ---    0.34795   0.35394   0.35706   0.35855   0.36550
     Eigenvalues ---    0.36605   0.37063   0.37087   0.37835   0.44385
     Eigenvalues ---    0.44962   0.61662   0.71346   0.79393
 Eigenvectors required to have negative eigenvalues:
                          D15       D17       D16       D18       R13
   1                    0.33703   0.33466   0.32760   0.32523  -0.27170
                          A16       D22       D21       D29       D10
   1                    0.26495  -0.25440  -0.25278   0.20027   0.19133
 RFO step:  Lambda0=2.402836279D-05 Lambda=-3.04607388D-04.
 Linear search not attempted -- option 19 set.
 Maximum step size (   0.100) exceeded in Quadratic search.
    -- Step size scaled by   0.446
 Iteration  1 RMS(Cart)=  0.03449149 RMS(Int)=  0.00109667
 Iteration  2 RMS(Cart)=  0.00223951 RMS(Int)=  0.00000222
 Iteration  3 RMS(Cart)=  0.00000295 RMS(Int)=  0.00000138
 Iteration  4 RMS(Cart)=  0.00000000 RMS(Int)=  0.00000138
 Variable       Old X    -DE/DX   Delta X   Delta X   Delta X     New X
                                 (Linear)    (Quad)   (Total)
    R1        2.42186   0.00026   0.00000   0.00035   0.00035   2.42221
    R2        2.06695   0.00006   0.00000   0.00000   0.00000   2.06695
    R3        2.81511   0.00008   0.00000   0.00015   0.00015   2.81527
    R4        2.50194  -0.00002   0.00000   0.00003   0.00003   2.50197
    R5        2.06633  -0.00001   0.00000  -0.00006  -0.00006   2.06627
    R6        2.54207  -0.00007   0.00000  -0.00088  -0.00088   2.54119
    R7        2.80593  -0.00001   0.00000  -0.00196  -0.00196   2.80397
    R8        2.10118  -0.00033   0.00000   0.00123   0.00123   2.10241
    R9        2.09914   0.00004   0.00000  -0.00087  -0.00087   2.09827
   R10        2.06165   0.00000   0.00000  -0.00010  -0.00010   2.06155
   R11        2.07564  -0.00040   0.00000  -0.00101  -0.00101   2.07463
   R12        2.76140   0.00006   0.00000   0.00029   0.00029   2.76170
   R13        4.35354  -0.00025   0.00000  -0.07661  -0.07661   4.27693
   R14        2.07092  -0.00001   0.00000   0.00002   0.00002   2.07094
   R15        2.07989   0.00007   0.00000  -0.00061  -0.00061   2.07928
   R16        2.08123  -0.00010   0.00000   0.00053   0.00053   2.08176
   R17        2.07300  -0.00001   0.00000  -0.00010  -0.00010   2.07290
   R18        2.07415   0.00002   0.00000   0.00017   0.00017   2.07432
   R19        2.07533   0.00009   0.00000   0.00006   0.00006   2.07539
    A1        1.96982   0.00000   0.00000   0.00046   0.00046   1.97027
    A2        2.20082  -0.00001   0.00000  -0.00068  -0.00068   2.20014
    A3        2.11231   0.00000   0.00000   0.00024   0.00024   2.11255
    A4        2.20064   0.00008   0.00000  -0.00109  -0.00109   2.19955
    A5        2.13576  -0.00022   0.00000   0.00075   0.00075   2.13651
    A6        1.94678   0.00015   0.00000   0.00034   0.00034   1.94712
    A7        1.79383  -0.00119   0.00000   0.00371   0.00371   1.79754
    A8        1.81520   0.00060   0.00000   0.00148   0.00148   1.81668
    A9        1.80730   0.00025   0.00000  -0.00020  -0.00020   1.80709
   A10        2.06499   0.00033   0.00000   0.00006   0.00006   2.06505
   A11        2.13443  -0.00056   0.00000   0.00098   0.00098   2.13541
   A12        2.08376   0.00023   0.00000  -0.00104  -0.00104   2.08272
   A13        2.07913  -0.00002   0.00000   0.00038   0.00038   2.07950
   A14        2.12132  -0.00011   0.00000  -0.00165  -0.00165   2.11967
   A15        2.08077   0.00012   0.00000   0.00111   0.00111   2.08188
   A16        1.52244  -0.00128   0.00000   0.04829   0.04829   1.57073
   A17        2.54846  -0.00184   0.00000  -0.03677  -0.03677   2.51169
   A18        1.92002  -0.00003   0.00000  -0.00043  -0.00043   1.91959
   A19        1.92373   0.00004   0.00000   0.00380   0.00380   1.92754
   A20        1.94564   0.00008   0.00000  -0.00324  -0.00324   1.94241
   A21        1.89713  -0.00003   0.00000   0.00081   0.00081   1.89795
   A22        1.89155  -0.00004   0.00000  -0.00127  -0.00127   1.89028
   A23        1.88460  -0.00003   0.00000   0.00034   0.00034   1.88494
   A24        1.88303   0.00003   0.00000  -0.00070  -0.00071   1.88232
   A25        1.97512  -0.00007   0.00000  -0.00062  -0.00062   1.97449
   A26        1.88204   0.00005   0.00000   0.00117   0.00117   1.88321
   A27        1.91587   0.00000   0.00000  -0.00097  -0.00097   1.91491
   A28        1.89525  -0.00004   0.00000  -0.00015  -0.00015   1.89511
   A29        1.91068   0.00001   0.00000   0.00129   0.00129   1.91197
    D1       -0.06621  -0.00020   0.00000  -0.01614  -0.01614  -0.08236
    D2       -3.13979  -0.00003   0.00000  -0.01354  -0.01354   3.12986
    D3        3.05181  -0.00023   0.00000  -0.01518  -0.01518   3.03663
    D4       -0.02177  -0.00007   0.00000  -0.01258  -0.01258  -0.03434
    D5       -3.10412   0.00003   0.00000   0.03582   0.03582  -3.06830
    D6       -1.01236   0.00001   0.00000   0.03896   0.03896  -0.97340
    D7        1.08022   0.00006   0.00000   0.03981   0.03980   1.12003
    D8        0.01213  -0.00001   0.00000   0.03685   0.03685   0.04899
    D9        2.10389  -0.00003   0.00000   0.03999   0.03999   2.14389
   D10       -2.08671   0.00002   0.00000   0.04084   0.04084  -2.04587
   D11       -0.00116   0.00018   0.00000   0.00142   0.00142   0.00026
   D12       -3.13784  -0.00020   0.00000   0.00004   0.00004  -3.13780
   D13       -3.13744   0.00048   0.00000   0.00125   0.00125  -3.13619
   D14        0.00906   0.00009   0.00000  -0.00013  -0.00013   0.00893
   D15       -2.12017   0.00025   0.00000   0.07466   0.07466  -2.04551
   D16        0.95501   0.00009   0.00000   0.07201   0.07201   1.02701
   D17        2.28314   0.00019   0.00000   0.07316   0.07316   2.35631
   D18       -0.92486   0.00002   0.00000   0.07051   0.07051  -0.85436
   D19        1.42700  -0.00084   0.00000  -0.02257  -0.02257   1.40443
   D20       -2.97031  -0.00050   0.00000  -0.01983  -0.01983  -2.99014
   D21        0.32494   0.00104   0.00000   0.04533   0.04533   0.37027
   D22       -2.81170   0.00066   0.00000   0.04394   0.04394  -2.76776
   D23       -2.33882  -0.00009   0.00000  -0.00944  -0.00944  -2.34826
   D24       -0.21560  -0.00010   0.00000  -0.01156  -0.01155  -0.22716
   D25        1.90037  -0.00009   0.00000  -0.00951  -0.00951   1.89086
   D26        0.87085   0.00008   0.00000  -0.00681  -0.00681   0.86405
   D27        2.99407   0.00007   0.00000  -0.00892  -0.00892   2.98515
   D28       -1.17315   0.00008   0.00000  -0.00688  -0.00688  -1.18002
   D29       -2.20895   0.00129   0.00000  -0.04226  -0.04226  -2.25121
         Item               Value     Threshold  Converged?
 Maximum Force            0.001842     0.000450     NO 
 RMS     Force            0.000405     0.000300     NO 
 Maximum Displacement     0.149924     0.001800     NO 
 RMS     Displacement     0.034190     0.001200     NO 
 Predicted change in Energy=-1.007197D-04
 GradGradGradGradGradGradGradGradGradGradGradGradGradGradGradGradGradGrad

                          Input orientation:                          
 ---------------------------------------------------------------------
 Center     Atomic      Atomic             Coordinates (Angstroms)
 Number     Number       Type             X           Y           Z
 ---------------------------------------------------------------------
      1          6           0       -0.894469   -0.436334   -0.937097
      2          6           0        2.362861   -0.211413    0.254107
      3          6           0       -1.041267    1.908041   -0.513293
      4          6           0        2.256728    0.659496   -0.737452
      5          7           0       -1.259332    0.491026   -0.130971
      6          1           0        3.066171    0.714518   -1.466763
      7          1           0       -0.337754    2.272409    0.267772
      8          1           0        3.198059   -0.897054    0.421171
      9          1           0       -1.998352    2.408091   -0.254769
     10          1           0       -0.519670   -0.049389   -1.889021
     11          1           0        1.389374    1.323786   -0.845544
     12          9           0        1.411992   -0.352452    1.194469
     13          6           0       -0.922822   -1.899940   -0.660537
     14          1           0       -0.483875   -2.448589   -1.501545
     15          1           0       -0.349223   -2.130163    0.249770
     16          1           0       -1.953711   -2.259315   -0.513294
     17          6           0       -1.803787    0.182642    1.189725
     18          1           0       -2.692631    0.807349    1.341217
     19          1           0       -2.069939   -0.875464    1.310077
     20          1           0       -1.049744    0.459374    1.938717
 ---------------------------------------------------------------------
                    Distance matrix (angstroms):
                    1          2          3          4          5
     1  C    0.000000
     2  C    3.475594   0.000000
     3  C    2.386893   4.082779   0.000000
     4  C    3.342266   1.323985   3.533537   0.000000
     5  N    1.281780   3.709715   1.483798   3.571957   0.000000
     6  H    4.158325   2.076870   4.382311   1.090926   4.532577
     7  H    3.016444   3.669180   1.112546   3.216100   2.044903
     8  H    4.336581   1.093420   5.168527   2.156700   4.701059
     9  H    3.126481   5.112820   1.110358   4.625610   2.058304
    10  H    1.093783   3.595585   2.448719   3.088205   1.982394
    11  H    2.884847   2.124558   2.521857   1.097847   2.867010
    12  F    3.141715   1.344739   3.747635   2.338789   3.099067
    13  C    1.489775   3.805708   3.812667   4.082421   2.471921
    14  H    2.129873   4.023826   4.501950   4.213660   3.334837
    15  H    2.138925   3.322201   4.167528   3.943067   2.800695
    16  H    2.150549   4.838967   4.266077   5.128109   2.862291
    17  C    2.394444   4.288545   2.541400   4.519866   1.461428
    18  H    3.157665   5.270454   2.716198   5.370184   2.078881
    19  H    2.573782   4.604970   3.482922   5.026781   2.144994
    20  H    3.016075   3.864420   2.847993   4.258484   2.080514
                    6          7          8          9         10
     6  H    0.000000
     7  H    4.125813   0.000000
     8  H    2.485730   4.750894   0.000000
     9  H    5.475993   1.746152   6.195446   0.000000
    10  H    3.690543   3.174208   4.458366   3.300982   0.000000
    11  H    1.889118   2.263256   3.131778   3.605748   2.572723
    12  F    3.310119   3.287898   2.021043   4.620750   3.651174
    13  C    4.837091   4.314228   4.376932   4.458760   2.257486
    14  H    4.754922   5.043774   4.434042   5.237884   2.430551
    15  H    4.764830   4.402624   3.759407   4.854887   2.988829
    16  H    5.912021   4.874209   5.410149   4.674773   2.972015
    17  C    5.572819   2.714108   5.174445   2.660271   3.343871
    18  H    6.407587   2.973909   6.200944   2.364649   3.986251
    19  H    6.051323   3.741119   5.342511   3.638076   3.649652
    20  H    5.348191   2.566337   4.710273   3.083623   3.897614
                   11         12         13         14         15
    11  H    0.000000
    12  F    2.640443   0.000000
    13  C    3.971509   3.359631   0.000000
    14  H    4.262653   3.905969   1.095894   0.000000
    15  H    4.018979   2.674807   1.100308   1.785113   0.000000
    16  H    4.911743   4.228539   1.101618   1.781258   1.781384
    17  C    3.954846   3.259998   2.921766   3.988543   2.889349
    18  H    4.659549   4.267858   3.803769   4.853971   3.913029
    19  H    4.631441   3.522890   2.499750   3.591036   2.378946
    20  H    3.801133   2.696871   3.512634   4.540029   3.170012
                   16         17         18         19         20
    16  H    0.000000
    17  C    2.980924   0.000000
    18  H    3.659186   1.096929   0.000000
    19  H    2.291994   1.097683   1.794596   0.000000
    20  H    3.771046   1.098249   1.782462   1.793817   0.000000
 Stoichiometry    C6H12FN
 Framework group  C1[X(C6H12FN)]
 Deg. of freedom    54
 Full point group                 C1      NOp   1
 Largest Abelian subgroup         C1      NOp   1
 Largest concise Abelian subgroup C1      NOp   1
                         Standard orientation:                         
 ---------------------------------------------------------------------
 Center     Atomic      Atomic             Coordinates (Angstroms)
 Number     Number       Type             X           Y           Z
 ---------------------------------------------------------------------
      1          6           0        0.872062    0.494341   -0.940169
      2          6           0       -2.369822    0.145274    0.263200
      3          6           0        1.094220   -1.851895   -0.561910
      4          6           0       -2.242286   -0.702995   -0.745319
      5          7           0        1.270230   -0.436238   -0.153756
      6          1           0       -3.053777   -0.769487   -1.471391
      7          1           0        0.406871   -2.252766    0.215658
      8          1           0       -3.224999    0.801203    0.447585
      9          1           0        2.067876   -2.326592   -0.317876
     10          1           0        0.504061    0.113936   -1.897367
     11          1           0       -1.355297   -1.337697   -0.870502
     12          9           0       -1.418448    0.298155    1.201197
     13          6           0        0.856400    1.952628   -0.635896
     14          1           0        0.395780    2.503093   -1.464028
     15          1           0        0.281121    2.147568    0.281563
     16          1           0        1.876421    2.341192   -0.487109
     17          6           0        1.812357   -0.136011    1.169775
     18          1           0        2.721076   -0.735393    1.304770
     19          1           0        2.046110    0.927430    1.308920
     20          1           0        1.071591   -0.450277    1.917206
 ---------------------------------------------------------------------
 Rotational constants (GHZ):           2.3060256           1.2943993           1.1587452
 Standard basis: def2SVP (5D, 7F)
 There are   180 symmetry adapted cartesian basis functions of A   symmetry.
 There are   172 symmetry adapted basis functions of A   symmetry.
   172 basis functions,   284 primitive gaussians,   180 cartesian basis functions
    32 alpha electrons       32 beta electrons
       nuclear repulsion energy       385.1119630900 Hartrees.
 NAtoms=   20 NActive=   20 NUniq=   20 SFac= 1.00D+00 NAtFMM=   60 NAOKFM=F Big=F
 Integral buffers will be    131072 words long.
 Raffenetti 2 integral format.
 Two-electron integral symmetry is turned on.
 Nuclear repulsion after empirical dispersion term =      385.0995107038 Hartrees.
 ------------------------------------------------------------------------------
 Polarizable Continuum Model (PCM)
 =================================
 Model                : PCM.
 Atomic radii         : UFF (Universal Force Field).
 Polarization charges : Total charges.
 Charge compensation  : None.
 Solution method      : On-the-fly selection.
 Cavity type          : Scaled VdW (van der Waals Surface) (Alpha=1.100).
 Cavity algorithm     : GePol (No added spheres)
                        Default sphere list used, NSphG=   20.
                        Lebedev-Laikov grids with approx.  5.0 points / Ang**2.
                        Smoothing algorithm: York/Karplus (Gamma=1.0000).
                        Polarization charges: spherical gaussians, with
                                              point-specific exponents (IZeta= 3).
                        Self-potential: point-specific (ISelfS= 7).
                        Self-field    : sphere-specific E.n sum rule (ISelfD= 2).
 1st derivatives      : Analytical E(r).r(x)/FMM algorithm (CHGder, D1EAlg=3).
                        Cavity 1st derivative terms included.
 Solvent              : Toluene, Eps=   2.374100 Eps(inf)=   2.238315
 ------------------------------------------------------------------------------
 Spheres list:
 ISph  on   Nord     Re0    Alpha      Xe            Ye            Ze
    1   C      1    1.9255  1.100      0.872062      0.494341     -0.940169
    2   C      2    1.9255  1.100     -2.369822      0.145274      0.263200
    3   C      3    1.9255  1.100      1.094220     -1.851895     -0.561910
    4   C      4    1.9255  1.100     -2.242286     -0.702995     -0.745319
[...]
      7          1           0       -0.338146    2.254235    0.290095
      8          1           0        3.282762   -0.773052    0.490046
      9          1           0       -1.965713    2.393480   -0.331613
     10          1           0       -0.535165   -0.092009   -1.897582
     11          1           0        1.356541    1.282972   -0.886148
     12          9           0        1.389707   -0.448086    1.117562
     13          6           0       -0.998611   -1.927540   -0.669536
     14          1           0       -0.638200   -2.491722   -1.537157
     15          1           0       -0.374024   -2.182502    0.200251
     16          1           0       -2.030427   -2.245067   -0.452907
     17          6           0       -1.776237    0.185436    1.195574
     18          1           0       -2.639067    0.841044    1.365195
     19          1           0       -2.075086   -0.862900    1.323448
     20          1           0       -0.996439    0.435330    1.927702
 ---------------------------------------------------------------------
                    Distance matrix (angstroms):
                    1          2          3          4          5
     1  C    0.000000
     2  C    3.540516   0.000000
     3  C    2.388541   4.047268   0.000000
     4  C    3.415673   1.323869   3.485559   0.000000
     5  N    1.281793   3.721258   1.484949   3.580422   0.000000
     6  H    4.294470   2.074226   4.340605   1.091180   4.572302
     7  H    3.043048   3.657470   1.112248   3.199927   2.043934
     8  H    4.451858   1.093416   5.139766   2.157006   4.740077
     9  H    3.105169   5.096354   1.110771   4.582019   2.058951
    10  H    1.094092   3.642191   2.450124   3.156226   1.982781
    11  H    2.871561   2.128650   2.456389   1.099606   2.828059
    12  F    3.096483   1.346072   3.720478   2.340833   3.061844
    13  C    1.489555   3.931134   3.814994   4.206320   2.472567
    14  H    2.129896   4.219634   4.506154   4.408169   3.336127
    15  H    2.134503   3.419787   4.178339   4.028779   2.816373
    16  H    2.154006   4.937242   4.257634   5.230808   2.847186
    17  C    2.394720   4.288961   2.541097   4.511836   1.461299
    18  H    3.161329   5.252260   2.712885   5.340166   2.079564
    19  H    2.575468   4.644620   3.482871   5.056778   2.145098
    20  H    3.010843   3.826358   2.849666   4.215714   2.079023
                    6          7          8          9         10
     6  H    0.000000
     7  H    4.091343   0.000000
     8  H    2.482192   4.723921   0.000000
     9  H    5.425955   1.747822   6.184540   0.000000
    10  H    3.835584   3.213971   4.554245   3.267473   0.000000
    11  H    1.890749   2.280102   3.135518   3.546563   2.547964
    12  F    3.310299   3.312510   2.020652   4.629627   3.594859
    13  C    5.043250   4.341008   4.583408   4.440798   2.256558
    14  H    5.060224   5.094408   4.736805   5.203924   2.428816
    15  H    4.910450   4.437793   3.929709   4.874010   2.965979
    16  H    6.104374   4.864113   5.593386   4.640584   2.993084
    17  C    5.583951   2.677299   5.197108   2.691405   3.344375
    18  H    6.390206   2.906404   6.199939   2.396376   3.992831
    19  H    6.116803   3.715012   5.423022   3.654477   3.652487
    20  H    5.303431   2.534467   4.673179   3.142983   3.888914
                   11         12         13         14         15
    11  H    0.000000
    12  F    2.648115   0.000000
    13  C    3.987612   3.329650   0.000000
    14  H    4.318694   3.916171   1.095885   0.000000
    15  H    4.023012   2.638259   1.100747   1.784374   0.000000
    16  H    4.909818   4.170472   1.101088   1.781778   1.781629
    17  C    3.918220   3.229650   2.923697   3.991255   2.926432
    18  H    4.607464   4.237239   3.807398   4.851231   3.953397
    19  H    4.611198   3.495605   2.502847   3.591763   2.428279
    20  H    3.764673   2.670290   3.511239   4.549859   3.197583
                   16         17         18         19         20
    16  H    0.000000
    17  C    2.947787   0.000000
    18  H    3.633183   1.096845   0.000000
    19  H    2.251181   1.097575   1.795339   0.000000
    20  H    3.731080   1.098427   1.783043   1.792764   0.000000
 Stoichiometry    C6H12FN
 Framework group  C1[X(C6H12FN)]
 Deg. of freedom    54
 Full point group                 C1      NOp   1
 Largest Abelian subgroup         C1      NOp   1
 Largest concise Abelian subgroup C1      NOp   1
                         Standard orientation:                         
 ---------------------------------------------------------------------
 Center     Atomic      Atomic             Coordinates (Angstroms)
 Number     Number       Type             X           Y           Z
 ---------------------------------------------------------------------
      1          6           0        0.923433    0.458250   -0.940478
      2          6           0       -2.395533    0.199295    0.264787
      3          6           0        0.976632   -1.893753   -0.527703
      4          6           0       -2.287287   -0.685001   -0.714464
      5          7           0        1.240193   -0.486395   -0.134064
      6          1           0       -3.148888   -0.836779   -1.366599
      7          1           0        0.312878   -2.258573    0.286811
      8          1           0       -3.277704    0.804330    0.491207
      9          1           0        1.939468   -2.412618   -0.333959
     10          1           0        0.535132    0.090810   -1.895071
     11          1           0       -1.371056   -1.267577   -0.888418
     12          9           0       -1.388502    0.458925    1.119417
     13          6           0        1.015943    1.918664   -0.662260
     14          1           0        0.661895    2.488502   -1.528805
     15          1           0        0.393240    2.177786    0.207649
     16          1           0        2.050711    2.225326   -0.444065
     17          6           0        1.770878   -0.206449    1.198377
     18          1           0        2.626965   -0.871067    1.367096
     19          1           0        2.080104    0.838534    1.329001
     20          1           0        0.988029   -0.450274    1.929294
 ---------------------------------------------------------------------
 Rotational constants (GHZ):           2.3075469           1.2978746           1.1452287

 **********************************************************************

            Population analysis using the SCF Density.

 **********************************************************************

 Orbital symmetries:
       Occupied  (A) (A) (A) (A) (A) (A) (A) (A) (A) (A) (A) (A)
                 (A) (A) (A) (A) (A) (A) (A) (A) (A) (A) (A) (A)
                 (A) (A) (A) (A) (A) (A) (A) (A)
       Virtual   (A) (A) (A) (A) (A) (A) (A) (A) (A) (A) (A) (A)
                 (A) (A) (A) (A) (A) (A) (A) (A) (A) (A) (A) (A)
                 (A) (A) (A) (A) (A) (A) (A) (A) (A) (A) (A) (A)
                 (A) (A) (A) (A) (A) (A) (A) (A) (A) (A) (A) (A)
                 (A) (A) (A) (A) (A) (A) (A) (A) (A) (A) (A) (A)
                 (A) (A) (A) (A) (A) (A) (A) (A) (A) (A) (A) (A)
                 (A) (A) (A) (A) (A) (A) (A) (A) (A) (A) (A) (A)
                 (A) (A) (A) (A) (A) (A) (A) (A) (A) (A) (A) (A)
                 (A) (A) (A) (A) (A) (A) (A) (A) (A) (A) (A) (A)
                 (A) (A) (A) (A) (A) (A) (A) (A) (A) (A) (A) (A)
                 (A) (A) (A) (A) (A) (A) (A) (A) (A) (A) (A) (A)
                 (A) (A) (A) (A) (A) (A) (A) (A)
 The electronic state is 1-A.
 Alpha  occ. eigenvalues --  -24.82785 -14.52797 -10.37909 -10.37702 -10.34000
 Alpha  occ. eigenvalues --  -10.32438 -10.29225 -10.23170  -1.31074  -1.08262
 Alpha  occ. eigenvalues --   -0.87366  -0.85644  -0.82209  -0.74816  -0.69453
 Alpha  occ. eigenvalues --   -0.65607  -0.61754  -0.58437  -0.57670  -0.56363
 Alpha  occ. eigenvalues --   -0.56199  -0.55562  -0.51703  -0.49765  -0.48712
 Alpha  occ. eigenvalues --   -0.48441  -0.46088  -0.45170  -0.44299  -0.37055
 Alpha  occ. eigenvalues --   -0.34609  -0.22341
 Alpha virt. eigenvalues --    0.02601   0.09009   0.13262   0.16437   0.16691
 Alpha virt. eigenvalues --    0.17040   0.19362   0.20794   0.21179   0.21586
 Alpha virt. eigenvalues --    0.22624   0.22912   0.24365   0.25106   0.27206
 Alpha virt. eigenvalues --    0.28948   0.32328   0.36034   0.37478   0.41356
 Alpha virt. eigenvalues --    0.44216   0.48875   0.48882   0.51134   0.53634
 Alpha virt. eigenvalues --    0.54841   0.55843   0.56974   0.58500   0.59906
 Alpha virt. eigenvalues --    0.61947   0.65426   0.66630   0.67970   0.69422
 Alpha virt. eigenvalues --    0.71095   0.71678   0.72159   0.72962   0.74282
 Alpha virt. eigenvalues --    0.74859   0.75000   0.75379   0.76496   0.76721
 Alpha virt. eigenvalues --    0.77663   0.80106   0.82147   0.83467   0.84383
 Alpha virt. eigenvalues --    0.88471   0.88710   0.91741   0.92129   1.00310
 Alpha virt. eigenvalues --    1.08427   1.11063   1.15052   1.19209   1.20737
 Alpha virt. eigenvalues --    1.27922   1.28141   1.30716   1.32779   1.33743
 Alpha virt. eigenvalues --    1.36107   1.39725   1.46058   1.49163   1.55167
 Alpha virt. eigenvalues --    1.59000   1.59656   1.60423   1.61824   1.64839
 Alpha virt. eigenvalues --    1.66954   1.68411   1.71484   1.73681   1.76469
 Alpha virt. eigenvalues --    1.77569   1.79571   1.81604   1.82646   1.84933
 Alpha virt. eigenvalues --    1.85227   1.85504   1.88299   1.91245   1.91684
 Alpha virt. eigenvalues --    1.93100   1.96491   1.97550   1.98393   2.02672
 Alpha virt. eigenvalues --    2.04530   2.05143   2.05589   2.10416   2.13687
 Alpha virt. eigenvalues --    2.17333   2.18299   2.18575   2.21403   2.24061
 Alpha virt. eigenvalues --    2.31820   2.34486   2.35624   2.38055   2.40209
 Alpha virt. eigenvalues --    2.41888   2.49956   2.51755   2.52351   2.55012
 Alpha virt. eigenvalues --    2.58117   2.63203   2.72237   2.73716   2.76716
 Alpha virt. eigenvalues --    2.78916   2.81521   2.84347   2.88205   2.91705
 Alpha virt. eigenvalues --    2.94357   2.98840   3.01742   3.02465   3.05640
 Alpha virt. eigenvalues --    3.08106   3.10348   3.14707   3.17346   3.29379
 Alpha virt. eigenvalues --    3.31487   3.39555   3.44920   3.61268   3.94561
          Condensed to atoms (all electrons):
               1          2          3          4          5          6
     1  C    4.922893  -0.000984  -0.090098   0.007564   0.539428  -0.000026
     2  C   -0.000984   4.545371  -0.000167   0.611092  -0.000848  -0.005775
     3  C   -0.090098  -0.000167   5.349362  -0.031788   0.264207   0.000241
     4  C    0.007564   0.611092  -0.031788   5.002915   0.000283   0.370473
     5  N    0.539428  -0.000848   0.264207   0.000283   6.285788   0.000057
     6  H   -0.000026  -0.005775   0.000241   0.370473   0.000057   0.591405
     7  H   -0.000040  -0.000114   0.363469   0.002744  -0.033861   0.000108
     8  H    0.000274   0.421856  -0.000048  -0.061821  -0.000029  -0.006867
     9  H    0.004249   0.000009   0.358737   0.000791  -0.031872  -0.000008
    10  H    0.383956  -0.000288   0.032403  -0.004012  -0.026540   0.000117
    11  H   -0.010794  -0.013949   0.079222   0.319683  -0.003099  -0.023061
    12  F    0.009873   0.295208  -0.000878  -0.059385  -0.002403   0.002615
    13  C    0.299538   0.001247   0.010999  -0.001281  -0.042365   0.000012
    14  H   -0.008802   0.000137  -0.000244   0.000200   0.004130  -0.000003
    15  H   -0.003174  -0.001534  -0.000361  -0.000683  -0.007909  -0.000027
    16  H   -0.010481  -0.000004  -0.000212   0.000012  -0.004748   0.000000
    17  C   -0.086751  -0.000023  -0.037535  -0.001108   0.307601   0.000004
    18  H    0.005761   0.000001  -0.000651   0.000020  -0.022713  -0.000000
    19  H   -0.009605  -0.000024   0.006345   0.000221  -0.013231  -0.000000
    20  H    0.000452  -0.000038  -0.001096  -0.000059  -0.022181  -0.000007
               7          8          9         10         11         12
     1  C   -0.000040   0.000274   0.004249   0.383956  -0.010794   0.009873
     2  C   -0.000114   0.421856   0.000009  -0.000288  -0.013949   0.295208
     3  C    0.363469  -0.000048   0.358737   0.032403   0.079222  -0.000878
     4  C    0.002744  -0.061821   0.000791  -0.004012   0.319683  -0.059385
     5  N   -0.033861  -0.000029  -0.031872  -0.026540  -0.003099  -0.002403
     6  H    0.000108  -0.006867  -0.000008   0.000117  -0.023061   0.002615
     7  H    0.733637   0.000029  -0.039516  -0.001560  -0.007279   0.001151
     8  H    0.000029   0.616747   0.000001  -0.000031   0.004837  -0.031046
     9  H   -0.039516   0.000001   0.743821  -0.000462  -0.002736   0.000002
    10  H   -0.001560  -0.000031  -0.000462   0.555345   0.008464  -0.000122
    11  H   -0.007279   0.004837  -0.002736   0.008464   0.572146  -0.001796
    12  F    0.001151  -0.031046   0.000002  -0.000122  -0.001796   9.005916
    13  C   -0.000969  -0.000140  -0.000850  -0.034323   0.002363  -0.006939
    14  H    0.000023   0.000004   0.000019  -0.008475  -0.000124  -0.000076
    15  H    0.000182   0.000028  -0.000015   0.002416  -0.000232   0.011956
    16  H   -0.000038   0.000001   0.000082   0.002949  -0.000009   0.000091
    17  C   -0.003392  -0.000008  -0.009260   0.009250   0.002197   0.000139
    18  H   -0.001927   0.000001   0.008797  -0.000351  -0.000086   0.000096
    19  H    0.000967   0.000001   0.000939  -0.000894  -0.000433  -0.000334
    20  H    0.005433   0.000072  -0.001524  -0.000318  -0.000062   0.006924
              13         14         15         16         17         18
     1  C    0.299538  -0.008802  -0.003174  -0.010481  -0.086751   0.005761
     2  C    0.001247   0.000137  -0.001534  -0.000004  -0.000023   0.000001
     3  C    0.010999  -0.000244  -0.000361  -0.000212  -0.037535  -0.000651
     4  C   -0.001281   0.000200  -0.000683   0.000012  -0.001108   0.000020
     5  N   -0.042365   0.004130  -0.007909  -0.004748   0.307601  -0.022713
     6  H    0.000012  -0.000003  -0.000027   0.000000   0.000004  -0.000000
     7  H   -0.000969   0.000023   0.000182  -0.000038  -0.003392  -0.001927
     8  H   -0.000140   0.000004   0.000028   0.000001  -0.000008   0.000001
     9  H   -0.000850   0.000019  -0.000015   0.000082  -0.009260   0.008797
    10  H   -0.034323  -0.008475   0.002416   0.002949   0.009250  -0.000351
    11  H    0.002363  -0.000124  -0.000232  -0.000009   0.002197  -0.000086
    12  F   -0.006939  -0.000076   0.011956   0.000091   0.000139   0.000096
    13  C    4.679541   0.387243   0.373108   0.386592   0.009287  -0.000476
    14  H    0.387243   0.577704  -0.014621  -0.014365   0.000429  -0.000014
    15  H    0.373108  -0.014621   0.564069  -0.013558  -0.000038  -0.000032
    16  H    0.386592  -0.014365  -0.013558   0.559254  -0.002154   0.000351
    17  C    0.009287   0.000429  -0.000038  -0.002154   4.605764   0.395037
    18  H   -0.000476  -0.000014  -0.000032   0.000351   0.395037   0.578358
    19  H    0.004181   0.000352  -0.000145   0.002489   0.360164  -0.018339
    20  H   -0.000495  -0.000013   0.000668  -0.000320   0.397522  -0.014973
              19         20
     1  C   -0.009605   0.000452
     2  C   -0.000024  -0.000038
     3  C    0.006345  -0.001096
     4  C    0.000221  -0.000059
     5  N   -0.013231  -0.022181
     6  H   -0.000000  -0.000007
     7  H    0.000967   0.005433
     8  H    0.000001   0.000072
     9  H    0.000939  -0.001524
    10  H   -0.000894  -0.000318
    11  H   -0.000433  -0.000062
    12  F   -0.000334   0.006924
    13  C    0.004181  -0.000495
    14  H    0.000352  -0.000013
    15  H   -0.000145   0.000668
    16  H    0.002489  -0.000320
    17  C    0.360164   0.397522
    18  H   -0.018339  -0.014973
    19  H    0.635835  -0.017997
    20  H   -0.017997   0.566723
 Mulliken charges:
               1
     1  C    0.046766
     2  C    0.148826
     3  C   -0.301906
     4  C   -0.155860
     5  N   -0.189694
     6  H    0.070742
     7  H   -0.019046
     8  H    0.056140
     9  H   -0.031201
    10  H    0.082478
    11  H    0.074745
    12  F   -0.230992
    13  C   -0.066273
    14  H    0.076496
    15  H    0.089901
    16  H    0.094067
    17  C    0.052875
    18  H    0.071143
    19  H    0.049505
    20  H    0.081289
 Sum of Mulliken charges =  -0.00000
 Mulliken charges with hydrogens summed into heavy atoms:
               1
     1  C    0.129244
     2  C    0.204966
     3  C   -0.352153
     4  C   -0.010373
     5  N   -0.189694
    12  F   -0.230992
    13  C    0.194191
    17  C    0.254813
 Electronic spatial extent (au):  <R**2>=           1205.1286
 Charge=             -0.0000 electrons
 Dipole moment (field-independent basis, Debye):
    X=              0.2823    Y=              5.8881    Z=              1.6040  Tot=              6.1092
 Quadrupole moment (field-independent basis, Debye-Ang):
   XX=            -41.7913   YY=            -56.7094   ZZ=            -50.8906
   XY=              3.7482   XZ=              4.0335   YZ=             -6.6454
 Traceless Quadrupole moment (field-independent basis, Debye-Ang):
   XX=              8.0058   YY=             -6.9124   ZZ=             -1.0935
   XY=              3.7482   XZ=              4.0335   YZ=             -6.6454
 Octapole moment (field-independent basis, Debye-Ang**2):
  XXX=            -19.9353  YYY=             39.3089  ZZZ=             13.7465  XYY=             -5.5018
  XXY=             12.6905  XXZ=              6.8389  XZZ=             -2.2237  YZZ=             12.3932
  YYZ=             13.5919  XYZ=             -8.5644
 Hexadecapole moment (field-independent basis, Debye-Ang**3):
 XXXX=           -772.2666 YYYY=           -506.4892 ZZZZ=           -266.9079 XXXY=            -10.9995
 XXXZ=              9.2348 YYYX=             18.7171 YYYZ=            -32.1518 ZZZX=             -0.2318
 ZZZY=            -18.8441 XXYY=           -220.7747 XXZZ=           -182.8019 YYZZ=           -137.0146
 XXYZ=              2.0509 YYXZ=              5.6279 ZZXY=              9.6076
 N-N= 3.849280949791D+02 E-N=-1.678278110994D+03  KE= 3.859528372683D+02
 Unable to Open any file for archive entry.
 1\1\GINC-NODE-006\FTS\RwB97XD\def2SVP\C6H12F1N1\JP2658\22-Dec-2023\0\\
 # wb97xd def2svp geom=allchk scrf=(iefpcm,solvent=toluene) opt=(readfc
 ,ts,noeigen,maxcycles=50,maxstep=10)\\allylic-1_1_opt_hf.out\\0,1\C,-0
 .9205109499,-0.4656081853,-0.9441830751\C,2.3947540706,-0.176336666,0.
 2643662327\C,-0.9975784835,1.8847460561,-0.5258236292\C,2.27842345,0.7
 091808059,-0.7128524236\N,-1.247343063,0.4738790431,-0.1357661584\H,3.
 1389699431,0.8711407915,-1.3639297739\H,-0.3381462346,2.2542354714,0.2
 900948032\H,3.2827618065,-0.7730522949,0.490046491\H,-1.965712988,2.39
 34801105,-0.3316127134\H,-0.535164553,-0.0920089358,-1.8975815636\H,1.
 3565411744,1.2829715255,-0.8861482553\F,1.3897074136,-0.4480858685,1.1
 17561906\C,-0.9986114345,-1.927539703,-0.6695361027\H,-0.6382003212,-2
 .4917223339,-1.5371569295\H,-0.3740235315,-2.1825024657,0.2002505406\H
 ,-2.0304271873,-2.2450672918,-0.4529072735\C,-1.7762366624,0.185435945
 1,1.1955737732\H,-2.6390666645,0.8410440846,1.3651946071\H,-2.07508634
 53,-0.8629002416,1.3234479161\H,-0.9964394395,0.4353301528,1.927701628
 1\\Version=ES64L-G16RevC.01\State=1-A\HF=-389.8994874\RMSD=6.479e-09\R
 MSF=4.785e-06\Dipole=-0.088375,-2.3190722,0.6254215\Quadrupole=5.89996
 63,-5.1058217,-0.7941446,2.9006306,-3.0359441,4.9023786\PG=C01 [X(C6H1
 2F1N1)]\\@
 The archive entry for this job was punched.


 ASKING DUMB QUESTIONS IS EASIER THAN CORECTING DUMB MISTAKES.
 Job cpu time:       0 days  0 hours 23 minutes 45.6 seconds.
 Elapsed time:       0 days  0 hours  2 minutes  1.7 seconds.
 File lengths (MBytes):  RWF=     66 Int=      0 D2E=      0 Chk=      8 Scr=      1
 Normal termination of Gaussian 16 at Fri Dec 22 23:22:23 2023.
