Unloading slurm/anatra/current
  ERROR: No such file or directory on
    '/cm/local/modulefiles/slurm/anatra/current'
environment: line 0: unalias: gv: not found
environment: line 0: unalias: sl: not found
 Entering Gaussian System, Link 0=g16
 Initial command:
 /apps/gaussian/g16/C.01/g16/l1.exe "/local/jobs/1152746/Gau-2237599.inp" -scrdir="/local/jobs/1152746/"
 Entering Link 1 = /apps/gaussian/g16/C.01/g16/l1.exe PID=   2237602.
  
 Copyright (c) 1988-2019, Gaussian, Inc.  All Rights Reserved.
  
 This is part of the Gaussian(R) 16 program.  It is based on
 the Gaussian(R) 09 system (copyright 2009, Gaussian, Inc.),
 the Gaussian(R) 03 system (copyright 2003, Gaussian, Inc.),
 the Gaussian(R) 98 system (copyright 1998, Gaussian, Inc.),
 the Gaussian(R) 94 system (copyright 1995, Gaussian, Inc.),
 the Gaussian 92(TM) system (copyright 1992, Gaussian, Inc.),
 the Gaussian 90(TM) system (copyright 1990, Gaussian, Inc.),
 the Gaussian 88(TM) system (copyright 1988, Gaussian, Inc.),
 the Gaussian 86(TM) system (copyright 1986, Carnegie Mellon
 University), and the Gaussian 82(TM) system (copyright 1983,
 Carnegie Mellon University). Gaussian is a federally registered
 trademark of Gaussian, Inc.
  
 This software contains proprietary and confidential information,
 including trade secrets, belonging to Gaussian, Inc.
  
 This software is provided under written license and may be
 used, copied, transmitted, or stored only in accord with that
 written license.
  
 The following legend is applicable only to US Government
 contracts under FAR:
  
                    RESTRICTED RIGHTS LEGEND
  
 Use, reproduction and disclosure by the US Government is
 subject to restrictions as set forth in subparagraphs (a)
 and (c) of the Commercial Computer Software - Restricted
 Rights clause in FAR 52.227-19.
  
 Gaussian, Inc.
 340 Quinnipiac St., Bldg. 40, Wallingford CT 06492
  
  
 ---------------------------------------------------------------
 Warning -- This program may not be used in any manner that
 competes with the business of Gaussian, Inc. or will provide
 assistance to any competitor of Gaussian, Inc.  The licensee
 of this program is prohibited from giving any competitor of
 Gaussian, Inc. access to this program.  By using this program,
 the user acknowledges that Gaussian, Inc. is engaged in the
 business of creating and licensing software in the field of
 computational chemistry and represents and warrants to the
 licensee that it is not a competitor of Gaussian, Inc. and that
 it will not use this program in any manner prohibited above.
 ---------------------------------------------------------------
  

 Cite this work as:
 Gaussian 16, Revision C.01,
 M. J. Frisch, G. W. Trucks, H. B. Schlegel, G. E. Scuseria, 
 M. A. Robb, J. R. Cheeseman, G. Scalmani, V. Barone, 
 G. A. Petersson, H. Nakatsuji, X. Li, M. Caricato, A. V. Marenich, 
 J. Bloino, B. G. Janesko, R. Gomperts, B. Mennucci, H. P. Hratchian, 
 J. V. Ortiz, A. F. Izmaylov, J. L. Sonnenberg, D. Williams-Young, 
 F. Ding, F. Lipparini, F. Egidi, J. Goings, B. Peng, A. Petrone, 
 T. Henderson, D. Ranasinghe, V. G. Zakrzewski, J. Gao, N. Rega, 
 G. Zheng, W. Liang, M. Hada, M. Ehara, K. Toyota, R. Fukuda, 
 J. Hasegawa, M. Ishida, T. Nakajima, Y. Honda, O. Kitao, H. Nakai, 
 T. Vreven, K. Throssell, J. A. Montgomery, Jr., J. E. Peralta, 
 F. Ogliaro, M. J. Bearpark, J. J. Heyd, E. N. Brothers, K. N. Kudin, 
 V. N. Staroverov, T. A. Keith, R. Kobayashi, J. Normand, 
 K. Raghavachari, A. P. Rendell, J. C. Burant, S. S. Iyengar, 
 J. Tomasi, M. Cossi, J. M. Millam, M. Klene, C. Adamo, R. Cammi, 
 J. W. Ochterski, R. L. Martin, K. Morokuma, O. Farkas, 
 J. B. Foresman, and D. J. Fox, Gaussian, Inc., Wallingford CT, 2019.
 
 ******************************************
 Gaussian 16:  ES64L-G16RevC.01  3-Jul-2019
                22-Dec-2023 
 ******************************************
 %chk=allylic-1_1_hf.chk
 %nprocshared=12
 Will use up to   12 processors via shared memory.
 %mem=48GB
 ----------------------------------------------------------------------
 # wb97xd def2svp geom=allchk scrf=(iefpcm,solvent=toluene) opt=(readfc
 ,ts,noeigen,maxcycles=50,maxstep=10)
 ----------------------------------------------------------------------
 1/5=1,6=50,8=10,10=3,11=1,18=20,26=3,29=7,38=1/1,3;
 2/9=110,12=2,40=1/2;
 3/5=43,7=101,11=2,14=-4,25=1,30=1,70=2201,71=1,72=13,74=-58/1,2,3;
 4//1;
 5/5=2,38=5,53=13/2;
 6/7=2,8=2,9=2,10=2,28=1/1;
 7//1,2,3,16;
 1/5=1,6=50,8=10,11=1,18=20,26=3/3(2);
 2/9=110/2;
 99//99;
 2/9=110/2;
 3/5=43,7=101,11=2,14=-2,25=1,30=1,70=2205,71=1,72=13,74=-58/1,2,3;
 4/5=5,16=3,69=1/1;
 5/5=2,38=5,53=13/2;
 7//1,2,3,16;
 1/5=1,6=50,8=10,11=1,18=20,26=3/3(-5);
 2/9=110/2;
 6/7=2,8=2,9=2,10=2,19=2,28=1/1;
 99/9=1/99;
 Structure from the checkpoint file:  "allylic-1_1_hf.chk"
 ---------------------
 allyl_ts_46_reopt.out
 ---------------------
 Charge =  0 Multiplicity = 1
 Redundant internal coordinates found in file.  (old form).
 C,0,1.4105939822,0.0367452865,0.630784001
 C,0,-2.0449358359,-0.5760107331,1.0389886698
 C,0,0.6924481688,2.1579377178,-0.1980812434
 C,0,-1.790852226,0.5604357744,1.6688972019
 N,0,1.1304612307,0.7522581686,-0.3948898816
 H,0,-2.3067553877,0.7515325358,2.6112164709
 H,0,-0.3053818249,2.1754907027,-0.6889467551
 H,0,-2.7333095488,-1.3569667042,1.3733849497
 H,0,1.3359387606,2.7387908691,-0.8927395348
 H,0,1.3473756764,0.5958262448,1.5690044272
 H,0,-1.0891794653,1.3113023243,1.2785010047
 F,0,-1.4558009691,-0.9047574576,-0.1256454272
 C,0,1.7594812139,-1.4113265179,0.6240337729
 H,0,1.9396804171,-1.7581369628,1.6478705358
 H,0,0.9321781725,-1.9968295595,0.1945901171
 H,0,2.6628067431,-1.6084888399,0.0262432589
 C,0,1.1463322083,0.1925772396,-1.7446603833
 H,0,1.669764022,0.9016390963,-2.3976802874
 H,0,1.6311873237,-0.7905644169,-1.7990381985
 H,0,0.1053673384,0.1062452321,-2.0843326985
 Recover connectivity data from disk.

 GradGradGradGradGradGradGradGradGradGradGradGradGradGradGradGradGradGrad
 Berny optimization.
 Initialization pass.
 Force constant matrix read from checkpoint file:
 "allylic-1_1_hf.chk"
                           ----------------------------
                           !    Initial Parameters    !
                           ! (Angstroms and Degrees)  !
 --------------------------                            --------------------------
 ! Name  Definition              Value          Derivative Info.                !
 --------------------------------------------------------------------------------
 ! R1    R(1,5)                  1.2816         D2E/DX2 =    0.5253             !
 ! R2    R(1,10)                 1.094          D2E/DX2 =    0.3947             !
 ! R3    R(1,13)                 1.4895         D2E/DX2 =    0.2954             !
 ! R4    R(2,4)                  1.324          D2E/DX2 =    0.6436             !
 ! R5    R(2,8)                  1.0934         D2E/DX2 =    0.3852             !
 ! R6    R(2,12)                 1.3459         D2E/DX2 =    0.4766             !
 ! R7    R(3,5)                  1.4854         D2E/DX2 =    0.2977             !
 ! R8    R(3,7)                  1.1122         D2E/DX2 =    0.3611             !
 ! R9    R(3,9)                  1.1109         D2E/DX2 =    0.3512             !
 ! R10   R(4,6)                  1.0912         D2E/DX2 =    0.3881             !
 ! R11   R(4,11)                 1.0993         D2E/DX2 =    0.4012             !
 ! R12   R(5,17)                 1.4613         D2E/DX2 =    0.3558             !
 ! R13   R(7,11)                 2.2874         D2E/DX2 =    0.0114             !
 ! R14   R(13,14)                1.0959         D2E/DX2 =    0.3653             !
 ! R15   R(13,15)                1.1008         D2E/DX2 =    0.3653             !
 ! R16   R(13,16)                1.101          D2E/DX2 =    0.3642             !
 ! R17   R(17,18)                1.0969         D2E/DX2 =    0.3666             !
 ! R18   R(17,19)                1.0975         D2E/DX2 =    0.3607             !
 ! R19   R(17,20)                1.0984         D2E/DX2 =    0.3597             !
 ! A1    A(5,1,10)             112.8557         D2E/DX2 =    0.1097             !
 ! A2    A(5,1,13)             126.1812         D2E/DX2 =    0.1709             !
 ! A3    A(10,1,13)            120.947          D2E/DX2 =    0.1076             !
 ! A4    A(4,2,8)              126.043          D2E/DX2 =    0.1114             !
 ! A5    A(4,2,12)             122.5033         D2E/DX2 =    0.1671             !
 ! A6    A(8,2,12)             111.4535         D2E/DX2 =    0.1193             !
 ! A7    A(5,3,7)              102.7687         D2E/DX2 =    0.2648             !
 ! A8    A(5,3,9)              103.9542         D2E/DX2 =    0.1182             !
 ! A9    A(7,3,9)              103.6193         D2E/DX2 =    0.0759             !
 ! A10   A(2,4,6)              118.0647         D2E/DX2 =    0.0925             !
 ! A11   A(2,4,11)             122.671          D2E/DX2 =    0.1186             !
 ! A12   A(6,4,11)             119.2638         D2E/DX2 =    0.0874             !
 ! A13   A(1,5,3)              119.127          D2E/DX2 =    0.1829             !
 ! A14   A(1,5,17)             121.5361         D2E/DX2 =    0.1896             !
 ! A15   A(3,5,17)             119.2107         D2E/DX2 =    0.1706             !
 ! A16   A(3,7,11)              85.5174         D2E/DX2 =    0.312              !
 ! A17   A(4,11,7)             141.4636         D2E/DX2 =    0.1184             !
 ! A18   A(1,13,14)            109.9949         D2E/DX2 =    0.1306             !
 ! A19   A(1,13,15)            110.0497         D2E/DX2 =    0.1178             !
 ! A20   A(1,13,16)            111.6369         D2E/DX2 =    0.1169             !
 ! A21   A(14,13,15)           108.6469         D2E/DX2 =    0.0644             !
 ! A22   A(14,13,16)           108.4012         D2E/DX2 =    0.064              !
 ! A23   A(15,13,16)           108.0326         D2E/DX2 =    0.0627             !
 ! A24   A(5,17,18)            107.9086         D2E/DX2 =    0.1371             !
 ! A25   A(5,17,19)            113.1813         D2E/DX2 =    0.1409             !
 ! A26   A(5,17,20)            107.7857         D2E/DX2 =    0.1394             !
 ! A27   A(18,17,19)           109.8002         D2E/DX2 =    0.0679             !
 ! A28   A(18,17,20)           108.5995         D2E/DX2 =    0.0672             !
 ! A29   A(19,17,20)           109.4475         D2E/DX2 =    0.0659             !
 ! D1    D(10,1,5,3)            -3.6437         D2E/DX2 =    0.0141             !
 ! D2    D(10,1,5,17)         -179.5267         D2E/DX2 =    0.0154             !
 ! D3    D(13,1,5,3)           174.9007         D2E/DX2 =    0.0152             !
 ! D4    D(13,1,5,17)           -0.9824         D2E/DX2 =    0.0134             !
 ! D5    D(5,1,13,14)         -179.4227         D2E/DX2 =    0.0161             !
 ! D6    D(5,1,13,15)          -59.7537         D2E/DX2 =    0.0162             !
 ! D7    D(5,1,13,16)           60.1983         D2E/DX2 =    0.0153             !
 ! D8    D(10,1,13,14)          -0.9868         D2E/DX2 =    0.0175             !
 ! D9    D(10,1,13,15)         118.6822         D2E/DX2 =    0.0158             !
 ! D10   D(10,1,13,16)        -121.3657         D2E/DX2 =    0.0152             !
 ! D11   D(8,2,4,6)              0.0636         D2E/DX2 =    0.0225             !
 ! D12   D(8,2,4,11)          -179.7092         D2E/DX2 =    0.0363             !
 ! D13   D(12,2,4,6)          -179.756          D2E/DX2 =    0.0526             !
 ! D14   D(12,2,4,11)            0.4711         D2E/DX2 =    0.0451             !
 ! D15   D(7,3,5,1)           -121.9298         D2E/DX2 =    0.0222             !
 ! D16   D(7,3,5,17)            54.0502         D2E/DX2 =    0.018              !
 ! D17   D(9,3,5,1)            130.3065         D2E/DX2 =    0.0084             !
 ! D18   D(9,3,5,17)           -53.7135         D2E/DX2 =    0.0097             !
 ! D19   D(5,3,7,11)            82.5988         D2E/DX2 =    0.0736             !
 ! D20   D(9,3,7,11)          -169.3829         D2E/DX2 =    0.0372             !
 ! D21   D(2,4,11,7)            32.6802         D2E/DX2 =    0.0388             !
 ! D22   D(6,4,11,7)          -147.0901         D2E/DX2 =    0.0215             !
 ! D23   D(1,5,17,18)         -134.875          D2E/DX2 =    0.0161             !
 ! D24   D(1,5,17,19)          -13.1639         D2E/DX2 =    0.016              !
 ! D25   D(1,5,17,20)          108.0162         D2E/DX2 =    0.016              !
 ! D26   D(3,5,17,18)           49.2453         D2E/DX2 =    0.0172             !
 ! D27   D(3,5,17,19)          170.9564         D2E/DX2 =    0.0173             !
 ! D28   D(3,5,17,20)          -67.8635         D2E/DX2 =    0.0168             !
 ! D29   D(3,7,11,4)          -138.6515         D2E/DX2 =    0.1519             !
 --------------------------------------------------------------------------------
 Trust Radius=1.00D-01 FncErr=1.00D-07 GrdErr=1.00D-06 EigMax=2.50D+02 EigMin=1.00D-04
 Number of steps in this run=     50 maximum allowed number of steps=    120.
 Search for a saddle point of order  1.
 GradGradGradGradGradGradGradGradGradGradGradGradGradGradGradGradGradGrad

                          Input orientation:                          
 ---------------------------------------------------------------------
 Center     Atomic      Atomic             Coordinates (Angstroms)
 Number     Number       Type             X           Y           Z
 ---------------------------------------------------------------------
      1          6           0        1.410594    0.036745    0.630784
      2          6           0       -2.044936   -0.576011    1.038989
      3          6           0        0.692448    2.157938   -0.198081
      4          6           0       -1.790852    0.560436    1.668897
      5          7           0        1.130461    0.752258   -0.394890
      6          1           0       -2.306755    0.751533    2.611216
      7          1           0       -0.305382    2.175491   -0.688947
      8          1           0       -2.733310   -1.356967    1.373385
      9          1           0        1.335939    2.738791   -0.892740
     10          1           0        1.347376    0.595826    1.569004
     11          1           0       -1.089179    1.311302    1.278501
     12          9           0       -1.455801   -0.904757   -0.125645
     13          6           0        1.759481   -1.411327    0.624034
     14          1           0        1.939680   -1.758137    1.647871
     15          1           0        0.932178   -1.996830    0.194590
     16          1           0        2.662807   -1.608489    0.026243
     17          6           0        1.146332    0.192577   -1.744660
     18          1           0        1.669764    0.901639   -2.397680
     19          1           0        1.631187   -0.790564   -1.799038
     20          1           0        0.105367    0.106245   -2.084333
 ---------------------------------------------------------------------
                    Distance matrix (angstroms):
                    1          2          3          4          5
     1  C    0.000000
     2  C    3.533099   0.000000
     3  C    2.387930   4.061784   0.000000
     4  C    3.406052   1.323954   3.493480   0.000000
     5  N    1.281577   3.728733   1.485437   3.581911   0.000000
     6  H    4.272203   2.074324   4.343426   1.091164   4.566304
     7  H    3.043106   3.685454   1.112170   3.220940   2.042965
     8  H    4.434617   1.093422   5.153627   2.156846   4.743875
     9  H    3.102861   5.113687   1.110865   4.591736   2.058249
    10  H    1.093995   3.627933   2.447798   3.140017   1.982020
    11  H    2.879740   2.129034   2.463997   1.099343   2.835414
    12  F    3.110439   1.345930   3.741701   2.340819   3.083334
    13  C    1.489523   3.917082   3.814981   4.193382   2.472847
    14  H    2.129789   4.200634   4.505415   4.392391   3.336134
    15  H    2.134145   3.405135   4.180162   4.015978   2.818561
    16  H    2.154136   4.924886   4.256595   5.218968   2.845797
    17  C    2.395173   4.303908   2.541763   4.518268   1.461292
    18  H    3.160191   5.271920   2.715082   5.350639   2.079503
    19  H    2.576264   4.649119   3.483957   5.055901   2.145381
    20  H    3.013355   3.852845   2.848166   4.229500   2.079030
                    6          7          8          9         10
     6  H    0.000000
     7  H    4.113907   0.000000
     8  H    2.481924   4.756711   0.000000
     9  H    5.431033   1.747218   6.202365   0.000000
    10  H    3.803041   3.213299   4.528097   3.263834   0.000000
    11  H    1.889964   2.287359   3.135574   3.554322   2.555993
    12  F    3.310262   3.335971   2.020795   4.653782   3.602969
    13  C    5.016088   4.341985   4.555178   4.438858   2.256427
    14  H    5.025803   5.096513   4.698203   5.200150   2.428618
    15  H    4.887153   4.440771   3.903176   4.875593   2.963658
    16  H    6.078514   4.862113   5.567416   4.637235   2.994908
    17  C    5.586583   2.674687   5.212956   2.691640   3.344159
    18  H    6.397209   2.905799   6.221679   2.398210   3.991496
    19  H    6.110303   3.712154   5.425303   3.655803   3.653264
    20  H    5.318168   2.529346   4.706898   3.140780   3.889620
                   11         12         13         14         15
    11  H    0.000000
    12  F    2.648954   0.000000
    13  C    3.994484   3.340160   0.000000
    14  H    4.328035   3.924654   1.095897   0.000000
    15  H    4.025480   2.645301   1.100757   1.784393   0.000000
    16  H    4.916374   4.181057   1.101010   1.781848   1.781635
    17  C    3.922826   3.255219   2.925606   3.992988   2.932585
    18  H    4.614532   4.265486   3.806391   4.849097   3.957906
    19  H    4.614053   3.513229   2.504612   3.593403   2.432744
    20  H    3.766664   2.701079   3.517722   4.557408   3.209366
                   16         17         18         19         20
    16  H    0.000000
    17  C    2.946122   0.000000
    18  H    3.627986   1.096898   0.000000
    19  H    2.250531   1.097547   1.795387   0.000000
    20  H    3.733007   1.098380   1.782744   1.792704   0.000000
 Stoichiometry    C6H12FN
 Framework group  C1[X(C6H12FN)]
 Deg. of freedom    54
 Full point group                 C1      NOp   1
 Largest Abelian subgroup         C1      NOp   1
 Largest concise Abelian subgroup C1      NOp   1
                         Standard orientation:                         
 ---------------------------------------------------------------------
 Center     Atomic      Atomic             Coordinates (Angstroms)
 Number     Number       Type             X           Y           Z
 ---------------------------------------------------------------------
      1          6           0       -0.913846   -0.461773   -0.939764
      2          6           0        2.398741   -0.187841    0.257950
      3          6           0       -1.003294    1.888271   -0.525635
      4          6           0        2.278213    0.704564   -0.712586
      5          7           0       -1.249307    0.476665   -0.134009
      6          1           0        3.126989    0.852642   -1.382132
      7          1           0       -0.354352    2.261965    0.296648
      8          1           0        3.279930   -0.802558    0.460927
      9          1           0       -1.976263    2.391199   -0.340121
     10          1           0       -0.523118   -0.086378   -1.890152
     11          1           0        1.364824    1.297420   -0.863567
     12          9           0        1.407166   -0.445405    1.130857
     13          6           0       -0.988671   -1.924084   -0.666403
     14          1           0       -0.626042   -2.486567   -1.534219
     15          1           0       -0.363861   -2.177821    0.203594
     16          1           0       -2.019686   -2.244516   -0.450637
     17          6           0       -1.785162    0.188190    1.194530
     18          1           0       -2.654739    0.837071    1.355688
     19          1           0       -2.075884   -0.862153    1.324414
     20          1           0       -1.013034    0.447720    1.931349
 ---------------------------------------------------------------------
 Rotational constants (GHZ):           2.3055143           1.2924318           1.1418261
 Standard basis: def2SVP (5D, 7F)
 There are   180 symmetry adapted cartesian basis functions of A   symmetry.
 There are   172 symmetry adapted basis functions of A   symmetry.
   172 basis functions,   284 primitive gaussians,   180 cartesian basis functions
    32 alpha electrons       32 beta electrons
       nuclear repulsion energy       384.5982217633 Hartrees.
 NAtoms=   20 NActive=   20 NUniq=   20 SFac= 1.00D+00 NAtFMM=   60 NAOKFM=F Big=F
 Integral buffers will be    131072 words long.
 Raffenetti 2 integral format.
 Two-electron integral symmetry is turned on.
 Nuclear repulsion after empirical dispersion term =      384.5858921315 Hartrees.
 ------------------------------------------------------------------------------
 Polarizable Continuum Model (PCM)
 =================================
 Model                : PCM.
 Atomic radii         : UFF (Universal Force Field).
 Polarization charges : Total charges.
 Charge compensation  : None.
 Solution method      : On-the-fly selection.
 Cavity type          : Scaled VdW (van der Waals Surface) (Alpha=1.100).
 Cavity algorithm     : GePol (No added spheres)
                        Default sphere list used, NSphG=   20.
                        Lebedev-Laikov grids with approx.  5.0 points / Ang**2.
                        Smoothing algorithm: York/Karplus (Gamma=1.0000).
                        Polarization charges: spherical gaussians, with
                                              point-specific exponents (IZeta= 3).
                        Self-potential: point-specific (ISelfS= 7).
                        Self-field    : sphere-specific E.n sum rule (ISelfD= 2).
 1st derivatives      : Analytical E(r).r(x)/FMM algorithm (CHGder, D1EAlg=3).
                        Cavity 1st derivative terms included.
 Solvent              : Toluene, Eps=   2.374100 Eps(inf)=   2.238315
 ------------------------------------------------------------------------------
 Spheres list:
 ISph  on   Nord     Re0    Alpha      Xe            Ye            Ze
    1   C      1    1.9255  1.100     -0.913846     -0.461773     -0.939764
    2   C      2    1.9255  1.100      2.398741     -0.187841      0.257950
    3   C      3    1.9255  1.100     -1.003294      1.888271     -0.525635
    4   C      4    1.9255  1.100      2.278213      0.704564     -0.712586
    5   N      5    1.8300  1.100     -1.249307      0.476665     -0.134009
    6   H      6    1.4430  1.100      3.126989      0.852642     -1.382132
    7   H      7    1.4430  1.100     -0.354352      2.261965      0.296648
    8   H      8    1.4430  1.100      3.279930     -0.802558      0.460927
    9   H      9    1.4430  1.100     -1.976263      2.391199     -0.340121
   10   H     10    1.4430  1.100     -0.523118     -0.086378     -1.890152
   11   H     11    1.4430  1.100      1.364824      1.297420     -0.863567
   12   F     12    1.6820  1.100      1.407166     -0.445405      1.130857
   13   C     13    1.9255  1.100     -0.988671     -1.924084     -0.666403
   14   H     14    1.4430  1.100     -0.626042     -2.486567     -1.534219
   15   H     15    1.4430  1.100     -0.363861     -2.177821      0.203594
   16   H     16    1.4430  1.100     -2.019686     -2.244516     -0.450637
   17   C     17    1.9255  1.100     -1.785162      0.188190      1.194530
   18   H     18    1.4430  1.100     -2.654739      0.837071      1.355688
   19   H     19    1.4430  1.100     -2.075884     -0.862153      1.324414
   20   H     20    1.4430  1.100     -1.013034      0.447720      1.931349
 ------------------------------------------------------------------------------
 One-electron integrals computed using PRISM.
   1 Symmetry operations used in ECPInt.
 ECPInt:  NShTT=    3570 NPrTT=   12386 LenC2=    3546 LenP2D=    9909.
 LDataN:  DoStor=T MaxTD1= 4 Len=   56
 NBasis=   172 RedAO= T EigKep=  2.98D-03  NBF=   172
 NBsUse=   172 1.00D-06 EigRej= -1.00D+00 NBFU=   172
 ExpMin= 1.22D-01 ExpMax= 2.89D+03 ExpMxC= 4.35D+02 IAcc=3 IRadAn=         5 AccDes= 0.00D+00
 Harris functional with IExCor= 4639 and IRadAn=       5 diagonalized for initial guess.
 HarFok:  IExCor= 4639 AccDes= 0.00D+00 IRadAn=         5 IDoV= 1 UseB2=F ITyADJ=14
 ICtDFT=  3500011 ScaDFX=  1.000000  1.000000  1.000000  1.000000
 FoFCou: FMM=F IPFlag=           0 FMFlag=      100000 FMFlg1=           0
         NFxFlg=           0 DoJE=T BraDBF=F KetDBF=T FulRan=T
         wScrn=  0.000000 ICntrl=       500 IOpCl=  0 I1Cent=   200000004 NGrid=           0
         NMat0=    1 NMatS0=      1 NMatT0=    0 NMatD0=    1 NMtDS0=    0 NMtDT0=    0
 Petite list used in FoFCou.
 Requested convergence on RMS density matrix=1.00D-08 within 128 cycles.
 Requested convergence on MAX density matrix=1.00D-06.
 Requested convergence on             energy=1.00D-06.
 No special actions if energy rises.
 Inv3:  Mode=1 IEnd=     7041072.
 Iteration    1 A*A^-1 deviation from unit magnitude is 3.44D-15 for   1271.
 Iteration    1 A*A^-1 deviation from orthogonality  is 1.67D-15 for    884     58.
 Iteration    1 A^-1*A deviation from unit magnitude is 3.00D-15 for   1271.
 Iteration    1 A^-1*A deviation from orthogonality  is 1.41D-15 for   1154    414.
 Error on total polarization charges =  0.00600
 SCF Done:  E(RwB97XD) =  -389.899470136     A.U. after   16 cycles
            NFock= 16  Conv=0.30D-08     -V/T= 2.0102

 **********************************************************************

            Population analysis using the SCF Density.

 **********************************************************************

 Orbital symmetries:
       Occupied  (A) (A) (A) (A) (A) (A) (A) (A) (A) (A) (A) (A)
                 (A) (A) (A) (A) (A) (A) (A) (A) (A) (A) (A) (A)
                 (A) (A) (A) (A) (A) (A) (A) (A)
       Virtual   (A) (A) (A) (A) (A) (A) (A) (A) (A) (A) (A) (A)
                 (A) (A) (A) (A) (A) (A) (A) (A) (A) (A) (A) (A)
                 (A) (A) (A) (A) (A) (A) (A) (A) (A) (A) (A) (A)
                 (A) (A) (A) (A) (A) (A) (A) (A) (A) (A) (A) (A)
                 (A) (A) (A) (A) (A) (A) (A) (A) (A) (A) (A) (A)
                 (A) (A) (A) (A) (A) (A) (A) (A) (A) (A) (A) (A)
                 (A) (A) (A) (A) (A) (A) (A) (A) (A) (A) (A) (A)
                 (A) (A) (A) (A) (A) (A) (A) (A) (A) (A) (A) (A)
                 (A) (A) (A) (A) (A) (A) (A) (A) (A) (A) (A) (A)
                 (A) (A) (A) (A) (A) (A) (A) (A) (A) (A) (A) (A)
                 (A) (A) (A) (A) (A) (A) (A) (A) (A) (A) (A) (A)
                 (A) (A) (A) (A) (A) (A) (A) (A)
 The electronic state is 1-A.
 Alpha  occ. eigenvalues --  -24.82779 -14.52798 -10.37920 -10.37702 -10.34019
 Alpha  occ. eigenvalues --  -10.32446 -10.29241 -10.23171  -1.31071  -1.08269
 Alpha  occ. eigenvalues --   -0.87376  -0.85651  -0.82223  -0.74816  -0.69447
 Alpha  occ. eigenvalues --   -0.65614  -0.61756  -0.58447  -0.57672  -0.56388
 Alpha  occ. eigenvalues --   -0.56208  -0.55541  -0.51721  -0.49782  -0.48714
 Alpha  occ. eigenvalues --   -0.48442  -0.46088  -0.45154  -0.44319  -0.37058
 Alpha  occ. eigenvalues --   -0.34616  -0.22352
 Alpha virt. eigenvalues --    0.02607   0.08994   0.13243   0.16457   0.16666
 Alpha virt. eigenvalues --    0.17016   0.19371   0.20786   0.21153   0.21588
 Alpha virt. eigenvalues --    0.22585   0.22890   0.24348   0.25127   0.27194
 Alpha virt. eigenvalues --    0.28930   0.32257   0.36042   0.37426   0.41359
 Alpha virt. eigenvalues --    0.44115   0.48860   0.48883   0.51145   0.53648
 Alpha virt. eigenvalues --    0.54820   0.55778   0.56931   0.58498   0.60051
 Alpha virt. eigenvalues --    0.61961   0.65457   0.66641   0.67994   0.69441
 Alpha virt. eigenvalues --    0.71083   0.71738   0.72169   0.72903   0.74238
 Alpha virt. eigenvalues --    0.74857   0.74997   0.75394   0.76458   0.76745
 Alpha virt. eigenvalues --    0.77690   0.80110   0.82062   0.83496   0.84420
 Alpha virt. eigenvalues --    0.88423   0.88734   0.91705   0.92155   1.00313
 Alpha virt. eigenvalues --    1.08185   1.11123   1.15109   1.19256   1.20648
 Alpha virt. eigenvalues --    1.27903   1.28142   1.30722   1.32612   1.33642
 Alpha virt. eigenvalues --    1.36209   1.39782   1.46032   1.48953   1.54933
 Alpha virt. eigenvalues --    1.58985   1.59663   1.60432   1.61758   1.64742
 Alpha virt. eigenvalues --    1.66979   1.68534   1.71514   1.73678   1.76363
 Alpha virt. eigenvalues --    1.77569   1.79545   1.81563   1.82538   1.84878
 Alpha virt. eigenvalues --    1.85151   1.85673   1.88277   1.91280   1.91647
 Alpha virt. eigenvalues --    1.93037   1.96401   1.97533   1.98385   2.02674
 Alpha virt. eigenvalues --    2.04538   2.05131   2.05562   2.10452   2.13643
 Alpha virt. eigenvalues --    2.17356   2.18284   2.18575   2.21413   2.24024
 Alpha virt. eigenvalues --    2.31822   2.34470   2.35630   2.38022   2.40162
 Alpha virt. eigenvalues --    2.41859   2.49937   2.51732   2.52327   2.55024
 Alpha virt. eigenvalues --    2.58101   2.63200   2.72219   2.73743   2.76661
 Alpha virt. eigenvalues --    2.78827   2.81562   2.84316   2.88147   2.91736
 Alpha virt. eigenvalues --    2.94348   2.98831   3.01707   3.02439   3.05643
 Alpha virt. eigenvalues --    3.08092   3.10345   3.14654   3.17330   3.29374
 Alpha virt. eigenvalues --    3.31492   3.39580   3.44935   3.61287   3.94545
          Condensed to atoms (all electrons):
               1          2          3          4          5          6
     1  C    4.922479  -0.001043  -0.090040   0.007658   0.539740  -0.000028
     2  C   -0.001043   4.545367  -0.000095   0.610445  -0.000860  -0.005818
     3  C   -0.090040  -0.000095   5.350761  -0.031371   0.263370   0.000230
     4  C    0.007658   0.610445  -0.031371   5.002565   0.000275   0.370565
     5  N    0.539740  -0.000860   0.263370   0.000275   6.287108   0.000058
     6  H   -0.000028  -0.005818   0.000230   0.370565   0.000058   0.591385
     7  H    0.000070  -0.000145   0.362714   0.002626  -0.033918   0.000101
     8  H    0.000275   0.421753  -0.000047  -0.061918  -0.000029  -0.006860
     9  H    0.004145   0.000007   0.358620   0.000775  -0.031884  -0.000008
    10  H    0.383622  -0.000293   0.033018  -0.003924  -0.026659   0.000127
    11  H   -0.010790  -0.013416   0.078132   0.320263  -0.003062  -0.023130
    12  F    0.009605   0.295528  -0.000853  -0.059491  -0.002282   0.002616
    13  C    0.299348   0.001326   0.011036  -0.001268  -0.042397   0.000012
    14  H   -0.008787   0.000149  -0.000246   0.000206   0.004132  -0.000003
    15  H   -0.003237  -0.001607  -0.000361  -0.000741  -0.007847  -0.000028
    16  H   -0.010361  -0.000003  -0.000214   0.000015  -0.004769   0.000000
    17  C   -0.086400  -0.000030  -0.037255  -0.001094   0.307361   0.000004
    18  H    0.005703   0.000000  -0.000678   0.000019  -0.022758  -0.000000
    19  H   -0.009660  -0.000025   0.006315   0.000222  -0.013173  -0.000000
    20  H    0.000571  -0.000012  -0.001171  -0.000056  -0.022176  -0.000006
               7          8          9         10         11         12
     1  C    0.000070   0.000275   0.004145   0.383622  -0.010790   0.009605
     2  C   -0.000145   0.421753   0.000007  -0.000293  -0.013416   0.295528
     3  C    0.362714  -0.000047   0.358620   0.033018   0.078132  -0.000853
     4  C    0.002626  -0.061918   0.000775  -0.003924   0.320263  -0.059491
     5  N   -0.033918  -0.000029  -0.031884  -0.026659  -0.003062  -0.002282
     6  H    0.000101  -0.006860  -0.000008   0.000127  -0.023130   0.002616
     7  H    0.734668   0.000026  -0.039484  -0.001568  -0.006959   0.001078
     8  H    0.000026   0.617002   0.000001  -0.000033   0.004895  -0.031098
     9  H   -0.039484   0.000001   0.744084  -0.000483  -0.002701   0.000001
    10  H   -0.001568  -0.000033  -0.000483   0.555583   0.008202  -0.000114
    11  H   -0.006959   0.004895  -0.002701   0.008202   0.571291  -0.001624
    12  F    0.001078  -0.031098   0.000001  -0.000114  -0.001624   9.006124
    13  C   -0.000975  -0.000142  -0.000851  -0.034272   0.002329  -0.006845
    14  H    0.000023   0.000004   0.000019  -0.008492  -0.000120  -0.000076
    15  H    0.000181   0.000024  -0.000016   0.002421  -0.000219   0.011934
    16  H   -0.000037   0.000001   0.000083   0.002952  -0.000011   0.000087
    17  C   -0.003437  -0.000008  -0.009143   0.009283   0.002129   0.000246
    18  H   -0.001948   0.000001   0.008759  -0.000353  -0.000083   0.000089
    19  H    0.000982   0.000001   0.000932  -0.000905  -0.000426  -0.000320
    20  H    0.005485   0.000069  -0.001529  -0.000318  -0.000048   0.006514
              13         14         15         16         17         18
     1  C    0.299348  -0.008787  -0.003237  -0.010361  -0.086400   0.005703
     2  C    0.001326   0.000149  -0.001607  -0.000003  -0.000030   0.000000
     3  C    0.011036  -0.000246  -0.000361  -0.000214  -0.037255  -0.000678
     4  C   -0.001268   0.000206  -0.000741   0.000015  -0.001094   0.000019
     5  N   -0.042397   0.004132  -0.007847  -0.004769   0.307361  -0.022758
     6  H    0.000012  -0.000003  -0.000028   0.000000   0.000004  -0.000000
     7  H   -0.000975   0.000023   0.000181  -0.000037  -0.003437  -0.001948
     8  H   -0.000142   0.000004   0.000024   0.000001  -0.000008   0.000001
     9  H   -0.000851   0.000019  -0.000016   0.000083  -0.009143   0.008759
    10  H   -0.034272  -0.008492   0.002421   0.002952   0.009283  -0.000353
    11  H    0.002329  -0.000120  -0.000219  -0.000011   0.002129  -0.000083
    12  F   -0.006845  -0.000076   0.011934   0.000087   0.000246   0.000089
    13  C    4.679695   0.387263   0.373039   0.386507   0.009186  -0.000477
    14  H    0.387263   0.577644  -0.014592  -0.014398   0.000426  -0.000013
    15  H    0.373039  -0.014592   0.564097  -0.013547  -0.000022  -0.000034
    16  H    0.386507  -0.014398  -0.013547   0.559374  -0.002178   0.000354
    17  C    0.009186   0.000426  -0.000022  -0.002178   4.604825   0.395175
    18  H   -0.000477  -0.000013  -0.000034   0.000354   0.395175   0.578333
    19  H    0.004196   0.000349  -0.000165   0.002544   0.360305  -0.018380
    20  H   -0.000498  -0.000014   0.000665  -0.000313   0.397680  -0.015008
              19         20
     1  C   -0.009660   0.000571
     2  C   -0.000025  -0.000012
     3  C    0.006315  -0.001171
     4  C    0.000222  -0.000056
     5  N   -0.013173  -0.022176
     6  H   -0.000000  -0.000006
     7  H    0.000982   0.005485
     8  H    0.000001   0.000069
     9  H    0.000932  -0.001529
    10  H   -0.000905  -0.000318
    11  H   -0.000426  -0.000048
    12  F   -0.000320   0.006514
    13  C    0.004196  -0.000498
    14  H    0.000349  -0.000014
    15  H   -0.000165   0.000665
    16  H    0.002544  -0.000313
    17  C    0.360305   0.397680
    18  H   -0.018380  -0.015008
    19  H    0.635606  -0.018009
    20  H   -0.018009   0.566851
 Mulliken charges:
               1
     1  C    0.047129
     2  C    0.148773
     3  C   -0.301864
     4  C   -0.155770
     5  N   -0.190228
     6  H    0.070784
     7  H   -0.019483
     8  H    0.056081
     9  H   -0.031326
    10  H    0.082208
    11  H    0.075351
    12  F   -0.231119
    13  C   -0.066211
    14  H    0.076526
    15  H    0.090056
    16  H    0.093914
    17  C    0.052946
    18  H    0.071300
    19  H    0.049611
    20  H    0.081322
 Sum of Mulliken charges =  -0.00000
 Mulliken charges with hydrogens summed into heavy atoms:
               1
     1  C    0.129336
     2  C    0.204854
     3  C   -0.352672
     4  C   -0.009635
     5  N   -0.190228
    12  F   -0.231119
    13  C    0.194285
    17  C    0.255179
 Electronic spatial extent (au):  <R**2>=           1207.9416
 Charge=             -0.0000 electrons
 Dipole moment (field-independent basis, Debye):
    X=             -0.2328    Y=             -5.9145    Z=              1.5660  Tot=              6.1228
 Quadrupole moment (field-independent basis, Debye-Ang):
   XX=            -41.9278   YY=            -56.6593   ZZ=            -50.9021
   XY=              3.8216   XZ=             -4.2332   YZ=              6.6203
 Traceless Quadrupole moment (field-independent basis, Debye-Ang):
   XX=              7.9019   YY=             -6.8296   ZZ=             -1.0723
   XY=              3.8216   XZ=             -4.2332   YZ=              6.6203
 Octapole moment (field-independent basis, Debye-Ang**2):
  XXX=             19.9052  YYY=            -39.3039  ZZZ=             13.6867  XYY=              5.9139
  XXY=            -12.9043  XXZ=              6.7396  XZZ=              2.3686  YZZ=            -12.3098
  YYZ=             13.4982  XYZ=             -8.5462
 Hexadecapole moment (field-independent basis, Debye-Ang**3):
 XXXX=           -776.1188 YYYY=           -506.4586 ZZZZ=           -266.8098 XXXY=            -11.2672
 XXXZ=            -10.0773 YYYX=             19.4016 YYYZ=             32.0223 ZZZX=             -0.1692
 ZZZY=             18.7451 XXYY=           -221.7233 XXZZ=           -183.4894 YYZZ=           -136.8811
 XXYZ=             -1.7755 YYXZ=             -5.8858 ZZXY=              9.9289
 N-N= 3.845858921315D+02 E-N=-1.677590062450D+03  KE= 3.859533167875D+02
   1 Symmetry operations used in ECPInt.
 ECPInt:  NShTT=    3570 NPrTT=   12386 LenC2=    3546 LenP2D=    9909.
 LDataN:  DoStor=T MaxTD1= 5 Len=  102
 D1PCM: PCM CHGder 1st derivatives, ID1Alg=3 FixD1E=F DoIter=F DoCFld=F I1PDM=0.
 Calling FoFJK, ICntrl=      2127 FMM=F ISym2X=0 I1Cent= 0 IOpClX= 0 NMat=1 NMatS=1 NMatT=0.
 ***** Axes restored to original set *****
 -------------------------------------------------------------------
 Center     Atomic                   Forces (Hartrees/Bohr)
 Number     Number              X              Y              Z
 -------------------------------------------------------------------
      1        6           0.000039812   -0.000169528    0.000169246
      2        6           0.000182176    0.000010339    0.000028704
      3        6          -0.000002516   -0.000122340   -0.000257361
      4        6          -0.000249553    0.000035093   -0.000079174
      5        7          -0.000161325    0.000037299    0.000064232
      6        1          -0.000050818    0.000012428   -0.000008340
      7        1          -0.000134648    0.000139994   -0.000075442
      8        1           0.000010542   -0.000011070    0.000005448
      9        1          -0.000013970    0.000104620    0.000087028
     10        1           0.000046968   -0.000002578    0.000050170
     11        1           0.000329896   -0.000139869    0.000074569
     12        9           0.000137206    0.000150543   -0.000004354
     13        6           0.000005183    0.000020458   -0.000027625
     14        1          -0.000017548   -0.000016610   -0.000023839
     15        1          -0.000016347   -0.000027198   -0.000029528
     16        1           0.000012084   -0.000016271   -0.000054483
     17        6          -0.000055231    0.000065666    0.000036612
     18        1          -0.000009880   -0.000025338   -0.000006048
     19        1          -0.000000889   -0.000026228    0.000057623
     20        1          -0.000051146   -0.000019410   -0.000007439
 -------------------------------------------------------------------
 Cartesian Forces:  Max     0.000329896 RMS     0.000095321

 GradGradGradGradGradGradGradGradGradGradGradGradGradGradGradGradGradGrad
 Berny optimization.
 FormGI is forming the generalized inverse of G from B-inverse, IUseBI=4.
 Internal  Forces:  Max     0.000939178 RMS     0.000233642
 Search for a saddle point.
 Step number   1 out of a maximum of   50
 All quantities printed in internal units (Hartrees-Bohrs-Radians)
 Swapping is turned off.
 Second derivative matrix not updated -- first step.
 ITU=  0
     Eigenvalues ---   -0.01208  -0.00069   0.00118   0.00149   0.00729
     Eigenvalues ---    0.01367   0.01975   0.02668   0.03036   0.03683
     Eigenvalues ---    0.03977   0.04720   0.06083   0.06630   0.06672
     Eigenvalues ---    0.07010   0.07202   0.07281   0.09532   0.11903
     Eigenvalues ---    0.12282   0.13655   0.14084   0.14700   0.14761
     Eigenvalues ---    0.16214   0.16545   0.17912   0.19335   0.19702
     Eigenvalues ---    0.21353   0.22245   0.24151   0.25126   0.29097
     Eigenvalues ---    0.31508   0.34044   0.34800   0.35689   0.36001
     Eigenvalues ---    0.36258   0.36393   0.37020   0.37177   0.37643
     Eigenvalues ---    0.38607   0.38916   0.39187   0.39764   0.40799
     Eigenvalues ---    0.48661   0.55346   0.63224   0.68846
 Eigenvectors required to have negative eigenvalues:
                          D17       D15       D18       D16       A16
   1                   -0.49339  -0.45812  -0.45046  -0.41520  -0.26596
                          D3        D1        A17       D20       R13
   1                    0.12482   0.10606   0.10110   0.09738   0.08393
 RFO step:  Lambda0=1.986923466D-06 Lambda=-6.94825093D-04.
 Linear search not attempted -- option 19 set.
 Iteration  1 RMS(Cart)=  0.04460950 RMS(Int)=  0.00155128
 Iteration  2 RMS(Cart)=  0.00297958 RMS(Int)=  0.00000443
 Iteration  3 RMS(Cart)=  0.00000597 RMS(Int)=  0.00000199
 Iteration  4 RMS(Cart)=  0.00000000 RMS(Int)=  0.00000199
 Variable       Old X    -DE/DX   Delta X   Delta X   Delta X     New X
                                 (Linear)    (Quad)   (Total)
    R1        2.42183   0.00023   0.00000   0.00073   0.00073   2.42256
    R2        2.06735   0.00004   0.00000   0.00002   0.00002   2.06737
    R3        2.81479   0.00002   0.00000  -0.00035  -0.00035   2.81444
    R4        2.50191  -0.00020   0.00000  -0.00000  -0.00000   2.50191
    R5        2.06627   0.00000   0.00000   0.00003   0.00003   2.06629
    R6        2.54344   0.00003   0.00000   0.00050   0.00050   2.54394
    R7        2.80707   0.00008   0.00000  -0.00019  -0.00019   2.80688
    R8        2.10170  -0.00013   0.00000   0.00058   0.00058   2.10228
    R9        2.09923  -0.00001   0.00000   0.00011   0.00011   2.09934
   R10        2.06200   0.00001   0.00000   0.00018   0.00018   2.06218
   R11        2.07746  -0.00018   0.00000   0.00199   0.00199   2.07945
   R12        2.76144  -0.00008   0.00000   0.00089   0.00089   2.76234
   R13        4.32248  -0.00016   0.00000   0.00810   0.00810   4.33058
   R14        2.07095  -0.00001   0.00000   0.00006   0.00006   2.07101
   R15        2.08013   0.00003   0.00000  -0.00062  -0.00062   2.07951
   R16        2.08061   0.00004   0.00000   0.00066   0.00066   2.08127
   R17        2.07284  -0.00002   0.00000  -0.00084  -0.00084   2.07200
   R18        2.07406   0.00003   0.00000   0.00035   0.00035   2.07441
   R19        2.07564   0.00005   0.00000   0.00068   0.00068   2.07632
    A1        1.96970   0.00015   0.00000   0.00112   0.00112   1.97083
    A2        2.20228  -0.00022   0.00000  -0.00138  -0.00138   2.20090
    A3        2.11092   0.00008   0.00000   0.00027   0.00027   2.11119
    A4        2.19987   0.00018   0.00000   0.00011   0.00011   2.19998
    A5        2.13809  -0.00034   0.00000   0.00121   0.00121   2.13930
    A6        1.94523   0.00016   0.00000  -0.00132  -0.00132   1.94391
    A7        1.79365  -0.00042   0.00000   0.00137   0.00137   1.79502
    A8        1.81434   0.00043   0.00000  -0.00048  -0.00048   1.81386
    A9        1.80850   0.00003   0.00000   0.00062   0.00062   1.80912
   A10        2.06062   0.00036   0.00000  -0.00211  -0.00211   2.05850
   A11        2.14101  -0.00075   0.00000   0.00193   0.00193   2.14294
   A12        2.08155   0.00039   0.00000   0.00018   0.00018   2.08173
   A13        2.07916   0.00029   0.00000  -0.00041  -0.00042   2.07874
   A14        2.12120  -0.00028   0.00000  -0.00237  -0.00238   2.11883
   A15        2.08062  -0.00002   0.00000   0.00240   0.00240   2.08302
   A16        1.49256  -0.00061   0.00000  -0.02566  -0.02566   1.46690
   A17        2.46900  -0.00094   0.00000  -0.03754  -0.03754   2.43146
   A18        1.91977   0.00002   0.00000  -0.00028  -0.00029   1.91949
   A19        1.92073   0.00001   0.00000   0.00339   0.00339   1.92412
   A20        1.94843   0.00000   0.00000  -0.00269  -0.00269   1.94574
   A21        1.89625  -0.00001   0.00000   0.00053   0.00053   1.89677
   A22        1.89196   0.00001   0.00000  -0.00153  -0.00154   1.89042
   A23        1.88552  -0.00002   0.00000   0.00061   0.00061   1.88614
   A24        1.88336   0.00006   0.00000  -0.00093  -0.00093   1.88243
   A25        1.97539  -0.00011   0.00000  -0.00107  -0.00107   1.97432
   A26        1.88122   0.00002   0.00000   0.00072   0.00072   1.88194
   A27        1.91638   0.00002   0.00000  -0.00047  -0.00047   1.91591
   A28        1.89542   0.00000   0.00000   0.00135   0.00135   1.89677
   A29        1.91022   0.00001   0.00000   0.00050   0.00050   1.91072
    D1       -0.06359  -0.00005   0.00000  -0.00518  -0.00517  -0.06877
    D2       -3.13333  -0.00000   0.00000   0.00097   0.00097  -3.13237
    D3        3.05259  -0.00005   0.00000  -0.00464  -0.00464   3.04795
    D4       -0.01715   0.00000   0.00000   0.00151   0.00150  -0.01564
    D5       -3.13152   0.00001   0.00000   0.04292   0.04293  -3.08859
    D6       -1.04290   0.00001   0.00000   0.04553   0.04553  -0.99737
    D7        1.05066  -0.00002   0.00000   0.04681   0.04680   1.09746
    D8       -0.01722   0.00001   0.00000   0.04351   0.04351   0.02629
    D9        2.07140   0.00001   0.00000   0.04611   0.04611   2.11751
   D10       -2.11823  -0.00001   0.00000   0.04739   0.04739  -2.07084
   D11        0.00111   0.00004   0.00000  -0.00162  -0.00162  -0.00051
   D12       -3.13652  -0.00006   0.00000  -0.00039  -0.00039  -3.13691
   D13       -3.13733   0.00009   0.00000  -0.00404  -0.00404  -3.14137
   D14        0.00822  -0.00001   0.00000  -0.00280  -0.00280   0.00542
   D15       -2.12808  -0.00002   0.00000  -0.00585  -0.00584  -2.13392
   D16        0.94335  -0.00008   0.00000  -0.01205  -0.01205   0.93130
   D17        2.27428  -0.00005   0.00000  -0.00682  -0.00682   2.26746
   D18       -0.93748  -0.00011   0.00000  -0.01302  -0.01303  -0.95050
   D19        1.44162  -0.00052   0.00000   0.01353   0.01353   1.45515
   D20       -2.95629  -0.00018   0.00000   0.01366   0.01366  -2.94263
   D21        0.57038   0.00034   0.00000   0.08706   0.08706   0.65744
   D22       -2.56721   0.00024   0.00000   0.08832   0.08832  -2.47889
   D23       -2.35401   0.00000   0.00000  -0.07028  -0.07028  -2.42429
   D24       -0.22975  -0.00000   0.00000  -0.07221  -0.07221  -0.30197
   D25        1.88524  -0.00004   0.00000  -0.07176  -0.07176   1.81348
   D26        0.85949   0.00004   0.00000  -0.06401  -0.06401   0.79548
   D27        2.98375   0.00003   0.00000  -0.06594  -0.06594   2.91781
   D28       -1.18444  -0.00001   0.00000  -0.06549  -0.06549  -1.24993
   D29       -2.41992   0.00077   0.00000  -0.08798  -0.08798  -2.50790
         Item               Value     Threshold  Converged?
 Maximum Force            0.000939     0.000450     NO 
 RMS     Force            0.000234     0.000300     YES
 Maximum Displacement     0.149000     0.001800     NO 
 RMS     Displacement     0.045905     0.001200     NO 
 Predicted change in Energy=-3.685467D-05
 GradGradGradGradGradGradGradGradGradGradGradGradGradGradGradGradGradGrad

                          Input orientation:                          
 ---------------------------------------------------------------------
 Center     Atomic      Atomic             Coordinates (Angstroms)
 Number     Number       Type             X           Y           Z
 ---------------------------------------------------------------------
      1          6           0        1.420438    0.027639    0.626448
      2          6           0       -2.071306   -0.557296    1.048448
      3          6           0        0.680130    2.145612   -0.190907
      4          6           0       -1.796928    0.576062    1.675402
      5          7           0        1.133788    0.746171   -0.395791
      6          1           0       -2.338616    0.794664    2.597155
      7          1           0       -0.314921    2.158398   -0.688216
      8          1           0       -2.798271   -1.309308    1.367197
      9          1           0        1.323326    2.738197   -0.875952
     10          1           0        1.355096    0.580912    1.567970
     11          1           0       -1.055340    1.298624    1.302815
     12          9           0       -1.459165   -0.919938   -0.094360
     13          6           0        1.779630   -1.417647    0.610358
     14          1           0        1.921012   -1.779774    1.635023
     15          1           0        0.977813   -2.004020    0.136856
     16          1           0        2.710232   -1.595749    0.048886
     17          6           0        1.151289    0.189297   -1.747214
     18          1           0        1.604188    0.934377   -2.412007
     19          1           0        1.705128   -0.755920   -1.816781
     20          1           0        0.109878    0.027398   -2.057830
 ---------------------------------------------------------------------
                    Distance matrix (angstroms):
                    1          2          3          4          5
     1  C    0.000000
     2  C    3.565460   0.000000
     3  C    2.387872   4.051186   0.000000
     4  C    3.428194   1.323954   3.475976   0.000000
     5  N    1.281963   3.749330   1.485335   3.592753   0.000000
     6  H    4.313062   2.073100   4.325641   1.091257   4.584503
     7  H    3.046299   3.670951   1.112477   3.207307   2.044175
     8  H    4.487053   1.093435   5.144262   2.156918   4.774328
     9  H    3.100606   5.107555   1.110921   4.573863   2.057826
    10  H    1.094004   3.647691   2.448982   3.153858   1.983090
    11  H    2.863974   2.131039   2.441403   1.100395   2.825376
    12  F    3.116020   1.346193   3.739452   2.341827   3.096802
    13  C    1.489339   3.970118   3.814150   4.230952   2.472156
    14  H    2.129446   4.216293   4.503606   4.401667   3.335315
    15  H    2.136178   3.495874   4.173187   4.089392   2.805635
    16  H    2.152333   4.994058   4.263402   5.260876   2.857885
    17  C    2.394336   4.331079   2.543866   4.533858   1.461766
    18  H    3.176184   5.263943   2.693374   5.329436   2.078900
    19  H    2.581546   4.744518   3.480370   5.121905   2.145208
    20  H    2.987124   3.840364   2.880524   4.227761   2.080240
                    6          7          8          9         10
     6  H    0.000000
     7  H    4.092526   0.000000
     8  H    2.480077   4.734631   0.000000
     9  H    5.408291   1.747931   6.196900   0.000000
    10  H    3.840367   3.219905   4.567680   3.260006   0.000000
    11  H    1.891055   2.291644   3.137397   3.532343   2.528956
    12  F    3.310219   3.337381   2.020139   4.662091   3.596659
    13  C    5.079531   4.342986   4.641306   4.437157   2.256432
    14  H    5.069306   5.089796   4.750232   5.203295   2.428496
    15  H    4.988427   4.435946   4.031770   4.861458   2.978641
    16  H    6.139920   4.877344   5.671296   4.643481   2.980246
    17  C    5.605305   2.673688   5.248275   2.699183   3.344450
    18  H    6.376278   2.855286   6.220784   2.385816   4.003399
    19  H    6.183770   3.721223   5.542974   3.638651   3.655979
    20  H    5.315328   2.568551   4.687742   3.196517   3.873418
                   11         12         13         14         15
    11  H    0.000000
    12  F    2.652770   0.000000
    13  C    3.986813   3.351736   0.000000
    14  H    4.294830   3.893030   1.095930   0.000000
    15  H    4.049769   2.677229   1.100431   1.784493   0.000000
    16  H    4.912155   4.226241   1.101360   1.781170   1.782050
    17  C    3.924601   3.282803   2.921511   3.988639   2.896627
    18  H    4.583194   4.265454   3.833730   4.883180   3.939952
    19  H    4.644697   3.606437   2.516831   3.606915   2.429699
    20  H    3.777259   2.685993   3.463445   4.492576   3.113939
                   16         17         18         19         20
    16  H    0.000000
    17  C    2.973662   0.000000
    18  H    3.698765   1.096454   0.000000
    19  H    2.279530   1.097730   1.794877   0.000000
    20  H    3.719502   1.098740   1.783539   1.793464   0.000000
 Stoichiometry    C6H12FN
 Framework group  C1[X(C6H12FN)]
 Deg. of freedom    54
 Full point group                 C1      NOp   1
 Largest Abelian subgroup         C1      NOp   1
 Largest concise Abelian subgroup C1      NOp   1
                         Standard orientation:                         
 ---------------------------------------------------------------------
 Center     Atomic      Atomic             Coordinates (Angstroms)
 Number     Number       Type             X           Y           Z
 ---------------------------------------------------------------------
      1          6           0       -0.932649   -0.449082   -0.938229
      2          6           0        2.416851   -0.203966    0.258967
      3          6           0       -0.958113    1.900256   -0.511734
      4          6           0        2.293506    0.688049   -0.711574
      5          7           0       -1.246394    0.494344   -0.128946
      6          1           0        3.154750    0.861956   -1.358766
      7          1           0       -0.308550    2.254583    0.319004
      8          1           0        3.310139   -0.794300    0.480650
      9          1           0       -1.919853    2.427800   -0.335951
     10          1           0       -0.530506   -0.080740   -1.886623
     11          1           0        1.367321    1.256659   -0.884007
     12          9           0        1.414731   -0.491657    1.110569
     13          6           0       -1.045856   -1.909615   -0.669611
     14          1           0       -0.654983   -2.478325   -1.520993
     15          1           0       -0.468485   -2.177546    0.228055
     16          1           0       -2.092690   -2.209402   -0.504506
     17          6           0       -1.790975    0.210262    1.197511
     18          1           0       -2.598232    0.926838    1.390036
     19          1           0       -2.172431   -0.814290    1.296484
     20          1           0       -0.990892    0.375844    1.932139
 ---------------------------------------------------------------------
 Rotational constants (GHZ):           2.3091747           1.2829418           1.1306540
 Standard basis: def2SVP (5D, 7F)
 There are   180 symmetry adapted cartesian basis functions of A   symmetry.
 There are   172 symmetry adapted basis functions of A   symmetry.
   172 basis functions,   284 primitive gaussians,   180 cartesian basis functions
    32 alpha electrons       32 beta electrons
       nuclear repulsion energy       384.0244208135 Hartrees.
 NAtoms=   20 NActive=   20 NUniq=   20 SFac= 1.00D+00 NAtFMM=   60 NAOKFM=F Big=F
 Integral buffers will be    131072 words long.
 Raffenetti 2 integral format.
 Two-electron integral symmetry is turned on.
 Nuclear repulsion after empirical dispersion term =      384.0121445847 Hartrees.
 ------------------------------------------------------------------------------
 Polarizable Continuum Model (PCM)
 =================================
 Model                : PCM.
 Atomic radii         : UFF (Universal Force Field).
 Polarization charges : Total charges.
 Charge compensation  : None.
 Solution method      : On-the-fly selection.
 Cavity type          : Scaled VdW (van der Waals Surface) (Alpha=1.100).
 Cavity algorithm     : GePol (No added spheres)
                        Default sphere list used, NSphG=   20.
                        Lebedev-Laikov grids with approx.  5.0 points / Ang**2.
                        Smoothing algorithm: York/Karplus (Gamma=1.0000).
                        Polarization charges: spherical gaussians, with
                                              point-specific exponents (IZeta= 3).
                        Self-potential: point-specific (ISelfS= 7).
                        Self-field    : sphere-specific E.n sum rule (ISelfD= 2).
 1st derivatives      : Analytical E(r).r(x)/FMM algorithm (CHGder, D1EAlg=3).
                        Cavity 1st derivative terms included.
 Solvent              : Toluene, Eps=   2.374100 Eps(inf)=   2.238315
 ------------------------------------------------------------------------------
 Spheres list:
 ISph  on   Nord     Re0    Alpha      Xe            Ye            Ze
    1   C      1    1.9255  1.100     -0.932649     -0.449082     -0.938229
    2   C      2    1.9255  1.100      2.416851     -0.203966      0.258967
    3   C      3    1.9255  1.100     -0.958113      1.900256     -0.511734
    4   C      4    1.9255  1.100      2.293506      0.688049     -0.711574
    5   N      5    1.8300  1.100     -1.246394      0.494344     -0.128946
    6   H      6    1.4430  1.100      3.154750      0.861956     -1.358766
    7   H      7    1.4430  1.100     -0.308550      2.254583      0.319004
    8   H      8    1.4430  1.100      3.310139     -0.794300      0.480650
    9   H      9    1.4430  1.100     -1.919853      2.427800     -0.335951
   10   H     10    1.4430  1.100     -0.530506     -0.080740     -1.886623
   11   H     11    1.4430  1.100      1.367321      1.256659     -0.884007
   12   F     12    1.6820  1.100      1.414731     -0.491657      1.110569
   13   C     13    1.9255  1.100     -1.045856     -1.909615     -0.669611
   14   H     14    1.4430  1.100     -0.654983     -2.478325     -1.520993
   15   H     15    1.4430  1.100     -0.468485     -2.177546      0.228055
   16   H     16    1.4430  1.100     -2.092690     -2.209402     -0.504506
   17   C     17    1.9255  1.100     -1.790975      0.210262      1.197511
   18   H     18    1.4430  1.100     -2.598232      0.926838      1.390036
   19   H     19    1.4430  1.100     -2.172431     -0.814290      1.296484
   20   H     20    1.4430  1.100     -0.990892      0.375844      1.932139
 ------------------------------------------------------------------------------
 One-electron integrals computed using PRISM.
   1 Symmetry operations used in ECPInt.
 ECPInt:  NShTT=    3570 NPrTT=   12386 LenC2=    3545 LenP2D=    9905.
 LDataN:  DoStor=T MaxTD1= 4 Len=   56
 NBasis=   172 RedAO= T EigKep=  2.99D-03  NBF=   172
 NBsUse=   172 1.00D-06 EigRej= -1.00D+00 NBFU=   172
 Initial guess from the checkpoint file:  "allylic-1_1_hf.chk"
 B after Tr=    -0.000000   -0.000000    0.000000
         Rot=    0.999962   -0.003209   -0.000990    0.008052 Ang=  -1.00 deg.
 ExpMin= 1.22D-01 ExpMax= 2.89D+03 ExpMxC= 4.35D+02 IAcc=3 IRadAn=         5 AccDes= 0.00D+00
 Harris functional with IExCor= 4639 and IRadAn=       5 diagonalized for initial guess.
 HarFok:  IExCor= 4639 AccDes= 0.00D+00 IRadAn=         5 IDoV= 1 UseB2=F ITyADJ=14
 ICtDFT=  3500011 ScaDFX=  1.000000  1.000000  1.000000  1.000000
 FoFCou: FMM=F IPFlag=           0 FMFlag=      100000 FMFlg1=           0
         NFxFlg=           0 DoJE=T BraDBF=F KetDBF=T FulRan=T
         wScrn=  0.000000 ICntrl=       500 IOpCl=  0 I1Cent=   200000004 NGrid=           0
         NMat0=    1 NMatS0=      1 NMatT0=    0 NMatD0=    1 NMtDS0=    0 NMtDT0=    0
 Petite list used in FoFCou.
 Requested convergence on RMS density matrix=1.00D-08 within 128 cycles.
 Requested convergence on MAX density matrix=1.00D-06.
 Requested convergence on             energy=1.00D-06.
 No special actions if energy rises.
 Inv3:  Mode=1 IEnd=     7114800.
 Iteration    1 A*A^-1 deviation from unit magnitude is 3.11D-15 for     36.
 Iteration    1 A*A^-1 deviation from orthogonality  is 1.40D-15 for    959     67.
 Iteration    1 A^-1*A deviation from unit magnitude is 2.89D-15 for     36.
 Iteration    1 A^-1*A deviation from orthogonality  is 1.84D-15 for   1167    199.
 Error on total polarization charges =  0.00601
 SCF Done:  E(RwB97XD) =  -389.899449314     A.U. after   13 cycles
            NFock= 13  Conv=0.90D-08     -V/T= 2.0102
   1 Symmetry operations used in ECPInt.
 ECPInt:  NShTT=    3570 NPrTT=   12386 LenC2=    3545 LenP2D=    9905.
 LDataN:  DoStor=T MaxTD1= 5 Len=  102
 D1PCM: PCM CHGder 1st derivatives, ID1Alg=3 FixD1E=F DoIter=F DoCFld=F I1PDM=0.
 Calling FoFJK, ICntrl=      2127 FMM=F ISym2X=0 I1Cent= 0 IOpClX= 0 NMat=1 NMatS=1 NMatT=0.
 ***** Axes restored to original set *****
 -------------------------------------------------------------------
 Center     Atomic                   Forces (Hartrees/Bohr)
 Number     Number              X              Y              Z
 -------------------------------------------------------------------
      1        6          -0.000127750    0.000043690   -0.000202089
      2        6           0.000054112    0.000045688   -0.000108665
      3        6           0.000056898    0.000007817   -0.000396031
      4        6           0.000085911   -0.000064341    0.000077133
      5        7          -0.000136136   -0.000274145    0.000561316
      6        1           0.000064602    0.000000045    0.000055821
      7        1           0.000076897   -0.000011935    0.000012603
      8        1          -0.000038963    0.000025557    0.000025820
      9        1          -0.000033066    0.000169009    0.000112300
     10        1           0.000051439   -0.000014988    0.000038765
     11        1          -0.000319417   -0.000072732   -0.000139427
     12        9           0.000432905    0.000228965    0.000075796
     13        6           0.000000970    0.000023758   -0.000091715
     14        1           0.000019314    0.000001928   -0.000036753
     15        1          -0.000032435   -0.000046086    0.000006438
     16        1          -0.000002742   -0.000004189   -0.000125737
     17        6          -0.000069788    0.000081784    0.000087824
     18        1           0.000004963   -0.000058421   -0.000016860
     19        1          -0.000019102   -0.000094071    0.000114336
     20        1          -0.000068614    0.000012667   -0.000050873
 -------------------------------------------------------------------
 Cartesian Forces:  Max     0.000561316 RMS     0.000140243

 GradGradGradGradGradGradGradGradGradGradGradGradGradGradGradGradGradGrad
 Berny optimization.
 FormGI is forming the generalized inverse of G from B-inverse, IUseBI=4.
 Internal  Forces:  Max     0.001621558 RMS     0.000396609
 Search for a saddle point.
 Step number   2 out of a maximum of   50
 All quantities printed in internal units (Hartrees-Bohrs-Radians)
 Swapping is turned off.
 Update second derivatives using D2CorX and points    1    2
 ITU=  0  0
     Eigenvalues ---   -0.01205   0.00073   0.00128   0.00180   0.00731
     Eigenvalues ---    0.01368   0.01975   0.02668   0.03036   0.03683
     Eigenvalues ---    0.03975   0.04720   0.06083   0.06630   0.06672
     Eigenvalues ---    0.07010   0.07202   0.07281   0.09534   0.11904
     Eigenvalues ---    0.12282   0.13656   0.14086   0.14700   0.14761
     Eigenvalues ---    0.16214   0.16545   0.17927   0.19336   0.19703
     Eigenvalues ---    0.21354   0.22245   0.24150   0.25147   0.29116
     Eigenvalues ---    0.31510   0.34044   0.34801   0.35690   0.36001
     Eigenvalues ---    0.36258   0.36393   0.37021   0.37177   0.37645
     Eigenvalues ---    0.38607   0.38916   0.39188   0.39765   0.40815
     Eigenvalues ---    0.48662   0.55346   0.63244   0.68912
 Eigenvectors required to have negative eigenvalues:
                          D17       D15       D18       D16       A16
   1                   -0.49515  -0.45990  -0.45358  -0.41833  -0.27253
                          D3        D1        D20       A17       R13
   1                    0.12387   0.10513   0.10068   0.09440   0.08672
 RFO step:  Lambda0=2.641297809D-06 Lambda=-7.54966339D-05.
 Linear search not attempted -- option 19 set.
 Iteration  1 RMS(Cart)=  0.03810323 RMS(Int)=  0.00093659
 Iteration  2 RMS(Cart)=  0.00110808 RMS(Int)=  0.00000182
 Iteration  3 RMS(Cart)=  0.00000074 RMS(Int)=  0.00000174
 Variable       Old X    -DE/DX   Delta X   Delta X   Delta X     New X
                                 (Linear)    (Quad)   (Total)
    R1        2.42256  -0.00033   0.00000  -0.00056  -0.00056   2.42200
    R2        2.06737   0.00003   0.00000   0.00018   0.00018   2.06755
    R3        2.81444   0.00002   0.00000   0.00041   0.00041   2.81485
    R4        2.50191  -0.00034   0.00000  -0.00022  -0.00022   2.50169
    R5        2.06629   0.00002   0.00000  -0.00004  -0.00004   2.06625
    R6        2.54394   0.00008   0.00000  -0.00011  -0.00011   2.54382
    R7        2.80688   0.00015   0.00000  -0.00061  -0.00061   2.80627
    R8        2.10228  -0.00028   0.00000  -0.00053  -0.00053   2.10174
    R9        2.09934   0.00000   0.00000  -0.00030  -0.00030   2.09904
   R10        2.06218   0.00001   0.00000  -0.00020  -0.00020   2.06197
   R11        2.07945  -0.00052   0.00000  -0.00173  -0.00173   2.07771
   R12        2.76234  -0.00011   0.00000  -0.00086  -0.00086   2.76148
   R13        4.33058  -0.00019   0.00000  -0.02968  -0.02968   4.30090
   R14        2.07101  -0.00003   0.00000  -0.00008  -0.00008   2.07092
   R15        2.07951   0.00004   0.00000   0.00047   0.00047   2.07999
   R16        2.08127   0.00006   0.00000  -0.00041  -0.00041   2.08086
   R17        2.07200  -0.00003   0.00000   0.00072   0.00072   2.07272
   R18        2.07441   0.00007   0.00000  -0.00023  -0.00023   2.07418
   R19        2.07632   0.00007   0.00000  -0.00058  -0.00058   2.07574
    A1        1.97083   0.00029   0.00000  -0.00024  -0.00024   1.97059
    A2        2.20090  -0.00048   0.00000   0.00029   0.00029   2.20119
    A3        2.11119   0.00019   0.00000  -0.00004  -0.00004   2.11115
    A4        2.19998   0.00031   0.00000   0.00071   0.00071   2.20069
    A5        2.13930  -0.00070   0.00000  -0.00181  -0.00181   2.13748
    A6        1.94391   0.00039   0.00000   0.00111   0.00111   1.94502
    A7        1.79502  -0.00130   0.00000  -0.00011  -0.00011   1.79492
    A8        1.81386   0.00068   0.00000   0.00223   0.00223   1.81609
    A9        1.80912   0.00013   0.00000   0.00038   0.00038   1.80949
   A10        2.05850   0.00068   0.00000   0.00283   0.00283   2.06133
   A11        2.14294  -0.00129   0.00000  -0.00405  -0.00405   2.13889
   A12        2.08173   0.00061   0.00000   0.00122   0.00122   2.08295
   A13        2.07874   0.00067   0.00000   0.00187   0.00186   2.08061
   A14        2.11883  -0.00059   0.00000   0.00111   0.00111   2.11993
   A15        2.08302  -0.00009   0.00000  -0.00258  -0.00259   2.08043
   A16        1.46690  -0.00064   0.00000   0.02777   0.02777   1.49467
   A17        2.43146  -0.00091   0.00000   0.01625   0.01625   2.44771
   A18        1.91949   0.00003   0.00000   0.00037   0.00037   1.91986
   A19        1.92412   0.00002   0.00000  -0.00235  -0.00235   1.92176
   A20        1.94574  -0.00004   0.00000   0.00172   0.00172   1.94746
   A21        1.89677  -0.00002   0.00000  -0.00044  -0.00044   1.89634
   A22        1.89042   0.00003   0.00000   0.00118   0.00118   1.89160
   A23        1.88614  -0.00003   0.00000  -0.00049  -0.00049   1.88565
   A24        1.88243   0.00011   0.00000   0.00106   0.00106   1.88349
   A25        1.97432  -0.00019   0.00000   0.00042   0.00042   1.97474
   A26        1.88194   0.00005   0.00000  -0.00049  -0.00049   1.88145
   A27        1.91591   0.00004   0.00000   0.00039   0.00039   1.91630
   A28        1.89677  -0.00003   0.00000  -0.00098  -0.00098   1.89578
   A29        1.91072   0.00002   0.00000  -0.00045  -0.00045   1.91026
    D1       -0.06877  -0.00012   0.00000   0.00266   0.00266  -0.06611
    D2       -3.13237  -0.00003   0.00000  -0.00313  -0.00314  -3.13550
    D3        3.04795  -0.00007   0.00000   0.00336   0.00337   3.05132
    D4       -0.01564   0.00001   0.00000  -0.00243  -0.00243  -0.01807
    D5       -3.08859  -0.00006   0.00000  -0.03166  -0.03166  -3.12025
    D6       -0.99737  -0.00005   0.00000  -0.03345  -0.03345  -1.03082
    D7        1.09746  -0.00009   0.00000  -0.03451  -0.03451   1.06295
    D8        0.02629  -0.00001   0.00000  -0.03090  -0.03090  -0.00462
    D9        2.11751  -0.00001   0.00000  -0.03269  -0.03269   2.08482
   D10       -2.07084  -0.00005   0.00000  -0.03375  -0.03375  -2.10460
   D11       -0.00051   0.00010   0.00000   0.00108   0.00108   0.00057
   D12       -3.13691  -0.00005   0.00000   0.00103   0.00103  -3.13588
   D13       -3.14137   0.00033   0.00000   0.00200   0.00200  -3.13937
   D14        0.00542   0.00018   0.00000   0.00195   0.00195   0.00737
   D15       -2.13392  -0.00008   0.00000   0.00899   0.00899  -2.12492
   D16        0.93130  -0.00018   0.00000   0.01482   0.01482   0.94613
   D17        2.26746  -0.00000   0.00000   0.00791   0.00791   2.27537
   D18       -0.95050  -0.00011   0.00000   0.01374   0.01374  -0.93676
   D19        1.45515  -0.00059   0.00000  -0.01711  -0.01711   1.43804
   D20       -2.94263  -0.00025   0.00000  -0.01462  -0.01462  -2.95726
   D21        0.65744   0.00047   0.00000  -0.03224  -0.03224   0.62520
   D22       -2.47889   0.00032   0.00000  -0.03230  -0.03230  -2.51118
   D23       -2.42429   0.00004   0.00000   0.06400   0.06400  -2.36029
   D24       -0.30197   0.00004   0.00000   0.06551   0.06551  -0.23646
   D25        1.81348  -0.00002   0.00000   0.06486   0.06486   1.87834
   D26        0.79548   0.00009   0.00000   0.05801   0.05801   0.85349
   D27        2.91781   0.00010   0.00000   0.05951   0.05952   2.97732
   D28       -1.24993   0.00004   0.00000   0.05886   0.05886  -1.19107
   D29       -2.50790   0.00162   0.00000   0.04666   0.04666  -2.46124
         Item               Value     Threshold  Converged?
 Maximum Force            0.001622     0.000450     NO 
 RMS     Force            0.000397     0.000300     NO 
 Maximum Displacement     0.145128     0.001800     NO 
 RMS     Displacement     0.037796     0.001200     NO 
 Predicted change in Energy=-3.780567D-05
 GradGradGradGradGradGradGradGradGradGradGradGradGradGradGradGradGradGrad

                          Input orientation:                          
 ---------------------------------------------------------------------
 Center     Atomic      Atomic             Coordinates (Angstroms)
 Number     Number       Type             X           Y           Z
 ---------------------------------------------------------------------
      1          6           0        1.420864    0.034975    0.632145
      2          6           0       -2.046848   -0.568416    1.032049
      3          6           0        0.691443    2.154724   -0.192585
      4          6           0       -1.794719    0.566246    1.665703
      5          7           0        1.130572    0.750082   -0.391093
      6          1           0       -2.334433    0.768510    2.592205
      7          1           0       -0.311964    2.170123   -0.672080
      8          1           0       -2.755223   -1.339013    1.348173
      9          1           0        1.326372    2.737432   -0.893378
     10          1           0        1.367260    0.593752    1.571265
     11          1           0       -1.071556    1.304895    1.291157
     12          9           0       -1.430276   -0.907733   -0.115459
     13          6           0        1.770856   -1.412835    0.620821
     14          1           0        1.949848   -1.763183    1.643653
     15          1           0        0.945608   -1.998273    0.187545
     16          1           0        2.675977   -1.606069    0.024219
     17          6           0        1.136097    0.188787   -1.740294
     18          1           0        1.646982    0.900824   -2.399875
     19          1           0        1.628330   -0.790552   -1.798107
     20          1           0        0.092211    0.093422   -2.068563
 ---------------------------------------------------------------------
                    Distance matrix (angstroms):
                    1          2          3          4          5
     1  C    0.000000
     2  C    3.542461   0.000000
     3  C    2.388634   4.051353   0.000000
     4  C    3.419132   1.323836   3.486761   0.000000
     5  N    1.281665   3.722871   1.485012   3.580717   0.000000
     6  H    4.299088   2.074648   4.339651   1.091150   4.572381
     7  H    3.043444   3.662441   1.112195   3.199408   2.043619
     8  H    4.454238   1.093412   5.143894   2.157175   4.742232
     9  H    3.104743   5.100443   1.110763   4.583029   2.059172
    10  H    1.094099   3.646576   2.450414   3.163508   1.982753
    11  H    2.873874   2.127821   2.455986   1.099478   2.826155
    12  F    3.094610   1.346132   3.726431   2.340507   3.063049
    13  C    1.489555   3.931541   3.815002   4.209734   2.472275
    14  H    2.129869   4.216053   4.506145   4.410045   3.335851
    15  H    2.134861   3.422349   4.178096   4.033745   2.814691
    16  H    2.153580   4.939385   4.257809   5.234553   2.848193
    17  C    2.394414   4.288401   2.541266   4.509210   1.461310
    18  H    3.161325   5.251776   2.712462   5.337244   2.079569
    19  H    2.575008   4.643927   3.482831   5.055308   2.144996
    20  H    3.010409   3.824579   2.850849   4.210560   2.079255
                    6          7          8          9         10
     6  H    0.000000
     7  H    4.087842   0.000000
     8  H    2.483211   4.729162   0.000000
     9  H    5.424706   1.747844   6.188811   0.000000
    10  H    3.843877   3.215172   4.558532   3.266727   0.000000
    11  H    1.890844   2.275939   3.135002   3.546042   2.555779
    12  F    3.310398   3.321694   2.020818   4.635893   3.595234
    13  C    5.049556   4.341350   4.584744   4.440167   2.256684
    14  H    5.065992   5.094046   4.733383   5.203920   2.428948
    15  H    4.918958   4.438013   3.934187   4.872399   2.968344
    16  H    6.110433   4.865413   5.596615   4.639980   2.990870
    17  C    5.581327   2.676500   5.197612   2.692409   3.344228
    18  H    6.386708   2.904112   6.200334   2.396968   3.992806
    19  H    6.116290   3.714603   5.423598   3.654640   3.652003
    20  H    5.297840   2.534997   4.672669   3.145632   3.889014
                   11         12         13         14         15
    11  H    0.000000
    12  F    2.646313   0.000000
    13  C    3.989324   3.323324   0.000000
    14  H    4.320444   3.905318   1.095886   0.000000
    15  H    4.024652   2.631713   1.100682   1.784381   0.000000
    16  H    4.911502   4.167553   1.101144   1.781717   1.781762
    17  C    3.912688   3.229353   2.922837   3.990423   2.921657
    18  H    4.601896   4.237801   3.806964   4.851678   3.948599
    19  H    4.606934   3.492865   2.501752   3.590974   2.422294
    20  H    3.756294   2.671123   3.509907   4.547345   3.192725
                   16         17         18         19         20
    16  H    0.000000
    17  C    2.950634   0.000000
    18  H    3.635873   1.096835   0.000000
    19  H    2.254663   1.097607   1.795335   0.000000
    20  H    3.734146   1.098432   1.782969   1.792824   0.000000
 Stoichiometry    C6H12FN
 Framework group  C1[X(C6H12FN)]
 Deg. of freedom    54
 Full point group                 C1      NOp   1
 Largest Abelian subgroup         C1      NOp   1
 Largest concise Abelian subgroup C1      NOp   1
                         Standard orientation:                         
 ---------------------------------------------------------------------
 Center     Atomic      Atomic             Coordinates (Angstroms)
 Number     Number       Type             X           Y           Z
 ---------------------------------------------------------------------
      1          6           0       -0.924743   -0.455184   -0.941610
      2          6           0        2.397064   -0.199228    0.262183
      3          6           0       -0.980670    1.895714   -0.522416
      4          6           0        2.287101    0.693870   -0.708810
      5          7           0       -1.240771    0.486760   -0.131960
      6          1           0        3.148488    0.855087   -1.358910
      7          1           0       -0.317103    2.259603    0.292595
      8          1           0        3.280699   -0.803741    0.484225
      9          1           0       -1.944407    2.412156   -0.326732
     10          1           0       -0.539759   -0.084763   -1.896402
     11          1           0        1.369015    1.275027   -0.876813
     12          9           0        1.389446   -0.469586    1.112881
     13          6           0       -1.015421   -1.916390   -0.666965
     14          1           0       -0.657688   -2.483586   -1.533730
     15          1           0       -0.395458   -2.176843    0.204418
     16          1           0       -2.050662   -2.224879   -0.453356
     17          6           0       -1.768064    0.202062    1.200832
     18          1           0       -2.623996    0.865741    1.373919
     19          1           0       -2.076651   -0.843519    1.328405
     20          1           0       -0.983703    0.443606    1.930891
 ---------------------------------------------------------------------
 Rotational constants (GHZ):           2.3076385           1.2983937           1.1441533
 Standard basis: def2SVP (5D, 7F)
 There are   180 symmetry adapted cartesian basis functions of A   symmetry.
 There are   172 symmetry adapted basis functions of A   symmetry.
   172 basis functions,   284 primitive gaussians,   180 cartesian basis functions
    32 alpha electrons       32 beta electrons
       nuclear repulsion energy       384.9327981763 Hartrees.
 NAtoms=   20 NActive=   20 NUniq=   20 SFac= 1.00D+00 NAtFMM=   60 NAOKFM=F Big=F
 Integral buffers will be    131072 words long.
 Raffenetti 2 integral format.
 Two-electron integral symmetry is turned on.
 Nuclear repulsion after empirical dispersion term =      384.9204599568 Hartrees.
 ------------------------------------------------------------------------------
 Polarizable Continuum Model (PCM)
 =================================
 Model                : PCM.
 Atomic radii         : UFF (Universal Force Field).
 Polarization charges : Total charges.
 Charge compensation  : None.
 Solution method      : On-the-fly selection.
 Cavity type          : Scaled VdW (van der Waals Surface) (Alpha=1.100).
 Cavity algorithm     : GePol (No added spheres)
                        Default sphere list used, NSphG=   20.
                        Lebedev-Laikov grids with approx.  5.0 points / Ang**2.
                        Smoothing algorithm: York/Karplus (Gamma=1.0000).
                        Polarization charges: spherical gaussians, with
                                              point-specific exponents (IZeta= 3).
                        Self-potential: point-specific (ISelfS= 7).
                        Self-field    : sphere-specific E.n sum rule (ISelfD= 2).
 1st derivatives      : Analytical E(r).r(x)/FMM algorithm (CHGder, D1EAlg=3).
                        Cavity 1st derivative terms included.
 Solvent              : Toluene, Eps=   2.374100 Eps(inf)=   2.238315
 ------------------------------------------------------------------------------
 Spheres list:
 ISph  on   Nord     Re0    Alpha      Xe            Ye            Ze
    1   C      1    1.9255  1.100     -0.924743     -0.455184     -0.941610
    2   C      2    1.9255  1.100      2.397064     -0.199228      0.262183
    3   C      3    1.9255  1.100     -0.980670      1.895714     -0.522416
[...]
      9          1           0        1.322972    2.736934   -0.895491
     10          1           0        1.362757    0.593927    1.570756
     11          1           0       -1.068918    1.305185    1.298394
     12          9           0       -1.434635   -0.900254   -0.120332
     13          6           0        1.770408   -1.412536    0.622044
     14          1           0        1.952493   -1.761066    1.644950
     15          1           0        0.943808   -1.998833    0.192360
     16          1           0        2.673536   -1.606945    0.022901
     17          6           0        1.139095    0.188375   -1.741408
     18          1           0        1.650275    0.901022   -2.400107
     19          1           0        1.632419   -0.790426   -1.798498
     20          1           0        0.095800    0.091877   -2.071239
 ---------------------------------------------------------------------
                    Distance matrix (angstroms):
                    1          2          3          4          5
     1  C    0.000000
     2  C    3.541347   0.000000
     3  C    2.388538   4.047649   0.000000
     4  C    3.416821   1.323872   3.486395   0.000000
     5  N    1.281812   3.722296   1.484929   3.581807   0.000000
     6  H    4.296040   2.074308   4.341586   1.091173   4.573855
     7  H    3.042965   3.657857   1.112239   3.200962   2.043815
     8  H    4.452923   1.093415   5.140146   2.157040   4.741135
     9  H    3.105207   5.096905   1.110773   4.582866   2.058980
    10  H    1.094091   3.642533   2.450168   3.156935   1.982817
    11  H    2.872211   2.128459   2.457264   1.099575   2.829195
    12  F    3.096228   1.346080   3.720196   2.340785   3.062075
    13  C    1.489556   3.932129   3.814962   4.207473   2.472549
    14  H    2.129900   4.219931   4.506146   4.408709   3.336126
    15  H    2.134517   3.421262   4.178165   4.030322   2.816212
    16  H    2.153993   4.938531   4.257709   5.232111   2.847282
    17  C    2.394709   4.290382   2.541109   4.513448   1.461303
    18  H    3.161664   5.253092   2.712473   5.341171   2.079558
    19  H    2.575562   4.647197   3.482801   5.059183   2.145098
    20  H    3.010354   3.827185   2.850207   4.217057   2.079039
                    6          7          8          9         10
     6  H    0.000000
     7  H    4.092426   0.000000
     8  H    2.482375   4.724161   0.000000
     9  H    5.426842   1.747820   6.185056   0.000000
    10  H    3.836907   3.214029   4.554945   3.267481   0.000000
    11  H    1.890799   2.281388   3.135391   3.547417   2.548158
    12  F    3.310324   3.312245   2.020678   4.629731   3.594128
    13  C    5.044926   4.340811   4.584767   4.440858   2.256575
    14  H    5.061466   5.094193   4.737581   5.204051   2.428845
    15  H    4.912514   4.437422   3.931571   4.873877   2.966125
    16  H    6.106082   4.864066   5.595006   4.640771   2.992965
    17  C    5.585610   2.677103   5.198433   2.691569   3.344387
    18  H    6.391228   2.905363   6.200690   2.396158   3.993085
    19  H    6.119324   3.715012   5.425713   3.654237   3.652537
    20  H    5.304750   2.534945   4.673646   3.143988   3.888619
                   11         12         13         14         15
    11  H    0.000000
    12  F    2.647734   0.000000
    13  C    3.988136   3.329543   0.000000
    14  H    4.318671   3.915335   1.095886   0.000000
    15  H    4.023793   2.638492   1.100745   1.784375   0.000000
    16  H    4.910534   4.170971   1.101093   1.781769   1.781642
    17  C    3.919564   3.230648   2.923590   3.991160   2.925999
    18  H    4.608282   4.237763   3.807936   4.851859   3.953370
    19  H    4.612976   3.497875   2.503016   3.591925   2.428569
    20  H    3.766047   2.670692   3.510177   4.548710   3.195945
                   16         17         18         19         20
    16  H    0.000000
    17  C    2.947960   0.000000
    18  H    3.634271   1.096838   0.000000
    19  H    2.251250   1.097579   1.795340   0.000000
    20  H    3.730434   1.098437   1.783048   1.792775   0.000000
 Stoichiometry    C6H12FN
 Framework group  C1[X(C6H12FN)]
 Deg. of freedom    54
 Full point group                 C1      NOp   1
 Largest Abelian subgroup         C1      NOp   1
 Largest concise Abelian subgroup C1      NOp   1
                         Standard orientation:                         
 ---------------------------------------------------------------------
 Center     Atomic      Atomic             Coordinates (Angstroms)
 Number     Number       Type             X           Y           Z
 ---------------------------------------------------------------------
      1          6           0       -0.923577   -0.458119   -0.940451
      2          6           0        2.396170   -0.199542    0.265183
      3          6           0       -0.976162    1.893874   -0.527564
      4          6           0        2.288500    0.684699   -0.714185
      5          7           0       -1.240477    0.486612   -0.134164
      6          1           0        3.150526    0.836806   -1.365671
      7          1           0       -0.312794    2.258290    0.287432
      8          1           0        3.278279   -0.804370    0.492394
      9          1           0       -1.938901    2.413140   -0.334398
     10          1           0       -0.534761   -0.090801   -1.894880
     11          1           0        1.372228    1.267040   -0.888515
     12          9           0        1.388443   -0.459303    1.118963
     13          6           0       -1.016572   -1.918497   -0.662193
     14          1           0       -0.661889   -2.488469   -1.528389
     15          1           0       -0.394673   -2.177671    0.208273
     16          1           0       -2.051595   -2.224947   -0.444890
     17          6           0       -1.771818    0.206720    1.198031
     18          1           0       -2.626960    0.872495    1.366943
     19          1           0       -2.082595   -0.837884    1.328023
     20          1           0       -0.988747    0.449005    1.929236
 ---------------------------------------------------------------------
 Rotational constants (GHZ):           2.3079397           1.2973759           1.1447375

 **********************************************************************

            Population analysis using the SCF Density.

 **********************************************************************

 Orbital symmetries:
       Occupied  (A) (A) (A) (A) (A) (A) (A) (A) (A) (A) (A) (A)
                 (A) (A) (A) (A) (A) (A) (A) (A) (A) (A) (A) (A)
                 (A) (A) (A) (A) (A) (A) (A) (A)
       Virtual   (A) (A) (A) (A) (A) (A) (A) (A) (A) (A) (A) (A)
                 (A) (A) (A) (A) (A) (A) (A) (A) (A) (A) (A) (A)
                 (A) (A) (A) (A) (A) (A) (A) (A) (A) (A) (A) (A)
                 (A) (A) (A) (A) (A) (A) (A) (A) (A) (A) (A) (A)
                 (A) (A) (A) (A) (A) (A) (A) (A) (A) (A) (A) (A)
                 (A) (A) (A) (A) (A) (A) (A) (A) (A) (A) (A) (A)
                 (A) (A) (A) (A) (A) (A) (A) (A) (A) (A) (A) (A)
                 (A) (A) (A) (A) (A) (A) (A) (A) (A) (A) (A) (A)
                 (A) (A) (A) (A) (A) (A) (A) (A) (A) (A) (A) (A)
                 (A) (A) (A) (A) (A) (A) (A) (A) (A) (A) (A) (A)
                 (A) (A) (A) (A) (A) (A) (A) (A) (A) (A) (A) (A)
                 (A) (A) (A) (A) (A) (A) (A) (A)
 The electronic state is 1-A.
 Alpha  occ. eigenvalues --  -24.82784 -14.52797 -10.37909 -10.37701 -10.34000
 Alpha  occ. eigenvalues --  -10.32437 -10.29225 -10.23169  -1.31073  -1.08261
 Alpha  occ. eigenvalues --   -0.87366  -0.85643  -0.82209  -0.74816  -0.69452
 Alpha  occ. eigenvalues --   -0.65607  -0.61754  -0.58437  -0.57669  -0.56361
 Alpha  occ. eigenvalues --   -0.56198  -0.55562  -0.51702  -0.49765  -0.48712
 Alpha  occ. eigenvalues --   -0.48441  -0.46088  -0.45171  -0.44300  -0.37053
 Alpha  occ. eigenvalues --   -0.34608  -0.22340
 Alpha virt. eigenvalues --    0.02601   0.09009   0.13261   0.16437   0.16691
 Alpha virt. eigenvalues --    0.17040   0.19359   0.20794   0.21179   0.21586
 Alpha virt. eigenvalues --    0.22628   0.22913   0.24364   0.25105   0.27205
 Alpha virt. eigenvalues --    0.28947   0.32325   0.36034   0.37481   0.41354
 Alpha virt. eigenvalues --    0.44217   0.48873   0.48879   0.51132   0.53632
 Alpha virt. eigenvalues --    0.54842   0.55844   0.56976   0.58500   0.59899
 Alpha virt. eigenvalues --    0.61946   0.65423   0.66630   0.67968   0.69421
 Alpha virt. eigenvalues --    0.71094   0.71675   0.72159   0.72964   0.74282
 Alpha virt. eigenvalues --    0.74862   0.75001   0.75377   0.76494   0.76719
 Alpha virt. eigenvalues --    0.77663   0.80103   0.82150   0.83470   0.84384
 Alpha virt. eigenvalues --    0.88464   0.88704   0.91748   0.92114   1.00310
 Alpha virt. eigenvalues --    1.08441   1.11055   1.15049   1.19203   1.20733
 Alpha virt. eigenvalues --    1.27929   1.28132   1.30716   1.32783   1.33742
 Alpha virt. eigenvalues --    1.36103   1.39720   1.46052   1.49155   1.55165
 Alpha virt. eigenvalues --    1.59002   1.59653   1.60418   1.61825   1.64841
 Alpha virt. eigenvalues --    1.66960   1.68403   1.71480   1.73675   1.76469
 Alpha virt. eigenvalues --    1.77571   1.79575   1.81604   1.82646   1.84932
 Alpha virt. eigenvalues --    1.85233   1.85502   1.88296   1.91243   1.91683
 Alpha virt. eigenvalues --    1.93090   1.96484   1.97550   1.98390   2.02675
 Alpha virt. eigenvalues --    2.04524   2.05141   2.05590   2.10418   2.13687
 Alpha virt. eigenvalues --    2.17336   2.18298   2.18578   2.21398   2.24061
 Alpha virt. eigenvalues --    2.31819   2.34481   2.35621   2.38058   2.40213
 Alpha virt. eigenvalues --    2.41888   2.49957   2.51755   2.52346   2.55013
 Alpha virt. eigenvalues --    2.58116   2.63202   2.72233   2.73715   2.76716
 Alpha virt. eigenvalues --    2.78920   2.81515   2.84345   2.88197   2.91703
 Alpha virt. eigenvalues --    2.94359   2.98843   3.01740   3.02475   3.05641
 Alpha virt. eigenvalues --    3.08104   3.10348   3.14704   3.17347   3.29378
 Alpha virt. eigenvalues --    3.31487   3.39555   3.44917   3.61268   3.94557
          Condensed to atoms (all electrons):
               1          2          3          4          5          6
     1  C    4.922917  -0.000985  -0.090096   0.007541   0.539404  -0.000025
     2  C   -0.000985   4.545318  -0.000166   0.611143  -0.000845  -0.005788
     3  C   -0.090096  -0.000166   5.349308  -0.031749   0.264219   0.000241
     4  C    0.007541   0.611143  -0.031749   5.002774   0.000285   0.370489
     5  N    0.539404  -0.000845   0.264219   0.000285   6.285787   0.000057
     6  H   -0.000025  -0.005788   0.000241   0.370489   0.000057   0.591390
     7  H   -0.000041  -0.000111   0.363515   0.002732  -0.033877   0.000108
     8  H    0.000274   0.421860  -0.000048  -0.061827  -0.000029  -0.006864
     9  H    0.004246   0.000009   0.358764   0.000788  -0.031862  -0.000008
    10  H    0.383974  -0.000287   0.032385  -0.004004  -0.026535   0.000116
    11  H   -0.010778  -0.013940   0.079178   0.319718  -0.003090  -0.023058
    12  F    0.009890   0.295207  -0.000877  -0.059377  -0.002404   0.002615
    13  C    0.299526   0.001241   0.011000  -0.001278  -0.042365   0.000012
    14  H   -0.008802   0.000138  -0.000244   0.000200   0.004130  -0.000003
    15  H   -0.003181  -0.001529  -0.000361  -0.000679  -0.007914  -0.000027
    16  H   -0.010482  -0.000004  -0.000212   0.000012  -0.004747   0.000000
    17  C   -0.086761  -0.000023  -0.037545  -0.001103   0.307604   0.000004
    18  H    0.005770   0.000001  -0.000639   0.000020  -0.022708  -0.000000
    19  H   -0.009606  -0.000024   0.006345   0.000220  -0.013229  -0.000000
    20  H    0.000441  -0.000039  -0.001099  -0.000059  -0.022182  -0.000007
               7          8          9         10         11         12
     1  C   -0.000041   0.000274   0.004246   0.383974  -0.010778   0.009890
     2  C   -0.000111   0.421860   0.000009  -0.000287  -0.013940   0.295207
     3  C    0.363515  -0.000048   0.358764   0.032385   0.079178  -0.000877
     4  C    0.002732  -0.061827   0.000788  -0.004004   0.319718  -0.059377
     5  N   -0.033877  -0.000029  -0.031862  -0.026535  -0.003090  -0.002404
     6  H    0.000108  -0.006864  -0.000008   0.000116  -0.023058   0.002615
     7  H    0.733632   0.000029  -0.039539  -0.001558  -0.007254   0.001153
     8  H    0.000029   0.616741   0.000001  -0.000031   0.004838  -0.031043
     9  H   -0.039539   0.000001   0.743794  -0.000462  -0.002731   0.000002
    10  H   -0.001558  -0.000031  -0.000462   0.555321   0.008464  -0.000123
    11  H   -0.007254   0.004838  -0.002731   0.008464   0.572095  -0.001799
    12  F    0.001153  -0.031043   0.000002  -0.000123  -0.001799   9.005921
    13  C   -0.000969  -0.000139  -0.000850  -0.034326   0.002359  -0.006933
    14  H    0.000023   0.000004   0.000019  -0.008474  -0.000124  -0.000077
    15  H    0.000182   0.000029  -0.000015   0.002416  -0.000232   0.011943
    16  H   -0.000038   0.000001   0.000082   0.002948  -0.000009   0.000091
    17  C   -0.003372  -0.000008  -0.009283   0.009248   0.002191   0.000119
    18  H   -0.001928   0.000001   0.008809  -0.000351  -0.000087   0.000095
    19  H    0.000966   0.000001   0.000939  -0.000893  -0.000431  -0.000332
    20  H    0.005421   0.000072  -0.001520  -0.000318  -0.000061   0.006929
              13         14         15         16         17         18
     1  C    0.299526  -0.008802  -0.003181  -0.010482  -0.086761   0.005770
     2  C    0.001241   0.000138  -0.001529  -0.000004  -0.000023   0.000001
     3  C    0.011000  -0.000244  -0.000361  -0.000212  -0.037545  -0.000639
     4  C   -0.001278   0.000200  -0.000679   0.000012  -0.001103   0.000020
     5  N   -0.042365   0.004130  -0.007914  -0.004747   0.307604  -0.022708
     6  H    0.000012  -0.000003  -0.000027   0.000000   0.000004  -0.000000
     7  H   -0.000969   0.000023   0.000182  -0.000038  -0.003372  -0.001928
     8  H   -0.000139   0.000004   0.000029   0.000001  -0.000008   0.000001
     9  H   -0.000850   0.000019  -0.000015   0.000082  -0.009283   0.008809
    10  H   -0.034326  -0.008474   0.002416   0.002948   0.009248  -0.000351
    11  H    0.002359  -0.000124  -0.000232  -0.000009   0.002191  -0.000087
    12  F   -0.006933  -0.000077   0.011943   0.000091   0.000119   0.000095
    13  C    4.679553   0.387246   0.373130   0.386583   0.009298  -0.000476
    14  H    0.387246   0.577701  -0.014627  -0.014361   0.000428  -0.000014
    15  H    0.373130  -0.014627   0.564068  -0.013555  -0.000029  -0.000031
    16  H    0.386583  -0.014361  -0.013555   0.559249  -0.002156   0.000350
    17  C    0.009298   0.000428  -0.000029  -0.002156   4.605802   0.395017
    18  H   -0.000476  -0.000014  -0.000031   0.000350   0.395017   0.578346
    19  H    0.004180   0.000353  -0.000153   0.002494   0.360163  -0.018329
    20  H   -0.000498  -0.000013   0.000672  -0.000321   0.397530  -0.014971
              19         20
     1  C   -0.009606   0.000441
     2  C   -0.000024  -0.000039
     3  C    0.006345  -0.001099
     4  C    0.000220  -0.000059
     5  N   -0.013229  -0.022182
     6  H   -0.000000  -0.000007
     7  H    0.000966   0.005421
     8  H    0.000001   0.000072
     9  H    0.000939  -0.001520
    10  H   -0.000893  -0.000318
    11  H   -0.000431  -0.000061
    12  F   -0.000332   0.006929
    13  C    0.004180  -0.000498
    14  H    0.000353  -0.000013
    15  H   -0.000153   0.000672
    16  H    0.002494  -0.000321
    17  C    0.360163   0.397530
    18  H   -0.018329  -0.014971
    19  H    0.635825  -0.018002
    20  H   -0.018002   0.566723
 Mulliken charges:
               1
     1  C    0.046775
     2  C    0.148825
     3  C   -0.301917
     4  C   -0.155845
     5  N   -0.189698
     6  H    0.070749
     7  H   -0.019072
     8  H    0.056141
     9  H   -0.031183
    10  H    0.082490
    11  H    0.074751
    12  F   -0.231000
    13  C   -0.066293
    14  H    0.076497
    15  H    0.089895
    16  H    0.094073
    17  C    0.052874
    18  H    0.071126
    19  H    0.049513
    20  H    0.081303
 Sum of Mulliken charges =  -0.00000
 Mulliken charges with hydrogens summed into heavy atoms:
               1
     1  C    0.129265
     2  C    0.204965
     3  C   -0.352173
     4  C   -0.010345
     5  N   -0.189698
    12  F   -0.231000
    13  C    0.194171
    17  C    0.254815
 Electronic spatial extent (au):  <R**2>=           1205.4341
 Charge=             -0.0000 electrons
 Dipole moment (field-independent basis, Debye):
    X=             -0.2848    Y=             -5.8877    Z=              1.6044  Tot=              6.1090
 Quadrupole moment (field-independent basis, Debye-Ang):
   XX=            -41.7798   YY=            -56.7114   ZZ=            -50.8889
   XY=              3.7451   XZ=             -4.0274   YZ=              6.6436
 Traceless Quadrupole moment (field-independent basis, Debye-Ang):
   XX=              8.0136   YY=             -6.9180   ZZ=             -1.0955
   XY=              3.7451   XZ=             -4.0274   YZ=              6.6436
 Octapole moment (field-independent basis, Debye-Ang**2):
  XXX=             19.9421  YYY=            -39.3101  ZZZ=             13.7447  XYY=              5.4880
  XXY=            -12.6813  XXZ=              6.8411  XZZ=              2.2185  YZZ=            -12.3918
  YYZ=             13.5886  XYZ=             -8.5636
 Hexadecapole moment (field-independent basis, Debye-Ang**3):
 XXXX=           -772.6586 YYYY=           -506.4952 ZZZZ=           -266.8216 XXXY=            -10.9903
 XXXZ=             -9.2124 YYYX=             18.6870 YYYZ=             32.1479 ZZZX=              0.2477
 ZZZY=             18.8280 XXYY=           -220.8329 XXZZ=           -182.8651 YYZZ=           -136.9949
 XXYZ=             -2.0728 YYXZ=             -5.6164 ZZXY=              9.5875
 N-N= 3.849041630914D+02 E-N=-1.678230631548D+03  KE= 3.859527915371D+02
 Unable to Open any file for archive entry.
 1\1\GINC-NODE-008\FTS\RwB97XD\def2SVP\C6H12F1N1\JP2658\22-Dec-2023\0\\
 # wb97xd def2svp geom=allchk scrf=(iefpcm,solvent=toluene) opt=(readfc
 ,ts,noeigen,maxcycles=50,maxstep=10)\\allyl_ts_46_reopt.out\\0,1\C,1.4
 194826843,0.0350594102,0.6318827406\C,-2.0476909206,-0.5657847947,1.03
 04176582\C,0.6887234222,2.1535442247,-0.1946333538\C,-1.792498944,0.56
 512118,1.6696083145\N,1.1305204097,0.7496998166,-0.3922424284\H,-2.330
 1261181,0.7625343797,2.5983947281\H,-0.3145433248,2.1671834158,-0.6745
 758675\H,-2.7564771914,-1.3369178591,1.3443177378\H,1.3229716874,2.736
 9342758,-0.8954907472\H,1.3627566176,0.593927308,1.5707560438\H,-1.068
 9177548,1.3051853332,1.2983936191\F,-1.4346350412,-0.9002540621,-0.120
 3316169\C,1.7704082286,-1.4125361786,0.6220438479\H,1.9524925207,-1.76
 10662808,1.6449501091\H,0.9438080846,-1.9988326222,0.1923599177\H,2.67
 35357717,-1.6069453124,0.0229012382\C,1.1390952165,0.1883749471,-1.741
 4079248\H,1.6502750104,0.9010216034,-2.4001068317\H,1.6324193495,-0.79
 0425728,-1.7984984531\H,0.0958002918,0.0918769434,-2.0712387316\\Versi
 on=ES64L-G16RevC.01\State=1-A\HF=-389.8994873\RMSD=6.734e-09\RMSF=9.50
 8e-06\Dipole=0.4497224,-2.3552459,-0.1652033\Quadrupole=4.3277222,-8.2
 468636,3.9191414,-2.6648999,-3.0315205,-2.2541629\PG=C01 [X(C6H12F1N1)
 ]\\@
 The archive entry for this job was punched.


 Boundary, n.  In political geography, an imaginary
 line between two nations, separating the imaginary
 rights of one from the imaginary rights of another.
                               -- Ambrose Bierce
 Job cpu time:       0 days  0 hours 42 minutes 54.8 seconds.
 Elapsed time:       0 days  0 hours  3 minutes 39.8 seconds.
 File lengths (MBytes):  RWF=    101 Int=      0 D2E=      0 Chk=      8 Scr=      1
 Normal termination of Gaussian 16 at Fri Dec 22 17:40:38 2023.
