Unloading slurm/anatra/current
  ERROR: No such file or directory on
    '/cm/local/modulefiles/slurm/anatra/current'
environment: line 0: unalias: gv: not found
environment: line 0: unalias: sl: not found
 Entering Gaussian System, Link 0=g16
 Initial command:
 /apps/gaussian/g16/C.01/g16/l1.exe "/local/jobs/1152782/Gau-3951269.inp" -scrdir="/local/jobs/1152782/"
 Entering Link 1 = /apps/gaussian/g16/C.01/g16/l1.exe PID=   3951270.
  
 Copyright (c) 1988-2019, Gaussian, Inc.  All Rights Reserved.
  
 This is part of the Gaussian(R) 16 program.  It is based on
 the Gaussian(R) 09 system (copyright 2009, Gaussian, Inc.),
 the Gaussian(R) 03 system (copyright 2003, Gaussian, Inc.),
 the Gaussian(R) 98 system (copyright 1998, Gaussian, Inc.),
 the Gaussian(R) 94 system (copyright 1995, Gaussian, Inc.),
 the Gaussian 92(TM) system (copyright 1992, Gaussian, Inc.),
 the Gaussian 90(TM) system (copyright 1990, Gaussian, Inc.),
 the Gaussian 88(TM) system (copyright 1988, Gaussian, Inc.),
 the Gaussian 86(TM) system (copyright 1986, Carnegie Mellon
 University), and the Gaussian 82(TM) system (copyright 1983,
 Carnegie Mellon University). Gaussian is a federally registered
 trademark of Gaussian, Inc.
  
 This software contains proprietary and confidential information,
 including trade secrets, belonging to Gaussian, Inc.
  
 This software is provided under written license and may be
 used, copied, transmitted, or stored only in accord with that
 written license.
  
 The following legend is applicable only to US Government
 contracts under FAR:
  
                    RESTRICTED RIGHTS LEGEND
  
 Use, reproduction and disclosure by the US Government is
 subject to restrictions as set forth in subparagraphs (a)
 and (c) of the Commercial Computer Software - Restricted
 Rights clause in FAR 52.227-19.
  
 Gaussian, Inc.
 340 Quinnipiac St., Bldg. 40, Wallingford CT 06492
  
  
 ---------------------------------------------------------------
 Warning -- This program may not be used in any manner that
 competes with the business of Gaussian, Inc. or will provide
 assistance to any competitor of Gaussian, Inc.  The licensee
 of this program is prohibited from giving any competitor of
 Gaussian, Inc. access to this program.  By using this program,
 the user acknowledges that Gaussian, Inc. is engaged in the
 business of creating and licensing software in the field of
 computational chemistry and represents and warrants to the
 licensee that it is not a competitor of Gaussian, Inc. and that
 it will not use this program in any manner prohibited above.
 ---------------------------------------------------------------
  

 Cite this work as:
 Gaussian 16, Revision C.01,
 M. J. Frisch, G. W. Trucks, H. B. Schlegel, G. E. Scuseria, 
 M. A. Robb, J. R. Cheeseman, G. Scalmani, V. Barone, 
 G. A. Petersson, H. Nakatsuji, X. Li, M. Caricato, A. V. Marenich, 
 J. Bloino, B. G. Janesko, R. Gomperts, B. Mennucci, H. P. Hratchian, 
 J. V. Ortiz, A. F. Izmaylov, J. L. Sonnenberg, D. Williams-Young, 
 F. Ding, F. Lipparini, F. Egidi, J. Goings, B. Peng, A. Petrone, 
 T. Henderson, D. Ranasinghe, V. G. Zakrzewski, J. Gao, N. Rega, 
 G. Zheng, W. Liang, M. Hada, M. Ehara, K. Toyota, R. Fukuda, 
 J. Hasegawa, M. Ishida, T. Nakajima, Y. Honda, O. Kitao, H. Nakai, 
 T. Vreven, K. Throssell, J. A. Montgomery, Jr., J. E. Peralta, 
 F. Ogliaro, M. J. Bearpark, J. J. Heyd, E. N. Brothers, K. N. Kudin, 
 V. N. Staroverov, T. A. Keith, R. Kobayashi, J. Normand, 
 K. Raghavachari, A. P. Rendell, J. C. Burant, S. S. Iyengar, 
 J. Tomasi, M. Cossi, J. M. Millam, M. Klene, C. Adamo, R. Cammi, 
 J. W. Ochterski, R. L. Martin, K. Morokuma, O. Farkas, 
 J. B. Foresman, and D. J. Fox, Gaussian, Inc., Wallingford CT, 2019.
 
 ******************************************
 Gaussian 16:  ES64L-G16RevC.01  3-Jul-2019
                22-Dec-2023 
 ******************************************
 %chk=allylic-1_1_opt_sqm.chk
 %nprocshared=12
 Will use up to   12 processors via shared memory.
 %mem=48GB
 ----------------------------------------------------------------------
 # wb97xd chkbasis guess=read geom=allchk scrf=(iefpcm,solvent=toluene)
  opt=(readfc,ts,noeigen,maxcycles=50,maxstep=10)
 ----------------------------------------------------------------------
 1/5=1,6=50,8=10,10=3,11=1,18=20,26=3,29=7,38=1/1,3;
 2/9=110,12=2,40=1/2;
 3/5=7,6=2,11=2,14=-4,25=1,30=1,67=1,70=2201,71=1,72=13,74=-58,116=-2/1,2,3;
 4/5=1/1;
 5/5=2,38=6,53=13/2;
 6/7=2,8=2,9=2,10=2,28=1/1;
 7//1,2,3,16;
 1/5=1,6=50,8=10,11=1,18=20,26=3/3(2);
 2/9=110/2;
 99//99;
 2/9=110/2;
 3/5=7,6=1,11=2,14=-2,25=1,30=1,70=2205,71=1,72=13,74=-58,82=7/1,2,3;
 4/5=5,16=3,69=1/1;
 5/5=2,38=5,53=13/2;
 7//1,2,3,16;
 1/5=1,6=50,8=10,11=1,18=20,26=3/3(-5);
 2/9=110/2;
 6/7=2,8=2,9=2,10=2,19=2,28=1/1;
 99/9=1/99;
 Structure from the checkpoint file:  "allylic-1_1_opt_sqm.chk"
 ---------------------
 allyl_ts_46_reopt.out
 ---------------------
 Charge =  0 Multiplicity = 1
 Redundant internal coordinates found in file.  (old form).
 C,0,1.3314205915,0.0325538706,0.7082556116
 C,0,-2.0686197638,-0.616118258,0.8447722639
 C,0,0.7066273453,2.180499427,-0.1324255834
 C,0,-1.8403533138,0.4873306868,1.5401957803
 N,0,1.1536973716,0.7764738952,-0.3203393844
 H,0,-2.353302148,0.6085621393,2.4948521894
 H,0,-0.2314834764,2.2253910304,-0.7239538156
 H,0,-2.7339325159,-1.433418513,1.1357383819
 H,0,1.4282720909,2.7733547047,-0.7397814801
 H,0,1.2128886879,0.5780409968,1.6508680076
 H,0,-1.1613299032,1.2787771547,1.1921331299
 F,0,-1.4809938483,-0.8606174749,-0.3400635346
 C,0,1.6434521268,-1.4227142784,0.6955558044
 H,0,2.6721736405,-1.6015151433,0.3416218746
 H,0,1.5546493053,-1.8303252033,1.7115001702
 H,0,0.9537394541,-1.9710009485,0.0400322322
 C,0,1.2951319484,0.2505665186,-1.6771294601
 H,0,1.8486854653,0.9918410807,-2.2667332439
 H,0,1.8176402079,-0.7135388652,-1.7130798831
 H,0,0.289036734,0.1435571798,-2.1045190608
 Recover connectivity data from disk.

 GradGradGradGradGradGradGradGradGradGradGradGradGradGradGradGradGradGrad
 Berny optimization.
 Initialization pass.
 Force constant matrix read from checkpoint file:
 "allylic-1_1_opt_sqm.chk"
                           ----------------------------
                           !    Initial Parameters    !
                           ! (Angstroms and Degrees)  !
 --------------------------                            --------------------------
 ! Name  Definition              Value          Derivative Info.                !
 --------------------------------------------------------------------------------
 ! R1    R(1,5)                  1.2818         D2E/DX2 =    0.5993             !
 ! R2    R(1,10)                 1.0955         D2E/DX2 =    0.287              !
 ! R3    R(1,13)                 1.4884         D2E/DX2 =    0.3438             !
 ! R4    R(2,4)                  1.3241         D2E/DX2 =    0.7384             !
 ! R5    R(2,8)                  1.0933         D2E/DX2 =    0.2703             !
 ! R6    R(2,12)                 1.345          D2E/DX2 =    0.491              !
 ! R7    R(3,5)                  1.4854         D2E/DX2 =    0.3155             !
 ! R8    R(3,7)                  1.1099         D2E/DX2 =    0.273              !
 ! R9    R(3,9)                  1.1141         D2E/DX2 =    0.2617             !
 ! R10   R(4,6)                  1.0905         D2E/DX2 =    0.277              !
 ! R11   R(4,11)                 1.0994         D2E/DX2 =    0.2774             !
 ! R12   R(5,17)                 1.462          D2E/DX2 =    0.4485             !
 ! R13   R(7,11)                 2.3307         D2E/DX2 =    0.0184             !
 ! R14   R(13,14)                1.1025         D2E/DX2 =    0.2708             !
 ! R15   R(13,15)                1.0983         D2E/DX2 =    0.2713             !
 ! R16   R(13,16)                1.0982         D2E/DX2 =    0.2779             !
 ! R17   R(17,18)                1.0971         D2E/DX2 =    0.2723             !
 ! R18   R(17,19)                1.0972         D2E/DX2 =    0.2835             !
 ! R19   R(17,20)                1.0983         D2E/DX2 =    0.2714             !
 ! A1    A(5,1,10)             112.7357         D2E/DX2 =    0.101              !
 ! A2    A(5,1,13)             126.1338         D2E/DX2 =    0.1545             !
 ! A3    A(10,1,13)            121.1229         D2E/DX2 =    0.0904             !
 ! A4    A(4,2,8)              126.0226         D2E/DX2 =    0.085              !
 ! A5    A(4,2,12)             122.6046         D2E/DX2 =    0.1207             !
 ! A6    A(8,2,12)             111.3726         D2E/DX2 =    0.0889             !
 ! A7    A(5,3,7)              103.0139         D2E/DX2 =    0.22               !
 ! A8    A(5,3,9)              103.8318         D2E/DX2 =    0.1028             !
 ! A9    A(7,3,9)              103.6161         D2E/DX2 =    0.0463             !
 ! A10   A(2,4,6)              118.1204         D2E/DX2 =    0.0789             !
 ! A11   A(2,4,11)             122.6924         D2E/DX2 =    0.1024             !
 ! A12   A(6,4,11)             119.187          D2E/DX2 =    0.0657             !
 ! A13   A(1,5,3)              119.2607         D2E/DX2 =    0.1453             !
 ! A14   A(1,5,17)             121.502          D2E/DX2 =    0.1706             !
 ! A15   A(3,5,17)             119.1123         D2E/DX2 =    0.1393             !
 ! A16   A(3,7,11)              83.2599         D2E/DX2 =    0.2068             !
 ! A17   A(4,11,7)             143.0437         D2E/DX2 =    0.1148             !
 ! A18   A(1,13,14)            110.9112         D2E/DX2 =    0.1006             !
 ! A19   A(1,13,15)            109.7573         D2E/DX2 =    0.0963             !
 ! A20   A(1,13,16)            111.1971         D2E/DX2 =    0.0966             !
 ! A21   A(14,13,15)           108.1932         D2E/DX2 =    0.0446             !
 ! A22   A(14,13,16)           108.2654         D2E/DX2 =    0.0438             !
 ! A23   A(15,13,16)           108.4267         D2E/DX2 =    0.0448             !
 ! A24   A(5,17,18)            107.7291         D2E/DX2 =    0.1162             !
 ! A25   A(5,17,19)            113.1142         D2E/DX2 =    0.1141             !
 ! A26   A(5,17,20)            107.9118         D2E/DX2 =    0.1111             !
 ! A27   A(18,17,19)           109.6232         D2E/DX2 =    0.0478             !
 ! A28   A(18,17,20)           108.5967         D2E/DX2 =    0.0463             !
 ! A29   A(19,17,20)           109.7473         D2E/DX2 =    0.0457             !
 ! D1    D(10,1,5,3)            -5.4569         D2E/DX2 =    0.0117             !
 ! D2    D(10,1,5,17)          178.6438         D2E/DX2 =    0.0116             !
 ! D3    D(13,1,5,3)           173.541          D2E/DX2 =    0.0138             !
 ! D4    D(13,1,5,17)           -2.3583         D2E/DX2 =    0.0104             !
 ! D5    D(5,1,13,14)           71.0836         D2E/DX2 =    0.0104             !
 ! D6    D(5,1,13,15)         -169.4192         D2E/DX2 =    0.0135             !
 ! D7    D(5,1,13,16)          -49.4502         D2E/DX2 =    0.0128             !
 ! D8    D(10,1,13,14)        -109.9961         D2E/DX2 =    0.0101             !
 ! D9    D(10,1,13,15)           9.5012         D2E/DX2 =    0.0132             !
 ! D10   D(10,1,13,16)         129.4702         D2E/DX2 =    0.0121             !
 ! D11   D(8,2,4,6)              0.1206         D2E/DX2 =    0.0195             !
 ! D12   D(8,2,4,11)          -179.7149         D2E/DX2 =    0.0299             !
 ! D13   D(12,2,4,6)          -179.7399         D2E/DX2 =    0.0492             !
 ! D14   D(12,2,4,11)            0.4246         D2E/DX2 =    0.0319             !
 ! D15   D(7,3,5,1)           -122.6239         D2E/DX2 =    0.0114             !
 ! D16   D(7,3,5,17)            53.3744         D2E/DX2 =    0.0118             !
 ! D17   D(9,3,5,1)            129.5733         D2E/DX2 =    0.0045             !
 ! D18   D(9,3,5,17)           -54.4284         D2E/DX2 =    0.008              !
 ! D19   D(5,3,7,11)            82.076          D2E/DX2 =    0.0924             !
 ! D20   D(9,3,7,11)          -169.958          D2E/DX2 =    0.045              !
 ! D21   D(2,4,11,7)            25.6398         D2E/DX2 =    0.0409             !
 ! D22   D(6,4,11,7)          -154.194          D2E/DX2 =    0.0169             !
 ! D23   D(1,5,17,18)         -137.0408         D2E/DX2 =    0.0141             !
 ! D24   D(1,5,17,19)          -15.7213         D2E/DX2 =    0.0131             !
 ! D25   D(1,5,17,20)          105.8819         D2E/DX2 =    0.0131             !
 ! D26   D(3,5,17,18)           47.054          D2E/DX2 =    0.013              !
 ! D27   D(3,5,17,19)          168.3735         D2E/DX2 =    0.0133             !
 ! D28   D(3,5,17,20)          -70.0233         D2E/DX2 =    0.013              !
 ! D29   D(3,7,11,4)          -134.4317         D2E/DX2 =    0.184              !
 --------------------------------------------------------------------------------
 Trust Radius=1.00D-01 FncErr=1.00D-07 GrdErr=1.00D-06 EigMax=2.50D+02 EigMin=1.00D-04
 Number of steps in this run=     50 maximum allowed number of steps=    120.
 Search for a saddle point of order  1.
 GradGradGradGradGradGradGradGradGradGradGradGradGradGradGradGradGradGrad

                          Input orientation:                          
 ---------------------------------------------------------------------
 Center     Atomic      Atomic             Coordinates (Angstroms)
 Number     Number       Type             X           Y           Z
 ---------------------------------------------------------------------
      1          6           0        1.331421    0.032554    0.708256
      2          6           0       -2.068620   -0.616118    0.844772
      3          6           0        0.706627    2.180499   -0.132426
      4          6           0       -1.840353    0.487331    1.540196
      5          7           0        1.153697    0.776474   -0.320339
      6          1           0       -2.353302    0.608562    2.494852
      7          1           0       -0.231483    2.225391   -0.723954
      8          1           0       -2.733933   -1.433419    1.135738
      9          1           0        1.428272    2.773355   -0.739781
     10          1           0        1.212889    0.578041    1.650868
     11          1           0       -1.161330    1.278777    1.192133
     12          9           0       -1.480994   -0.860617   -0.340064
     13          6           0        1.643452   -1.422714    0.695556
     14          1           0        2.672174   -1.601515    0.341622
     15          1           0        1.554649   -1.830325    1.711500
     16          1           0        0.953739   -1.971001    0.040032
     17          6           0        1.295132    0.250567   -1.677129
     18          1           0        1.848685    0.991841   -2.266733
     19          1           0        1.817640   -0.713539   -1.713080
     20          1           0        0.289037    0.143557   -2.104519
 ---------------------------------------------------------------------
                    Distance matrix (angstroms):
                    1          2          3          4          5
     1  C    0.000000
     2  C    3.464056   0.000000
     3  C    2.389724   4.059308   0.000000
     4  C    3.310453   1.324130   3.485914   0.000000
     5  N    1.281800   3.698665   1.485419   3.536882   0.000000
     6  H    4.135323   2.074524   4.328596   1.090496   4.500283
     7  H    3.049988   3.729631   1.109943   3.276536   2.044747
     8  H    4.342685   1.093290   5.148407   2.156698   4.702920
     9  H    3.101319   5.121288   1.114060   4.594357   2.058848
    10  H    1.095502   3.583867   2.450369   3.056593   1.982054
    11  H    2.828607   2.129428   2.461061   1.099367   2.810557
    12  F    3.131518   1.344961   3.751958   2.341256   3.101944
    13  C    1.488399   3.801623   3.813967   4.061845   2.471504
    14  H    2.145279   4.868192   4.288558   5.114954   2.898067
    15  H    2.127592   3.918366   4.495099   4.114233   3.329345
    16  H    2.145553   3.408514   4.162423   4.012585   2.778213
    17  C    2.395602   4.292547   2.541080   4.498723   1.462006
    18  H    3.168336   5.254739   2.696753   5.325058   2.077941
    19  H    2.579909   4.653506   3.479695   5.040517   2.144921
    20  H    3.001764   3.851489   2.865775   4.235142   2.081230
                    6          7          8          9         10
     6  H    0.000000
     7  H    4.180546   0.000000
     8  H    2.482288   4.807036   0.000000
     9  H    5.426738   1.747943   6.207935   0.000000
    10  H    3.664827   3.231060   4.459678   3.252844   0.000000
    11  H    1.888667   2.330683   3.135644   3.559789   2.517614
    12  F    3.310009   3.351432   2.018898   4.672190   3.645621
    13  C    4.830900   4.340399   4.399474   4.439988   2.258546
    14  H    5.897139   4.920558   5.466705   4.675063   2.931570
    15  H    4.672676   5.056732   4.345224   5.217147   2.433250
    16  H    4.859713   4.426978   3.884391   4.831377   3.026477
    17  C    5.553797   2.671896   5.194362   2.694589   3.345082
    18  H    6.362099   2.868609   6.201539   2.383720   3.990372
    19  H    6.070536   3.716798   5.417638   3.641064   3.653772
    20  H    5.324697   2.551653   4.703665   3.174303   3.891685
                   11         12         13         14         15
    11  H    0.000000
    12  F    2.650815   0.000000
    13  C    3.925742   3.339255   0.000000
    14  H    4.869826   4.273456   1.102500   0.000000
    15  H    4.160866   3.790036   1.098260   1.782633   0.000000
    16  H    4.044986   2.702841   1.098195   1.783393   1.781765
    17  C    3.914600   3.275569   2.924180   3.066237   3.985006
    18  H    4.594157   4.269710   3.827186   3.769237   4.886453
    19  H    4.613442   3.576002   2.516902   2.395940   3.611665
    20  H    3.776268   2.693451   3.482537   3.835130   4.478838
                   16         17         18         19         20
    16  H    0.000000
    17  C    2.828525   0.000000
    18  H    3.860120   1.097061   0.000000
    19  H    2.323992   1.097181   1.793270   0.000000
    20  H    3.084199   1.098335   1.782808   1.795680   0.000000
 Stoichiometry    C6H12FN
 Framework group  C1[X(C6H12FN)]
 Deg. of freedom    54
 Full point group                 C1      NOp   1
 Largest Abelian subgroup         C1      NOp   1
 Largest concise Abelian subgroup C1      NOp   1
                         Standard orientation:                         
 ---------------------------------------------------------------------
 Center     Atomic      Atomic             Coordinates (Angstroms)
 Number     Number       Type             X           Y           Z
 ---------------------------------------------------------------------
      1          6           0       -0.860712   -0.486824   -0.940979
      2          6           0        2.369687   -0.129767    0.257654
      3          6           0       -1.080441    1.857548   -0.533030
      4          6           0        2.211516    0.729352   -0.737442
      5          7           0       -1.263198    0.435002   -0.146464
      6          1           0        3.022972    0.836247   -1.458064
      7          1           0       -0.484587    2.270397    0.307498
      8          1           0        3.249722   -0.753905    0.434489
      9          1           0       -2.089456    2.305732   -0.384203
     10          1           0       -0.494965   -0.093071   -1.895605
     11          1           0        1.301991    1.334511   -0.860551
     12          9           0        1.425942   -0.336776    1.193289
     13          6           0       -0.842693   -1.947093   -0.653544
     14          1           0       -1.865908   -2.357224   -0.635354
     15          1           0       -0.276613   -2.472240   -1.434537
     16          1           0       -0.371203   -2.155120    0.316227
     17          6           0       -1.817384    0.121067    1.169509
     18          1           0       -2.699819    0.755186    1.320316
     19          1           0       -2.098848   -0.933851    1.277831
     20          1           0       -1.064220    0.383612    1.924595
 ---------------------------------------------------------------------
 Rotational constants (GHZ):           2.3047568           1.3034644           1.1627733
 Basis read from chk: "allylic-1_1_opt_sqm.chk" (5D, 7F)
 Pseudo-potential data read from chk file.
 There are   180 symmetry adapted cartesian basis functions of A   symmetry.
 There are   172 symmetry adapted basis functions of A   symmetry.
   172 basis functions,   284 primitive gaussians,   180 cartesian basis functions
    32 alpha electrons       32 beta electrons
       nuclear repulsion energy       385.3978212768 Hartrees.
 NAtoms=   20 NActive=   20 NUniq=   20 SFac= 1.00D+00 NAtFMM=   60 NAOKFM=F Big=F
 Integral buffers will be    131072 words long.
 Raffenetti 2 integral format.
 Two-electron integral symmetry is turned on.
 Nuclear repulsion after empirical dispersion term =      385.3853552686 Hartrees.
 ------------------------------------------------------------------------------
 Polarizable Continuum Model (PCM)
 =================================
 Model                : PCM.
 Atomic radii         : UFF (Universal Force Field).
 Polarization charges : Total charges.
 Charge compensation  : None.
 Solution method      : On-the-fly selection.
 Cavity type          : Scaled VdW (van der Waals Surface) (Alpha=1.100).
 Cavity algorithm     : GePol (No added spheres)
                        Default sphere list used, NSphG=   20.
                        Lebedev-Laikov grids with approx.  5.0 points / Ang**2.
                        Smoothing algorithm: York/Karplus (Gamma=1.0000).
                        Polarization charges: spherical gaussians, with
                                              point-specific exponents (IZeta= 3).
                        Self-potential: point-specific (ISelfS= 7).
                        Self-field    : sphere-specific E.n sum rule (ISelfD= 2).
 1st derivatives      : Analytical E(r).r(x)/FMM algorithm (CHGder, D1EAlg=3).
                        Cavity 1st derivative terms included.
 Solvent              : Toluene, Eps=   2.374100 Eps(inf)=   2.238315
 ------------------------------------------------------------------------------
 Spheres list:
 ISph  on   Nord     Re0    Alpha      Xe            Ye            Ze
    1   C      1    1.9255  1.100     -0.860712     -0.486824     -0.940979
    2   C      2    1.9255  1.100      2.369687     -0.129767      0.257654
    3   C      3    1.9255  1.100     -1.080441      1.857548     -0.533030
    4   C      4    1.9255  1.100      2.211516      0.729352     -0.737442
    5   N      5    1.8300  1.100     -1.263198      0.435002     -0.146464
    6   H      6    1.4430  1.100      3.022972      0.836247     -1.458064
    7   H      7    1.4430  1.100     -0.484587      2.270397      0.307498
    8   H      8    1.4430  1.100      3.249722     -0.753905      0.434489
    9   H      9    1.4430  1.100     -2.089456      2.305732     -0.384203
   10   H     10    1.4430  1.100     -0.494965     -0.093071     -1.895605
   11   H     11    1.4430  1.100      1.301991      1.334511     -0.860551
   12   F     12    1.6820  1.100      1.425942     -0.336776      1.193289
   13   C     13    1.9255  1.100     -0.842693     -1.947093     -0.653544
   14   H     14    1.4430  1.100     -1.865908     -2.357224     -0.635354
   15   H     15    1.4430  1.100     -0.276613     -2.472240     -1.434537
   16   H     16    1.4430  1.100     -0.371203     -2.155120      0.316227
   17   C     17    1.9255  1.100     -1.817384      0.121067      1.169509
   18   H     18    1.4430  1.100     -2.699819      0.755186      1.320316
   19   H     19    1.4430  1.100     -2.098848     -0.933851      1.277831
   20   H     20    1.4430  1.100     -1.064220      0.383612      1.924595
 ------------------------------------------------------------------------------
 One-electron integrals computed using PRISM.
   1 Symmetry operations used in ECPInt.
 ECPInt:  NShTT=    3570 NPrTT=   12386 LenC2=    3547 LenP2D=    9929.
 LDataN:  DoStor=T MaxTD1= 4 Len=   56
 NBasis=   172 RedAO= T EigKep=  2.95D-03  NBF=   172
 NBsUse=   172 1.00D-06 EigRej= -1.00D+00 NBFU=   172
 Initial guess from the checkpoint file:  "allylic-1_1_opt_sqm.chk"
 B after Tr=    -0.000000   -0.000000   -0.000000
         Rot=    1.000000   -0.000000   -0.000000   -0.000000 Ang=   0.00 deg.
 Requested convergence on RMS density matrix=1.00D-08 within 128 cycles.
 Requested convergence on MAX density matrix=1.00D-06.
 Requested convergence on             energy=1.00D-06.
 No special actions if energy rises.
 Inv3:  Mode=1 IEnd=     6986028.
 Iteration    1 A*A^-1 deviation from unit magnitude is 2.89D-15 for   1281.
 Iteration    1 A*A^-1 deviation from orthogonality  is 1.59D-15 for   1134    624.
 Iteration    1 A^-1*A deviation from unit magnitude is 2.89D-15 for   1281.
 Iteration    1 A^-1*A deviation from orthogonality  is 1.78D-15 for   1365    742.
 Error on total polarization charges =  0.00632
 SCF Done:  E(RwB97XD) =  -389.899261164     A.U. after    1 cycles
            NFock=  1  Conv=0.15D-08     -V/T= 2.0102

 **********************************************************************

            Population analysis using the SCF Density.

 **********************************************************************

 Orbital symmetries:
       Occupied  (A) (A) (A) (A) (A) (A) (A) (A) (A) (A) (A) (A)
                 (A) (A) (A) (A) (A) (A) (A) (A) (A) (A) (A) (A)
                 (A) (A) (A) (A) (A) (A) (A) (A)
       Virtual   (A) (A) (A) (A) (A) (A) (A) (A) (A) (A) (A) (A)
                 (A) (A) (A) (A) (A) (A) (A) (A) (A) (A) (A) (A)
                 (A) (A) (A) (A) (A) (A) (A) (A) (A) (A) (A) (A)
                 (A) (A) (A) (A) (A) (A) (A) (A) (A) (A) (A) (A)
                 (A) (A) (A) (A) (A) (A) (A) (A) (A) (A) (A) (A)
                 (A) (A) (A) (A) (A) (A) (A) (A) (A) (A) (A) (A)
                 (A) (A) (A) (A) (A) (A) (A) (A) (A) (A) (A) (A)
                 (A) (A) (A) (A) (A) (A) (A) (A) (A) (A) (A) (A)
                 (A) (A) (A) (A) (A) (A) (A) (A) (A) (A) (A) (A)
                 (A) (A) (A) (A) (A) (A) (A) (A) (A) (A) (A) (A)
                 (A) (A) (A) (A) (A) (A) (A) (A) (A) (A) (A) (A)
                 (A) (A) (A) (A) (A) (A) (A) (A)
 The electronic state is 1-A.
 Alpha  occ. eigenvalues --  -24.82748 -14.52770 -10.37934 -10.37726 -10.34002
 Alpha  occ. eigenvalues --  -10.32477 -10.29241 -10.23179  -1.31074  -1.08243
 Alpha  occ. eigenvalues --   -0.87390  -0.85656  -0.82203  -0.74811  -0.69449
 Alpha  occ. eigenvalues --   -0.65583  -0.61757  -0.58409  -0.57693  -0.56422
 Alpha  occ. eigenvalues --   -0.56203  -0.55450  -0.51794  -0.49782  -0.48694
 Alpha  occ. eigenvalues --   -0.48398  -0.46034  -0.45279  -0.44265  -0.37062
 Alpha  occ. eigenvalues --   -0.34594  -0.22327
 Alpha virt. eigenvalues --    0.02608   0.08983   0.13205   0.16548   0.16630
 Alpha virt. eigenvalues --    0.17034   0.19626   0.20543   0.20961   0.21583
 Alpha virt. eigenvalues --    0.22107   0.22926   0.24309   0.25095   0.27183
 Alpha virt. eigenvalues --    0.28946   0.31934   0.35979   0.37673   0.41396
 Alpha virt. eigenvalues --    0.43587   0.48587   0.49086   0.51314   0.53742
 Alpha virt. eigenvalues --    0.54906   0.55793   0.57473   0.58771   0.60563
 Alpha virt. eigenvalues --    0.62197   0.65381   0.66578   0.68074   0.69588
 Alpha virt. eigenvalues --    0.70785   0.71868   0.72268   0.72735   0.74256
 Alpha virt. eigenvalues --    0.74902   0.75385   0.75638   0.76429   0.76810
 Alpha virt. eigenvalues --    0.77582   0.80107   0.81731   0.83499   0.84568
 Alpha virt. eigenvalues --    0.88210   0.88760   0.91957   0.93459   1.00198
 Alpha virt. eigenvalues --    1.08334   1.10175   1.15091   1.18928   1.21129
 Alpha virt. eigenvalues --    1.28196   1.29037   1.30745   1.32561   1.33514
 Alpha virt. eigenvalues --    1.35925   1.40411   1.46184   1.49246   1.54300
 Alpha virt. eigenvalues --    1.58968   1.59167   1.60633   1.62225   1.64591
 Alpha virt. eigenvalues --    1.67128   1.68990   1.71593   1.73731   1.76325
 Alpha virt. eigenvalues --    1.77550   1.79341   1.81280   1.81830   1.85121
 Alpha virt. eigenvalues --    1.85271   1.85891   1.88571   1.91770   1.92019
 Alpha virt. eigenvalues --    1.93086   1.96024   1.97395   1.98693   2.02122
 Alpha virt. eigenvalues --    2.04430   2.05333   2.05743   2.09770   2.14123
 Alpha virt. eigenvalues --    2.17306   2.18555   2.19862   2.21428   2.24100
 Alpha virt. eigenvalues --    2.31616   2.34569   2.35649   2.38235   2.40355
 Alpha virt. eigenvalues --    2.42010   2.49841   2.51752   2.52251   2.54978
 Alpha virt. eigenvalues --    2.58414   2.62421   2.72130   2.73840   2.76582
 Alpha virt. eigenvalues --    2.78926   2.81902   2.84213   2.88230   2.91672
 Alpha virt. eigenvalues --    2.93873   2.99108   3.01941   3.02517   3.05581
 Alpha virt. eigenvalues --    3.07935   3.10372   3.14624   3.17313   3.29547
 Alpha virt. eigenvalues --    3.31481   3.39726   3.44732   3.61405   3.94652
          Condensed to atoms (all electrons):
               1          2          3          4          5          6
     1  C    4.918703  -0.000832  -0.089638   0.009828   0.541057  -0.000094
     2  C   -0.000832   4.545880  -0.000019   0.608026  -0.000930  -0.006296
     3  C   -0.089638  -0.000019   5.347319  -0.032006   0.263835   0.000242
     4  C    0.009828   0.608026  -0.032006   5.008499  -0.000157   0.370653
     5  N    0.541057  -0.000930   0.263835  -0.000157   6.288041   0.000076
     6  H   -0.000094  -0.006296   0.000242   0.370653   0.000076   0.591903
     7  H   -0.000390  -0.000233   0.365794   0.002331  -0.033365   0.000082
     8  H    0.000306   0.422237  -0.000048  -0.062726  -0.000028  -0.006869
     9  H    0.004333   0.000007   0.359323   0.000745  -0.032056  -0.000008
    10  H    0.382892  -0.000592   0.033020  -0.004697  -0.026723   0.000222
    11  H   -0.011549  -0.012178   0.079131   0.319072  -0.003461  -0.022938
    12  F    0.008218   0.297126  -0.000849  -0.059738  -0.001932   0.002621
    13  C    0.302598   0.001143   0.010906  -0.002251  -0.043068   0.000023
    14  H   -0.010480   0.000009  -0.000223   0.000022  -0.004017   0.000000
    15  H   -0.008619   0.000613  -0.000244   0.000561   0.004110  -0.000009
    16  H   -0.004279  -0.001741  -0.000338  -0.000780  -0.008584  -0.000028
    17  C   -0.086545  -0.000087  -0.038177  -0.001148   0.306593   0.000005
    18  H    0.006069   0.000001  -0.000347   0.000018  -0.022710  -0.000000
    19  H   -0.009697  -0.000022   0.006330   0.000231  -0.012998  -0.000000
    20  H    0.000360   0.000007  -0.001044  -0.000004  -0.022167  -0.000007
               7          8          9         10         11         12
     1  C   -0.000390   0.000306   0.004333   0.382892  -0.011549   0.008218
     2  C   -0.000233   0.422237   0.000007  -0.000592  -0.012178   0.297126
     3  C    0.365794  -0.000048   0.359323   0.033020   0.079131  -0.000849
     4  C    0.002331  -0.062726   0.000745  -0.004697   0.319072  -0.059738
     5  N   -0.033365  -0.000028  -0.032056  -0.026723  -0.003461  -0.001932
     6  H    0.000082  -0.006869  -0.000008   0.000222  -0.022938   0.002621
     7  H    0.730240   0.000024  -0.040389  -0.001529  -0.005823   0.001084
     8  H    0.000024   0.618191   0.000001  -0.000041   0.004922  -0.031348
     9  H   -0.040389   0.000001   0.743937  -0.000398  -0.002616   0.000001
    10  H   -0.001529  -0.000041  -0.000398   0.556243   0.007888  -0.000012
    11  H   -0.005823   0.004922  -0.002616   0.007888   0.568393  -0.001300
    12  F    0.001084  -0.031348   0.000001  -0.000012  -0.001300   9.005593
    13  C   -0.000914  -0.000177  -0.000863  -0.033975   0.002562  -0.005384
    14  H   -0.000038   0.000001   0.000094   0.002499  -0.000014   0.000079
    15  H    0.000034   0.000012   0.000013  -0.008457  -0.000165  -0.000236
    16  H    0.000144   0.000016  -0.000010   0.002921  -0.000198   0.010306
    17  C   -0.002771  -0.000014  -0.009986   0.009385   0.002102  -0.000204
    18  H   -0.001863   0.000001   0.009194  -0.000343  -0.000095   0.000081
    19  H    0.000963   0.000002   0.000890  -0.000922  -0.000418  -0.000349
    20  H    0.005023   0.000078  -0.001418  -0.000356  -0.000011   0.006822
              13         14         15         16         17         18
     1  C    0.302598  -0.010480  -0.008619  -0.004279  -0.086545   0.006069
     2  C    0.001143   0.000009   0.000613  -0.001741  -0.000087   0.000001
     3  C    0.010906  -0.000223  -0.000244  -0.000338  -0.038177  -0.000347
     4  C   -0.002251   0.000022   0.000561  -0.000780  -0.001148   0.000018
     5  N   -0.043068  -0.004017   0.004110  -0.008584   0.306593  -0.022710
     6  H    0.000023   0.000000  -0.000009  -0.000028   0.000005  -0.000000
     7  H   -0.000914  -0.000038   0.000034   0.000144  -0.002771  -0.001863
     8  H   -0.000177   0.000001   0.000012   0.000016  -0.000014   0.000001
     9  H   -0.000863   0.000094   0.000013  -0.000010  -0.009986   0.009194
    10  H   -0.033975   0.002499  -0.008457   0.002921   0.009385  -0.000343
    11  H    0.002562  -0.000014  -0.000165  -0.000198   0.002102  -0.000095
    12  F   -0.005384   0.000079  -0.000236   0.010306  -0.000204   0.000081
    13  C    4.674877   0.384563   0.386828   0.377760   0.009693  -0.000466
    14  H    0.384563   0.557528  -0.013231  -0.013865  -0.001632   0.000309
    15  H    0.386828  -0.013231   0.577455  -0.016630   0.000343  -0.000022
    16  H    0.377760  -0.013865  -0.016630   0.566959   0.000382   0.000012
    17  C    0.009693  -0.001632   0.000343   0.000382   4.607489   0.394600
    18  H   -0.000466   0.000309  -0.000022   0.000012   0.394600   0.577904
    19  H    0.003915   0.001985   0.000384  -0.000185   0.360979  -0.018088
    20  H   -0.000718  -0.000284   0.000015   0.000741   0.397556  -0.014893
              19         20
     1  C   -0.009697   0.000360
     2  C   -0.000022   0.000007
     3  C    0.006330  -0.001044
     4  C    0.000231  -0.000004
     5  N   -0.012998  -0.022167
     6  H   -0.000000  -0.000007
     7  H    0.000963   0.005023
     8  H    0.000002   0.000078
     9  H    0.000890  -0.001418
    10  H   -0.000922  -0.000356
    11  H   -0.000418  -0.000011
    12  F   -0.000349   0.006822
    13  C    0.003915  -0.000718
    14  H    0.001985  -0.000284
    15  H    0.000384   0.000015
    16  H   -0.000185   0.000741
    17  C    0.360979   0.397556
    18  H   -0.018088  -0.014893
    19  H    0.633801  -0.018262
    20  H   -0.018262   0.566844
 Mulliken charges:
               1
     1  C    0.047760
     2  C    0.147882
     3  C   -0.302967
     4  C   -0.156478
     5  N   -0.191515
     6  H    0.070421
     7  H   -0.018405
     8  H    0.055460
     9  H   -0.030794
    10  H    0.082974
    11  H    0.076695
    12  F   -0.230578
    13  C   -0.067052
    14  H    0.096693
    15  H    0.077246
    16  H    0.087399
    17  C    0.051436
    18  H    0.070639
    19  H    0.051462
    20  H    0.081719
 Sum of Mulliken charges =   0.00000
 Mulliken charges with hydrogens summed into heavy atoms:
               1
     1  C    0.130735
     2  C    0.203342
     3  C   -0.352167
     4  C   -0.009361
     5  N   -0.191515
    12  F   -0.230578
    13  C    0.194287
    17  C    0.255257
 Electronic spatial extent (au):  <R**2>=           1196.2347
 Charge=             -0.0000 electrons
 Dipole moment (field-independent basis, Debye):
    X=             -0.0552    Y=             -6.0265    Z=              1.4580  Tot=              6.2006
 Quadrupole moment (field-independent basis, Debye-Ang):
   XX=            -42.5563   YY=            -56.3926   ZZ=            -50.9518
   XY=              3.9626   XZ=             -4.6282   YZ=              6.5309
 Traceless Quadrupole moment (field-independent basis, Debye-Ang):
   XX=              7.4106   YY=             -6.4257   ZZ=             -0.9849
   XY=              3.9626   XZ=             -4.6282   YZ=              6.5309
 Octapole moment (field-independent basis, Debye-Ang**2):
  XXX=             19.3339  YYY=            -38.4628  ZZZ=             13.8470  XYY=              6.5610
  XXY=            -13.3906  XXZ=              6.7155  XZZ=              3.1849  YZZ=            -11.9975
  YYZ=             13.4472  XYZ=             -8.4356
 Hexadecapole moment (field-independent basis, Debye-Ang**3):
 XXXX=           -767.1317 YYYY=           -499.2369 ZZZZ=           -270.6986 XXXY=             -9.6695
 XXXZ=             -9.1308 YYYX=             21.6968 YYYZ=             32.4322 ZZZX=             -1.8120
 ZZZY=             18.0115 XXYY=           -220.2236 XXZZ=           -181.0944 YYZZ=           -136.5912
 XXYZ=              0.4501 YYXZ=             -6.1295 ZZXY=             10.6121
 N-N= 3.853853552686D+02 E-N=-1.679180459649D+03  KE= 3.859500198707D+02
   1 Symmetry operations used in ECPInt.
 ECPInt:  NShTT=    3570 NPrTT=   12386 LenC2=    3547 LenP2D=    9929.
 LDataN:  DoStor=T MaxTD1= 5 Len=  102
 D1PCM: PCM CHGder 1st derivatives, ID1Alg=3 FixD1E=F DoIter=F DoCFld=F I1PDM=0.
 Calling FoFJK, ICntrl=      2127 FMM=F ISym2X=0 I1Cent= 0 IOpClX= 0 NMat=1 NMatS=1 NMatT=0.
 ***** Axes restored to original set *****
 -------------------------------------------------------------------
 Center     Atomic                   Forces (Hartrees/Bohr)
 Number     Number              X              Y              Z
 -------------------------------------------------------------------
      1        6          -0.000770987    0.001504125    0.000552000
      2        6          -0.000111740   -0.000202972    0.000114675
      3        6           0.003571398    0.001112102    0.000104445
      4        6          -0.000276375    0.000103215   -0.000619021
      5        7          -0.000311464    0.000054305   -0.000814230
      6        1          -0.000327677   -0.000028487    0.000389384
      7        1          -0.001232331   -0.000470165   -0.000608333
      8        1          -0.000096443   -0.000061571    0.000225281
      9        1          -0.001395097   -0.000615177    0.001092261
     10        1          -0.000298870   -0.001051745   -0.000706114
     11        1           0.000358218   -0.000034640    0.000023914
     12        9           0.000621785    0.000424617   -0.000117464
     13        6           0.001150817   -0.000724044    0.001998972
     14        1          -0.000301475   -0.000239123    0.000135196
     15        1           0.000650809    0.000670774   -0.001127484
     16        1          -0.000632824    0.000072578   -0.000826933
     17        6          -0.000322848    0.000388374    0.000175981
     18        1          -0.000154910   -0.000154605    0.000202510
     19        1          -0.000008019   -0.000493371    0.000033095
     20        1          -0.000111967   -0.000254190   -0.000228135
 -------------------------------------------------------------------
 Cartesian Forces:  Max     0.003571398 RMS     0.000783305

 GradGradGradGradGradGradGradGradGradGradGradGradGradGradGradGradGradGrad
 Berny optimization.
 FormGI is forming the generalized inverse of G from B-inverse, IUseBI=4.
 Internal  Forces:  Max     0.001825572 RMS     0.000612166
 Search for a saddle point.
 Step number   1 out of a maximum of   50
 All quantities printed in internal units (Hartrees-Bohrs-Radians)
 Swapping is turned off.
 Second derivative matrix not updated -- first step.
 ITU=  0
     Eigenvalues ---   -0.02594  -0.00251   0.00175   0.00399   0.00724
     Eigenvalues ---    0.01625   0.01842   0.02369   0.02495   0.03045
     Eigenvalues ---    0.03509   0.04196   0.04531   0.04600   0.04657
     Eigenvalues ---    0.04740   0.05395   0.06237   0.08676   0.09201
     Eigenvalues ---    0.10241   0.10664   0.11248   0.11483   0.11850
     Eigenvalues ---    0.12346   0.12928   0.13558   0.14560   0.14733
     Eigenvalues ---    0.15754   0.17868   0.18933   0.20213   0.24053
     Eigenvalues ---    0.25713   0.26415   0.26564   0.26692   0.26816
     Eigenvalues ---    0.27369   0.27655   0.27810   0.28302   0.28590
     Eigenvalues ---    0.29288   0.31921   0.36812   0.39525   0.48232
     Eigenvalues ---    0.48777   0.58721   0.65116   0.76465
 Eigenvectors required to have negative eigenvalues:
                          D15       D17       D16       D18       R13
   1                    0.47907   0.45676   0.42280   0.40050  -0.26858
                          A16       D19       D3        D20       A11
   1                    0.25767  -0.10716  -0.10594  -0.10148  -0.08550
 RFO step:  Lambda0=1.787358120D-07 Lambda=-2.71399466D-03.
 Linear search not attempted -- option 19 set.
 Iteration  1 RMS(Cart)=  0.06972147 RMS(Int)=  0.00296457
 Iteration  2 RMS(Cart)=  0.00331239 RMS(Int)=  0.00001487
 Iteration  3 RMS(Cart)=  0.00000736 RMS(Int)=  0.00001376
 Iteration  4 RMS(Cart)=  0.00000000 RMS(Int)=  0.00001376
 Variable       Old X    -DE/DX   Delta X   Delta X   Delta X     New X
                                 (Linear)    (Quad)   (Total)
    R1        2.42225  -0.00012   0.00000  -0.00111  -0.00111   2.42114
    R2        2.07020  -0.00110   0.00000  -0.00602  -0.00602   2.06418
    R3        2.81267   0.00039   0.00000   0.00597   0.00597   2.81863
    R4        2.50224  -0.00031   0.00000  -0.00012  -0.00012   2.50212
    R5        2.06602   0.00016   0.00000   0.00041   0.00041   2.06643
    R6        2.54161   0.00030   0.00000   0.00146   0.00146   2.54307
    R7        2.80704  -0.00004   0.00000  -0.00146  -0.00146   2.80557
    R8        2.09749   0.00124   0.00000   0.00996   0.00996   2.10745
    R9        2.10527  -0.00183   0.00000  -0.01201  -0.01201   2.09325
   R10        2.06074   0.00049   0.00000   0.00191   0.00191   2.06265
   R11        2.07750  -0.00006   0.00000   0.00074   0.00074   2.07825
   R12        2.76279  -0.00005   0.00000  -0.00044  -0.00044   2.76235
   R13        4.40435  -0.00016   0.00000  -0.02206  -0.02206   4.38229
   R14        2.08342  -0.00029   0.00000  -0.00201  -0.00201   2.08141
   R15        2.07541  -0.00134   0.00000  -0.00897  -0.00897   2.06644
   R16        2.07529   0.00085   0.00000   0.00546   0.00546   2.08075
   R17        2.07314  -0.00029   0.00000  -0.00138  -0.00138   2.07176
   R18        2.07337   0.00043   0.00000   0.00266   0.00266   2.07603
   R19        2.07555   0.00021   0.00000   0.00044   0.00044   2.07599
    A1        1.96761   0.00058   0.00000   0.00905   0.00905   1.97666
    A2        2.20145  -0.00020   0.00000  -0.00652  -0.00653   2.19492
    A3        2.11399  -0.00038   0.00000  -0.00258  -0.00258   2.11141
    A4        2.19951   0.00032   0.00000   0.00126   0.00126   2.20077
    A5        2.13985  -0.00100   0.00000  -0.00510  -0.00510   2.13475
    A6        1.94382   0.00068   0.00000   0.00385   0.00385   1.94766
    A7        1.79793  -0.00182   0.00000  -0.01450  -0.01449   1.78344
    A8        1.81221   0.00089   0.00000   0.00978   0.00978   1.82199
    A9        1.80844  -0.00008   0.00000   0.00034   0.00038   1.80883
   A10        2.06159   0.00049   0.00000   0.00176   0.00176   2.06335
   A11        2.14139  -0.00123   0.00000  -0.00980  -0.00981   2.13158
   A12        2.08021   0.00074   0.00000   0.00802   0.00802   2.08822
   A13        2.08149  -0.00030   0.00000  -0.00178  -0.00178   2.07971
   A14        2.12061  -0.00054   0.00000  -0.00351  -0.00351   2.11710
   A15        2.07890   0.00084   0.00000   0.00510   0.00510   2.08400
   A16        1.45316   0.00096   0.00000   0.02896   0.02896   1.48212
   A17        2.49658  -0.00168   0.00000  -0.04745  -0.04745   2.44913
   A18        1.93577   0.00048   0.00000   0.00895   0.00892   1.94469
   A19        1.91563   0.00001   0.00000   0.00639   0.00638   1.92201
   A20        1.94076  -0.00080   0.00000  -0.02155  -0.02154   1.91922
   A21        1.88833  -0.00031   0.00000  -0.00148  -0.00154   1.88679
   A22        1.88959   0.00005   0.00000  -0.00353  -0.00353   1.88606
   A23        1.89240   0.00059   0.00000   0.01168   0.01172   1.90412
   A24        1.88023  -0.00007   0.00000   0.00097   0.00097   1.88120
   A25        1.97422  -0.00013   0.00000  -0.00186  -0.00186   1.97236
   A26        1.88342   0.00035   0.00000   0.00263   0.00263   1.88605
   A27        1.91329   0.00013   0.00000   0.00346   0.00346   1.91675
   A28        1.89537  -0.00002   0.00000   0.00066   0.00065   1.89602
   A29        1.91545  -0.00025   0.00000  -0.00568  -0.00568   1.90977
    D1       -0.09524   0.00041   0.00000   0.01956   0.01957  -0.07567
    D2        3.11792   0.00039   0.00000   0.02248   0.02248   3.14041
    D3        3.02886   0.00047   0.00000   0.01626   0.01626   3.04512
    D4       -0.04116   0.00045   0.00000   0.01918   0.01916  -0.02200
    D5        1.24064  -0.00016   0.00000  -0.11231  -0.11234   1.12831
    D6       -2.95692  -0.00024   0.00000  -0.10442  -0.10439  -3.06131
    D7       -0.86307  -0.00001   0.00000  -0.09941  -0.09943  -0.96249
    D8       -1.91979  -0.00009   0.00000  -0.11577  -0.11579  -2.03558
    D9        0.16583  -0.00017   0.00000  -0.10788  -0.10784   0.05798
   D10        2.25968   0.00006   0.00000  -0.10287  -0.10288   2.15680
   D11        0.00210   0.00008   0.00000  -0.00374  -0.00374  -0.00163
   D12       -3.13662  -0.00017   0.00000   0.00216   0.00215  -3.13446
   D13       -3.13705   0.00036   0.00000  -0.00430  -0.00430  -3.14135
   D14        0.00741   0.00012   0.00000   0.00159   0.00159   0.00900
   D15       -2.14019  -0.00041   0.00000   0.00366   0.00364  -2.13655
   D16        0.93156  -0.00044   0.00000   0.00046   0.00044   0.93200
   D17        2.26148  -0.00000   0.00000   0.00498   0.00501   2.26649
   D18       -0.94996  -0.00004   0.00000   0.00178   0.00180  -0.94815
   D19        1.43250  -0.00035   0.00000   0.00493   0.00492   1.43741
   D20       -2.96633  -0.00002   0.00000   0.01080   0.01081  -2.95552
   D21        0.44750   0.00080   0.00000   0.05563   0.05562   0.50312
   D22       -2.69119   0.00056   0.00000   0.06160   0.06160  -2.62959
   D23       -2.39181   0.00004   0.00000   0.00606   0.00606  -2.38575
   D24       -0.27439   0.00007   0.00000   0.00991   0.00991  -0.26448
   D25        1.84799  -0.00008   0.00000   0.00340   0.00339   1.85138
   D26        0.82125   0.00007   0.00000   0.00925   0.00925   0.83050
   D27        2.93867   0.00009   0.00000   0.01310   0.01310   2.95177
   D28       -1.22214  -0.00006   0.00000   0.00658   0.00658  -1.21555
   D29       -2.34628   0.00136   0.00000  -0.04317  -0.04317  -2.38945
         Item               Value     Threshold  Converged?
 Maximum Force            0.001826     0.000450     NO 
 RMS     Force            0.000612     0.000300     NO 
 Maximum Displacement     0.331584     0.001800     NO 
 RMS     Displacement     0.069481     0.001200     NO 
 Predicted change in Energy=-4.092729D-04
 GradGradGradGradGradGradGradGradGradGradGradGradGradGradGradGradGradGrad

                          Input orientation:                          
 ---------------------------------------------------------------------
 Center     Atomic      Atomic             Coordinates (Angstroms)
 Number     Number       Type             X           Y           Z
 ---------------------------------------------------------------------
      1          6           0        1.362688    0.032215    0.720936
      2          6           0       -2.079815   -0.588760    0.807528
      3          6           0        0.720891    2.174883   -0.113521
      4          6           0       -1.879881    0.501563    1.531662
      5          7           0        1.161740    0.770433   -0.306760
      6          1           0       -2.451987    0.621024    2.453517
      7          1           0       -0.235778    2.202159   -0.686009
      8          1           0       -2.773267   -1.400659    1.043541
      9          1           0        1.415926    2.770001   -0.737833
     10          1           0        1.250062    0.568518    1.665842
     11          1           0       -1.168002    1.282938    1.228094
     12          9           0       -1.419522   -0.819884   -0.342077
     13          6           0        1.692303   -1.422291    0.698354
     14          1           0        2.669344   -1.606055    0.224242
     15          1           0        1.730116   -1.815343    1.718086
     16          1           0        0.927413   -1.972279    0.128401
     17          6           0        1.268420    0.231642   -1.661419
     18          1           0        1.814932    0.961595   -2.270052
     19          1           0        1.778877   -0.740468   -1.697923
     20          1           0        0.252938    0.126470   -2.067107
 ---------------------------------------------------------------------
                    Distance matrix (angstroms):
                    1          2          3          4          5
     1  C    0.000000
     2  C    3.499133   0.000000
     3  C    2.387310   4.041040   0.000000
     4  C    3.375177   1.324064   3.502948   0.000000
     5  N    1.281212   3.687373   1.484644   3.564204   0.000000
     6  H    4.230872   2.076384   4.367073   1.091509   4.549778
     7  H    3.040271   3.663379   1.115214   3.242401   2.036352
     8  H    4.389000   1.093508   5.131514   2.157510   4.692679
     9  H    3.102631   5.088184   1.107702   4.599866   2.061240
    10  H    1.092315   3.628233   2.454906   3.133534   1.984875
    11  H    2.868085   2.124036   2.482623   1.099761   2.836572
    12  F    3.097864   1.345733   3.688121   2.338600   3.032040
    13  C    1.491557   3.864655   3.813455   4.141994   2.469775
    14  H    2.153597   4.891791   4.266853   5.181394   2.864005
    15  H    2.131381   4.104777   4.505022   4.293587   3.333061
    16  H    2.135078   3.379166   4.159342   3.996240   2.786888
    17  C    2.392545   4.240216   2.544005   4.492263   1.461772
    18  H    3.164535   5.200399   2.705479   5.321307   2.077912
    19  H    2.573156   4.603239   3.482662   5.035809   2.144531
    20  H    3.002268   3.770519   2.869054   4.200090   2.083130
                    6          7          8          9         10
     6  H    0.000000
     7  H    4.155502   0.000000
     8  H    2.485650   4.733972   0.000000
     9  H    5.455600   1.747357   6.173900   0.000000
    10  H    3.785282   3.226098   4.522399   3.263693   0.000000
    11  H    1.894310   2.319008   3.132512   3.571122   2.559113
    12  F    3.310218   3.263784   2.022341   4.591695   3.617468
    13  C    4.942759   4.332504   4.478943   4.440082   2.257195
    14  H    6.013117   4.875529   5.507762   4.652581   2.970073
    15  H    4.895583   5.077868   4.572464   5.211108   2.432278
    16  H    4.853012   4.409333   3.854771   4.845434   2.987219
    17  C    5.561092   2.664015   5.129956   2.705187   3.344322
    18  H    6.374535   2.872909   6.132839   2.403588   3.995604
    19  H    6.081803   3.707002   5.354763   3.657445   3.648014
    20  H    5.291243   2.540623   4.600670   3.179272   3.889032
                   11         12         13         14         15
    11  H    0.000000
    12  F    2.636391   0.000000
    13  C    3.972434   3.335992   0.000000
    14  H    4.907059   4.202095   1.101436   0.000000
    15  H    4.270660   3.892998   1.093515   1.776942   0.000000
    16  H    4.024491   2.656590   1.101085   1.782590   1.787752
    17  C    3.923094   3.173547   2.912679   2.982521   3.977986
    18  H    4.608491   4.165627   3.809119   3.680264   4.860435
    19  H    4.619507   3.474821   2.492894   2.288425   3.581460
    20  H    3.770257   2.582332   3.481121   3.753789   4.503375
                   16         17         18         19         20
    16  H    0.000000
    17  C    2.859548   0.000000
    18  H    3.892029   1.096331   0.000000
    19  H    2.361739   1.098589   1.796009   0.000000
    20  H    3.111257   1.098566   1.782820   1.793424   0.000000
 Stoichiometry    C6H12FN
 Framework group  C1[X(C6H12FN)]
 Deg. of freedom    54
 Full point group                 C1      NOp   1
 Largest Abelian subgroup         C1      NOp   1
 Largest concise Abelian subgroup C1      NOp   1
                         Standard orientation:                         
 ---------------------------------------------------------------------
 Center     Atomic      Atomic             Coordinates (Angstroms)
 Number     Number       Type             X           Y           Z
 ---------------------------------------------------------------------
      1          6           0       -0.902239   -0.476206   -0.943282
      2          6           0        2.365894   -0.186146    0.272904
      3          6           0       -1.008086    1.877256   -0.556940
      4          6           0        2.270444    0.657710   -0.742942
      5          7           0       -1.238453    0.469170   -0.146583
      6          1           0        3.119964    0.745417   -1.422660
      7          1           0       -0.361344    2.259767    0.267144
      8          1           0        3.226452   -0.819408    0.505665
      9          1           0       -1.980109    2.378136   -0.380039
     10          1           0       -0.533695   -0.117487   -1.906946
     11          1           0        1.372756    1.270034   -0.912316
     12          9           0        1.369036   -0.359507    1.160156
     13          6           0       -0.957984   -1.935019   -0.637503
     14          1           0       -1.994002   -2.273386   -0.478332
     15          1           0       -0.536463   -2.509628   -1.466912
     16          1           0       -0.384380   -2.149493    0.277575
     17          6           0       -1.756949    0.187014    1.190701
     18          1           0       -2.611468    0.851214    1.365565
     19          1           0       -2.065957   -0.859325    1.319484
     20          1           0       -0.970386    0.427879    1.918815
 ---------------------------------------------------------------------
 Rotational constants (GHZ):           2.3071924           1.3112075           1.1676998
 Basis read from rwf:  (5D, 7F)
 Pseudo-potential data read from rwf file.
 There are   180 symmetry adapted cartesian basis functions of A   symmetry.
 There are   172 symmetry adapted basis functions of A   symmetry.
   172 basis functions,   284 primitive gaussians,   180 cartesian basis functions
    32 alpha electrons       32 beta electrons
       nuclear repulsion energy       386.0294571894 Hartrees.
 NAtoms=   20 NActive=   20 NUniq=   20 SFac= 1.00D+00 NAtFMM=   60 NAOKFM=F Big=F
 Integral buffers will be    131072 words long.
 Raffenetti 2 integral format.
 Two-electron integral symmetry is turned on.
 Nuclear repulsion after empirical dispersion term =      386.0169980172 Hartrees.
 ------------------------------------------------------------------------------
 Polarizable Continuum Model (PCM)
 =================================
 Model                : PCM.
 Atomic radii         : UFF (Universal Force Field).
 Polarization charges : Total charges.
 Charge compensation  : None.
 Solution method      : On-the-fly selection.
 Cavity type          : Scaled VdW (van der Waals Surface) (Alpha=1.100).
 Cavity algorithm     : GePol (No added spheres)
                        Default sphere list used, NSphG=   20.
                        Lebedev-Laikov grids with approx.  5.0 points / Ang**2.
                        Smoothing algorithm: York/Karplus (Gamma=1.0000).
                        Polarization charges: spherical gaussians, with
                                              point-specific exponents (IZeta= 3).
                        Self-potential: point-specific (ISelfS= 7).
                        Self-field    : sphere-specific E.n sum rule (ISelfD= 2).
 1st derivatives      : Analytical E(r).r(x)/FMM algorithm (CHGder, D1EAlg=3).
                        Cavity 1st derivative terms included.
 Solvent              : Toluene, Eps=   2.374100 Eps(inf)=   2.238315
 ------------------------------------------------------------------------------
 Spheres list:
 ISph  on   Nord     Re0    Alpha      Xe            Ye            Ze
    1   C      1    1.9255  1.100     -0.902239     -0.476206     -0.943282
    2   C      2    1.9255  1.100      2.365894     -0.186146      0.272904
    3   C      3    1.9255  1.100     -1.008086      1.877256     -0.556940
    4   C      4    1.9255  1.100      2.270444      0.657710     -0.742942
    5   N      5    1.8300  1.100     -1.238453      0.469170     -0.146583
    6   H      6    1.4430  1.100      3.119964      0.745417     -1.422660
    7   H      7    1.4430  1.100     -0.361344      2.259767      0.267144
    8   H      8    1.4430  1.100      3.226452     -0.819408      0.505665
    9   H      9    1.4430  1.100     -1.980109      2.378136     -0.380039
   10   H     10    1.4430  1.100     -0.533695     -0.117487     -1.906946
   11   H     11    1.4430  1.100      1.372756      1.270034     -0.912316
   12   F     12    1.6820  1.100      1.369036     -0.359507      1.160156
   13   C     13    1.9255  1.100     -0.957984     -1.935019     -0.637503
   14   H     14    1.4430  1.100     -1.994002     -2.273386     -0.478332
   15   H     15    1.4430  1.100     -0.536463     -2.509628     -1.466912
   16   H     16    1.4430  1.100     -0.384380     -2.149493      0.277575
   17   C     17    1.9255  1.100     -1.756949      0.187014      1.190701
   18   H     18    1.4430  1.100     -2.611468      0.851214      1.365565
   19   H     19    1.4430  1.100     -2.065957     -0.859325      1.319484
   20   H     20    1.4430  1.100     -0.970386      0.427879      1.918815
 ------------------------------------------------------------------------------
 One-electron integrals computed using PRISM.
   1 Symmetry operations used in ECPInt.
 ECPInt:  NShTT=    3570 NPrTT=   12386 LenC2=    3547 LenP2D=    9926.
 LDataN:  DoStor=T MaxTD1= 4 Len=   56
 NBasis=   172 RedAO= T EigKep=  2.98D-03  NBF=   172
 NBsUse=   172 1.00D-06 EigRej= -1.00D+00 NBFU=   172
 Initial guess from the checkpoint file:  "allylic-1_1_opt_sqm.chk"
 B after Tr=     0.000000   -0.000000    0.000000
         Rot=    0.999813    0.005576   -0.002790    0.018284 Ang=   2.21 deg.
 ExpMin= 1.22D-01 ExpMax= 2.89D+03 ExpMxC= 4.35D+02 IAcc=3 IRadAn=         5 AccDes= 0.00D+00
 Harris functional with IExCor= 4639 and IRadAn=       5 diagonalized for initial guess.
 HarFok:  IExCor= 4639 AccDes= 0.00D+00 IRadAn=         5 IDoV= 1 UseB2=F ITyADJ=14
 ICtDFT=  3500011 ScaDFX=  1.000000  1.000000  1.000000  1.000000
 FoFCou: FMM=F IPFlag=           0 FMFlag=      100000 FMFlg1=           0
         NFxFlg=           0 DoJE=T BraDBF=F KetDBF=T FulRan=T
         wScrn=  0.000000 ICntrl=       500 IOpCl=  0 I1Cent=   200000004 NGrid=           0
         NMat0=    1 NMatS0=      1 NMatT0=    0 NMatD0=    1 NMtDS0=    0 NMtDT0=    0
 Petite list used in FoFCou.
 Requested convergence on RMS density matrix=1.00D-08 within 128 cycles.
 Requested convergence on MAX density matrix=1.00D-06.
 Requested convergence on             energy=1.00D-06.
 No special actions if energy rises.
 Inv3:  Mode=1 IEnd=     7004352.
 Iteration    1 A*A^-1 deviation from unit magnitude is 3.11D-15 for    747.
 Iteration    1 A*A^-1 deviation from orthogonality  is 2.78D-15 for    879    449.
 Iteration    1 A^-1*A deviation from unit magnitude is 2.78D-15 for    725.
 Iteration    1 A^-1*A deviation from orthogonality  is 1.33D-15 for   1277    626.
 Error on total polarization charges =  0.00614
 SCF Done:  E(RwB97XD) =  -389.899371169     A.U. after   13 cycles
            NFock= 13  Conv=0.73D-08     -V/T= 2.0102
   1 Symmetry operations used in ECPInt.
 ECPInt:  NShTT=    3570 NPrTT=   12386 LenC2=    3547 LenP2D=    9926.
 LDataN:  DoStor=T MaxTD1= 5 Len=  102
 D1PCM: PCM CHGder 1st derivatives, ID1Alg=3 FixD1E=F DoIter=F DoCFld=F I1PDM=0.
 Calling FoFJK, ICntrl=      2127 FMM=F ISym2X=0 I1Cent= 0 IOpClX= 0 NMat=1 NMatS=1 NMatT=0.
 ***** Axes restored to original set *****
 -------------------------------------------------------------------
 Center     Atomic                   Forces (Hartrees/Bohr)
 Number     Number              X              Y              Z
 -------------------------------------------------------------------
      1        6           0.001227640   -0.002411036   -0.000769897
      2        6          -0.000023269    0.000333336    0.000344172
      3        6          -0.003711004   -0.001326274   -0.000106579
      4        6          -0.000124428    0.000141716   -0.000584713
      5        7           0.000627811    0.000273590    0.000145401
      6        1           0.000335934    0.000044524   -0.000204513
      7        1           0.001099253    0.000926541    0.001034938
      8        1           0.000135302   -0.000049621   -0.000173047
      9        1           0.001427635    0.000558269   -0.001152290
     10        1          -0.000383209    0.000755921    0.000782277
     11        1           0.000068353   -0.000014764    0.000486471
     12        9          -0.000465469   -0.000573815    0.000077604
     13        6          -0.000649571    0.001490149   -0.001723611
     14        1           0.000027346    0.000163340   -0.000265098
     15        1          -0.000401303   -0.000568455    0.001496096
     16        1           0.000530461   -0.000366040    0.000795444
     17        6           0.000335252   -0.000359185   -0.000094515
     18        1           0.000206823    0.000066926   -0.000182451
     19        1          -0.000232992    0.000709722   -0.000203501
     20        1          -0.000030565    0.000205156    0.000297813
 -------------------------------------------------------------------
 Cartesian Forces:  Max     0.003711004 RMS     0.000858708

 GradGradGradGradGradGradGradGradGradGradGradGradGradGradGradGradGradGrad
 Berny optimization.
 FormGI is forming the generalized inverse of G from B-inverse, IUseBI=4.
 Internal  Forces:  Max     0.002796635 RMS     0.000727325
 Search for a saddle point.
 Step number   2 out of a maximum of   50
 All quantities printed in internal units (Hartrees-Bohrs-Radians)
 Swapping is turned off.
 Update second derivatives using D2CorX and points    1    2
 ITU=  0  0
     Eigenvalues ---   -0.02604  -0.00029   0.00174   0.00394   0.00726
     Eigenvalues ---    0.01626   0.01836   0.02373   0.02495   0.03047
     Eigenvalues ---    0.03510   0.04203   0.04531   0.04602   0.04669
     Eigenvalues ---    0.04771   0.05398   0.06255   0.08683   0.09199
     Eigenvalues ---    0.10271   0.10664   0.11249   0.11496   0.11873
     Eigenvalues ---    0.12388   0.12956   0.13564   0.14572   0.14751
     Eigenvalues ---    0.15845   0.17869   0.19132   0.20268   0.24147
     Eigenvalues ---    0.25788   0.26422   0.26564   0.26725   0.26818
     Eigenvalues ---    0.27372   0.27656   0.27879   0.28303   0.28591
     Eigenvalues ---    0.29293   0.32028   0.36821   0.39537   0.48232
     Eigenvalues ---    0.48779   0.58829   0.65171   0.76470
 Eigenvectors required to have negative eigenvalues:
                          D15       D17       D16       D18       R13
   1                    0.47595   0.45410   0.42061   0.39876  -0.26226
                          A16       D19       D3        D20       D21
   1                    0.25433  -0.10845  -0.10741  -0.10312  -0.09038
 RFO step:  Lambda0=1.131143891D-05 Lambda=-5.90586144D-04.
 Linear search not attempted -- option 19 set.
 Maximum step size (   0.100) exceeded in Quadratic search.
    -- Step size scaled by   0.466
 Iteration  1 RMS(Cart)=  0.07183848 RMS(Int)=  0.00435480
 Iteration  2 RMS(Cart)=  0.00485837 RMS(Int)=  0.00002443
 Iteration  3 RMS(Cart)=  0.00001948 RMS(Int)=  0.00001964
 Iteration  4 RMS(Cart)=  0.00000000 RMS(Int)=  0.00001964
 Variable       Old X    -DE/DX   Delta X   Delta X   Delta X     New X
                                 (Linear)    (Quad)   (Total)
    R1        2.42114   0.00086   0.00000   0.00250   0.00250   2.42364
    R2        2.06418   0.00109   0.00000   0.00487   0.00487   2.06904
    R3        2.81863  -0.00082   0.00000  -0.00541  -0.00541   2.81323
    R4        2.50212   0.00017   0.00000   0.00004   0.00004   2.50216
    R5        2.06643  -0.00009   0.00000   0.00000   0.00000   2.06643
    R6        2.54307  -0.00019   0.00000   0.00060   0.00060   2.54367
    R7        2.80557   0.00038   0.00000   0.00052   0.00052   2.80609
    R8        2.10745  -0.00133   0.00000  -0.00728  -0.00728   2.10017
    R9        2.09325   0.00185   0.00000   0.00785   0.00785   2.10110
   R10        2.06265  -0.00035   0.00000  -0.00068  -0.00068   2.06197
   R11        2.07825   0.00001   0.00000  -0.00343  -0.00343   2.07482
   R12        2.76235  -0.00005   0.00000  -0.00106  -0.00106   2.76129
   R13        4.38229   0.00001   0.00000  -0.08200  -0.08200   4.30029
   R14        2.08141   0.00011   0.00000  -0.00169  -0.00169   2.07972
   R15        2.06644   0.00159   0.00000   0.00719   0.00719   2.07363
   R16        2.08075  -0.00060   0.00000   0.00250   0.00250   2.08325
   R17        2.07176   0.00025   0.00000   0.00013   0.00013   2.07190
   R18        2.07603  -0.00073   0.00000  -0.00017  -0.00017   2.07586
   R19        2.07599  -0.00011   0.00000  -0.00059  -0.00059   2.07540
    A1        1.97666  -0.00105   0.00000  -0.00716  -0.00718   1.96948
    A2        2.19492   0.00143   0.00000   0.00201   0.00198   2.19691
    A3        2.11141  -0.00039   0.00000   0.00493   0.00491   2.11632
    A4        2.20077  -0.00032   0.00000  -0.00005  -0.00005   2.20071
    A5        2.13475   0.00107   0.00000   0.00319   0.00319   2.13794
    A6        1.94766  -0.00075   0.00000  -0.00314  -0.00314   1.94453
    A7        1.78344   0.00280   0.00000   0.00995   0.00996   1.79340
    A8        1.82199  -0.00141   0.00000  -0.00691  -0.00691   1.81508
    A9        1.80883  -0.00018   0.00000  -0.00156  -0.00154   1.80729
   A10        2.06335  -0.00076   0.00000  -0.00079  -0.00080   2.06255
   A11        2.13158   0.00184   0.00000   0.00376   0.00376   2.13534
   A12        2.08822  -0.00108   0.00000  -0.00299  -0.00299   2.08523
   A13        2.07971  -0.00001   0.00000   0.00116   0.00115   2.08086
   A14        2.11710   0.00102   0.00000  -0.00024  -0.00025   2.11684
   A15        2.08400  -0.00100   0.00000  -0.00153  -0.00155   2.08245
   A16        1.48212   0.00013   0.00000   0.01125   0.01125   1.49337
   A17        2.44913   0.00140   0.00000  -0.00924  -0.00924   2.43990
   A18        1.94469  -0.00032   0.00000   0.01043   0.01039   1.95508
   A19        1.92201  -0.00035   0.00000   0.00338   0.00332   1.92532
   A20        1.91922   0.00107   0.00000  -0.00902  -0.00902   1.91019
   A21        1.88679   0.00037   0.00000   0.00838   0.00828   1.89507
   A22        1.88606  -0.00018   0.00000  -0.00345  -0.00343   1.88262
   A23        1.90412  -0.00061   0.00000  -0.00998  -0.01001   1.89411
   A24        1.88120   0.00010   0.00000   0.00322   0.00321   1.88442
   A25        1.97236   0.00040   0.00000   0.00170   0.00170   1.97405
   A26        1.88605  -0.00056   0.00000  -0.00618  -0.00618   1.87987
   A27        1.91675  -0.00023   0.00000  -0.00042  -0.00042   1.91632
   A28        1.89602   0.00012   0.00000   0.00144   0.00144   1.89746
   A29        1.90977   0.00016   0.00000   0.00022   0.00022   1.90999
    D1       -0.07567   0.00012   0.00000   0.00782   0.00779  -0.06787
    D2        3.14041   0.00002   0.00000   0.01746   0.01744  -3.12533
    D3        3.04512   0.00009   0.00000  -0.00444  -0.00442   3.04070
    D4       -0.02200  -0.00001   0.00000   0.00521   0.00523  -0.01676
    D5        1.12831   0.00004   0.00000  -0.17392  -0.17395   0.95436
    D6       -3.06131   0.00006   0.00000  -0.15439  -0.15435   3.06753
    D7       -0.96249  -0.00024   0.00000  -0.17035  -0.17031  -1.13281
    D8       -2.03558   0.00000   0.00000  -0.18719  -0.18725  -2.22283
    D9        0.05798   0.00003   0.00000  -0.16766  -0.16765  -0.10966
   D10        2.15680  -0.00027   0.00000  -0.18362  -0.18361   1.97319
   D11       -0.00163   0.00001   0.00000   0.00074   0.00074  -0.00089
   D12       -3.13446  -0.00006   0.00000   0.00405   0.00406  -3.13041
   D13       -3.14135   0.00001   0.00000   0.00241   0.00241  -3.13894
   D14        0.00900  -0.00007   0.00000   0.00573   0.00573   0.01473
   D15       -2.13655   0.00014   0.00000   0.03005   0.03004  -2.10651
   D16        0.93200   0.00032   0.00000   0.02064   0.02063   0.95263
   D17        2.26649  -0.00018   0.00000   0.03050   0.03051   2.29700
   D18       -0.94815  -0.00000   0.00000   0.02110   0.02111  -0.92705
   D19        1.43741   0.00092   0.00000   0.00822   0.00822   1.44563
   D20       -2.95552   0.00027   0.00000   0.00357   0.00357  -2.95195
   D21        0.50312  -0.00011   0.00000   0.09421   0.09421   0.59733
   D22       -2.62959  -0.00018   0.00000   0.09755   0.09755  -2.53203
   D23       -2.38575   0.00004   0.00000   0.01161   0.01161  -2.37414
   D24       -0.26448   0.00007   0.00000   0.01440   0.01441  -0.25007
   D25        1.85138   0.00014   0.00000   0.01147   0.01148   1.86286
   D26        0.83050  -0.00010   0.00000   0.02116   0.02116   0.85166
   D27        2.95177  -0.00006   0.00000   0.02396   0.02396   2.97573
   D28       -1.21555   0.00000   0.00000   0.02103   0.02103  -1.19453
   D29       -2.38945  -0.00113   0.00000  -0.08146  -0.08146  -2.47091
         Item               Value     Threshold  Converged?
 Maximum Force            0.002797     0.000450     NO 
 RMS     Force            0.000727     0.000300     NO 
 Maximum Displacement     0.341042     0.001800     NO 
 RMS     Displacement     0.072248     0.001200     NO 
 Predicted change in Energy=-2.572971D-04
 GradGradGradGradGradGradGradGradGradGradGradGradGradGradGradGradGradGrad

                          Input orientation:                          
 ---------------------------------------------------------------------
 Center     Atomic      Atomic             Coordinates (Angstroms)
 Number     Number       Type             X           Y           Z
 ---------------------------------------------------------------------
      1          6           0        1.374156    0.018066    0.720851
      2          6           0       -2.122167   -0.582215    0.813420
      3          6           0        0.705082    2.160256   -0.099445
      4          6           0       -1.905214    0.517343    1.518480
      5          7           0        1.175400    0.766370   -0.301611
      6          1           0       -2.504580    0.680836    2.415497
      7          1           0       -0.256939    2.177705   -0.655628
      8          1           0       -2.855354   -1.360383    1.042879
      9          1           0        1.384758    2.768317   -0.735468
     10          1           0        1.226858    0.545733    1.668826
     11          1           0       -1.157253    1.265508    1.224732
     12          9           0       -1.431501   -0.872159   -0.304958
     13          6           0        1.725624   -1.428181    0.688340
     14          1           0        2.619705   -1.621845    0.076537
     15          1           0        1.910588   -1.798191    1.704701
     16          1           0        0.888646   -1.999613    0.254478
     17          6           0        1.301986    0.243991   -1.660370
     18          1           0        1.856866    0.979198   -2.255076
     19          1           0        1.810523   -0.728791   -1.702575
     20          1           0        0.290217    0.145755   -2.076110
 ---------------------------------------------------------------------
                    Distance matrix (angstroms):
                    1          2          3          4          5
     1  C    0.000000
     2  C    3.548687   0.000000
     3  C    2.389461   4.043242   0.000000
     4  C    3.411709   1.324087   3.482886   0.000000
     5  N    1.282533   3.733085   1.484920   3.586772   0.000000
     6  H    4.284354   2.075618   4.337689   1.091150   4.575177
     7  H    3.036314   3.640650   1.111363   3.193801   2.041761
     8  H    4.460110   1.093509   5.135807   2.157503   4.751602
     9  H    3.112051   5.091526   1.111856   4.579420   2.059091
    10  H    1.094891   3.635926   2.450656   3.135807   1.983418
    11  H    2.866712   2.124692   2.454040   1.097946   2.831984
    12  F    3.117129   1.346052   3.715207   2.340950   3.079078
    13  C    1.488696   3.941674   3.813003   4.202045   2.469576
    14  H    2.157739   4.910110   4.242763   5.208668   2.816484
    15  H    2.134129   4.305356   4.514143   4.467295   3.338077
    16  H    2.127029   3.374378   4.178931   3.967168   2.835864
    17  C    2.393003   4.304309   2.542608   4.523931   1.461209
    18  H    3.164320   5.261785   2.714452   5.348484   2.079836
    19  H    2.573170   4.670949   3.484052   5.072943   2.145132
    20  H    3.002369   3.833917   2.852636   4.228366   2.077874
                    6          7          8          9         10
     6  H    0.000000
     7  H    4.089537   0.000000
     8  H    2.484693   4.706884   0.000000
     9  H    5.423385   1.746529   6.179582   0.000000
    10  H    3.807808   3.204383   4.548577   3.278024   0.000000
    11  H    1.890781   2.275615   3.132399   3.544382   2.529680
    12  F    3.311218   3.286979   2.020491   4.622739   3.601820
    13  C    5.032460   4.328882   4.595177   4.444549   2.259747
    14  H    6.085341   4.821589   5.565829   4.632274   3.028828
    15  H    5.113171   5.106571   4.831552   5.204221   2.441875
    16  H    4.834128   4.426132   3.879140   4.894822   2.931476
    17  C    5.594057   2.679367   5.212011   2.689706   3.343686
    18  H    6.397303   2.909093   6.209281   2.394377   3.997725
    19  H    6.129085   3.717286   5.450398   3.653264   3.651222
    20  H    5.317117   2.538891   4.678799   3.142161   3.880956
                   11         12         13         14         15
    11  H    0.000000
    12  F    2.642874   0.000000
    13  C    3.981790   3.356075   0.000000
    14  H    4.890866   4.137612   1.100541   0.000000
    15  H    4.362140   4.008219   1.097318   1.784619   0.000000
    16  H    3.973425   2.639546   1.102408   1.780713   1.785520
    17  C    3.926216   3.248828   2.914115   2.869594   3.983040
    18  H    4.612586   4.247804   3.804786   3.575438   4.837003
    19  H    4.621044   3.533357   2.492555   2.148851   3.572556
    20  H    3.774199   2.671599   3.489964   3.631089   4.549622
                   16         17         18         19         20
    16  H    0.000000
    17  C    2.978465   0.000000
    18  H    4.013555   1.096401   0.000000
    19  H    2.508965   1.098497   1.795725   0.000000
    20  H    3.223718   1.098256   1.783549   1.793234   0.000000
 Stoichiometry    C6H12FN
 Framework group  C1[X(C6H12FN)]
 Deg. of freedom    54
 Full point group                 C1      NOp   1
 Largest Abelian subgroup         C1      NOp   1
 Largest concise Abelian subgroup C1      NOp   1
                         Standard orientation:                         
 ---------------------------------------------------------------------
 Center     Atomic      Atomic             Coordinates (Angstroms)
 Number     Number       Type             X           Y           Z
 ---------------------------------------------------------------------
      1          6           0       -0.926259   -0.459373   -0.941608
      2          6           0        2.400658   -0.202153    0.266137
      3          6           0       -0.964406    1.893774   -0.528367
      4          6           0        2.288072    0.664258   -0.728781
      5          7           0       -1.245516    0.488659   -0.138987
      6          1           0        3.143611    0.801164   -1.392044
      7          1           0       -0.294896    2.244871    0.286258
      8          1           0        3.281373   -0.808171    0.496015
      9          1           0       -1.920221    2.424951   -0.327138
     10          1           0       -0.523521   -0.094163   -1.891981
     11          1           0        1.374741    1.249860   -0.897251
     12          9           0        1.399579   -0.441193    1.133638
     13          6           0       -1.027150   -1.916627   -0.654468
     14          1           0       -2.041056   -2.205732   -0.338868
     15          1           0       -0.758368   -2.499727   -1.544332
     16          1           0       -0.331738   -2.179295    0.159602
     17          6           0       -1.783100    0.208576    1.190558
     18          1           0       -2.629896    0.883562    1.362099
     19          1           0       -2.107286   -0.833750    1.313657
     20          1           0       -0.997233    0.435808    1.923324
 ---------------------------------------------------------------------
 Rotational constants (GHZ):           2.3105281           1.2902558           1.1426085
 Basis read from rwf:  (5D, 7F)
 Pseudo-potential data read from rwf file.
 There are   180 symmetry adapted cartesian basis functions of A   symmetry.
 There are   172 symmetry adapted basis functions of A   symmetry.
   172 basis functions,   284 primitive gaussians,   180 cartesian basis functions
    32 alpha electrons       32 beta electrons
       nuclear repulsion energy       384.6948325475 Hartrees.
 NAtoms=   20 NActive=   20 NUniq=   20 SFac= 1.00D+00 NAtFMM=   60 NAOKFM=F Big=F
 Integral buffers will be    131072 words long.
 Raffenetti 2 integral format.
 Two-electron integral symmetry is turned on.
 Nuclear repulsion after empirical dispersion term =      384.6825092184 Hartrees.
 ------------------------------------------------------------------------------
 Polarizable Continuum Model (PCM)
 =================================
 Model                : PCM.
 Atomic radii         : UFF (Universal Force Field).
 Polarization charges : Total charges.
 Charge compensation  : None.
 Solution method      : On-the-fly selection.
 Cavity type          : Scaled VdW (van der Waals Surface) (Alpha=1.100).
 Cavity algorithm     : GePol (No added spheres)
                        Default sphere list used, NSphG=   20.
                        Lebedev-Laikov grids with approx.  5.0 points / Ang**2.
                        Smoothing algorithm: York/Karplus (Gamma=1.0000).
                        Polarization charges: spherical gaussians, with
                                              point-specific exponents (IZeta= 3).
                        Self-potential: point-specific (ISelfS= 7).
                        Self-field    : sphere-specific E.n sum rule (ISelfD= 2).
 1st derivatives      : Analytical E(r).r(x)/FMM algorithm (CHGder, D1EAlg=3).
                        Cavity 1st derivative terms included.
 Solvent              : Toluene, Eps=   2.374100 Eps(inf)=   2.238315
 ------------------------------------------------------------------------------
 Spheres list:
 ISph  on   Nord     Re0    Alpha      Xe            Ye            Ze
    1   C      1    1.9255  1.100     -0.926259     -0.459373     -0.941608
    2   C      2    1.9255  1.100      2.400658     -0.202153      0.266137
    3   C      3    1.9255  1.100     -0.964406      1.893774     -0.528367
    4   C      4    1.9255  1.100      2.288072      0.664258     -0.728781
    5   N      5    1.8300  1.100     -1.245516      0.488659     -0.138987
[...]
      8          1           0       -2.843016   -1.366910    1.056185
      9          1           0        1.398735    2.764749   -0.728955
     10          1           0        1.245999    0.545653    1.664280
     11          1           0       -1.156590    1.270985    1.224724
     12          9           0       -1.410622   -0.888390   -0.286325
     13          6           0        1.726524   -1.431161    0.687828
     14          1           0        2.674594   -1.608561    0.156669
     15          1           0        1.826568   -1.812287    1.710391
     16          1           0        0.936951   -2.001686    0.175251
     17          6           0        1.281564    0.244274   -1.666318
     18          1           0        1.842907    0.975785   -2.260335
     19          1           0        1.777610   -0.733573   -1.715308
     20          1           0        0.267266    0.160963   -2.079636
 ---------------------------------------------------------------------
                    Distance matrix (angstroms):
                    1          2          3          4          5
     1  C    0.000000
     2  C    3.541132   0.000000
     3  C    2.388559   4.047114   0.000000
     4  C    3.416464   1.323869   3.485600   0.000000
     5  N    1.281784   3.721848   1.484938   3.581158   0.000000
     6  H    4.295771   2.074294   4.340728   1.091189   4.573247
     7  H    3.043099   3.657526   1.112249   3.200461   2.043819
     8  H    4.452791   1.093426   5.139632   2.157052   4.740772
     9  H    3.105085   5.096457   1.110775   4.582111   2.058981
    10  H    1.094097   3.642530   2.450257   3.156818   1.982824
    11  H    2.871657   2.128482   2.456338   1.099608   2.828361
    12  F    3.096177   1.346080   3.720028   2.340803   3.061878
    13  C    1.489567   3.932048   3.814976   4.207313   2.472519
    14  H    2.153923   4.939010   4.257956   5.232158   2.847719
    15  H    2.129868   4.218564   4.506089   4.407541   3.336050
    16  H    2.134634   3.422244   4.177989   4.031271   2.815738
    17  C    2.394686   4.289927   2.541089   4.512818   1.461309
    18  H    3.161526   5.252744   2.712584   5.340620   2.079561
    19  H    2.575491   4.646544   3.482800   5.058446   2.145086
    20  H    3.010520   3.826924   2.850003   4.216559   2.079062
                    6          7          8          9         10
     6  H    0.000000
     7  H    4.091827   0.000000
     8  H    2.482357   4.723812   0.000000
     9  H    5.425973   1.747863   6.184641   0.000000
    10  H    3.836837   3.214363   4.554967   3.267306   0.000000
    11  H    1.890867   2.280925   3.135431   3.546530   2.547892
    12  F    3.310333   3.312224   2.020660   4.629669   3.594298
    13  C    5.044919   4.340890   4.584814   4.440763   2.256580
    14  H    6.106120   4.864610   5.595672   4.640903   2.992392
    15  H    5.060460   5.093959   4.736176   5.204105   2.428799
    16  H    4.913792   4.437320   3.932828   4.873370   2.966758
    17  C    5.585014   2.676916   5.198086   2.691686   3.344395
    18  H    6.390675   2.905339   6.200435   2.396415   3.992983
    19  H    6.118667   3.714793   5.425171   3.654408   3.652485
    20  H    5.304240   2.534527   4.673502   3.143925   3.888807
                   11         12         13         14         15
    11  H    0.000000
    12  F    2.647772   0.000000
    13  C    3.987756   3.329454   0.000000
    14  H    4.910244   4.171796   1.101107   0.000000
    15  H    4.317600   3.914059   1.095857   1.781771   0.000000
    16  H    4.024262   2.638860   1.100755   1.781655   1.784362
    17  C    3.918782   3.230352   2.923537   2.949035   3.991069
    18  H    4.607576   4.237607   3.807702   3.634894   4.851833
    19  H    4.612111   3.497254   2.502859   2.252661   3.591857
    20  H    3.765409   2.670658   3.510435   3.731957   4.548566
                   16         17         18         19         20
    16  H    0.000000
    17  C    2.924802   0.000000
    18  H    3.951983   1.096846   0.000000
    19  H    2.426733   1.097563   1.795334   0.000000
    20  H    3.195316   1.098442   1.783040   1.792783   0.000000
 Stoichiometry    C6H12FN
 Framework group  C1[X(C6H12FN)]
 Deg. of freedom    54
 Full point group                 C1      NOp   1
 Largest Abelian subgroup         C1      NOp   1
 Largest concise Abelian subgroup C1      NOp   1
                         Standard orientation:                         
 ---------------------------------------------------------------------
 Center     Atomic      Atomic             Coordinates (Angstroms)
 Number     Number       Type             X           Y           Z
 ---------------------------------------------------------------------
      1          6           0       -0.923631   -0.458012   -0.940479
      2          6           0        2.395953   -0.199702    0.265030
      3          6           0       -0.975644    1.893982   -0.527400
      4          6           0        2.288111    0.684676   -0.714192
      5          7           0       -1.240206    0.486723   -0.134114
      6          1           0        3.150153    0.837052   -1.365621
      7          1           0       -0.312422    2.258282    0.287780
      8          1           0        3.278158   -0.804461    0.492105
      9          1           0       -1.938393    2.413325   -0.334478
     10          1           0       -0.534983   -0.090765   -1.895011
     11          1           0        1.371689    1.266868   -0.888438
     12          9           0        1.388358   -0.459700    1.118894
     13          6           0       -1.016861   -1.918388   -0.662232
     14          1           0       -2.052235   -2.224829   -0.446519
     15          1           0       -0.660836   -2.488351   -1.527848
     16          1           0       -0.396314   -2.177550    0.209213
     17          6           0       -1.771481    0.206867    1.198121
     18          1           0       -2.626730    0.872531    1.366978
     19          1           0       -2.082096   -0.837759    1.328200
     20          1           0       -0.988455    0.449364    1.929311
 ---------------------------------------------------------------------
 Rotational constants (GHZ):           2.3078687           1.2976254           1.1449090

 **********************************************************************

            Population analysis using the SCF Density.

 **********************************************************************

 Orbital symmetries:
       Occupied  (A) (A) (A) (A) (A) (A) (A) (A) (A) (A) (A) (A)
                 (A) (A) (A) (A) (A) (A) (A) (A) (A) (A) (A) (A)
                 (A) (A) (A) (A) (A) (A) (A) (A)
       Virtual   (A) (A) (A) (A) (A) (A) (A) (A) (A) (A) (A) (A)
                 (A) (A) (A) (A) (A) (A) (A) (A) (A) (A) (A) (A)
                 (A) (A) (A) (A) (A) (A) (A) (A) (A) (A) (A) (A)
                 (A) (A) (A) (A) (A) (A) (A) (A) (A) (A) (A) (A)
                 (A) (A) (A) (A) (A) (A) (A) (A) (A) (A) (A) (A)
                 (A) (A) (A) (A) (A) (A) (A) (A) (A) (A) (A) (A)
                 (A) (A) (A) (A) (A) (A) (A) (A) (A) (A) (A) (A)
                 (A) (A) (A) (A) (A) (A) (A) (A) (A) (A) (A) (A)
                 (A) (A) (A) (A) (A) (A) (A) (A) (A) (A) (A) (A)
                 (A) (A) (A) (A) (A) (A) (A) (A) (A) (A) (A) (A)
                 (A) (A) (A) (A) (A) (A) (A) (A) (A) (A) (A) (A)
                 (A) (A) (A) (A) (A) (A) (A) (A)
 The electronic state is 1-A.
 Alpha  occ. eigenvalues --  -24.82783 -14.52797 -10.37907 -10.37702 -10.34000
 Alpha  occ. eigenvalues --  -10.32438 -10.29223 -10.23170  -1.31072  -1.08263
 Alpha  occ. eigenvalues --   -0.87366  -0.85642  -0.82209  -0.74816  -0.69451
 Alpha  occ. eigenvalues --   -0.65607  -0.61752  -0.58437  -0.57669  -0.56359
 Alpha  occ. eigenvalues --   -0.56198  -0.55561  -0.51702  -0.49766  -0.48712
 Alpha  occ. eigenvalues --   -0.48440  -0.46087  -0.45171  -0.44299  -0.37055
 Alpha  occ. eigenvalues --   -0.34607  -0.22341
 Alpha virt. eigenvalues --    0.02600   0.09011   0.13262   0.16439   0.16692
 Alpha virt. eigenvalues --    0.17042   0.19363   0.20792   0.21178   0.21585
 Alpha virt. eigenvalues --    0.22621   0.22914   0.24364   0.25106   0.27206
 Alpha virt. eigenvalues --    0.28946   0.32326   0.36033   0.37484   0.41356
 Alpha virt. eigenvalues --    0.44217   0.48872   0.48883   0.51133   0.53635
 Alpha virt. eigenvalues --    0.54842   0.55847   0.56980   0.58502   0.59899
 Alpha virt. eigenvalues --    0.61948   0.65423   0.66629   0.67965   0.69424
 Alpha virt. eigenvalues --    0.71089   0.71674   0.72161   0.72961   0.74290
 Alpha virt. eigenvalues --    0.74859   0.75001   0.75378   0.76495   0.76719
 Alpha virt. eigenvalues --    0.77661   0.80102   0.82149   0.83472   0.84377
 Alpha virt. eigenvalues --    0.88466   0.88710   0.91750   0.92127   1.00312
 Alpha virt. eigenvalues --    1.08451   1.11052   1.15047   1.19205   1.20734
 Alpha virt. eigenvalues --    1.27929   1.28136   1.30716   1.32783   1.33743
 Alpha virt. eigenvalues --    1.36098   1.39725   1.46056   1.49159   1.55169
 Alpha virt. eigenvalues --    1.58999   1.59651   1.60414   1.61827   1.64842
 Alpha virt. eigenvalues --    1.66960   1.68405   1.71482   1.73677   1.76469
 Alpha virt. eigenvalues --    1.77570   1.79569   1.81605   1.82640   1.84933
 Alpha virt. eigenvalues --    1.85238   1.85497   1.88297   1.91251   1.91687
 Alpha virt. eigenvalues --    1.93099   1.96487   1.97552   1.98392   2.02669
 Alpha virt. eigenvalues --    2.04527   2.05143   2.05593   2.10414   2.13689
 Alpha virt. eigenvalues --    2.17335   2.18298   2.18585   2.21405   2.24061
 Alpha virt. eigenvalues --    2.31820   2.34480   2.35623   2.38060   2.40214
 Alpha virt. eigenvalues --    2.41890   2.49956   2.51757   2.52351   2.55013
 Alpha virt. eigenvalues --    2.58119   2.63201   2.72234   2.73713   2.76713
 Alpha virt. eigenvalues --    2.78923   2.81517   2.84346   2.88200   2.91704
 Alpha virt. eigenvalues --    2.94354   2.98840   3.01744   3.02476   3.05642
 Alpha virt. eigenvalues --    3.08104   3.10349   3.14710   3.17348   3.29380
 Alpha virt. eigenvalues --    3.31488   3.39556   3.44920   3.61268   3.94559
          Condensed to atoms (all electrons):
               1          2          3          4          5          6
     1  C    4.922900  -0.000984  -0.090096   0.007566   0.539406  -0.000026
     2  C   -0.000984   4.545348  -0.000166   0.611125  -0.000846  -0.005789
     3  C   -0.090096  -0.000166   5.349231  -0.031815   0.264216   0.000241
     4  C    0.007566   0.611125  -0.031815   5.002959   0.000282   0.370475
     5  N    0.539406  -0.000846   0.264216   0.000282   6.285791   0.000057
     6  H   -0.000026  -0.005789   0.000241   0.370475   0.000057   0.591404
     7  H   -0.000037  -0.000112   0.363527   0.002739  -0.033880   0.000108
     8  H    0.000274   0.421856  -0.000048  -0.061826  -0.000029  -0.006865
     9  H    0.004246   0.000009   0.358756   0.000790  -0.031860  -0.000008
    10  H    0.383979  -0.000287   0.032370  -0.004011  -0.026531   0.000116
    11  H   -0.010800  -0.013938   0.079292   0.319639  -0.003092  -0.023049
    12  F    0.009884   0.295216  -0.000877  -0.059380  -0.002406   0.002615
    13  C    0.299537   0.001237   0.010999  -0.001284  -0.042363   0.000012
    14  H   -0.010474  -0.000004  -0.000212   0.000012  -0.004742   0.000000
    15  H   -0.008798   0.000139  -0.000244   0.000202   0.004131  -0.000003
    16  H   -0.003197  -0.001527  -0.000361  -0.000677  -0.007921  -0.000027
    17  C   -0.086774  -0.000023  -0.037548  -0.001105   0.307603   0.000004
    18  H    0.005768   0.000001  -0.000637   0.000020  -0.022709  -0.000000
    19  H   -0.009609  -0.000024   0.006345   0.000221  -0.013229  -0.000000
    20  H    0.000448  -0.000039  -0.001100  -0.000059  -0.022182  -0.000007
               7          8          9         10         11         12
     1  C   -0.000037   0.000274   0.004246   0.383979  -0.010800   0.009884
     2  C   -0.000112   0.421856   0.000009  -0.000287  -0.013938   0.295216
     3  C    0.363527  -0.000048   0.358756   0.032370   0.079292  -0.000877
     4  C    0.002739  -0.061826   0.000790  -0.004011   0.319639  -0.059380
     5  N   -0.033880  -0.000029  -0.031860  -0.026531  -0.003092  -0.002406
     6  H    0.000108  -0.006865  -0.000008   0.000116  -0.023049   0.002615
     7  H    0.733620   0.000029  -0.039531  -0.001557  -0.007269   0.001152
     8  H    0.000029   0.616761   0.000001  -0.000031   0.004837  -0.031046
     9  H   -0.039531   0.000001   0.743774  -0.000461  -0.002735   0.000002
    10  H   -0.001557  -0.000031  -0.000461   0.555319   0.008468  -0.000122
    11  H   -0.007269   0.004837  -0.002735   0.008468   0.572102  -0.001797
    12  F    0.001152  -0.031046   0.000002  -0.000122  -0.001797   9.005934
    13  C   -0.000969  -0.000140  -0.000850  -0.034327   0.002362  -0.006921
    14  H   -0.000038   0.000001   0.000083   0.002943  -0.000009   0.000092
    15  H    0.000023   0.000004   0.000019  -0.008474  -0.000124  -0.000078
    16  H    0.000182   0.000029  -0.000015   0.002422  -0.000231   0.011929
    17  C   -0.003378  -0.000008  -0.009277   0.009248   0.002195   0.000124
    18  H   -0.001927   0.000001   0.008804  -0.000351  -0.000087   0.000095
    19  H    0.000967   0.000001   0.000938  -0.000893  -0.000432  -0.000333
    20  H    0.005425   0.000072  -0.001520  -0.000318  -0.000062   0.006927
              13         14         15         16         17         18
     1  C    0.299537  -0.010474  -0.008798  -0.003197  -0.086774   0.005768
     2  C    0.001237  -0.000004   0.000139  -0.001527  -0.000023   0.000001
     3  C    0.010999  -0.000212  -0.000244  -0.000361  -0.037548  -0.000637
     4  C   -0.001284   0.000012   0.000202  -0.000677  -0.001105   0.000020
     5  N   -0.042363  -0.004742   0.004131  -0.007921   0.307603  -0.022709
     6  H    0.000012   0.000000  -0.000003  -0.000027   0.000004  -0.000000
     7  H   -0.000969  -0.000038   0.000023   0.000182  -0.003378  -0.001927
     8  H   -0.000140   0.000001   0.000004   0.000029  -0.000008   0.000001
     9  H   -0.000850   0.000083   0.000019  -0.000015  -0.009277   0.008804
    10  H   -0.034327   0.002943  -0.008474   0.002422   0.009248  -0.000351
    11  H    0.002362  -0.000009  -0.000124  -0.000231   0.002195  -0.000087
    12  F   -0.006921   0.000092  -0.000078   0.011929   0.000124   0.000095
    13  C    4.679523   0.386555   0.387249   0.373180   0.009306  -0.000476
    14  H    0.386555   0.559236  -0.014349  -0.013560  -0.002151   0.000351
    15  H    0.387249  -0.014349   0.577696  -0.014642   0.000428  -0.000014
    16  H    0.373180  -0.013560  -0.014642   0.564068  -0.000032  -0.000031
    17  C    0.009306  -0.002151   0.000428  -0.000032   4.605825   0.395018
    18  H   -0.000476   0.000351  -0.000014  -0.000031   0.395018   0.578343
    19  H    0.004190   0.002486   0.000353  -0.000150   0.360167  -0.018329
    20  H   -0.000500  -0.000320  -0.000013   0.000672   0.397526  -0.014970
              19         20
     1  C   -0.009609   0.000448
     2  C   -0.000024  -0.000039
     3  C    0.006345  -0.001100
     4  C    0.000221  -0.000059
     5  N   -0.013229  -0.022182
     6  H   -0.000000  -0.000007
     7  H    0.000967   0.005425
     8  H    0.000001   0.000072
     9  H    0.000938  -0.001520
    10  H   -0.000893  -0.000318
    11  H   -0.000432  -0.000062
    12  F   -0.000333   0.006927
    13  C    0.004190  -0.000500
    14  H    0.002486  -0.000320
    15  H    0.000353  -0.000013
    16  H   -0.000150   0.000672
    17  C    0.360167   0.397526
    18  H   -0.018329  -0.014970
    19  H    0.635803  -0.018002
    20  H   -0.018002   0.566716
 Mulliken charges:
               1
     1  C    0.046785
     2  C    0.148807
     3  C   -0.301872
     4  C   -0.155871
     5  N   -0.189695
     6  H    0.070740
     7  H   -0.019072
     8  H    0.056128
     9  H   -0.031162
    10  H    0.082500
    11  H    0.074732
    12  F   -0.231009
    13  C   -0.066318
    14  H    0.094101
    15  H    0.076496
    16  H    0.089889
    17  C    0.052852
    18  H    0.071132
    19  H    0.049530
    20  H    0.081306
 Sum of Mulliken charges =  -0.00000
 Mulliken charges with hydrogens summed into heavy atoms:
               1
     1  C    0.129285
     2  C    0.204935
     3  C   -0.352106
     4  C   -0.010400
     5  N   -0.189695
    12  F   -0.231009
    13  C    0.194168
    17  C    0.254821
 Electronic spatial extent (au):  <R**2>=           1205.3008
 Charge=             -0.0000 electrons
 Dipole moment (field-independent basis, Debye):
    X=             -0.2878    Y=             -5.8872    Z=              1.6035  Tot=              6.1084
 Quadrupole moment (field-independent basis, Debye-Ang):
   XX=            -41.7793   YY=            -56.7124   ZZ=            -50.8872
   XY=              3.7429   XZ=             -4.0239   YZ=              6.6437
 Traceless Quadrupole moment (field-independent basis, Debye-Ang):
   XX=              8.0137   YY=             -6.9194   ZZ=             -1.0943
   XY=              3.7429   XZ=             -4.0239   YZ=              6.6437
 Octapole moment (field-independent basis, Debye-Ang**2):
  XXX=             19.9260  YYY=            -39.3147  ZZZ=             13.7434  XYY=              5.4801
  XXY=            -12.6774  XXZ=              6.8321  XZZ=              2.2110  YZZ=            -12.3893
  YYZ=             13.5867  XYZ=             -8.5584
 Hexadecapole moment (field-independent basis, Debye-Ang**3):
 XXXX=           -772.4719 YYYY=           -506.5183 ZZZZ=           -266.8199 XXXY=            -10.9893
 XXXZ=             -9.1903 YYYX=             18.6669 YYYZ=             32.1426 ZZZX=              0.2549
 ZZZY=             18.8141 XXYY=           -220.7868 XXZZ=           -182.8329 YYZZ=           -136.9946
 XXYZ=             -2.0698 YYXZ=             -5.6076 ZZXY=              9.5763
 N-N= 3.849157568376D+02 E-N=-1.678254101377D+03  KE= 3.859528287687D+02
 Unable to Open any file for archive entry.
 1\1\GINC-NODE-003\FTS\RwB97XD\Gen\C6H12F1N1\JP2658\22-Dec-2023\0\\# wb
 97xd chkbasis guess=read geom=allchk scrf=(iefpcm,solvent=toluene) opt
 =(readfc,ts,noeigen,maxcycles=50,maxstep=10)\\allyl_ts_46_reopt.out\\0
 ,1\C,1.3757777123,0.0162558662,0.7156256711\C,-2.1117324313,-0.5882183
 534,0.8228521861\C,0.7114831395,2.1612116033,-0.0986786238\C,-1.907192
 9561,0.5216479176,1.5149436019\N,1.16756076,0.763191059,-0.3050126389\
 H,-2.515935006,0.6915447259,2.4044729822\H,-0.2510512839,2.1922249828,
 -0.6551532355\H,-2.8430160538,-1.3669099808,1.0561850825\H,1.398734972
 1,2.7647491542,-0.7289548514\H,1.2459994087,0.5456527715,1.6642801662\
 H,-1.1565900416,1.2709847836,1.2247236492\F,-1.4106222123,-0.888389947
 9,-0.2863246978\C,1.7265244113,-1.4311605861,0.6878277302\H,2.67459403
 98,-1.6085607819,0.156668523\H,1.8265680376,-1.8122867159,1.7103912628
 \H,0.9369511673,-2.0016861406,0.1752505353\C,1.2815638283,0.244273642,
 -1.6663177939\H,1.8429068112,0.9757854844,-2.2603348653\H,1.7776101467
 ,-0.733572548,-1.7153082972\H,0.2672655503,0.1609630642,-2.0796363866\
 \Version=ES64L-G16RevC.01\State=1-A\HF=-389.8994873\RMSD=8.579e-09\RMS
 F=9.296e-06\Dipole=0.462239,-2.3495903,-0.2033839\Quadrupole=4.79879,-
 8.0813846,3.2825946,-2.3847061,-3.0370375,-2.8172038\PG=C01 [X(C6H12F1
 N1)]\\@
 The archive entry for this job was punched.


 MISERY NO LONGER LOVES COMPANY.  NOWADAYS IT INSISTS ON IT.

                                              -- BAKER'S LAW
 Job cpu time:       0 days  0 hours 47 minutes  8.4 seconds.
 Elapsed time:       0 days  0 hours  4 minutes  1.1 seconds.
 File lengths (MBytes):  RWF=    101 Int=      0 D2E=      0 Chk=      8 Scr=      1
 Normal termination of Gaussian 16 at Fri Dec 22 23:35:13 2023.
