Unloading slurm/anatra/current
  ERROR: No such file or directory on
    '/cm/local/modulefiles/slurm/anatra/current'
environment: line 0: unalias: gv: not found
environment: line 0: unalias: sl: not found
 Entering Gaussian System, Link 0=g16
 Initial command:
 /apps/gaussian/g16/C.01/g16/l1.exe "/local/jobs/1153152/Gau-1729999.inp" -scrdir="/local/jobs/1153152/"
 Entering Link 1 = /apps/gaussian/g16/C.01/g16/l1.exe PID=   1730004.
  
 Copyright (c) 1988-2019, Gaussian, Inc.  All Rights Reserved.
  
 This is part of the Gaussian(R) 16 program.  It is based on
 the Gaussian(R) 09 system (copyright 2009, Gaussian, Inc.),
 the Gaussian(R) 03 system (copyright 2003, Gaussian, Inc.),
 the Gaussian(R) 98 system (copyright 1998, Gaussian, Inc.),
 the Gaussian(R) 94 system (copyright 1995, Gaussian, Inc.),
 the Gaussian 92(TM) system (copyright 1992, Gaussian, Inc.),
 the Gaussian 90(TM) system (copyright 1990, Gaussian, Inc.),
 the Gaussian 88(TM) system (copyright 1988, Gaussian, Inc.),
 the Gaussian 86(TM) system (copyright 1986, Carnegie Mellon
 University), and the Gaussian 82(TM) system (copyright 1983,
 Carnegie Mellon University). Gaussian is a federally registered
 trademark of Gaussian, Inc.
  
 This software contains proprietary and confidential information,
 including trade secrets, belonging to Gaussian, Inc.
  
 This software is provided under written license and may be
 used, copied, transmitted, or stored only in accord with that
 written license.
  
 The following legend is applicable only to US Government
 contracts under FAR:
  
                    RESTRICTED RIGHTS LEGEND
  
 Use, reproduction and disclosure by the US Government is
 subject to restrictions as set forth in subparagraphs (a)
 and (c) of the Commercial Computer Software - Restricted
 Rights clause in FAR 52.227-19.
  
 Gaussian, Inc.
 340 Quinnipiac St., Bldg. 40, Wallingford CT 06492
  
  
 ---------------------------------------------------------------
 Warning -- This program may not be used in any manner that
 competes with the business of Gaussian, Inc. or will provide
 assistance to any competitor of Gaussian, Inc.  The licensee
 of this program is prohibited from giving any competitor of
 Gaussian, Inc. access to this program.  By using this program,
 the user acknowledges that Gaussian, Inc. is engaged in the
 business of creating and licensing software in the field of
 computational chemistry and represents and warrants to the
 licensee that it is not a competitor of Gaussian, Inc. and that
 it will not use this program in any manner prohibited above.
 ---------------------------------------------------------------
  

 Cite this work as:
 Gaussian 16, Revision C.01,
 M. J. Frisch, G. W. Trucks, H. B. Schlegel, G. E. Scuseria, 
 M. A. Robb, J. R. Cheeseman, G. Scalmani, V. Barone, 
 G. A. Petersson, H. Nakatsuji, X. Li, M. Caricato, A. V. Marenich, 
 J. Bloino, B. G. Janesko, R. Gomperts, B. Mennucci, H. P. Hratchian, 
 J. V. Ortiz, A. F. Izmaylov, J. L. Sonnenberg, D. Williams-Young, 
 F. Ding, F. Lipparini, F. Egidi, J. Goings, B. Peng, A. Petrone, 
 T. Henderson, D. Ranasinghe, V. G. Zakrzewski, J. Gao, N. Rega, 
 G. Zheng, W. Liang, M. Hada, M. Ehara, K. Toyota, R. Fukuda, 
 J. Hasegawa, M. Ishida, T. Nakajima, Y. Honda, O. Kitao, H. Nakai, 
 T. Vreven, K. Throssell, J. A. Montgomery, Jr., J. E. Peralta, 
 F. Ogliaro, M. J. Bearpark, J. J. Heyd, E. N. Brothers, K. N. Kudin, 
 V. N. Staroverov, T. A. Keith, R. Kobayashi, J. Normand, 
 K. Raghavachari, A. P. Rendell, J. C. Burant, S. S. Iyengar, 
 J. Tomasi, M. Cossi, J. M. Millam, M. Klene, C. Adamo, R. Cammi, 
 J. W. Ochterski, R. L. Martin, K. Morokuma, O. Farkas, 
 J. B. Foresman, and D. J. Fox, Gaussian, Inc., Wallingford CT, 2019.
 
 ******************************************
 Gaussian 16:  ES64L-G16RevC.01  3-Jul-2019
                30-Dec-2023 
 ******************************************
 %chk=allylic-1_1_opt_hf_reopt_freq.chk
 %nprocshared=12
 Will use up to   12 processors via shared memory.
 %mem=48GB
 -----------------------------------------------------------
 # wb97xd def2svp scrf=(iefpcm,solvent=toluene) freq=noraman
 -----------------------------------------------------------
 1/10=4,30=1,38=1/1,3;
 2/12=2,17=6,18=5,40=1/2;
 3/5=43,7=101,11=2,25=1,30=1,70=2201,71=2,72=13,74=-58,140=1/1,2,3;
 4//1;
 5/5=2,38=5,53=13,98=1/2;
 8/6=4,10=90,11=11/1;
 11/6=1,8=1,9=11,15=111,16=1/1,2,10;
 10/6=1/2;
 6/7=2,8=2,9=2,10=2,28=1/1;
 7/8=1,10=1,25=1/1,2,3,16;
 1/10=4,30=1/3;
 99//99;
 ----------------------------
 allylic-1_1_opt_hf_reopt.out
 ----------------------------
 Symbolic Z-matrix:
 Charge =  0 Multiplicity = 1
 C                    -0.92358  -0.45812  -0.94045 
 C                     2.39617  -0.19954   0.26518 
 C                    -0.97616   1.89387  -0.52756 
 C                     2.2885    0.6847   -0.71418 
 N                    -1.24048   0.48661  -0.13416 
 H                     3.15053   0.83681  -1.36567 
 H                    -0.31279   2.25829   0.28743 
 H                     3.27828  -0.80437   0.49239 
 H                    -1.9389    2.41314  -0.3344 
 H                    -0.53476  -0.0908   -1.89488 
 H                     1.37223   1.26704  -0.88852 
 F                     1.38844  -0.4593    1.11896 
 C                    -1.01657  -1.9185   -0.66219 
 H                    -0.66189  -2.48847  -1.52839 
 H                    -0.39467  -2.17767   0.20827 
 H                    -2.05159  -2.22495  -0.44489 
 C                    -1.77182   0.20672   1.19803 
 H                    -2.62696   0.8725    1.36694 
 H                    -2.08259  -0.83788   1.32802 
 H                    -0.98875   0.449     1.92924 
 

 GradGradGradGradGradGradGradGradGradGradGradGradGradGradGradGradGradGrad
 Berny optimization.
 Initialization pass.
 Trust Radius=3.00D-01 FncErr=1.00D-07 GrdErr=1.00D-07 EigMax=2.50D+02 EigMin=1.00D-04
 Number of steps in this run=      2 maximum allowed number of steps=      2.
 GradGradGradGradGradGradGradGradGradGradGradGradGradGradGradGradGradGrad

                          Input orientation:                          
 ---------------------------------------------------------------------
 Center     Atomic      Atomic             Coordinates (Angstroms)
 Number     Number       Type             X           Y           Z
 ---------------------------------------------------------------------
      1          6           0       -0.923580   -0.458120   -0.940450
      2          6           0        2.396170   -0.199540    0.265180
      3          6           0       -0.976160    1.893870   -0.527560
      4          6           0        2.288500    0.684700   -0.714180
      5          7           0       -1.240480    0.486610   -0.134160
      6          1           0        3.150530    0.836810   -1.365670
      7          1           0       -0.312790    2.258290    0.287430
      8          1           0        3.278280   -0.804370    0.492390
      9          1           0       -1.938900    2.413140   -0.334400
     10          1           0       -0.534760   -0.090800   -1.894880
     11          1           0        1.372230    1.267040   -0.888520
     12          9           0        1.388440   -0.459300    1.118960
     13          6           0       -1.016570   -1.918500   -0.662190
     14          1           0       -0.661890   -2.488470   -1.528390
     15          1           0       -0.394670   -2.177670    0.208270
     16          1           0       -2.051590   -2.224950   -0.444890
     17          6           0       -1.771820    0.206720    1.198030
     18          1           0       -2.626960    0.872500    1.366940
     19          1           0       -2.082590   -0.837880    1.328020
     20          1           0       -0.988750    0.449000    1.929240
 ---------------------------------------------------------------------
                    Distance matrix (angstroms):
                    1          2          3          4          5
     1  C    0.000000
     2  C    3.541348   0.000000
     3  C    2.388535   4.047643   0.000000
     4  C    3.416825   1.323865   3.486391   0.000000
     5  N    1.281813   3.722297   1.484927   3.581810   0.000000
     6  H    4.296048   2.074308   4.341587   1.091179   4.573863
     7  H    3.042965   3.657853   1.112237   3.200956   2.043819
     8  H    4.452926   1.093417   5.140142   2.157036   4.741138
     9  H    3.105206   5.096903   1.110775   4.582865   2.058981
    10  H    1.094094   3.642531   2.450166   3.156937   1.982821
    11  H    2.872215   2.128458   2.457263   1.099575   2.829202
    12  F    3.096225   1.346081   3.720184   2.340779   3.062071
    13  C    1.489559   3.932128   3.814960   4.207474   2.472550
    14  H    2.129901   4.219932   4.506144   4.408713   3.336127
    15  H    2.134515   3.421261   4.178159   4.030320   2.816210
    16  H    2.153990   4.938528   4.257706   5.232109   2.847281
    17  C    2.394707   4.290384   2.541104   4.513448   1.461298
    18  H    3.161661   5.253092   2.712465   5.341168   2.079553
    19  H    2.575554   4.647192   3.482789   5.059176   2.145086
    20  H    3.010355   3.827190   2.850206   4.217060   2.079039
                    6          7          8          9         10
     6  H    0.000000
     7  H    4.092424   0.000000
     8  H    2.482374   4.724159   0.000000
     9  H    5.426844   1.747823   6.185056   0.000000
    10  H    3.836911   3.214027   4.554944   3.267480   0.000000
    11  H    1.890799   2.281387   3.135391   3.547418   2.548156
    12  F    3.310325   3.312238   2.020683   4.629726   3.594123
    13  C    5.044932   4.340813   4.584766   4.440861   2.256580
    14  H    5.061473   5.094193   4.737582   5.204051   2.428847
    15  H    4.912517   4.437422   3.931570   4.873877   2.966124
    16  H    6.106084   4.864068   5.595003   4.640774   2.992965
    17  C    5.585616   2.677107   5.198436   2.691570   3.344388
    18  H    6.391230   2.905364   6.200693   2.396154   3.993084
    19  H    6.119322   3.715009   5.425710   3.654233   3.652532
    20  H    5.304759   2.534954   4.673652   3.143994   3.888622
                   11         12         13         14         15
    11  H    0.000000
    12  F    2.647733   0.000000
    13  C    3.988139   3.329539   0.000000
    14  H    4.318673   3.915335   1.095886   0.000000
    15  H    4.023793   2.638491   1.100740   1.784374   0.000000
    16  H    4.910534   4.170965   1.101089   1.781763   1.781639
    17  C    3.919569   3.230647   2.923590   3.991160   2.926001
    18  H    4.608284   4.237761   3.807940   4.851861   3.953375
    19  H    4.612973   3.497868   2.503013   3.591923   2.428570
    20  H    3.766057   2.670692   3.510177   4.548711   3.195945
                   16         17         18         19         20
    16  H    0.000000
    17  C    2.947961   0.000000
    18  H    3.634278   1.096840   0.000000
    19  H    2.251252   1.097572   1.795342   0.000000
    20  H    3.730433   1.098438   1.783050   1.792766   0.000000
 Stoichiometry    C6H12FN
 Framework group  C1[X(C6H12FN)]
 Deg. of freedom    54
 Full point group                 C1      NOp   1
 Largest Abelian subgroup         C1      NOp   1
 Largest concise Abelian subgroup C1      NOp   1
                         Standard orientation:                         
 ---------------------------------------------------------------------
 Center     Atomic      Atomic             Coordinates (Angstroms)
 Number     Number       Type             X           Y           Z
 ---------------------------------------------------------------------
      1          6           0        0.923581    0.458118   -0.940451
      2          6           0       -2.396170    0.199544    0.265179
      3          6           0        0.976156   -1.893872   -0.527561
      4          6           0       -2.288502   -0.684696   -0.714181
      5          7           0        1.240479   -0.486612   -0.134161
      6          1           0       -3.150532   -0.836804   -1.365671
      7          1           0        0.312785   -2.258291    0.287429
      8          1           0       -3.278279    0.804376    0.492389
      9          1           0        1.938895   -2.413144   -0.334401
     10          1           0        0.534760    0.090799   -1.894881
     11          1           0       -1.372233   -1.267038   -0.888521
     12          9           0       -1.388439    0.459302    1.118959
     13          6           0        1.016573    1.918498   -0.662191
     14          1           0        0.661894    2.488469   -1.528391
     15          1           0        0.394674    2.177669    0.208269
     16          1           0        2.051594    2.224946   -0.444891
     17          6           0        1.771819   -0.206723    1.198029
     18          1           0        2.626958   -0.872505    1.366939
     19          1           0        2.082591    0.837876    1.328019
     20          1           0        0.988749   -0.449002    1.929239
 ---------------------------------------------------------------------
 Rotational constants (GHZ):           2.3079448           1.2973771           1.1447379
 Standard basis: def2SVP (5D, 7F)
 There are   180 symmetry adapted cartesian basis functions of A   symmetry.
 There are   172 symmetry adapted basis functions of A   symmetry.
   172 basis functions,   284 primitive gaussians,   180 cartesian basis functions
    32 alpha electrons       32 beta electrons
       nuclear repulsion energy       384.9167321774 Hartrees.
 NAtoms=   20 NActive=   20 NUniq=   20 SFac= 1.00D+00 NAtFMM=   60 NAOKFM=F Big=F
 Integral buffers will be    131072 words long.
 Raffenetti 2 integral format.
 Two-electron integral symmetry is turned on.
 Nuclear repulsion after empirical dispersion term =      384.9043907706 Hartrees.
 Force inversion solution in PCM.
 ------------------------------------------------------------------------------
 Polarizable Continuum Model (PCM)
 =================================
 Model                : PCM.
 Atomic radii         : UFF (Universal Force Field).
 Polarization charges : Total charges.
 Charge compensation  : None.
 Solution method      : Matrix inversion.
 Cavity type          : Scaled VdW (van der Waals Surface) (Alpha=1.100).
 Cavity algorithm     : GePol (No added spheres)
                        Default sphere list used, NSphG=   20.
                        Lebedev-Laikov grids with approx.  5.0 points / Ang**2.
                        Smoothing algorithm: York/Karplus (Gamma=1.0000).
                        Polarization charges: spherical gaussians, with
                                              point-specific exponents (IZeta= 3).
                        Self-potential: point-specific (ISelfS= 7).
                        Self-field    : sphere-specific E.n sum rule (ISelfD= 2).
 1st derivatives      : Analytical E(r).r(x)/FMM algorithm (CHGder, D1EAlg=3).
                        Cavity 1st derivative terms included.
 2nd derivatives      : Analytical E(r).r(xy)/FMM algorithm (CHGder, D2EAlg=3).
                        Cavity 2nd derivative terms included.
 Solvent              : Toluene, Eps=   2.374100 Eps(inf)=   2.238315
 ------------------------------------------------------------------------------
 Spheres list:
 ISph  on   Nord     Re0    Alpha      Xe            Ye            Ze
    1   C      1    1.9255  1.100      0.923581      0.458118     -0.940451
    2   C      2    1.9255  1.100     -2.396170      0.199544      0.265179
    3   C      3    1.9255  1.100      0.976156     -1.893872     -0.527561
    4   C      4    1.9255  1.100     -2.288502     -0.684696     -0.714181
    5   N      5    1.8300  1.100      1.240479     -0.486612     -0.134161
    6   H      6    1.4430  1.100     -3.150532     -0.836804     -1.365671
    7   H      7    1.4430  1.100      0.312785     -2.258291      0.287429
    8   H      8    1.4430  1.100     -3.278279      0.804376      0.492389
    9   H      9    1.4430  1.100      1.938895     -2.413144     -0.334401
   10   H     10    1.4430  1.100      0.534760      0.090799     -1.894881
   11   H     11    1.4430  1.100     -1.372233     -1.267038     -0.888521
   12   F     12    1.6820  1.100     -1.388439      0.459302      1.118959
   13   C     13    1.9255  1.100      1.016573      1.918498     -0.662191
   14   H     14    1.4430  1.100      0.661894      2.488469     -1.528391
   15   H     15    1.4430  1.100      0.394674      2.177669      0.208269
   16   H     16    1.4430  1.100      2.051594      2.224946     -0.444891
   17   C     17    1.9255  1.100      1.771819     -0.206723      1.198029
   18   H     18    1.4430  1.100      2.626958     -0.872505      1.366939
   19   H     19    1.4430  1.100      2.082591      0.837876      1.328019
   20   H     20    1.4430  1.100      0.988749     -0.449002      1.929239
 ------------------------------------------------------------------------------
 One-electron integrals computed using PRISM.
   1 Symmetry operations used in ECPInt.
 ECPInt:  NShTT=    3570 NPrTT=   12386 LenC2=    3546 LenP2D=    9917.
 LDataN:  DoStor=T MaxTD1= 4 Len=   56
 NBasis=   172 RedAO= T EigKep=  2.98D-03  NBF=   172
 NBsUse=   172 1.00D-06 EigRej= -1.00D+00 NBFU=   172
 ExpMin= 1.22D-01 ExpMax= 2.89D+03 ExpMxC= 4.35D+02 IAcc=3 IRadAn=         5 AccDes= 0.00D+00
 Harris functional with IExCor= 4639 and IRadAn=       5 diagonalized for initial guess.
 HarFok:  IExCor= 4639 AccDes= 0.00D+00 IRadAn=         5 IDoV= 1 UseB2=F ITyADJ=14
 ICtDFT=  3500011 ScaDFX=  1.000000  1.000000  1.000000  1.000000
 FoFCou: FMM=F IPFlag=           0 FMFlag=      100000 FMFlg1=           0
         NFxFlg=           0 DoJE=T BraDBF=F KetDBF=T FulRan=T
         wScrn=  0.000000 ICntrl=       500 IOpCl=  0 I1Cent=   200000004 NGrid=           0
         NMat0=    1 NMatS0=      1 NMatT0=    0 NMatD0=    1 NMtDS0=    0 NMtDT0=    0
 Petite list used in FoFCou.
 Requested convergence on RMS density matrix=1.00D-08 within 128 cycles.
 Requested convergence on MAX density matrix=1.00D-06.
 Requested convergence on             energy=1.00D-06.
 No special actions if energy rises.
 Inv3:  Mode=1 IEnd=     6995187.
 Iteration    1 A*A^-1 deviation from unit magnitude is 3.44D-15 for   1082.
 Iteration    1 A*A^-1 deviation from orthogonality  is 1.44D-15 for   1333    743.
 Iteration    1 A^-1*A deviation from unit magnitude is 3.22D-15 for    598.
 Iteration    1 A^-1*A deviation from orthogonality  is 1.73D-15 for    985    312.
 Error on total polarization charges =  0.00602
 SCF Done:  E(RwB97XD) =  -389.899487301     A.U. after   16 cycles
            NFock= 16  Conv=0.30D-08     -V/T= 2.0102
 DoSCS=F DFT=T ScalE2(SS,OS)=  1.000000  1.000000
 Range of M.O.s used for correlation:     1   172
 NBasis=   172 NAE=    32 NBE=    32 NFC=     0 NFV=     0
 NROrb=    172 NOA=    32 NOB=    32 NVA=   140 NVB=   140
   1 Symmetry operations used in ECPInt.
 ECPInt:  NShTT=    3570 NPrTT=   12386 LenC2=    3546 LenP2D=    9917.
 LDataN:  DoStor=T MaxTD1= 5 Len=  102
 Symmetrizing basis deriv contribution to polar:
 IMax=3 JMax=2 DiffMx= 0.00D+00
 G2DrvN: will do    21 centers at a time, making    1 passes.
 Calling FoFCou, ICntrl=  3107 FMM=F I1Cent=   0 AccDes= 0.00D+00.
 NEqPCM:  Using equilibrium solvation (IEInf=0, Eps=   2.3741, EpsInf=   2.2383)
 G2PCM: DoFxE=T DoFxN=T DoGrad=T DoDP/DQ/DG/TGxP=FFFF NFrqRd=   0 IEInf=0 SqF1=F DoCFld=F IF1Alg=4.
 End of G2Drv F.D. properties file   721 does not exist.
 End of G2Drv F.D. properties file   722 does not exist.
 End of G2Drv F.D. properties file   788 does not exist.
          IDoAtm=11111111111111111111
 NEqPCM:  Using equilibrium solvation (IEInf=0, Eps=   2.3741, EpsInf=   2.2383)
          Differentiating once with respect to electric field.
                with respect to dipole field.
          Differentiating once with respect to nuclear coordinates.
 Keep R1 ints in memory in canonical form, NReq=236059372.
          There are    63 degrees of freedom in the 1st order CPHF.  IDoFFX=6 NUNeed=     3.
     60 vectors produced by pass  0 Test12= 7.11D-15 1.59D-09 XBig12= 3.71D+01 3.06D+00.
 AX will form    60 AO Fock derivatives at one time.
     60 vectors produced by pass  1 Test12= 7.11D-15 1.59D-09 XBig12= 2.74D+00 3.46D-01.
     60 vectors produced by pass  2 Test12= 7.11D-15 1.59D-09 XBig12= 6.82D-02 5.07D-02.
     60 vectors produced by pass  3 Test12= 7.11D-15 1.59D-09 XBig12= 4.76D-04 4.18D-03.
     60 vectors produced by pass  4 Test12= 7.11D-15 1.59D-09 XBig12= 2.62D-06 1.97D-04.
     60 vectors produced by pass  5 Test12= 7.11D-15 1.59D-09 XBig12= 1.23D-08 1.75D-05.
     40 vectors produced by pass  6 Test12= 7.11D-15 1.59D-09 XBig12= 5.03D-11 7.07D-07.
      6 vectors produced by pass  7 Test12= 7.11D-15 1.59D-09 XBig12= 1.87D-13 4.52D-08.
      3 vectors produced by pass  8 Test12= 7.11D-15 1.59D-09 XBig12= 6.58D-16 3.12D-09.
 InvSVY:  IOpt=1 It=  1 EMax= 5.33D-15
 Solved reduced A of dimension   409 with    63 vectors.
 Isotropic polarizability for W=    0.000000       85.68 Bohr**3.
 End of Minotr F.D. properties file   721 does not exist.
 End of Minotr F.D. properties file   722 does not exist.
 End of Minotr F.D. properties file   788 does not exist.

 **********************************************************************

            Population analysis using the SCF Density.

 **********************************************************************

 Orbital symmetries:
       Occupied  (A) (A) (A) (A) (A) (A) (A) (A) (A) (A) (A) (A)
                 (A) (A) (A) (A) (A) (A) (A) (A) (A) (A) (A) (A)
                 (A) (A) (A) (A) (A) (A) (A) (A)
       Virtual   (A) (A) (A) (A) (A) (A) (A) (A) (A) (A) (A) (A)
                 (A) (A) (A) (A) (A) (A) (A) (A) (A) (A) (A) (A)
                 (A) (A) (A) (A) (A) (A) (A) (A) (A) (A) (A) (A)
                 (A) (A) (A) (A) (A) (A) (A) (A) (A) (A) (A) (A)
                 (A) (A) (A) (A) (A) (A) (A) (A) (A) (A) (A) (A)
                 (A) (A) (A) (A) (A) (A) (A) (A) (A) (A) (A) (A)
                 (A) (A) (A) (A) (A) (A) (A) (A) (A) (A) (A) (A)
                 (A) (A) (A) (A) (A) (A) (A) (A) (A) (A) (A) (A)
                 (A) (A) (A) (A) (A) (A) (A) (A) (A) (A) (A) (A)
                 (A) (A) (A) (A) (A) (A) (A) (A) (A) (A) (A) (A)
                 (A) (A) (A) (A) (A) (A) (A) (A) (A) (A) (A) (A)
                 (A) (A) (A) (A) (A) (A) (A) (A)
 The electronic state is 1-A.
 Alpha  occ. eigenvalues --  -24.82784 -14.52797 -10.37909 -10.37701 -10.34000
 Alpha  occ. eigenvalues --  -10.32437 -10.29225 -10.23169  -1.31073  -1.08261
 Alpha  occ. eigenvalues --   -0.87366  -0.85643  -0.82209  -0.74816  -0.69452
 Alpha  occ. eigenvalues --   -0.65607  -0.61754  -0.58437  -0.57669  -0.56361
 Alpha  occ. eigenvalues --   -0.56198  -0.55562  -0.51702  -0.49765  -0.48712
 Alpha  occ. eigenvalues --   -0.48441  -0.46088  -0.45171  -0.44300  -0.37053
 Alpha  occ. eigenvalues --   -0.34608  -0.22340
 Alpha virt. eigenvalues --    0.02601   0.09010   0.13261   0.16437   0.16691
 Alpha virt. eigenvalues --    0.17040   0.19359   0.20794   0.21179   0.21586
 Alpha virt. eigenvalues --    0.22629   0.22913   0.24364   0.25105   0.27205
 Alpha virt. eigenvalues --    0.28947   0.32325   0.36034   0.37481   0.41355
 Alpha virt. eigenvalues --    0.44217   0.48873   0.48879   0.51132   0.53632
 Alpha virt. eigenvalues --    0.54842   0.55844   0.56977   0.58500   0.59899
 Alpha virt. eigenvalues --    0.61946   0.65423   0.66631   0.67968   0.69421
 Alpha virt. eigenvalues --    0.71095   0.71675   0.72159   0.72964   0.74282
 Alpha virt. eigenvalues --    0.74862   0.75001   0.75377   0.76494   0.76719
 Alpha virt. eigenvalues --    0.77663   0.80103   0.82150   0.83470   0.84384
 Alpha virt. eigenvalues --    0.88464   0.88704   0.91748   0.92114   1.00310
 Alpha virt. eigenvalues --    1.08441   1.11055   1.15049   1.19203   1.20733
 Alpha virt. eigenvalues --    1.27929   1.28132   1.30716   1.32783   1.33742
 Alpha virt. eigenvalues --    1.36103   1.39720   1.46053   1.49155   1.55165
 Alpha virt. eigenvalues --    1.59002   1.59653   1.60418   1.61825   1.64841
 Alpha virt. eigenvalues --    1.66960   1.68403   1.71480   1.73675   1.76469
 Alpha virt. eigenvalues --    1.77571   1.79575   1.81603   1.82646   1.84932
 Alpha virt. eigenvalues --    1.85233   1.85502   1.88296   1.91243   1.91683
 Alpha virt. eigenvalues --    1.93090   1.96484   1.97550   1.98390   2.02675
 Alpha virt. eigenvalues --    2.04525   2.05141   2.05590   2.10418   2.13687
 Alpha virt. eigenvalues --    2.17336   2.18298   2.18579   2.21398   2.24062
 Alpha virt. eigenvalues --    2.31819   2.34481   2.35621   2.38057   2.40213
 Alpha virt. eigenvalues --    2.41888   2.49957   2.51756   2.52346   2.55013
 Alpha virt. eigenvalues --    2.58116   2.63202   2.72233   2.73715   2.76716
 Alpha virt. eigenvalues --    2.78920   2.81516   2.84346   2.88197   2.91704
 Alpha virt. eigenvalues --    2.94359   2.98843   3.01740   3.02475   3.05642
 Alpha virt. eigenvalues --    3.08104   3.10348   3.14704   3.17347   3.29378
 Alpha virt. eigenvalues --    3.31487   3.39554   3.44917   3.61268   3.94557
          Condensed to atoms (all electrons):
               1          2          3          4          5          6
     1  C    4.922922  -0.000985  -0.090097   0.007541   0.539405  -0.000025
     2  C   -0.000985   4.545315  -0.000166   0.611145  -0.000845  -0.005788
     3  C   -0.090097  -0.000166   5.349308  -0.031750   0.264221   0.000241
     4  C    0.007541   0.611145  -0.031750   5.002776   0.000285   0.370487
     5  N    0.539405  -0.000845   0.264221   0.000285   6.285782   0.000057
     6  H   -0.000025  -0.005788   0.000241   0.370487   0.000057   0.591390
     7  H   -0.000041  -0.000111   0.363516   0.002732  -0.033877   0.000108
     8  H    0.000274   0.421860  -0.000048  -0.061827  -0.000029  -0.006864
     9  H    0.004246   0.000009   0.358765   0.000788  -0.031862  -0.000008
    10  H    0.383973  -0.000287   0.032385  -0.004004  -0.026535   0.000116
    11  H   -0.010778  -0.013941   0.079179   0.319718  -0.003090  -0.023058
    12  F    0.009890   0.295207  -0.000877  -0.059378  -0.002404   0.002615
    13  C    0.299525   0.001241   0.011000  -0.001278  -0.042365   0.000012
    14  H   -0.008802   0.000138  -0.000244   0.000200   0.004130  -0.000003
    15  H   -0.003181  -0.001529  -0.000361  -0.000679  -0.007914  -0.000027
    16  H   -0.010482  -0.000004  -0.000212   0.000012  -0.004747   0.000000
    17  C   -0.086760  -0.000023  -0.037545  -0.001103   0.307605   0.000004
    18  H    0.005770   0.000001  -0.000639   0.000020  -0.022709  -0.000000
    19  H   -0.009606  -0.000024   0.006345   0.000220  -0.013229  -0.000000
    20  H    0.000441  -0.000039  -0.001099  -0.000059  -0.022182  -0.000007
               7          8          9         10         11         12
     1  C   -0.000041   0.000274   0.004246   0.383973  -0.010778   0.009890
     2  C   -0.000111   0.421860   0.000009  -0.000287  -0.013941   0.295207
     3  C    0.363516  -0.000048   0.358765   0.032385   0.079179  -0.000877
     4  C    0.002732  -0.061827   0.000788  -0.004004   0.319718  -0.059378
     5  N   -0.033877  -0.000029  -0.031862  -0.026535  -0.003090  -0.002404
     6  H    0.000108  -0.006864  -0.000008   0.000116  -0.023058   0.002615
     7  H    0.733629   0.000029  -0.039539  -0.001558  -0.007254   0.001153
     8  H    0.000029   0.616740   0.000001  -0.000031   0.004838  -0.031043
     9  H   -0.039539   0.000001   0.743793  -0.000462  -0.002731   0.000002
    10  H   -0.001558  -0.000031  -0.000462   0.555320   0.008464  -0.000123
    11  H   -0.007254   0.004838  -0.002731   0.008464   0.572095  -0.001799
    12  F    0.001153  -0.031043   0.000002  -0.000123  -0.001799   9.005923
    13  C   -0.000969  -0.000139  -0.000850  -0.034326   0.002359  -0.006933
    14  H    0.000023   0.000004   0.000019  -0.008474  -0.000124  -0.000077
    15  H    0.000182   0.000029  -0.000015   0.002416  -0.000232   0.011943
    16  H   -0.000038   0.000001   0.000082   0.002948  -0.000009   0.000091
    17  C   -0.003372  -0.000008  -0.009283   0.009248   0.002191   0.000119
    18  H   -0.001928   0.000001   0.008809  -0.000351  -0.000087   0.000095
    19  H    0.000966   0.000001   0.000939  -0.000893  -0.000431  -0.000332
    20  H    0.005421   0.000072  -0.001520  -0.000318  -0.000061   0.006929
              13         14         15         16         17         18
     1  C    0.299525  -0.008802  -0.003181  -0.010482  -0.086760   0.005770
     2  C    0.001241   0.000138  -0.001529  -0.000004  -0.000023   0.000001
     3  C    0.011000  -0.000244  -0.000361  -0.000212  -0.037545  -0.000639
     4  C   -0.001278   0.000200  -0.000679   0.000012  -0.001103   0.000020
     5  N   -0.042365   0.004130  -0.007914  -0.004747   0.307605  -0.022709
     6  H    0.000012  -0.000003  -0.000027   0.000000   0.000004  -0.000000
     7  H   -0.000969   0.000023   0.000182  -0.000038  -0.003372  -0.001928
     8  H   -0.000139   0.000004   0.000029   0.000001  -0.000008   0.000001
     9  H   -0.000850   0.000019  -0.000015   0.000082  -0.009283   0.008809
    10  H   -0.034326  -0.008474   0.002416   0.002948   0.009248  -0.000351
    11  H    0.002359  -0.000124  -0.000232  -0.000009   0.002191  -0.000087
    12  F   -0.006933  -0.000077   0.011943   0.000091   0.000119   0.000095
    13  C    4.679550   0.387246   0.373130   0.386583   0.009298  -0.000476
    14  H    0.387246   0.577701  -0.014627  -0.014361   0.000428  -0.000014
    15  H    0.373130  -0.014627   0.564068  -0.013554  -0.000029  -0.000031
    16  H    0.386583  -0.014361  -0.013554   0.559249  -0.002156   0.000350
    17  C    0.009298   0.000428  -0.000029  -0.002156   4.605798   0.395017
    18  H   -0.000476  -0.000014  -0.000031   0.000350   0.395017   0.578346
    19  H    0.004180   0.000353  -0.000153   0.002494   0.360164  -0.018328
    20  H   -0.000498  -0.000013   0.000672  -0.000321   0.397530  -0.014972
              19         20
     1  C   -0.009606   0.000441
     2  C   -0.000024  -0.000039
     3  C    0.006345  -0.001099
     4  C    0.000220  -0.000059
     5  N   -0.013229  -0.022182
     6  H   -0.000000  -0.000007
     7  H    0.000966   0.005421
     8  H    0.000001   0.000072
     9  H    0.000939  -0.001520
    10  H   -0.000893  -0.000318
    11  H   -0.000431  -0.000061
    12  F   -0.000332   0.006929
    13  C    0.004180  -0.000498
    14  H    0.000353  -0.000013
    15  H   -0.000153   0.000672
    16  H    0.002494  -0.000321
    17  C    0.360164   0.397530
    18  H   -0.018328  -0.014972
    19  H    0.635827  -0.018002
    20  H   -0.018002   0.566724
 Mulliken charges:
               1
     1  C    0.046772
     2  C    0.148826
     3  C   -0.301920
     4  C   -0.155847
     5  N   -0.189696
     6  H    0.070750
     7  H   -0.019071
     8  H    0.056142
     9  H   -0.031183
    10  H    0.082491
    11  H    0.074750
    12  F   -0.231002
    13  C   -0.066290
    14  H    0.076497
    15  H    0.089894
    16  H    0.094071
    17  C    0.052876
    18  H    0.071126
    19  H    0.049511
    20  H    0.081303
 Sum of Mulliken charges =  -0.00000
 Mulliken charges with hydrogens summed into heavy atoms:
               1
     1  C    0.129263
     2  C    0.204967
     3  C   -0.352175
     4  C   -0.010346
     5  N   -0.189696
    12  F   -0.231002
    13  C    0.194172
    17  C    0.254816
 APT charges:
               1
     1  C    0.361485
     2  C    0.594185
     3  C   -0.343769
     4  C   -0.310869
     5  N   -0.241810
     6  H    0.064411
     7  H   -0.052305
     8  H    0.047745
     9  H   -0.074707
    10  H    0.097353
    11  H    0.198844
    12  F   -0.593744
    13  C   -0.086447
    14  H    0.040242
    15  H    0.048560
    16  H    0.038520
    17  C    0.139379
    18  H    0.044725
    19  H   -0.018857
    20  H    0.047058
 Sum of APT charges =  -0.00000
 APT charges with hydrogens summed into heavy atoms:
               1
     1  C    0.458838
     2  C    0.641930
     3  C   -0.470782
     4  C   -0.047614
     5  N   -0.241810
    12  F   -0.593744
    13  C    0.040875
    17  C    0.212306
 Electronic spatial extent (au):  <R**2>=           1205.4332
 Charge=             -0.0000 electrons
 Dipole moment (field-independent basis, Debye):
    X=              0.2848    Y=              5.8877    Z=              1.6044  Tot=              6.1090
 Quadrupole moment (field-independent basis, Debye-Ang):
   XX=            -41.7797   YY=            -56.7113   ZZ=            -50.8889
   XY=              3.7450   XZ=              4.0273   YZ=             -6.6436
 Traceless Quadrupole moment (field-independent basis, Debye-Ang):
   XX=              8.0136   YY=             -6.9180   ZZ=             -1.0955
   XY=              3.7450   XZ=              4.0273   YZ=             -6.6436
 Octapole moment (field-independent basis, Debye-Ang**2):
  XXX=            -19.9421  YYY=             39.3100  ZZZ=             13.7447  XYY=             -5.4880
  XXY=             12.6813  XXZ=              6.8409  XZZ=             -2.2184  YZZ=             12.3917
  YYZ=             13.5885  XYZ=             -8.5636
 Hexadecapole moment (field-independent basis, Debye-Ang**3):
 XXXX=           -772.6590 YYYY=           -506.4944 ZZZZ=           -266.8205 XXXY=            -10.9906
 XXXZ=              9.2119 YYYX=             18.6869 YYYZ=            -32.1473 ZZZX=             -0.2480
 ZZZY=            -18.8276 XXYY=           -220.8326 XXZZ=           -182.8651 YYZZ=           -136.9945
 XXYZ=              2.0729 YYXZ=              5.6161 ZZXY=              9.5874
 N-N= 3.849043907706D+02 E-N=-1.678231111933D+03  KE= 3.859528114587D+02
  Exact polarizability:      78.839      -4.307      97.538       7.483       1.734      80.659
 Approx polarizability:      71.412      -3.652      90.284       5.972       3.196      81.741
   1 Symmetry operations used in ECPInt.
 ECPInt:  NShTT=    3570 NPrTT=   12386 LenC2=    3546 LenP2D=    9917.
 LDataN:  DoStor=T MaxTD1= 6 Len=  172
 D2PCM: PCM CHGder 2nd derivatives, FixD1E=F FixD2E=F DoIter=F DoCFld=F I1PDM=0
 Calling FoFJK, ICntrl=    100127 FMM=F ISym2X=0 I1Cent= 0 IOpClX= 0 NMat=1 NMatS=1 NMatT=0.
 Full mass-weighted force constant matrix:
 Low frequencies --- -360.4163   -0.0002    0.0002    0.0005   11.5023   14.3422
 Low frequencies ---   26.9010   48.0912   73.8616
 ******    1 imaginary frequencies (negative Signs) ****** 
 Diagonal vibrational polarizability:
      141.4930840      43.1403758      53.9509092
 Harmonic frequencies (cm**-1), IR intensities (KM/Mole), Raman scattering
 activities (A**4/AMU), depolarization ratios for plane and unpolarized
 incident light, reduced masses (AMU), force constants (mDyne/A),
 and normal coordinates:
                      1                      2                      3
                      A                      A                      A
 Frequencies --   -360.4154                47.3731                73.6325
 Red. masses --      1.0886                 3.8053                 3.3767
 Frc consts  --      0.0833                 0.0050                 0.0108
 IR Inten    --     61.4671                 5.8238                21.5434
  Atom  AN      X      Y      Z        X      Y      Z        X      Y      Z
     1   6     0.00  -0.00  -0.00     0.06   0.06   0.04     0.03  -0.04  -0.03
     2   6    -0.00  -0.00   0.00    -0.13  -0.13   0.05     0.02   0.05   0.03
     3   6     0.04   0.01  -0.00    -0.05   0.04  -0.05     0.20  -0.05  -0.15
     4   6    -0.02   0.01  -0.01    -0.13  -0.19   0.10     0.07  -0.02   0.10
     5   7     0.03  -0.01  -0.01     0.03   0.02  -0.01     0.01  -0.05  -0.03
     6   1    -0.03   0.02   0.01    -0.22  -0.44   0.28     0.06  -0.13   0.13
     7   1    -0.54   0.19  -0.40    -0.06   0.05  -0.06     0.09  -0.15  -0.28
     8   1    -0.00  -0.00   0.01    -0.22  -0.30   0.16    -0.02   0.00  -0.01
     9   1    -0.17  -0.13   0.65    -0.07  -0.01  -0.09     0.21   0.02   0.00
    10   1     0.08  -0.00  -0.03     0.00   0.12   0.04     0.19  -0.04  -0.10
    11   1    -0.04   0.02  -0.05    -0.03  -0.01  -0.01     0.09   0.02   0.10
    12   9     0.00  -0.01  -0.00    -0.03   0.17  -0.16     0.01   0.19  -0.00
    13   6    -0.04  -0.00   0.02     0.16   0.05   0.09    -0.13  -0.04   0.04
    14   1    -0.07  -0.00   0.03     0.25   0.10   0.09    -0.08  -0.04   0.01
    15   1    -0.00   0.01   0.04     0.14   0.06   0.07    -0.25  -0.12  -0.03
    16   1    -0.03  -0.00  -0.03     0.17  -0.04   0.15    -0.18   0.04   0.16
    17   6     0.04   0.00  -0.01     0.08  -0.06  -0.01    -0.18  -0.08   0.04
    18   1     0.03  -0.02  -0.01    -0.02  -0.18  -0.01    -0.03   0.10   0.05
    19   1     0.07  -0.01  -0.03     0.22  -0.10  -0.01    -0.43  -0.02   0.19
    20   1     0.04   0.03  -0.01     0.04   0.05  -0.01    -0.18  -0.35  -0.06
                      4                      5                      6
                      A                      A                      A
 Frequencies --     80.6120               117.2595               128.0249
 Red. masses --      2.4795                 5.0211                 1.2144
 Frc consts  --      0.0095                 0.0407                 0.0117
 IR Inten    --      1.1018                 0.3506                 0.2844
  Atom  AN      X      Y      Z        X      Y      Z        X      Y      Z
     1   6    -0.11  -0.03   0.07    -0.13   0.04   0.07    -0.03  -0.00   0.03
     2   6     0.01   0.08  -0.10     0.19  -0.01  -0.05    -0.01   0.03  -0.02
     3   6     0.03  -0.04   0.01    -0.15   0.03   0.05     0.01  -0.00   0.03
     4   6     0.03  -0.02  -0.01     0.00  -0.09   0.01    -0.06   0.01  -0.01
     5   7     0.04  -0.04   0.01    -0.13   0.02   0.05     0.02  -0.00   0.02
     6   1     0.08  -0.02  -0.07    -0.09  -0.09   0.13    -0.06   0.04  -0.01
     7   1     0.17  -0.08   0.11    -0.16   0.04   0.04     0.02   0.00   0.04
     8   1     0.03   0.17  -0.24     0.26   0.06   0.02     0.02   0.08  -0.02
     9   1     0.08  -0.01  -0.15    -0.16   0.02   0.05     0.01  -0.00   0.00
    10   1    -0.21  -0.02   0.11    -0.15   0.06   0.07    -0.10  -0.02   0.06
    11   1     0.01  -0.10   0.12    -0.04  -0.15  -0.07    -0.08  -0.03   0.01
    12   9    -0.05   0.09  -0.03     0.31  -0.01  -0.19     0.01  -0.01  -0.03
    13   6    -0.14  -0.04   0.11    -0.08   0.04   0.07    -0.03   0.00   0.00
    14   1    -0.40  -0.02   0.23    -0.29   0.04   0.16     0.36  -0.01  -0.17
    15   1     0.07  -0.11   0.28     0.14   0.04   0.23    -0.41   0.05  -0.28
    16   1    -0.10   0.02  -0.14    -0.02   0.03  -0.20    -0.12  -0.03   0.46
    17   6     0.19  -0.03  -0.05    -0.10  -0.01   0.04     0.09  -0.02  -0.01
    18   1     0.08  -0.16  -0.07     0.08   0.17  -0.11     0.28   0.18  -0.17
    19   1     0.37  -0.07  -0.16    -0.33   0.05   0.15    -0.17   0.05   0.08
    20   1     0.20   0.16   0.03     0.03  -0.29   0.08     0.22  -0.30   0.04
                      7                      8                      9
                      A                      A                      A
 Frequencies --    144.4554               157.2213               184.1630
 Red. masses --      1.4786                 2.0573                 2.1416
 Frc consts  --      0.0182                 0.0300                 0.0428
 IR Inten    --      1.8847                12.5914                 3.4370
  Atom  AN      X      Y      Z        X      Y      Z        X      Y      Z
     1   6    -0.03   0.01  -0.01    -0.03   0.03  -0.00    -0.02  -0.04   0.02
     2   6     0.07  -0.03  -0.01     0.03  -0.03  -0.04    -0.05  -0.12   0.10
     3   6    -0.09   0.01  -0.01    -0.10   0.02  -0.00    -0.03  -0.02   0.05
     4   6     0.13  -0.04   0.01     0.17  -0.07   0.01     0.09   0.15  -0.13
     5   7    -0.03   0.00  -0.02    -0.06   0.01  -0.01     0.00  -0.02   0.02
     6   1     0.15  -0.07  -0.01     0.24  -0.11  -0.07     0.02  -0.01   0.01
     7   1    -0.12   0.06  -0.00    -0.18   0.06  -0.05     0.02  -0.02   0.10
     8   1     0.04  -0.05  -0.06    -0.03  -0.06  -0.18    -0.23  -0.50   0.41
     9   1    -0.13  -0.04   0.01    -0.15  -0.03   0.08    -0.02  -0.03  -0.04
    10   1    -0.05   0.03  -0.01    -0.06   0.04   0.00    -0.03  -0.05   0.02
    11   1     0.15  -0.03   0.04     0.20  -0.06   0.10     0.22   0.41  -0.37
    12   9     0.02   0.03   0.03    -0.09   0.05   0.08     0.02   0.07  -0.04
    13   6    -0.04   0.01   0.02     0.08   0.03  -0.02    -0.07  -0.03  -0.01
    14   1     0.29   0.03  -0.10    -0.00   0.03   0.01    -0.12  -0.06  -0.01
    15   1    -0.35   0.00  -0.20     0.20   0.08   0.05    -0.06  -0.05   0.00
    16   1    -0.12  -0.02   0.42     0.12  -0.03  -0.17    -0.08   0.02  -0.04
    17   6    -0.02  -0.01  -0.02     0.03  -0.04  -0.04     0.05  -0.00  -0.00
    18   1    -0.26  -0.26   0.12     0.29   0.23  -0.27     0.10   0.05  -0.05
    19   1     0.31  -0.09  -0.14    -0.32   0.04   0.12    -0.01   0.01  -0.01
    20   1    -0.15   0.35  -0.04     0.21  -0.45   0.02     0.10  -0.06   0.04
                     10                     11                     12
                      A                      A                      A
 Frequencies --    304.8204               331.3673               452.4291
 Red. masses --      2.5395                 2.6714                 2.6344
 Frc consts  --      0.1390                 0.1728                 0.3177
 IR Inten    --     23.6469                 4.9851                11.4343
  Atom  AN      X      Y      Z        X      Y      Z        X      Y      Z
     1   6     0.24   0.00  -0.10    -0.03  -0.03  -0.09    -0.05   0.08  -0.06
     2   6    -0.01   0.02  -0.01    -0.00  -0.00   0.01    -0.01   0.00   0.01
     3   6    -0.18   0.02   0.06     0.03  -0.08   0.09     0.09  -0.03   0.23
     4   6    -0.02  -0.02   0.02     0.00   0.01  -0.01     0.00   0.01  -0.00
     5   7     0.11   0.00  -0.04    -0.04  -0.03  -0.10     0.03   0.05  -0.11
     6   1    -0.01  -0.02   0.01    -0.00   0.00   0.00     0.02  -0.01  -0.01
     7   1    -0.03   0.19   0.26     0.05   0.00   0.14     0.18   0.17   0.39
     8   1     0.01   0.06  -0.04    -0.01  -0.02   0.02    -0.02  -0.01   0.03
     9   1    -0.22  -0.14  -0.15     0.05  -0.01   0.16     0.14   0.10   0.37
    10   1     0.36  -0.00  -0.14    -0.05   0.10  -0.13    -0.14   0.13  -0.05
    11   1    -0.01  -0.03   0.06    -0.00   0.01  -0.01     0.01   0.01   0.03
    12   9    -0.01  -0.01  -0.00     0.00   0.00  -0.00     0.00  -0.00  -0.01
    13   6    -0.12   0.00   0.05     0.08  -0.09   0.21    -0.01   0.09  -0.01
    14   1    -0.34  -0.01   0.13     0.18   0.17   0.34    -0.00   0.15   0.02
    15   1    -0.18  -0.33   0.10     0.06  -0.25   0.24     0.03   0.08   0.02
    16   1    -0.22   0.33   0.06     0.10  -0.23   0.33     0.01   0.03  -0.02
    17   6     0.01  -0.01  -0.00    -0.06   0.18  -0.14    -0.05  -0.19  -0.07
    18   1     0.08   0.07  -0.01     0.06   0.34  -0.09    -0.16  -0.34  -0.11
    19   1    -0.11   0.02   0.07    -0.22   0.23  -0.21     0.05  -0.25   0.19
    20   1     0.01  -0.15  -0.05    -0.01   0.12  -0.11    -0.16  -0.27  -0.21
                     13                     14                     15
                      A                      A                      A
 Frequencies --    486.5551               525.0878               569.8171
 Red. masses --      2.4200                 2.5064                 3.2129
 Frc consts  --      0.3375                 0.4072                 0.6146
 IR Inten    --      1.7724                 3.1415                13.0724
  Atom  AN      X      Y      Z        X      Y      Z        X      Y      Z
     1   6    -0.12  -0.02   0.07    -0.00   0.00   0.00    -0.07  -0.08  -0.16
     2   6    -0.02   0.01   0.00     0.17  -0.11  -0.04     0.01  -0.00  -0.00
     3   6    -0.06   0.02  -0.03    -0.00  -0.01   0.01     0.02   0.29   0.02
     4   6     0.02   0.01   0.01    -0.12  -0.07  -0.14    -0.01  -0.00  -0.01
     5   7     0.27  -0.02  -0.09     0.03  -0.00  -0.01     0.00   0.13   0.03
     6   1     0.05  -0.02  -0.02    -0.42   0.33   0.15    -0.02   0.01   0.01
     7   1    -0.07   0.23   0.06     0.03   0.02   0.05     0.00   0.18  -0.05
     8   1    -0.01   0.01   0.01     0.13  -0.14  -0.13     0.01  -0.01  -0.00
     9   1    -0.19  -0.24  -0.13     0.01  -0.02  -0.03     0.00   0.22  -0.09
    10   1    -0.45  -0.03   0.21    -0.04   0.01   0.02    -0.02  -0.25  -0.11
    11   1     0.03   0.02   0.06    -0.35  -0.30  -0.55    -0.01  -0.01  -0.02
    12   9    -0.00  -0.01  -0.01    -0.01   0.12   0.13     0.00   0.01   0.00
    13   6     0.01  -0.02  -0.01    -0.00   0.01  -0.00    -0.00  -0.23   0.00
    14   1     0.05  -0.04  -0.03    -0.01   0.00  -0.00     0.08   0.07   0.17
    15   1     0.08   0.13   0.00     0.00   0.01  -0.00     0.06  -0.41   0.10
    16   1     0.06  -0.16  -0.07    -0.00   0.02  -0.00     0.05  -0.47   0.10
    17   6    -0.05   0.04   0.04    -0.00  -0.00   0.00     0.03  -0.04   0.08
    18   1    -0.02   0.15   0.36    -0.00   0.01   0.04    -0.04  -0.18  -0.08
    19   1    -0.26   0.09   0.15    -0.02   0.00   0.02     0.13  -0.10   0.31
    20   1    -0.29  -0.06  -0.25    -0.03  -0.01  -0.03     0.01  -0.15   0.02
                     16                     17                     18
                      A                      A                      A
 Frequencies --    751.5831               804.8722               858.5781
 Red. masses --      1.4199                 3.2221                 1.1230
 Frc consts  --      0.4726                 1.2298                 0.4878
 IR Inten    --      8.5607                 3.9348                38.6971
  Atom  AN      X      Y      Z        X      Y      Z        X      Y      Z
     1   6     0.00   0.00  -0.00     0.07  -0.03   0.17    -0.04  -0.00   0.02
     2   6    -0.06  -0.13   0.11    -0.00  -0.00  -0.00     0.00  -0.00   0.00
     3   6    -0.00  -0.00  -0.01     0.05   0.26   0.08    -0.01   0.00   0.01
     4   6    -0.00  -0.00  -0.00    -0.00  -0.01   0.00    -0.00  -0.01   0.01
     5   7    -0.00   0.00   0.00    -0.01  -0.10   0.02     0.03  -0.01  -0.01
     6   1     0.29   0.62  -0.53     0.01   0.02  -0.02     0.01   0.03  -0.02
     7   1     0.00   0.00  -0.00    -0.00   0.12  -0.04     0.04   0.08   0.09
     8   1     0.12   0.25  -0.21     0.01   0.01  -0.01     0.01   0.01  -0.01
     9   1    -0.00   0.00   0.01     0.02   0.17  -0.08    -0.03  -0.09  -0.11
    10   1    -0.01  -0.01   0.00     0.04   0.04   0.17     0.64  -0.01  -0.26
    11   1    -0.11  -0.23   0.20     0.01   0.01  -0.01     0.01   0.02  -0.02
    12   9     0.02   0.05  -0.04     0.00   0.00   0.00    -0.00   0.00  -0.00
    13   6     0.00   0.00   0.00     0.02  -0.08   0.04    -0.08   0.01   0.03
    14   1    -0.01   0.00   0.01    -0.08  -0.52  -0.20     0.24   0.01  -0.09
    15   1    -0.00  -0.01   0.00    -0.08   0.17  -0.11     0.13   0.43   0.04
    16   1    -0.00   0.01   0.00    -0.03   0.22  -0.12     0.09  -0.41  -0.12
    17   6     0.00   0.00   0.00    -0.09  -0.06  -0.23    -0.01   0.00  -0.01
    18   1     0.00   0.00   0.00    -0.04   0.04  -0.12     0.01  -0.00  -0.08
    19   1     0.00   0.00   0.00    -0.18  -0.01  -0.44     0.02  -0.00  -0.03
    20   1     0.00   0.00   0.01    -0.08   0.04  -0.18     0.05   0.01   0.06
                     19                     20                     21
                      A                      A                      A
 Frequencies --    948.2087               958.5320               971.4594
 Red. masses --      1.9459                 1.4078                 1.7621
 Frc consts  --      1.0308                 0.7621                 0.9798
 IR Inten    --     45.6202                 7.8034                25.7557
  Atom  AN      X      Y      Z        X      Y      Z        X      Y      Z
     1   6    -0.00  -0.01  -0.01     0.01   0.00   0.01     0.02   0.06   0.07
     2   6     0.07   0.03   0.04    -0.03  -0.09   0.08     0.02   0.02  -0.01
     3   6     0.00   0.01   0.02    -0.01  -0.00  -0.02    -0.05  -0.08  -0.13
     4   6     0.12   0.01   0.14     0.06   0.10  -0.06     0.00  -0.01   0.02
     5   7    -0.00  -0.01  -0.00     0.00   0.01   0.00     0.01   0.11   0.01
     6   1    -0.21   0.67   0.43    -0.27  -0.38   0.49     0.01   0.13  -0.02
     7   1    -0.04  -0.04  -0.05     0.05   0.05   0.06     0.32   0.26   0.38
     8   1    -0.08  -0.14  -0.08     0.21   0.44  -0.41    -0.07  -0.15   0.11
     9   1     0.01  -0.01  -0.08    -0.00   0.03   0.07     0.02   0.22   0.52
    10   1    -0.02  -0.00  -0.00     0.02   0.00   0.00     0.03   0.14   0.04
    11   1    -0.09  -0.13  -0.42    -0.12  -0.23   0.12    -0.04  -0.07   0.02
    12   9    -0.10  -0.05  -0.11    -0.02  -0.00  -0.02    -0.01  -0.00  -0.01
    13   6     0.00   0.01   0.00    -0.00  -0.01   0.01     0.01  -0.13   0.02
    14   1    -0.00   0.02   0.01     0.00  -0.04  -0.02    -0.03  -0.38  -0.12
    15   1     0.00   0.01   0.00    -0.00   0.02  -0.01    -0.05   0.00  -0.07
    16   1    -0.00   0.02   0.01     0.00  -0.01  -0.02    -0.00  -0.03  -0.10
    17   6     0.00   0.00   0.00    -0.00   0.00  -0.00    -0.01   0.02  -0.02
    18   1    -0.00  -0.00   0.01    -0.00   0.00  -0.01    -0.03  -0.03  -0.11
    19   1    -0.00   0.00   0.01     0.01  -0.00  -0.00     0.06  -0.02   0.08
    20   1    -0.00  -0.01  -0.00     0.01   0.00   0.01     0.02  -0.03  -0.00
                     22                     23                     24
                      A                      A                      A
 Frequencies --   1016.2995              1031.9577              1037.9219
 Red. masses --      1.1580                 1.9791                 1.3537
 Frc consts  --      0.7047                 1.2418                 0.8592
 IR Inten    --     56.9635                 1.1928                28.4955
  Atom  AN      X      Y      Z        X      Y      Z        X      Y      Z
     1   6    -0.00   0.03   0.01    -0.03   0.00  -0.08    -0.02  -0.03  -0.02
     2   6    -0.02  -0.02   0.01     0.01   0.00  -0.00    -0.01  -0.01   0.00
     3   6     0.00  -0.04   0.02     0.02   0.05   0.03    -0.01   0.06  -0.06
     4   6    -0.02  -0.05   0.04     0.00   0.02  -0.01    -0.01  -0.03   0.02
     5   7    -0.00   0.03  -0.01    -0.06  -0.09  -0.14    -0.01  -0.08  -0.03
     6   1     0.03  -0.02  -0.05    -0.00  -0.02  -0.00     0.01   0.02  -0.02
     7   1    -0.08  -0.08  -0.08    -0.02   0.03  -0.02     0.26   0.24   0.28
     8   1     0.16   0.36  -0.29    -0.04  -0.10   0.09     0.07   0.16  -0.13
     9   1     0.02  -0.04  -0.11     0.01   0.02  -0.06     0.01   0.22   0.35
    10   1    -0.01   0.15  -0.03    -0.07   0.44  -0.23    -0.02  -0.01  -0.03
    11   1     0.26   0.54  -0.46    -0.08  -0.16   0.16     0.14   0.28  -0.25
    12   9     0.01  -0.00   0.01    -0.00   0.00  -0.00     0.00  -0.00   0.00
    13   6     0.01  -0.05   0.01     0.03  -0.03   0.09    -0.00   0.04  -0.02
    14   1    -0.04  -0.20  -0.07    -0.05  -0.49  -0.19     0.01   0.19   0.07
    15   1    -0.04   0.00  -0.04    -0.13   0.31  -0.13     0.03  -0.03   0.03
    16   1    -0.01   0.05  -0.04    -0.01   0.28  -0.18    -0.00  -0.00   0.05
    17   6     0.01   0.03  -0.00     0.06   0.03   0.16     0.01  -0.07   0.07
    18   1    -0.07  -0.08  -0.07     0.05   0.00   0.11     0.19   0.19   0.23
    19   1     0.06  -0.00   0.18     0.07   0.03   0.18    -0.13   0.02  -0.34
    20   1    -0.03  -0.08  -0.08     0.03   0.01   0.11     0.06   0.19   0.21
                     25                     26                     27
                      A                      A                      A
 Frequencies --   1094.1337              1124.7252              1131.9656
 Red. masses --      1.5200                 1.2786                 1.8873
 Frc consts  --      1.0721                 0.9530                 1.4248
 IR Inten    --      1.3559                 1.4221                27.9578
  Atom  AN      X      Y      Z        X      Y      Z        X      Y      Z
     1   6     0.15   0.00  -0.06    -0.07  -0.00   0.03     0.04   0.17   0.10
     2   6     0.01  -0.00   0.00    -0.01   0.00  -0.00    -0.02   0.00  -0.01
     3   6    -0.03   0.00   0.00    -0.04   0.00  -0.00     0.02  -0.01   0.05
     4   6    -0.00  -0.00   0.00     0.00   0.00  -0.00     0.01   0.00  -0.01
     5   7    -0.04   0.00   0.02    -0.03  -0.00   0.01    -0.02  -0.02  -0.06
     6   1     0.01  -0.02  -0.02    -0.01   0.01   0.01    -0.02   0.02   0.03
     7   1     0.01  -0.23  -0.07     0.03  -0.18  -0.03    -0.12  -0.06  -0.11
     8   1     0.01   0.01  -0.00    -0.01  -0.01   0.01    -0.03  -0.02   0.01
     9   1     0.09   0.25   0.10     0.07   0.23   0.10     0.02  -0.06  -0.16
    10   1    -0.46  -0.01   0.19     0.42  -0.01  -0.16     0.01   0.58  -0.03
    11   1     0.01   0.04  -0.01    -0.02  -0.04   0.01    -0.04  -0.09   0.03
    12   9    -0.00   0.00  -0.00     0.00  -0.00   0.00     0.01   0.00   0.00
    13   6    -0.11  -0.00   0.04     0.04   0.00  -0.02    -0.05  -0.10  -0.12
    14   1     0.24   0.01  -0.09    -0.09   0.02   0.04    -0.00   0.11   0.02
    15   1     0.12   0.36   0.09    -0.04  -0.13  -0.03     0.09  -0.41   0.07
    16   1     0.05  -0.38  -0.17    -0.02   0.12   0.07     0.00  -0.42   0.09
    17   6     0.06  -0.01  -0.02     0.11  -0.01  -0.04     0.01  -0.04   0.03
    18   1     0.01   0.00   0.26     0.01  -0.01   0.48     0.13   0.14   0.16
    19   1    -0.13   0.04   0.08    -0.23   0.07   0.18    -0.08   0.01  -0.17
    20   1    -0.15   0.00  -0.24    -0.29  -0.02  -0.47     0.02   0.14   0.11
                     28                     29                     30
                      A                      A                      A
 Frequencies --   1178.5512              1204.2909              1241.1680
 Red. masses --      3.0176                 1.8914                 1.3244
 Frc consts  --      2.4695                 1.6162                 1.2020
 IR Inten    --    117.3660                 2.9689                18.2935
  Atom  AN      X      Y      Z        X      Y      Z        X      Y      Z
     1   6    -0.01   0.01   0.02    -0.04   0.05  -0.10     0.03   0.00  -0.01
     2   6     0.31  -0.06   0.09     0.01  -0.00   0.00     0.00  -0.00  -0.00
     3   6    -0.00   0.00   0.00     0.01  -0.06   0.04     0.09  -0.01  -0.03
     4   6    -0.12   0.06   0.01    -0.00   0.00  -0.00    -0.00  -0.00   0.00
     5   7     0.00  -0.01  -0.01     0.03   0.16   0.04    -0.11   0.00   0.04
     6   1     0.17  -0.28  -0.26     0.01  -0.02  -0.01    -0.01   0.01   0.01
     7   1    -0.00  -0.02  -0.01    -0.16  -0.10  -0.14     0.05   0.60   0.22
     8   1     0.46   0.06   0.30     0.02   0.01   0.02     0.01   0.01   0.01
     9   1    -0.00   0.01  -0.00     0.02  -0.10  -0.19    -0.21  -0.59  -0.19
    10   1     0.04   0.07  -0.01     0.01  -0.17  -0.04    -0.08   0.01   0.03
    11   1     0.14   0.37   0.42     0.00   0.01   0.02     0.02   0.02   0.00
    12   9    -0.16  -0.00  -0.09    -0.01  -0.00  -0.00    -0.00  -0.00  -0.00
    13   6     0.00  -0.01  -0.02     0.03  -0.04   0.07    -0.01  -0.00   0.00
    14   1    -0.03   0.04   0.02    -0.02  -0.28  -0.06     0.01   0.00  -0.00
    15   1     0.02  -0.06   0.01    -0.13   0.11  -0.09     0.00   0.01   0.00
    16   1    -0.02  -0.01   0.06     0.03   0.13  -0.14     0.01  -0.03  -0.01
    17   6     0.00   0.01  -0.00    -0.00  -0.14  -0.00     0.06  -0.00  -0.02
    18   1    -0.01  -0.01   0.02     0.24   0.24   0.30    -0.03  -0.05   0.18
    19   1     0.01   0.00   0.02    -0.26  -0.01  -0.50    -0.16   0.04   0.09
    20   1     0.00  -0.02  -0.01    -0.00   0.30   0.15    -0.10   0.04  -0.18
                     31                     32                     33
                      A                      A                      A
 Frequencies --   1339.6882              1346.9536              1394.3032
 Red. masses --      1.1485                 1.3262                 1.2545
 Frc consts  --      1.2145                 1.4176                 1.4370
 IR Inten    --      1.6693                 4.8850                15.0088
  Atom  AN      X      Y      Z        X      Y      Z        X      Y      Z
     1   6     0.00   0.00   0.00    -0.01  -0.08  -0.04     0.01   0.04   0.03
     2   6    -0.05   0.04   0.02    -0.01   0.00  -0.00     0.01   0.02   0.03
     3   6     0.00  -0.00   0.00    -0.00   0.01  -0.01     0.00  -0.03   0.01
     4   6     0.06  -0.06  -0.04     0.00  -0.01  -0.00    -0.00   0.01   0.01
     5   7    -0.00  -0.00  -0.01     0.04   0.03   0.10    -0.03   0.01  -0.06
     6   1     0.06  -0.08  -0.05    -0.01   0.01   0.01     0.11  -0.14  -0.11
     7   1    -0.01   0.02   0.00     0.05  -0.09   0.00    -0.15   0.21  -0.02
     8   1     0.38   0.41   0.70     0.02   0.03   0.05    -0.07  -0.04  -0.08
     9   1     0.01   0.02  -0.01    -0.05  -0.08   0.04     0.12   0.17  -0.13
    10   1     0.01  -0.04   0.02    -0.11   0.69  -0.27     0.06  -0.32   0.15
    11   1    -0.10  -0.25  -0.31    -0.00  -0.02  -0.01    -0.10  -0.10  -0.15
    12   9    -0.03   0.01  -0.01    -0.00   0.00   0.00     0.00  -0.00  -0.00
    13   6     0.00   0.01   0.00    -0.01  -0.06  -0.03    -0.01  -0.10  -0.04
    14   1     0.00  -0.01  -0.01     0.05   0.26   0.15     0.01   0.15   0.12
    15   1    -0.01  -0.02   0.00     0.19   0.31   0.01     0.36   0.40   0.08
    16   1     0.01  -0.02  -0.01    -0.14   0.30   0.14    -0.21   0.34   0.33
    17   6     0.00   0.00   0.00    -0.01  -0.01  -0.02     0.00  -0.00   0.01
    18   1     0.00   0.00  -0.01    -0.03  -0.05  -0.06     0.04   0.05   0.06
    19   1     0.01  -0.00   0.01    -0.06   0.01  -0.13     0.03  -0.01   0.09
    20   1    -0.00   0.00  -0.00    -0.04  -0.03  -0.06     0.03   0.05   0.05
                     34                     35                     36
                      A                      A                      A
 Frequencies --   1412.8435              1428.4945              1438.9194
 Red. masses --      1.1860                 1.1754                 1.0930
 Frc consts  --      1.3949                 1.4132                 1.3334
 IR Inten    --      4.6674                 2.7277                19.5807
  Atom  AN      X      Y      Z        X      Y      Z        X      Y      Z
     1   6     0.00   0.03   0.01    -0.01  -0.01  -0.02     0.00  -0.04   0.02
     2   6    -0.03  -0.05  -0.08    -0.01  -0.01  -0.02    -0.01  -0.01  -0.02
     3   6     0.00   0.01   0.00    -0.00  -0.00   0.00    -0.00  -0.06   0.00
     4   6     0.01  -0.03  -0.03     0.00  -0.01  -0.01     0.00  -0.00  -0.01
     5   7    -0.01   0.00  -0.03     0.01  -0.01   0.02     0.01   0.00   0.01
     6   1    -0.31   0.41   0.30    -0.07   0.10   0.07    -0.07   0.10   0.07
     7   1     0.05  -0.11  -0.01    -0.06   0.08  -0.01    -0.33   0.50  -0.04
     8   1     0.18   0.13   0.24     0.04   0.03   0.06     0.04   0.02   0.05
     9   1    -0.06  -0.08   0.06     0.05   0.09  -0.04     0.30   0.46  -0.26
    10   1     0.03  -0.18   0.07    -0.03   0.09  -0.05    -0.02   0.10  -0.02
    11   1     0.29   0.27   0.44     0.07   0.06   0.10     0.07   0.07   0.14
    12   9     0.01   0.01   0.01     0.00   0.00   0.00     0.00   0.00   0.00
    13   6    -0.01  -0.04  -0.01     0.00   0.01  -0.00     0.00   0.01   0.01
    14   1     0.02   0.04   0.03    -0.06  -0.06  -0.03     0.07   0.13   0.06
    15   1     0.14   0.14   0.04     0.03   0.02   0.02    -0.14  -0.07  -0.07
    16   1    -0.08   0.13   0.11    -0.00  -0.02   0.07     0.05  -0.00  -0.19
    17   6     0.00  -0.00   0.02    -0.03   0.00  -0.11     0.01   0.01   0.03
    18   1     0.07   0.05  -0.09    -0.16  -0.00   0.56    -0.09  -0.14  -0.07
    19   1     0.03  -0.01  -0.00     0.00  -0.06   0.36    -0.09   0.06  -0.20
    20   1    -0.09   0.05  -0.06     0.47  -0.03   0.43    -0.03  -0.11  -0.06
                     37                     38                     39
                      A                      A                      A
 Frequencies --   1455.0123              1458.9454              1475.0326
 Red. masses --      1.0495                 1.1448                 1.0423
 Frc consts  --      1.3091                 1.4356                 1.3361
 IR Inten    --     28.7800                 8.0475                 1.1329
  Atom  AN      X      Y      Z        X      Y      Z        X      Y      Z
     1   6     0.01  -0.02  -0.00     0.01   0.06   0.02    -0.02  -0.01   0.01
     2   6    -0.00  -0.00  -0.00     0.00   0.00   0.00     0.00  -0.00   0.00
     3   6    -0.01  -0.00   0.00    -0.00   0.02   0.00    -0.00   0.00   0.00
     4   6     0.00  -0.00  -0.00     0.00  -0.00   0.00    -0.00   0.00   0.00
     5   7     0.01  -0.00  -0.00     0.00  -0.01  -0.03     0.01  -0.00  -0.01
     6   1    -0.01   0.01   0.01     0.01  -0.01  -0.01     0.01  -0.01  -0.01
     7   1    -0.03   0.02  -0.02     0.10  -0.18   0.01    -0.00  -0.01  -0.01
     8   1     0.00   0.00   0.00    -0.00   0.00  -0.00    -0.00  -0.00  -0.01
     9   1     0.04   0.08  -0.01    -0.09  -0.13   0.09     0.01   0.02   0.01
    10   1    -0.03   0.04  -0.01     0.03  -0.12   0.08     0.01   0.01  -0.01
    11   1     0.00   0.00   0.01    -0.01  -0.01  -0.02    -0.01  -0.00  -0.01
    12   9     0.00   0.00   0.00    -0.00  -0.00  -0.00    -0.00  -0.00  -0.00
    13   6     0.03   0.02  -0.01     0.01  -0.08   0.01    -0.04   0.01   0.01
    14   1    -0.45  -0.07   0.12     0.06   0.40   0.30     0.48  -0.04  -0.23
    15   1    -0.07   0.21  -0.13    -0.31   0.14  -0.29     0.19  -0.30   0.25
    16   1     0.05  -0.28   0.25     0.04   0.11  -0.38    -0.07   0.28  -0.16
    17   6     0.02  -0.03  -0.00     0.02   0.02   0.00     0.02  -0.02  -0.01
    18   1    -0.01  -0.14  -0.31    -0.23  -0.29   0.05    -0.05  -0.15  -0.20
    19   1    -0.38   0.07   0.25    -0.28   0.11  -0.06    -0.36   0.07   0.23
    20   1    -0.04   0.46   0.09     0.17  -0.04   0.15     0.02   0.38   0.13
                     40                     41                     42
                      A                      A                      A
 Frequencies --   1479.7495              1748.0241              1806.4567
 Red. masses --      1.0706                 4.8762                 7.7021
 Frc consts  --      1.3813                 8.7786                14.8086
 IR Inten    --     12.0014               100.5903                31.8378
  Atom  AN      X      Y      Z        X      Y      Z        X      Y      Z
     1   6     0.01  -0.02   0.02    -0.00   0.01  -0.00    -0.12   0.46  -0.30
     2   6     0.00  -0.00  -0.00     0.04   0.27   0.34    -0.00  -0.01  -0.01
     3   6     0.00  -0.00  -0.00    -0.00  -0.00  -0.00    -0.01  -0.00  -0.03
     4   6    -0.00   0.00   0.00     0.02  -0.26  -0.29     0.00   0.01   0.01
     5   7    -0.01  -0.01   0.01     0.00  -0.01   0.00     0.12  -0.36   0.32
     6   1     0.00  -0.00  -0.00    -0.37   0.17  -0.00     0.01  -0.01  -0.00
     7   1    -0.03   0.07  -0.00    -0.01   0.01  -0.00    -0.06   0.27   0.10
     8   1     0.00  -0.00  -0.00    -0.42  -0.00  -0.23     0.01   0.00   0.01
     9   1     0.03   0.04  -0.04     0.01   0.01  -0.00     0.15   0.25  -0.02
    10   1     0.00   0.06  -0.01     0.00  -0.01   0.00    -0.06  -0.27  -0.11
    11   1    -0.00   0.00   0.00     0.43   0.03   0.26    -0.02  -0.01  -0.02
    12   9    -0.00  -0.00  -0.00    -0.02  -0.02  -0.03     0.00   0.00   0.00
    13   6     0.00  -0.02   0.01     0.00  -0.00   0.00     0.01  -0.08   0.01
    14   1     0.09   0.26   0.15     0.01  -0.00  -0.00    -0.01  -0.19  -0.04
    15   1    -0.23   0.02  -0.17    -0.01  -0.02  -0.00     0.03   0.05  -0.00
    16   1     0.04   0.07  -0.31     0.00   0.00  -0.01    -0.03   0.06   0.01
    17   6    -0.04  -0.04  -0.04     0.00  -0.00   0.00    -0.02   0.03  -0.04
    18   1     0.32   0.42  -0.06     0.01   0.00  -0.02    -0.01  -0.04  -0.26
    19   1     0.30  -0.17   0.43    -0.00   0.00   0.00     0.04  -0.01   0.15
    20   1    -0.14   0.31  -0.05    -0.02   0.01  -0.01    -0.13   0.01  -0.14
                     43                     44                     45
                      A                      A                      A
 Frequencies --   2970.8548              3016.5057              3064.7106
 Red. masses --      1.0567                 1.0999                 1.0391
 Frc consts  --      5.4951                 5.8967                 5.7504
 IR Inten    --     72.1451               109.5458                 1.4864
  Atom  AN      X      Y      Z        X      Y      Z        X      Y      Z
     1   6     0.00  -0.00   0.00    -0.00  -0.00   0.00     0.00   0.00   0.00
     2   6    -0.00   0.00   0.00    -0.00   0.00   0.00    -0.00   0.00   0.00
     3   6    -0.00   0.05  -0.05    -0.09   0.01   0.03     0.00  -0.00   0.00
     4   6     0.00  -0.00  -0.00     0.00  -0.00  -0.00     0.00  -0.00  -0.00
     5   7    -0.00   0.00  -0.00    -0.00   0.00  -0.00    -0.00   0.00  -0.00
     6   1     0.00   0.00   0.00     0.00   0.00   0.00     0.00   0.00   0.00
     7   1    -0.49  -0.25   0.54     0.37   0.22  -0.46     0.00   0.00  -0.00
     8   1     0.00   0.00   0.00     0.00  -0.00   0.00     0.00  -0.00  -0.00
     9   1     0.56  -0.29   0.07     0.67  -0.37   0.13    -0.00   0.00  -0.00
    10   1     0.00  -0.00  -0.00    -0.00  -0.00   0.00     0.00  -0.00   0.00
    11   1    -0.02   0.01   0.00    -0.02   0.01   0.01    -0.00   0.00   0.00
    12   9     0.00  -0.00   0.00     0.00   0.00   0.00     0.00   0.00  -0.00
    13   6    -0.00   0.00  -0.00     0.00   0.00  -0.00    -0.01  -0.05  -0.02
    14   1     0.00   0.00   0.00    -0.00   0.00   0.00    -0.14   0.22  -0.34
    15   1    -0.00   0.00   0.00     0.00  -0.00  -0.00    -0.35   0.14   0.48
    16   1     0.00   0.00  -0.00     0.00   0.00   0.00     0.63   0.18   0.13
    17   6     0.00  -0.00   0.00     0.00  -0.00  -0.00     0.00   0.00  -0.00
    18   1    -0.01   0.01  -0.00    -0.01   0.01   0.00     0.00   0.00   0.00
    19   1    -0.00  -0.01   0.00     0.00  -0.00  -0.00    -0.00  -0.01  -0.00
    20   1     0.01   0.00  -0.01    -0.00  -0.00   0.00    -0.00  -0.00   0.00
                     46                     47                     48
                      A                      A                      A
 Frequencies --   3075.1415              3103.6601              3155.7017
 Red. masses --      1.0332                 1.0748                 1.1024
 Frc consts  --      5.7566                 6.0999                 6.4680
 IR Inten    --     20.4381               109.7783                 0.4134
  Atom  AN      X      Y      Z        X      Y      Z        X      Y      Z
     1   6     0.00  -0.00   0.00    -0.00  -0.00  -0.00    -0.00   0.00   0.00
     2   6    -0.00   0.00   0.00    -0.00  -0.00  -0.01     0.00  -0.00   0.00
     3   6    -0.00   0.00  -0.00    -0.00   0.00  -0.00    -0.00   0.00   0.00
     4   6     0.00  -0.00  -0.00    -0.04   0.05   0.04     0.00  -0.00  -0.00
     5   7    -0.00   0.00  -0.00    -0.00  -0.00  -0.00     0.00  -0.00  -0.00
     6   1     0.01   0.00   0.00    -0.31  -0.06  -0.24     0.00   0.00   0.00
     7   1    -0.01  -0.01   0.01    -0.01   0.00  -0.00    -0.00  -0.00  -0.00
     8   1    -0.00   0.00   0.00     0.05  -0.04  -0.02    -0.00   0.00   0.00
     9   1     0.01  -0.01   0.00     0.03  -0.01   0.01    -0.00   0.00   0.00
    10   1     0.00   0.00   0.01     0.00  -0.00   0.00    -0.01  -0.00  -0.00
    11   1    -0.01   0.01   0.00     0.76  -0.48  -0.14    -0.00   0.00   0.00
    12   9     0.00  -0.00   0.00    -0.00   0.00  -0.00    -0.00  -0.00   0.00
    13   6     0.00  -0.00   0.00    -0.00  -0.00  -0.00    -0.09   0.00   0.03
    14   1    -0.00   0.00  -0.00     0.00   0.00   0.00     0.01  -0.04   0.07
    15   1    -0.00   0.00   0.00     0.00   0.00  -0.00     0.39  -0.17  -0.57
    16   1    -0.00  -0.00   0.00     0.01   0.00   0.00     0.65   0.19   0.15
    17   6    -0.01  -0.01  -0.04     0.00   0.00  -0.00    -0.00  -0.00   0.00
    18   1     0.41  -0.32   0.08     0.01  -0.01   0.00     0.01  -0.01   0.00
    19   1     0.17   0.58   0.06     0.00   0.00   0.00     0.01   0.02   0.00
    20   1    -0.42  -0.13   0.39    -0.01  -0.00   0.01     0.02   0.00  -0.01
                     49                     50                     51
                      A                      A                      A
 Frequencies --   3186.9558              3194.5053              3195.9738
 Red. masses --      1.1068                 1.1056                 1.1052
 Frc consts  --      6.6232                 6.6477                 6.6511
 IR Inten    --     13.6318                 7.0617                 4.5714
  Atom  AN      X      Y      Z        X      Y      Z        X      Y      Z
     1   6    -0.00   0.00   0.00     0.00   0.00   0.01    -0.00  -0.00  -0.01
     2   6    -0.00   0.00   0.00     0.00  -0.00   0.00     0.00   0.00   0.00
     3   6    -0.00  -0.00  -0.00    -0.00   0.00   0.00     0.00  -0.00   0.00
     4   6     0.00   0.00   0.00     0.00  -0.00  -0.00    -0.00  -0.00  -0.00
     5   7     0.00  -0.00   0.00    -0.00   0.00  -0.00    -0.00   0.00  -0.00
     6   1    -0.01  -0.00  -0.00     0.00   0.00   0.00     0.00   0.00   0.00
     7   1     0.01   0.00  -0.00     0.00   0.00  -0.00    -0.00  -0.00   0.00
     8   1     0.01  -0.00  -0.00    -0.00   0.00   0.00     0.00  -0.00  -0.00
     9   1     0.00  -0.00   0.00     0.00  -0.00  -0.00     0.00  -0.00  -0.00
    10   1    -0.01  -0.00  -0.01    -0.04  -0.03  -0.10     0.05   0.05   0.14
    11   1     0.01  -0.00  -0.00    -0.00   0.00   0.00    -0.00   0.00   0.00
    12   9    -0.00   0.00  -0.00    -0.00   0.00  -0.00    -0.00  -0.00  -0.00
    13   6     0.01  -0.00   0.01    -0.02   0.02  -0.06     0.02  -0.02   0.05
    14   1    -0.04   0.07  -0.11     0.22  -0.35   0.53    -0.18   0.29  -0.44
    15   1     0.01  -0.01  -0.02    -0.15   0.06   0.20     0.13  -0.05  -0.17
    16   1    -0.05  -0.01  -0.01     0.17   0.05   0.03    -0.15  -0.05  -0.03
    17   6    -0.07  -0.05   0.03    -0.04   0.04   0.01    -0.04   0.06   0.00
    18   1     0.12  -0.11   0.03     0.43  -0.34   0.08     0.48  -0.37   0.09
    19   1     0.16   0.57   0.06    -0.08  -0.25  -0.02    -0.12  -0.42  -0.04
    20   1     0.55   0.16  -0.51     0.15   0.06  -0.15     0.07   0.03  -0.07
                     52                     53                     54
                      A                      A                      A
 Frequencies --   3222.9621              3223.3594              3267.6959
 Red. masses --      1.0922                 1.0980                 1.1125
 Frc consts  --      6.6846                 6.7217                 6.9988
 IR Inten    --      1.0255                21.6269                 9.5464
  Atom  AN      X      Y      Z        X      Y      Z        X      Y      Z
     1   6    -0.03  -0.02  -0.07    -0.01  -0.01  -0.02     0.00   0.00   0.00
     2   6     0.01  -0.01  -0.01    -0.07   0.05   0.02    -0.02   0.01   0.01
     3   6    -0.00  -0.00  -0.00     0.00  -0.00   0.00     0.00   0.00  -0.00
     4   6    -0.01   0.00  -0.00     0.02  -0.01   0.00    -0.08   0.00  -0.04
     5   7     0.00  -0.00   0.00     0.00  -0.00   0.00    -0.00  -0.00  -0.00
     6   1     0.04   0.01   0.03    -0.14  -0.02  -0.10     0.71   0.13   0.54
     7   1    -0.00   0.00   0.00     0.00  -0.00   0.00    -0.00  -0.00  -0.00
     8   1    -0.16   0.11   0.04     0.76  -0.53  -0.20     0.17  -0.12  -0.05
     9   1     0.00   0.00   0.00    -0.00   0.00  -0.00     0.00  -0.00   0.00
    10   1     0.34   0.30   0.84     0.07   0.07   0.18    -0.00  -0.00  -0.01
    11   1     0.02  -0.01  -0.00    -0.10   0.07   0.02     0.30  -0.19  -0.06
    12   9     0.00   0.00   0.00    -0.00  -0.00  -0.00     0.00   0.00   0.00
    13   6    -0.00   0.01  -0.01    -0.00   0.00  -0.00     0.00  -0.00   0.00
    14   1     0.05  -0.09   0.12     0.01  -0.02   0.03    -0.00   0.00  -0.00
    15   1    -0.03   0.02   0.05    -0.01   0.00   0.01    -0.00   0.00   0.00
    16   1     0.05   0.02   0.01     0.01   0.00   0.00    -0.00  -0.00  -0.00
    17   6     0.00  -0.01   0.00     0.00  -0.00   0.00     0.00  -0.00  -0.00
    18   1    -0.03   0.02  -0.00    -0.01   0.01  -0.00    -0.00   0.00  -0.00
    19   1     0.01   0.04   0.00     0.00   0.00   0.00     0.00   0.00   0.00
    20   1     0.02   0.00  -0.01     0.00  -0.00   0.00     0.00  -0.00  -0.00

 -------------------
 - Thermochemistry -
 -------------------
 Temperature   298.150 Kelvin.  Pressure   1.00000 Atm.
 Atom     1 has atomic number  6 and mass  12.00000
 Atom     2 has atomic number  6 and mass  12.00000
 Atom     3 has atomic number  6 and mass  12.00000
 Atom     4 has atomic number  6 and mass  12.00000
 Atom     5 has atomic number  7 and mass  14.00307
 Atom     6 has atomic number  1 and mass   1.00783
 Atom     7 has atomic number  1 and mass   1.00783
 Atom     8 has atomic number  1 and mass   1.00783
 Atom     9 has atomic number  1 and mass   1.00783
 Atom    10 has atomic number  1 and mass   1.00783
 Atom    11 has atomic number  1 and mass   1.00783
 Atom    12 has atomic number  9 and mass  18.99840
 Atom    13 has atomic number  6 and mass  12.00000
 Atom    14 has atomic number  1 and mass   1.00783
 Atom    15 has atomic number  1 and mass   1.00783
 Atom    16 has atomic number  1 and mass   1.00783
 Atom    17 has atomic number  6 and mass  12.00000
 Atom    18 has atomic number  1 and mass   1.00783
 Atom    19 has atomic number  1 and mass   1.00783
 Atom    20 has atomic number  1 and mass   1.00783
 Molecular mass:   117.09538 amu.
 Principal axes and moments of inertia in atomic units:
                           1         2         3
     Eigenvalues --   781.968961391.069071576.55408
           X            0.99876   0.02160   0.04482
           Y           -0.01901   0.99816  -0.05752
           Z           -0.04598   0.05660   0.99734
 This molecule is an asymmetric top.
 Rotational symmetry number  1.
 Warning -- assumption of classical behavior for rotation
           may cause significant error
 Rotational temperatures (Kelvin)      0.11076     0.06226     0.05494
 Rotational constants (GHZ):           2.30794     1.29738     1.14474
    1 imaginary frequencies ignored.
 Zero-point vibrational energy     445127.6 (Joules/Mol)
                                  106.38804 (Kcal/Mol)
 Warning -- explicit consideration of  14 degrees of freedom as
           vibrations may cause significant error
 Vibrational temperatures:     68.16   105.94   115.98   168.71   184.20
          (Kelvin)            207.84   226.21   264.97   438.57   476.76
                              650.94   700.04   755.48   819.84  1081.36
                             1158.03  1235.30  1364.26  1379.11  1397.71
                             1462.23  1484.76  1493.34  1574.21  1618.23
                             1628.65  1695.67  1732.71  1785.76  1927.51
                             1937.97  2006.09  2032.77  2055.28  2070.28
                             2093.44  2099.10  2122.24  2129.03  2515.02
                             2599.09  4274.40  4340.08  4409.44  4424.44
                             4465.47  4540.35  4585.32  4596.18  4598.29
                             4637.12  4637.70  4701.49
 
 Zero-point correction=                           0.169540 (Hartree/Particle)
 Thermal correction to Energy=                    0.180355
 Thermal correction to Enthalpy=                  0.181299
 Thermal correction to Gibbs Free Energy=         0.132550
 Sum of electronic and zero-point Energies=           -389.729947
 Sum of electronic and thermal Energies=              -389.719132
 Sum of electronic and thermal Enthalpies=            -389.718188
 Sum of electronic and thermal Free Energies=         -389.766937
 
                     E (Thermal)             CV                S
                      KCal/Mol        Cal/Mol-Kelvin    Cal/Mol-Kelvin
 Total                  113.175             36.292            102.601
 Electronic               0.000              0.000              0.000
 Translational            0.889              2.981             40.188
 Rotational               0.889              2.981             28.929
 Vibrational            111.397             30.330             33.483
 Vibration     1          0.595              1.979              4.924
 Vibration     2          0.599              1.966              4.054
 Vibration     3          0.600              1.962              3.876
 Vibration     4          0.608              1.935              3.145
 Vibration     5          0.611              1.925              2.976
 Vibration     6          0.616              1.909              2.744
 Vibration     7          0.621              1.895              2.583
 Vibration     8          0.631              1.861              2.286
 Vibration     9          0.696              1.665              1.390
 Vibration    10          0.714              1.613              1.253
 Vibration    11          0.811              1.356              0.788
 Vibration    12          0.843              1.280              0.693
 Vibration    13          0.880              1.194              0.598
 Vibration    14          0.926              1.097              0.505
                       Q            Log10(Q)             Ln(Q)
 Total Bot       0.107434D-60        -60.968859       -140.385986
 Total V=0       0.103304D+18         17.014119         39.176456
 Vib (Bot)       0.460160D-74        -74.337092       -171.167479
 Vib (Bot)    1  0.436480D+01          0.639965          1.473573
 Vib (Bot)    2  0.279956D+01          0.447089          1.029461
 Vib (Bot)    3  0.255450D+01          0.407306          0.937858
 Vib (Bot)    4  0.174387D+01          0.241515          0.556108
 Vib (Bot)    5  0.159317D+01          0.202262          0.465725
 Vib (Bot)    6  0.140588D+01          0.147950          0.340666
 Vib (Bot)    7  0.128695D+01          0.109563          0.252279
 Vib (Bot)    8  0.108903D+01          0.037040          0.085287
 Vib (Bot)    9  0.622194D+00         -0.206074         -0.474503
 Vib (Bot)   10  0.563389D+00         -0.249192         -0.573785
 Vib (Bot)   11  0.378288D+00         -0.422177         -0.972099
 Vib (Bot)   12  0.341798D+00         -0.466231         -1.073536
 Vib (Bot)   13  0.305967D+00         -0.514326         -1.184280
 Vib (Bot)   14  0.270144D+00         -0.568404         -1.308799
 Vib (V=0)       0.442472D+04          3.645886          8.394963
 Vib (V=0)    1  0.489335D+01          0.689606          1.587877
 Vib (V=0)    2  0.334386D+01          0.524248          1.207125
 Vib (V=0)    3  0.310298D+01          0.491779          1.132362
 Vib (V=0)    4  0.231414D+01          0.364389          0.839036
 Vib (V=0)    5  0.216979D+01          0.336417          0.774629
 Vib (V=0)    6  0.199215D+01          0.299322          0.689214
 Vib (V=0)    7  0.188067D+01          0.274313          0.631629
 Vib (V=0)    8  0.169833D+01          0.230021          0.529643
 Vib (V=0)    9  0.129820D+01          0.113342          0.260980
 Vib (V=0)   10  0.125326D+01          0.098043          0.225752
 Vib (V=0)   11  0.112698D+01          0.051916          0.119540
 Vib (V=0)   12  0.110566D+01          0.043622          0.100444
 Vib (V=0)   13  0.108619D+01          0.035905          0.082674
[...]
 000583,-0.00012090,0.00008087,0.13676329,-0.14354008,0.04486237,0.0004
 6073,-0.00015409,0.00017837,0.01663938,-0.00196465,0.00343927,0.000104
 12,-0.00012912,0.00001318,-0.00156672,-0.00282397,-0.00275049,-0.00004
 177,-0.00001962,-0.00006063,-0.14406504,0.13562497,-0.00004693,0.00006
 278,-0.00013350,-0.05570314,0.04556322,-0.06467913,-0.00049401,0.00021
 255,-0.00013105,-0.01801448,0.01337161,0.00299577,0.00017267,0.0001236
 3,-0.00000890,-0.00123534,-0.00290413,-0.00181586,0.00010548,-0.000005
 92,-0.00023233,0.04230025,-0.05281474,0.06216067,-0.00000133,-0.000258
 89,-0.00084251,-0.00050080,-0.00031819,0.00061241,-0.23943478,0.108099
 89,0.02819065,-0.00039460,0.00028432,0.00033365,0.00536560,-0.00765311
 ,0.00438545,-0.00029962,0.00024864,-0.00008214,-0.01997512,0.01008797,
 0.00482476,-0.00002190,0.00009573,-0.00017173,0.25296664,-0.00114897,-
 0.00234813,0.00360514,-0.00050091,-0.00013044,0.00037495,0.08661939,-0
 .08692593,-0.01586026,-0.00039609,0.00039361,0.00008262,0.03325569,-0.
 03074191,-0.00666586,-0.00010469,0.00009463,-0.00002582,-0.00919277,0.
 00591878,0.00130547,0.00000591,0.00002610,-0.00009358,-0.10898265,0.11
 506906,-0.00082305,-0.00044208,0.00147090,0.00085041,0.00024735,-0.000
 87330,0.06399058,-0.03580246,-0.02730988,0.00124757,-0.00098343,0.0004
 6641,-0.00515560,0.00483824,-0.00505164,0.00024991,-0.00018234,0.00006
 242,-0.02247565,0.01079620,0.00194842,-0.00000627,-0.00014788,0.000210
 64,-0.03531248,0.02038431,0.02693871,-0.08509410,-0.03273460,0.0906288
 5,0.00001643,0.00003608,-0.00014460,-0.00764642,-0.00190322,-0.0029324
 4,-0.00037017,-0.00004644,0.00009072,0.00216256,-0.00051464,0.01489767
 ,-0.00003799,-0.00006145,-0.00004834,0.00109142,-0.00150025,-0.0016850
 4,0.00000131,-0.00002074,0.00000207,0.00020468,0.00102397,0.00106849,0
 .07212071,-0.03764547,-0.08216746,0.09604506,0.00016970,-0.00009274,-0
 .00005517,0.00113719,0.00018320,-0.00163089,-0.00005739,-0.00004555,-0
 .00005200,0.01120273,0.00722379,-0.02790633,0.00005323,-0.00004113,0.0
 0001398,-0.00012775,-0.00074012,0.00035199,0.00000085,-0.00002359,0.00
 005233,-0.00023925,-0.00062157,0.00060260,0.03465270,0.08909316,0.0906
 9346,0.08104591,-0.27492254,0.00000870,0.00013597,-0.00023017,-0.00255
 772,0.00462585,-0.00121411,-0.00001566,0.00023736,0.00015430,0.0128141
 0,0.00343208,-0.02366273,0.00011376,-0.00003775,0.00002759,0.00034595,
 -0.00047274,-0.00001686,-0.00000428,-0.00004341,0.00001406,-0.00033008
 ,0.00055035,0.00091189,-0.10686581,-0.08471681,0.29211195,-0.00102792,
 -0.00076583,-0.00034601,0.00752153,0.00002304,0.00101537,0.00280255,-0
 .00229878,0.00294406,-0.24872241,0.12869959,-0.03368409,-0.00186263,-0
 .00107326,0.00105208,-0.00782164,0.00910938,-0.00524716,-0.00206325,0.
 00035752,0.00159721,0.00173858,0.00115791,0.00316244,0.00106671,0.0005
 0233,-0.00274084,-0.00056347,-0.00093773,-0.00036577,0.25118905,-0.001
 36083,-0.00128060,0.00048884,0.01662258,-0.00240344,0.00488317,-0.0011
 6716,-0.00058027,-0.00134103,0.12658577,-0.12637234,0.03220443,-0.0007
 6759,0.00031136,0.00074797,-0.00673979,0.00585385,-0.00086478,0.001263
 10,-0.00026834,-0.00135741,0.00171347,0.00405065,0.00586799,-0.0003483
 1,-0.00042120,0.00093350,-0.00070062,-0.00020170,-0.00032513,-0.133356
 23,0.12496324,-0.00031052,0.00006612,0.00069094,-0.01778841,0.01425802
 ,0.00262396,0.00150035,0.00036808,0.00014288,-0.03051958,0.03061839,-0
 .05667800,0.00054964,-0.00022482,-0.00091974,0.01321668,-0.00968729,0.
 00578708,0.00094826,-0.00044605,-0.00164233,0.00238727,0.00616948,0.00
 127887,-0.00061907,-0.00020116,-0.00050447,-0.00048698,-0.00060626,-0.
 00032384,0.03316648,-0.03481135,0.05070050,-0.00088052,0.00001220,0.00
 227161,-0.21924028,-0.02161734,0.12177754,0.00178862,-0.00114458,0.000
 34454,-0.00068900,-0.01061469,0.01854659,-0.00309846,-0.00054898,-0.00
 203362,0.00330635,0.00284109,0.00215739,-0.00025015,-0.00024184,0.0004
 6613,-0.02941507,-0.00942040,0.03008532,0.00035378,0.00043017,-0.00050
 615,-0.00001173,-0.00008252,-0.00000227,-0.00284878,-0.00132433,-0.002
 25496,0.25247867,0.00031546,-0.00121318,0.00062498,-0.02018649,-0.0686
 2588,0.04206964,0.00042447,-0.00011372,-0.00005382,-0.03151703,0.00150
 046,0.02591083,0.00049195,-0.00030547,0.00040900,0.00400652,0.00404074
 ,0.00895849,-0.00017758,0.00038418,0.00047548,0.00962268,0.00897888,-0
 .00920654,0.00029981,0.00015081,-0.00022703,-0.00001362,0.00002515,-0.
 00006241,-0.00275515,-0.00276714,-0.00582441,0.03967047,0.05792107,-0.
 00105509,0.00058164,-0.00150332,0.12298359,0.04342983,-0.16040789,-0.0
 0159670,0.00033529,-0.00016104,0.04174313,0.01395105,-0.03124826,-0.00
 180396,0.00097658,-0.00122771,0.00093016,0.00952979,0.00197568,0.00044
 217,0.00009808,-0.00023646,0.00744757,0.00107602,0.00011294,-0.0003898
 8,-0.00017139,0.00053257,0.00029678,0.00009356,0.00018502,-0.00036408,
 -0.00647402,-0.00100113,-0.16739006,-0.06194399,0.19331708,-0.08293567
 ,-0.00900358,0.01148747,0.00028012,0.00023978,-0.00018868,0.01023287,-
 0.00044019,0.00363097,0.00003531,-0.00016842,-0.00000202,0.01101655,0.
 00778548,-0.00394875,0.00000060,0.00000800,0.00000685,-0.00180492,0.00
 277952,0.00214338,0.00001823,0.00000897,0.00005110,-0.00012548,-0.0018
 3716,-0.00209099,0.01071692,-0.00752805,0.00354634,-0.00012325,0.00016
 873,0.00005651,-0.00042089,-0.00055897,-0.00028332,0.55711017,-0.01391
 158,-0.24168202,0.03545823,0.00025383,-0.00000627,-0.00023918,0.000975
 72,0.00154782,-0.00085578,-0.00006924,-0.00001263,0.00004596,0.0013431
 0,-0.03038045,-0.00251521,0.00000269,0.00003110,0.00002245,0.00009944,
 -0.00102162,-0.00047159,-0.00003970,0.00000426,0.00000150,0.00005550,-
 0.00118339,-0.00056296,0.00132057,-0.00485758,-0.00171729,0.00023369,-
 0.00006180,-0.00001968,-0.00047275,-0.00037861,0.00020044,-0.00630233,
 0.52596835,0.01114853,0.03105279,-0.10189975,-0.00042427,-0.00012835,0
 .00011665,0.00507280,0.00245526,0.00123502,-0.00005959,-0.00008761,-0.
 00014987,-0.00257662,-0.02425499,0.01149607,0.00004444,0.00001262,0.00
 001548,-0.00074174,0.00081619,0.00129066,0.00001103,-0.00002579,0.0000
 1592,-0.00048519,-0.00126037,-0.00078363,0.00288033,0.01749954,0.00437
 447,-0.00027679,0.00005190,0.00001040,0.00005995,0.00014701,0.00013949
 ,-0.01617048,0.02942377,0.58911140,-0.00145311,-0.00286566,-0.00320628
 ,0.00020477,0.00010883,-0.00021171,0.00049862,-0.00001763,0.00005577,0
 .00002193,0.00000661,0.00014656,0.00096150,-0.00092699,0.00051003,-0.0
 0000458,-0.00000883,0.00000542,0.00000294,0.00014399,-0.00006854,-0.00
 004259,-0.00001227,-0.00001197,-0.00004512,-0.00013860,0.00009337,0.00
 005586,-0.00016241,-0.00033878,0.00001671,-0.00001886,-0.00002378,-0.0
 0026940,-0.00007845,0.00012542,-0.07738988,0.04925898,0.07499275,0.077
 05980,0.01193885,-0.01501216,-0.02888414,0.00008825,0.00006219,-0.0000
 8396,0.00027866,0.00047959,-0.00051893,0.00000702,0.00002121,0.0000909
 7,-0.00113920,-0.00630360,0.00245089,-0.00002827,-0.00000109,-0.000010
 75,-0.00003683,-0.00033938,-0.00003330,-0.00001735,0.00000051,-0.00001
 229,-0.00001768,-0.00038715,0.00004388,-0.00004514,0.00073201,0.000166
 42,0.00008935,-0.00004268,-0.00003782,-0.00009387,0.00002507,0.0000234
 0,0.04688893,-0.12189896,-0.11414750,-0.05098786,0.13373621,-0.0041156
 0,0.00755787,0.00702692,0.00025114,0.00006404,-0.00026531,0.00011991,-
 0.00003966,0.00025834,-0.00002741,-0.00000584,0.00009969,0.00046891,0.
 00233574,0.00028094,-0.00000390,-0.00000462,0.00001013,0.00004951,0.00
 009330,-0.00005544,-0.00005061,-0.00000843,-0.00000210,-0.00003941,-0.
 00002304,0.00000111,-0.00033514,0.00036097,0.00059687,0.00002029,-0.00
 001648,-0.00000906,-0.00035791,-0.00011583,0.00013169,0.07529311,-0.12
 005796,-0.23111615,-0.08071433,0.12414196,0.24149868,0.00061130,-0.001
 11228,0.00408601,-0.00111798,-0.00037248,0.00069097,-0.00019475,0.0001
 1264,0.00016403,0.00020295,0.00016074,-0.00014683,0.00097637,0.0002855
 3,-0.00027112,-0.00000666,0.00002818,-0.00003379,0.00002641,0.00001577
 ,-0.00010179,0.00003747,-0.00001063,-0.00002561,-0.00005662,0.00004597
 ,-0.00004415,-0.00124716,-0.00073205,-0.00013186,0.00006831,-0.0000502
 1,0.00000348,-0.00019698,-0.00010885,-0.00102439,-0.13099691,0.0378501
 4,-0.12547655,0.00695667,-0.00388648,0.00985859,0.13899668,0.01980837,
 -0.00829777,0.02609051,-0.00204400,-0.00044489,0.00156860,-0.00227296,
 -0.00098410,-0.00121976,0.00037102,0.00027505,-0.00032485,-0.00193709,
 0.00125283,0.00094047,-0.00001720,0.00004697,-0.00007568,0.00045504,-0
 .00071267,-0.00078193,0.00018960,0.00001996,-0.00012258,0.00007381,0.0
 0026455,0.00081247,-0.00113422,-0.00229659,-0.00073875,0.00028338,-0.0
 0014428,0.00002746,0.00162034,0.00042431,-0.00125244,0.03886786,-0.059
 04632,0.05002478,-0.01071567,0.00408094,-0.01216766,-0.04008874,0.0642
 3895,-0.00058943,0.00461678,-0.00393899,0.00026861,0.00028938,0.000024
 04,0.00018859,0.00040765,-0.00013890,0.00002886,-0.00005544,-0.0000029
 6,0.00114333,-0.00247264,-0.00115346,-0.00002035,-0.00002112,-0.000025
 83,-0.00032810,-0.00011510,0.00028548,0.00005113,0.00002159,0.00004039
 ,-0.00002834,-0.00008800,-0.00012270,-0.00020381,0.00085641,0.00051405
 ,-0.00006345,0.00005449,0.00000514,-0.00086368,-0.00093318,-0.00091738
 ,-0.12726685,0.04749933,-0.22000675,-0.01404878,0.00720103,-0.01526091
 ,0.13563826,-0.05442818,0.23391412,0.00208034,-0.00090020,-0.00053569,
 0.00021353,0.00006018,-0.00013271,-0.00003027,-0.00024996,-0.00039472,
 -0.00001545,-0.00004046,0.00000864,0.00031846,0.00078596,0.00187318,-0
 .00000114,-0.00000646,0.00000073,-0.00018042,-0.00002061,0.00010546,0.
 00000502,0.00001051,0.00002558,-0.00004911,0.00006088,-0.00016957,-0.0
 0057103,0.00006871,-0.00095854,-0.00004325,0.00003880,0.00000016,-0.00
 022046,-0.00018569,0.00001086,-0.29086347,-0.06993971,0.05253252,-0.00
 662218,-0.00263065,-0.00058395,-0.01379332,-0.00470997,0.00562115,0.30
 949182,-0.03175201,-0.00777766,0.00594567,-0.00005501,-0.00002899,0.00
 005348,0.00207478,-0.00061209,0.00004404,0.00001772,0.00000016,0.00002
 641,0.00181385,0.00053342,0.00134020,-0.00002381,0.00001075,-0.0000062
 2,-0.00049468,0.00037322,0.00055705,-0.00001792,0.00000373,-0.00002356
 ,0.00009013,-0.00053888,-0.00040904,0.00125253,-0.00251973,0.00030088,
 0.00006771,-0.00000580,-0.00000752,0.00006540,0.00009325,-0.00003825,-
 0.07281626,-0.06523774,0.01317529,0.01604581,0.00479314,-0.00175750,0.
 00758701,0.00180483,-0.00224732,0.07669557,0.06985520,0.00462665,0.004
 68283,-0.00450287,0.00034506,0.00012663,-0.00022879,-0.00012743,0.0000
 6498,-0.00012183,-0.00001969,0.00001063,0.00008083,0.00070310,-0.00161
 543,-0.00073599,-0.00000443,-0.00001978,0.00000107,0.00015571,-0.00012
 029,-0.00016864,-0.00001625,0.00000008,0.00001478,0.00001446,-0.000091
 63,0.00039516,-0.00079363,0.00125457,-0.00013579,0.00000192,-0.0000022
 8,-0.00001576,-0.00038057,-0.00028364,-0.00003290,0.05407508,0.0119381
 7,-0.05118908,0.02255916,0.00868054,-0.00293035,-0.02323616,-0.0077850
 6,0.00630081,-0.05757762,-0.01518268,0.05365252,0.00368955,0.00251628,
 0.01302722,-0.00059878,0.00000759,0.00037720,-0.00174442,-0.00923485,0
 .00994568,0.00033519,0.00061909,-0.00003897,-0.10497092,-0.00112147,0.
 04157780,0.00013182,-0.00004900,0.00001375,0.00247666,0.00017968,-0.00
 207891,0.00007313,-0.00008642,-0.00008175,0.00007586,0.00133460,0.0010
 0125,0.01019174,-0.00047539,0.00436632,0.00053215,-0.00051315,0.000181
 27,0.00030395,0.00008516,0.00008160,-0.00581232,-0.00035481,-0.0000929
 0,0.00004783,-0.00063388,0.00057342,0.00078224,0.00047009,-0.00011294,
 -0.00023545,-0.00086686,-0.00023330,0.58502201,0.01031943,0.01234524,-
 0.02834264,-0.00098652,-0.00033444,0.00084893,-0.01225482,-0.01224226,
 0.02859664,-0.00007373,0.00043908,-0.00034187,-0.00710284,-0.10492418,
 0.02043702,-0.00000495,0.00004167,-0.00000913,0.00118661,0.00098701,0.
 00079133,0.00012598,0.00005225,-0.00014070,-0.00141362,0.00077573,0.00
 016670,-0.00006713,-0.00415279,-0.00234520,0.00050149,-0.00063849,0.00
 030855,0.00103466,0.00020190,-0.00083785,-0.00007699,-0.00061860,-0.00
 104081,-0.00011022,-0.00018023,0.00037420,0.00056001,-0.00033973,0.000
 22200,0.00038482,-0.00089167,-0.00106169,-0.00851386,0.63292466,0.0164
 3717,-0.00694642,-0.03191538,0.00003016,-0.00018080,0.00038405,0.00616
 784,0.01556203,-0.00630752,0.00012898,-0.00001138,0.00002435,0.0390466
 8,0.00763309,-0.19029371,-0.00002686,-0.00000568,-0.00004742,0.0002693
 2,-0.00182257,-0.00150624,0.00006513,0.00009007,0.00000089,0.00067286,
 -0.00239198,0.00126390,0.00335772,-0.00067675,0.00244155,0.00034222,-0
 .00006695,0.00000748,-0.00041172,0.00013909,-0.00111856,-0.00105501,0.
 00280361,-0.00291149,0.00040976,0.00121053,-0.00038830,-0.00031571,0.0
 0031719,0.00095471,0.00021310,-0.00006310,0.00081714,0.03209620,0.0228
 4726,0.49345645,-0.00037773,-0.00256770,0.00046357,0.00038590,0.000122
 92,-0.00034452,0.00108941,0.00031234,-0.00140517,0.00001832,-0.0000679
 7,0.00008075,-0.00873227,0.00771534,0.00521639,0.00001039,-0.00001724,
 0.00001361,-0.00019568,0.00003151,-0.00018033,-0.00005169,-0.00001570,
 0.00003915,0.00057184,-0.00061305,0.00062891,0.00032034,0.00033936,0.0
 0027742,-0.00008464,0.00007565,-0.00004431,-0.00046104,-0.00004218,0.0
 0033261,-0.00002446,-0.00029483,-0.00050077,0.00004554,0.00008371,-0.0
 0009471,-0.00011403,0.00008137,0.00001368,0.00017659,0.00005071,-0.000
 02057,-0.22023421,0.13479724,0.03127737,0.23182441,-0.00011012,-0.0003
 3748,0.00223392,-0.00005560,-0.00000382,0.00004112,-0.00178207,0.00048
 294,0.00055238,-0.00006081,-0.00005002,-0.00003247,-0.00647141,0.00321
 280,-0.00043751,-0.00001275,0.00000388,-0.00000616,-0.00046032,0.00005
 675,0.00042314,-0.00000228,0.00000100,0.00000834,0.00017019,0.00011567
 ,0.00036052,0.00076360,0.00040385,0.00021844,-0.00005888,0.00005840,0.
 00000625,0.00005654,0.00001256,0.00002420,-0.00083193,-0.00056330,-0.0
 0094560,0.00008198,0.00009506,-0.00017269,-0.00023320,0.00040642,0.000
 02159,0.00049626,-0.00012775,-0.00001284,0.13971788,-0.15691314,-0.023
 88865,-0.14607239,0.16058173,0.00152686,0.00399736,-0.00336187,0.00017
 691,0.00011517,-0.00027515,-0.00059436,-0.00233023,0.00144952,-0.00009
 421,0.00004005,0.00002020,0.03239210,-0.02132505,-0.01475766,0.0000036
 4,0.00000152,0.00001927,-0.00024719,0.00020026,0.00004936,-0.00004599,
 -0.00000954,0.00001537,-0.00053912,0.00080317,-0.00041188,-0.00152852,
 -0.00099582,-0.00132050,0.00007499,-0.00009994,0.00001703,-0.00033624,
 -0.00002357,0.00035559,0.00064222,0.00011684,0.00061530,0.00000560,-0.
 00012095,0.00005291,0.00001623,-0.00026029,0.00001236,-0.00004096,0.00
 003080,-0.00012629,0.02484383,-0.01914887,-0.04820121,-0.03816037,0.02
 421743,0.06092534,0.00062283,-0.00164631,0.00013138,-0.00031161,-0.000
 15161,0.00037087,0.00012501,-0.00024648,0.00239737,0.00002462,0.000085
 62,-0.00008146,-0.00464013,-0.01034362,-0.00035905,-0.00001064,0.00001
 342,-0.00001321,0.00064049,0.00044604,-0.00029065,0.00002565,0.0000040
 0,-0.00004192,0.00043524,-0.00024477,0.00010594,0.00000357,0.00000617,
 -0.00012107,0.00011103,-0.00005303,0.00002297,0.00039731,0.00023498,-0
 .00028571,0.00016848,0.00032798,-0.00019809,-0.00003973,0.00012361,-0.
 00028320,-0.00080884,0.00081433,0.00079906,0.00032204,0.00000926,0.000
 05074,-0.07228305,-0.07082917,0.00928866,0.01001914,0.02219951,-0.0028
 5563,0.06862386,0.00028640,-0.00120688,-0.00038258,-0.00019561,-0.0000
 8604,0.00022999,-0.00183792,0.00030181,0.00368701,-0.00008145,0.000065
 99,-0.00010090,0.00004127,-0.00265486,0.00071895,-0.00004139,0.0000309
 5,-0.00001155,0.00047693,0.00018557,-0.00029008,0.00000186,0.00003032,
 -0.00003233,-0.00027494,0.00039401,-0.00075017,-0.00001281,-0.00003207
 ,-0.00004181,0.00027075,-0.00012681,0.00008696,0.00013545,0.00008909,-
 0.00016708,0.00184493,-0.00095619,-0.00265069,0.00022088,0.00012924,-0
 .00053121,0.00008238,-0.00027902,-0.00064912,0.00027587,-0.00030607,-0
 .00098765,-0.07461627,-0.30475015,0.02650547,-0.00746265,-0.01233266,0
 .00108802,0.07982750,0.32500775,-0.00037021,0.00221390,0.00133853,0.00
 027149,0.00009138,-0.00028377,0.00260651,0.00063302,-0.00541502,0.0000
 7947,-0.00012257,0.00014057,0.00837553,0.03239320,-0.00258663,0.000018
 02,-0.00001257,0.00000866,0.00005805,-0.00016088,0.00071377,-0.0000214
 9,-0.00002425,0.00003690,-0.00028570,-0.00026120,0.00048477,-0.0002460
 7,0.00024621,0.00001112,-0.00031377,0.00020560,-0.00011075,-0.00026583
 ,-0.00004005,0.00019591,0.00106278,-0.00081281,-0.00056378,-0.00028115
 ,-0.00005245,0.00002222,0.00030467,-0.00041992,-0.00029028,-0.00000653
 ,-0.00146058,-0.00107352,0.00701980,0.01807014,-0.05520090,-0.00214782
 ,-0.00384940,0.00036287,-0.01263031,-0.02703671,0.05815130,-0.00107158
 ,-0.00025152,0.00186059,-0.00098428,-0.00036053,0.00077232,0.00014596,
 0.00078647,0.00035882,0.00011102,0.00018554,-0.00027331,0.01297434,0.0
 0269193,0.01401280,0.00002274,0.00004087,0.00000656,0.00023644,-0.0000
 8617,-0.00002225,0.00009231,-0.00001077,-0.00011719,-0.00013587,-0.000
 11925,0.00008832,-0.00134348,0.00035734,-0.00047423,0.00011461,-0.0000
 6800,0.00001456,-0.00062596,0.00047250,-0.00020069,0.00091799,-0.00033
 669,0.00026063,-0.00000559,0.00001883,-0.00002870,-0.00012515,-0.00011
 536,-0.00022693,0.00001775,0.00025608,-0.00012224,-0.19778301,-0.04747
 639,-0.13799386,-0.01418614,-0.00733420,-0.01523978,-0.00342528,0.0010
 5885,-0.00322744,0.20505318,-0.00028021,-0.00069477,-0.00004529,0.0007
 3732,0.00039022,-0.00074949,0.00055091,-0.00008382,0.00022901,-0.00010
 572,-0.00012762,0.00022054,0.00471021,0.00108570,0.00349569,0.00000230
 ,-0.00003614,0.00001705,-0.00046914,-0.00023868,0.00024827,-0.00010937
 ,-0.00001662,0.00009243,0.00000064,0.00009564,0.00032160,-0.00029458,0
 .00013147,-0.00021196,-0.00005029,0.00007741,-0.00004297,-0.00030500,-
 0.00044348,0.00056514,0.00097166,0.00035394,-0.00011744,0.00017638,0.0
 0001007,-0.00002715,-0.00013344,-0.00026945,-0.00018016,-0.00019382,0.
 00057869,0.00040453,-0.04846442,-0.06178185,-0.04105408,0.01354354,0.0
 0489712,0.01370363,-0.02057743,-0.00350399,-0.01960009,0.05029046,0.05
 957617,0.00017880,0.00482457,-0.00138807,0.00090986,0.00042533,-0.0010
 1899,-0.00022988,-0.00210222,0.00189729,-0.00003354,0.00000241,0.00032
 481,-0.01840450,-0.00805859,-0.03364361,0.00000665,-0.00001595,0.00003
 713,0.00079403,0.00073573,-0.00011117,-0.00017970,-0.00004613,0.000105
 69,0.00009141,0.00002828,0.00037059,0.00204774,-0.00073719,0.00048368,
 0.00002492,-0.00007853,-0.00005920,-0.00090604,-0.00002006,0.00090870,
 -0.00098971,-0.00025787,0.00019964,0.00000148,-0.00010754,0.00004813,0
 .00004570,-0.00020437,-0.00019297,0.00000891,-0.00027805,-0.00000052,-
 0.13246656,-0.03939402,-0.16145979,0.00455511,0.00123797,0.00455944,0.
 00399330,0.00131548,0.00405802,0.14055200,0.04273074,0.18488120\\0.000
 00969,-0.00001065,-0.00002204,0.00000062,0.00000317,0.00000679,-0.0000
 0085,0.00000408,-0.00000121,-0.00000246,0.00000482,-0.00001010,-0.0000
 0865,0.00002222,0.00002420,0.00000687,0.00000757,0.00001070,-0.0000150
 7,-0.00001300,0.00001008,0.00000208,0.00000202,0.00000811,0.00000107,0
 .00000338,-0.00000016,0.00000225,0.00000401,-0.00000220,0.00002241,-0.
 00001340,0.00002556,-0.00001204,-0.00000004,0.00000114,0.00000142,-0.0
 0000263,-0.00000161,0.00000465,0.00000390,-0.00000859,-0.00000009,0.00
 000017,-0.00000826,0.00000427,0.00000120,-0.00001359,-0.00000333,-0.00
 000761,-0.00000626,-0.00000437,-0.00000265,-0.00000399,-0.00000306,0.0
 0000019,-0.00000855,-0.00000541,-0.00000675,0.\\\@
 The archive entry for this job was punched.


 "WOULD YOU TELL ME PLEASE, WHICH WAY I OUGHT TO WALK FROM HERE?"
 "THAT DEPENDS A GREAT DEAL ON WHERE YOU WANT TO GO," SAID THE CAT.
 "I DON'T MUCH CARE WHERE -- ", SAID ALICE.
 "THEN IT DOESN'T MATTER WHICH WAY YOU WALK," SAID THE CAT.

                                      -- LEWIS CARROLL
 Job cpu time:       0 days  0 hours 13 minutes 26.7 seconds.
 Elapsed time:       0 days  0 hours  1 minutes  8.0 seconds.
 File lengths (MBytes):  RWF=    114 Int=      0 D2E=      0 Chk=      8 Scr=      1
 Normal termination of Gaussian 16 at Sat Dec 30 20:49:48 2023.
