Unloading slurm/anatra/current
  ERROR: No such file or directory on
    '/cm/local/modulefiles/slurm/anatra/current'
environment: line 0: unalias: gv: not found
environment: line 0: unalias: sl: not found
 Entering Gaussian System, Link 0=g16
 Initial command:
 /apps/gaussian/g16/C.01/g16/l1.exe "/local/jobs/1152766/Gau-3922174.inp" -scrdir="/local/jobs/1152766/"
 Entering Link 1 = /apps/gaussian/g16/C.01/g16/l1.exe PID=   3922175.
  
 Copyright (c) 1988-2019, Gaussian, Inc.  All Rights Reserved.
  
 This is part of the Gaussian(R) 16 program.  It is based on
 the Gaussian(R) 09 system (copyright 2009, Gaussian, Inc.),
 the Gaussian(R) 03 system (copyright 2003, Gaussian, Inc.),
 the Gaussian(R) 98 system (copyright 1998, Gaussian, Inc.),
 the Gaussian(R) 94 system (copyright 1995, Gaussian, Inc.),
 the Gaussian 92(TM) system (copyright 1992, Gaussian, Inc.),
 the Gaussian 90(TM) system (copyright 1990, Gaussian, Inc.),
 the Gaussian 88(TM) system (copyright 1988, Gaussian, Inc.),
 the Gaussian 86(TM) system (copyright 1986, Carnegie Mellon
 University), and the Gaussian 82(TM) system (copyright 1983,
 Carnegie Mellon University). Gaussian is a federally registered
 trademark of Gaussian, Inc.
  
 This software contains proprietary and confidential information,
 including trade secrets, belonging to Gaussian, Inc.
  
 This software is provided under written license and may be
 used, copied, transmitted, or stored only in accord with that
 written license.
  
 The following legend is applicable only to US Government
 contracts under FAR:
  
                    RESTRICTED RIGHTS LEGEND
  
 Use, reproduction and disclosure by the US Government is
 subject to restrictions as set forth in subparagraphs (a)
 and (c) of the Commercial Computer Software - Restricted
 Rights clause in FAR 52.227-19.
  
 Gaussian, Inc.
 340 Quinnipiac St., Bldg. 40, Wallingford CT 06492
  
  
 ---------------------------------------------------------------
 Warning -- This program may not be used in any manner that
 competes with the business of Gaussian, Inc. or will provide
 assistance to any competitor of Gaussian, Inc.  The licensee
 of this program is prohibited from giving any competitor of
 Gaussian, Inc. access to this program.  By using this program,
 the user acknowledges that Gaussian, Inc. is engaged in the
 business of creating and licensing software in the field of
 computational chemistry and represents and warrants to the
 licensee that it is not a competitor of Gaussian, Inc. and that
 it will not use this program in any manner prohibited above.
 ---------------------------------------------------------------
  

 Cite this work as:
 Gaussian 16, Revision C.01,
 M. J. Frisch, G. W. Trucks, H. B. Schlegel, G. E. Scuseria, 
 M. A. Robb, J. R. Cheeseman, G. Scalmani, V. Barone, 
 G. A. Petersson, H. Nakatsuji, X. Li, M. Caricato, A. V. Marenich, 
 J. Bloino, B. G. Janesko, R. Gomperts, B. Mennucci, H. P. Hratchian, 
 J. V. Ortiz, A. F. Izmaylov, J. L. Sonnenberg, D. Williams-Young, 
 F. Ding, F. Lipparini, F. Egidi, J. Goings, B. Peng, A. Petrone, 
 T. Henderson, D. Ranasinghe, V. G. Zakrzewski, J. Gao, N. Rega, 
 G. Zheng, W. Liang, M. Hada, M. Ehara, K. Toyota, R. Fukuda, 
 J. Hasegawa, M. Ishida, T. Nakajima, Y. Honda, O. Kitao, H. Nakai, 
 T. Vreven, K. Throssell, J. A. Montgomery, Jr., J. E. Peralta, 
 F. Ogliaro, M. J. Bearpark, J. J. Heyd, E. N. Brothers, K. N. Kudin, 
 V. N. Staroverov, T. A. Keith, R. Kobayashi, J. Normand, 
 K. Raghavachari, A. P. Rendell, J. C. Burant, S. S. Iyengar, 
 J. Tomasi, M. Cossi, J. M. Millam, M. Klene, C. Adamo, R. Cammi, 
 J. W. Ochterski, R. L. Martin, K. Morokuma, O. Farkas, 
 J. B. Foresman, and D. J. Fox, Gaussian, Inc., Wallingford CT, 2019.
 
 ******************************************
 Gaussian 16:  ES64L-G16RevC.01  3-Jul-2019
                22-Dec-2023 
 ******************************************
 %chk=allylic-1_1_opt_dft.chk
 %nprocshared=12
 Will use up to   12 processors via shared memory.
 %mem=48GB
 ----------------------------------------------------------------------
 # wb97xd chkbasis guess=read geom=allchk scrf=(iefpcm,solvent=toluene)
  opt=(readfc,ts,noeigen,maxcycles=50,maxstep=10)
 ----------------------------------------------------------------------
 1/5=1,6=50,8=10,10=3,11=1,18=20,26=3,29=7,38=1/1,3;
 2/9=110,12=2,40=1/2;
 3/5=7,6=2,11=2,14=-4,25=1,30=1,67=1,70=2201,71=1,72=13,74=-58,116=-2/1,2,3;
 4/5=1/1;
 5/5=2,38=6,53=13/2;
 6/7=2,8=2,9=2,10=2,28=1/1;
 7//1,2,3,16;
 1/5=1,6=50,8=10,11=1,18=20,26=3/3(2);
 2/9=110/2;
 99//99;
 2/9=110/2;
 3/5=7,6=1,11=2,14=-2,25=1,30=1,70=2205,71=1,72=13,74=-58,82=7/1,2,3;
 4/5=5,16=3,69=1/1;
 5/5=2,38=5,53=13/2;
 7//1,2,3,16;
 1/5=1,6=50,8=10,11=1,18=20,26=3/3(-5);
 2/9=110/2;
 6/7=2,8=2,9=2,10=2,19=2,28=1/1;
 99/9=1/99;
 Structure from the checkpoint file:  "allylic-1_1_opt_dft.chk"
 ---------------------
 allyl_ts_46_reopt.out
 ---------------------
 Charge =  0 Multiplicity = 1
 Redundant internal coordinates found in file.  (old form).
 C,0,1.4140216356,0.0349814129,0.6287163704
 C,0,-2.0459786342,-0.5645098468,1.0364285559
 C,0,0.7008398501,2.1576359235,-0.1966019712
 C,0,-1.7907919653,0.5599089114,1.6876937705
 N,0,1.13225502,0.7519318847,-0.3955358382
 H,0,-2.3027371244,0.7364657582,2.6348137075
 H,0,-0.2993861738,2.1771946522,-0.6814048699
 H,0,-2.7316987571,-1.3536181235,1.3566249997
 H,0,1.3428429995,2.7374650649,-0.8932579678
 H,0,1.363657622,0.5931818242,1.568124918
 H,0,-1.0949633912,1.3165064967,1.2993087613
 F,0,-1.4600581607,-0.8651428306,-0.1373812148
 C,0,1.7540943391,-1.4151253521,0.6149433476
 H,0,1.8982079683,-1.7761253704,1.6396017
 H,0,0.9422648634,-1.9934845849,0.1484968089
 H,0,2.6782850548,-1.6063043823,0.0472738816
 C,0,1.1426565423,0.1879295979,-1.7438530436
 H,0,1.6512779148,0.9014118621,-2.4036284577
 H,0,1.6422248905,-0.7883175681,-1.7981240275
 H,0,0.1003855063,0.0857146701,-2.0747394307
 Recover connectivity data from disk.

 GradGradGradGradGradGradGradGradGradGradGradGradGradGradGradGradGradGrad
 Berny optimization.
 Initialization pass.
 Force constant matrix read from checkpoint file:
 "allylic-1_1_opt_dft.chk"
                           ----------------------------
                           !    Initial Parameters    !
                           ! (Angstroms and Degrees)  !
 --------------------------                            --------------------------
 ! Name  Definition              Value          Derivative Info.                !
 --------------------------------------------------------------------------------
 ! R1    R(1,5)                  1.2816         D2E/DX2 =    0.572              !
 ! R2    R(1,10)                 1.0939         D2E/DX2 =    0.3933             !
 ! R3    R(1,13)                 1.4895         D2E/DX2 =    0.2739             !
 ! R4    R(2,4)                  1.3242         D2E/DX2 =    0.6198             !
 ! R5    R(2,8)                  1.0934         D2E/DX2 =    0.3855             !
 ! R6    R(2,12)                 1.3459         D2E/DX2 =    0.443              !
 ! R7    R(3,5)                  1.4838         D2E/DX2 =    0.2968             !
 ! R8    R(3,7)                  1.1117         D2E/DX2 =    0.3684             !
 ! R9    R(3,9)                  1.1107         D2E/DX2 =    0.3626             !
 ! R10   R(4,6)                  1.091          D2E/DX2 =    0.3884             !
 ! R11   R(4,11)                 1.0988         D2E/DX2 =    0.4017             !
 ! R12   R(5,17)                 1.4616         D2E/DX2 =    0.3281             !
 ! R13   R(7,11)                 2.3015         D2E/DX2 =    0.0099             !
 ! R14   R(13,14)                1.0959         D2E/DX2 =    0.3663             !
 ! R15   R(13,15)                1.1005         D2E/DX2 =    0.365              !
 ! R16   R(13,16)                1.1013         D2E/DX2 =    0.3637             !
 ! R17   R(17,18)                1.0968         D2E/DX2 =    0.3669             !
 ! R18   R(17,19)                1.098          D2E/DX2 =    0.3636             !
 ! R19   R(17,20)                1.0983         D2E/DX2 =    0.3596             !
 ! A1    A(5,1,10)             113.0007         D2E/DX2 =    0.0991             !
 ! A2    A(5,1,13)             125.9744         D2E/DX2 =    0.1589             !
 ! A3    A(10,1,13)            121.0134         D2E/DX2 =    0.0955             !
 ! A4    A(4,2,8)              126.1328         D2E/DX2 =    0.0989             !
 ! A5    A(4,2,12)             122.3227         D2E/DX2 =    0.1544             !
 ! A6    A(8,2,12)             111.5444         D2E/DX2 =    0.1087             !
 ! A7    A(5,3,7)              102.697          D2E/DX2 =    0.2615             !
 ! A8    A(5,3,9)              104.0286         D2E/DX2 =    0.0973             !
 ! A9    A(7,3,9)              103.7297         D2E/DX2 =    0.0648             !
 ! A10   A(2,4,6)              118.2898         D2E/DX2 =    0.0807             !
 ! A11   A(2,4,11)             122.198          D2E/DX2 =    0.1139             !
 ! A12   A(6,4,11)             119.5082         D2E/DX2 =    0.0764             !
 ! A13   A(1,5,3)              119.1268         D2E/DX2 =    0.1823             !
 ! A14   A(1,5,17)             121.3212         D2E/DX2 =    0.1835             !
 ! A15   A(3,5,17)             119.4279         D2E/DX2 =    0.1599             !
 ! A16   A(3,7,11)              85.9359         D2E/DX2 =    0.2239             !
 ! A17   A(4,11,7)             141.3126         D2E/DX2 =    0.0786             !
 ! A18   A(1,13,14)            110.0031         D2E/DX2 =    0.1088             !
 ! A19   A(1,13,15)            110.3118         D2E/DX2 =    0.099              !
 ! A20   A(1,13,16)            111.4293         D2E/DX2 =    0.0994             !
 ! A21   A(14,13,15)           108.6737         D2E/DX2 =    0.0536             !
 ! A22   A(14,13,16)           108.3244         D2E/DX2 =    0.0534             !
 ! A23   A(15,13,16)           108.0193         D2E/DX2 =    0.0523             !
 ! A24   A(5,17,18)            107.8905         D2E/DX2 =    0.1189             !
 ! A25   A(5,17,19)            113.0753         D2E/DX2 =    0.1218             !
 ! A26   A(5,17,20)            107.8838         D2E/DX2 =    0.1181             !
 ! A27   A(18,17,19)           109.7338         D2E/DX2 =    0.0573             !
 ! A28   A(18,17,20)           108.6252         D2E/DX2 =    0.0566             !
 ! A29   A(19,17,20)           109.52           D2E/DX2 =    0.0553             !
 ! D1    D(10,1,5,3)            -4.0016         D2E/DX2 =    0.0141             !
 ! D2    D(10,1,5,17)         -179.9271         D2E/DX2 =    0.0143             !
 ! D3    D(13,1,5,3)           174.7646         D2E/DX2 =    0.0177             !
 ! D4    D(13,1,5,17)           -1.1609         D2E/DX2 =    0.013              !
 ! D5    D(5,1,13,14)         -177.0992         D2E/DX2 =    0.0139             !
 ! D6    D(5,1,13,15)          -57.2267         D2E/DX2 =    0.0134             !
 ! D7    D(5,1,13,16)           62.7482         D2E/DX2 =    0.013              !
 ! D8    D(10,1,13,14)           1.5757         D2E/DX2 =    0.0141             !
 ! D9    D(10,1,13,15)         121.4481         D2E/DX2 =    0.0129             !
 ! D10   D(10,1,13,16)        -118.5769         D2E/DX2 =    0.0124             !
 ! D11   D(8,2,4,6)             -0.0585         D2E/DX2 =    0.0197             !
 ! D12   D(8,2,4,11)          -179.3237         D2E/DX2 =    0.0311             !
 ! D13   D(12,2,4,6)          -179.9633         D2E/DX2 =    0.0489             !
 ! D14   D(12,2,4,11)            0.7716         D2E/DX2 =    0.0412             !
 ! D15   D(7,3,5,1)           -121.8103         D2E/DX2 =    0.022              !
 ! D16   D(7,3,5,17)            54.1935         D2E/DX2 =    0.0172             !
 ! D17   D(9,3,5,1)            130.3073         D2E/DX2 =    0.0093             !
 ! D18   D(9,3,5,17)           -53.6889         D2E/DX2 =    0.0086             !
 ! D19   D(5,3,7,11)            82.7492         D2E/DX2 =    0.0681             !
 ! D20   D(9,3,7,11)          -169.141          D2E/DX2 =    0.0369             !
 ! D21   D(2,4,11,7)            30.6547         D2E/DX2 =    0.0547             !
 ! D22   D(6,4,11,7)          -148.6017         D2E/DX2 =    0.0253             !
 ! D23   D(1,5,17,18)         -135.8171         D2E/DX2 =    0.014              !
 ! D24   D(1,5,17,19)          -14.2707         D2E/DX2 =    0.0138             !
 ! D25   D(1,5,17,20)          107.0016         D2E/DX2 =    0.0134             !
 ! D26   D(3,5,17,18)           48.2694         D2E/DX2 =    0.0148             !
 ! D27   D(3,5,17,19)          169.8158         D2E/DX2 =    0.015              !
 ! D28   D(3,5,17,20)          -68.9119         D2E/DX2 =    0.0146             !
 ! D29   D(3,7,11,4)          -137.3805         D2E/DX2 =    0.1871             !
 --------------------------------------------------------------------------------
 Trust Radius=1.00D-01 FncErr=1.00D-07 GrdErr=1.00D-06 EigMax=2.50D+02 EigMin=1.00D-04
 Number of steps in this run=     50 maximum allowed number of steps=    120.
 Search for a saddle point of order  1.
 GradGradGradGradGradGradGradGradGradGradGradGradGradGradGradGradGradGrad

                          Input orientation:                          
 ---------------------------------------------------------------------
 Center     Atomic      Atomic             Coordinates (Angstroms)
 Number     Number       Type             X           Y           Z
 ---------------------------------------------------------------------
      1          6           0        1.414022    0.034981    0.628716
      2          6           0       -2.045979   -0.564510    1.036429
      3          6           0        0.700840    2.157636   -0.196602
      4          6           0       -1.790792    0.559909    1.687694
      5          7           0        1.132255    0.751932   -0.395536
      6          1           0       -2.302737    0.736466    2.634814
      7          1           0       -0.299386    2.177195   -0.681405
      8          1           0       -2.731699   -1.353618    1.356625
      9          1           0        1.342843    2.737465   -0.893258
     10          1           0        1.363658    0.593182    1.568125
     11          1           0       -1.094963    1.316506    1.299309
     12          9           0       -1.460058   -0.865143   -0.137381
     13          6           0        1.754094   -1.415125    0.614943
     14          1           0        1.898208   -1.776125    1.639602
     15          1           0        0.942265   -1.993485    0.148497
     16          1           0        2.678285   -1.606304    0.047274
     17          6           0        1.142657    0.187930   -1.743853
     18          1           0        1.651278    0.901412   -2.403628
     19          1           0        1.642225   -0.788318   -1.798124
     20          1           0        0.100386    0.085715   -2.074739
 ---------------------------------------------------------------------
                    Distance matrix (angstroms):
                    1          2          3          4          5
     1  C    0.000000
     2  C    3.535141   0.000000
     3  C    2.386512   4.058997   0.000000
     4  C    3.415818   1.324230   3.508779   0.000000
     5  N    1.281602   3.726219   1.483812   3.594568   0.000000
     6  H    4.281449   2.076848   4.365560   1.091007   4.580658
     7  H    3.039944   3.676749   1.111696   3.233038   2.040268
     8  H    4.432274   1.093357   5.150120   2.157892   4.736407
     9  H    3.102401   5.109877   1.110720   4.606814   2.057770
    10  H    1.093898   3.639859   2.449715   3.156890   1.983611
    11  H    2.896033   2.124090   2.483980   1.098845   2.855126
    12  F    3.107646   1.345924   3.716205   2.339029   3.066213
    13  C    1.489513   3.916855   3.812161   4.197353   2.470605
    14  H    2.129890   4.169945   4.503311   4.366702   3.334598
    15  H    2.137250   3.429284   4.172431   4.044570   2.805241
    16  H    2.151803   4.937857   4.258757   5.230307   2.854394
    17  C    2.392931   4.296920   2.543409   4.529791   1.461563
    18  H    3.162611   5.258576   2.711530   5.357554   2.079463
    19  H    2.572830   4.656997   3.482775   5.074864   2.144689
    20  H    3.006142   3.835236   2.860210   4.237607   2.080463
                    6          7          8          9         10
     6  H    0.000000
     7  H    4.133572   0.000000
     8  H    2.487212   4.747246   0.000000
     9  H    5.453581   1.748056   6.196840   0.000000
    10  H    3.821100   3.214840   4.539461   3.264474   0.000000
    11  H    1.891755   2.301511   3.132372   3.573426   2.576874
    12  F    3.310638   3.301354   2.021814   4.626704   3.606776
    13  C    5.016682   4.336135   4.547111   4.437094   2.257054
    14  H    4.995148   5.083820   4.657749   5.205411   2.429911
    15  H    4.915734   4.430011   3.920078   4.860823   2.980564
    16  H    6.082312   4.869534   5.571910   4.640726   2.979761
    17  C    5.598603   2.676837   5.196149   2.695129   3.343990
    18  H    6.406820   2.898062   6.199609   2.397382   3.994065
    19  H    6.126877   3.716339   5.422473   3.652336   3.649352
    20  H    5.327135   2.544698   4.676178   3.157749   3.888938
                   11         12         13         14         15
    11  H    0.000000
    12  F    2.637606   0.000000
    13  C    4.005908   3.346528   0.000000
    14  H    4.317319   3.907110   1.095908   0.000000
    15  H    4.053481   2.669464   1.100518   1.784507   0.000000
    16  H    4.934351   4.208242   1.101329   1.781254   1.781550
    17  C    3.942266   3.234785   2.916772   3.984487   2.894773
    18  H    4.628811   4.235210   3.806401   4.855707   3.923833
    19  H    4.638596   3.519677   2.495656   3.585980   2.394098
    20  H    3.785222   2.663169   3.495950   4.527134   3.158261
                   16         17         18         19         20
    16  H    0.000000
    17  C    2.964046   0.000000
    18  H    3.653807   1.096839   0.000000
    19  H    2.268924   1.097986   1.794966   0.000000
    20  H    3.743185   1.098300   1.782918   1.793800   0.000000
 Stoichiometry    C6H12FN
 Framework group  C1[X(C6H12FN)]
 Deg. of freedom    54
 Full point group                 C1      NOp   1
 Largest Abelian subgroup         C1      NOp   1
 Largest concise Abelian subgroup C1      NOp   1
                         Standard orientation:                         
 ---------------------------------------------------------------------
 Center     Atomic      Atomic             Coordinates (Angstroms)
 Number     Number       Type             X           Y           Z
 ---------------------------------------------------------------------
      1          6           0       -0.917072   -0.463805   -0.940306
      2          6           0        2.395356   -0.199166    0.265932
      3          6           0       -0.992572    1.887163   -0.536956
      4          6           0        2.295456    0.676388   -0.722505
      5          7           0       -1.245957    0.480457   -0.138617
      6          1           0        3.148435    0.800743   -1.391280
      7          1           0       -0.338831    2.258974    0.281730
      8          1           0        3.263556   -0.826015    0.486652
      9          1           0       -1.961646    2.397810   -0.353013
     10          1           0       -0.531005   -0.097924   -1.896181
     11          1           0        1.392344    1.282565   -0.878707
     12          9           0        1.393358   -0.417986    1.137500
     13          6           0       -0.999267   -1.923200   -0.653847
     14          1           0       -0.604037   -2.494452   -1.501479
     15          1           0       -0.410736   -2.170281    0.242658
     16          1           0       -2.038934   -2.240615   -0.477026
     17          6           0       -1.782159    0.196073    1.190962
     18          1           0       -2.637948    0.861357    1.358528
     19          1           0       -2.095351   -0.849059    1.314176
     20          1           0       -1.002823    0.434857    1.927087
 ---------------------------------------------------------------------
 Rotational constants (GHZ):           2.3110062           1.2913326           1.1443634
 Basis read from chk: "allylic-1_1_opt_dft.chk" (5D, 7F)
 Pseudo-potential data read from chk file.
 There are   180 symmetry adapted cartesian basis functions of A   symmetry.
 There are   172 symmetry adapted basis functions of A   symmetry.
   172 basis functions,   284 primitive gaussians,   180 cartesian basis functions
    32 alpha electrons       32 beta electrons
       nuclear repulsion energy       384.7592338818 Hartrees.
 NAtoms=   20 NActive=   20 NUniq=   20 SFac= 1.00D+00 NAtFMM=   60 NAOKFM=F Big=F
 Integral buffers will be    131072 words long.
 Raffenetti 2 integral format.
 Two-electron integral symmetry is turned on.
 Nuclear repulsion after empirical dispersion term =      384.7469046019 Hartrees.
 ------------------------------------------------------------------------------
 Polarizable Continuum Model (PCM)
 =================================
 Model                : PCM.
 Atomic radii         : UFF (Universal Force Field).
 Polarization charges : Total charges.
 Charge compensation  : None.
 Solution method      : On-the-fly selection.
 Cavity type          : Scaled VdW (van der Waals Surface) (Alpha=1.100).
 Cavity algorithm     : GePol (No added spheres)
                        Default sphere list used, NSphG=   20.
                        Lebedev-Laikov grids with approx.  5.0 points / Ang**2.
                        Smoothing algorithm: York/Karplus (Gamma=1.0000).
                        Polarization charges: spherical gaussians, with
                                              point-specific exponents (IZeta= 3).
                        Self-potential: point-specific (ISelfS= 7).
                        Self-field    : sphere-specific E.n sum rule (ISelfD= 2).
 1st derivatives      : Analytical E(r).r(x)/FMM algorithm (CHGder, D1EAlg=3).
                        Cavity 1st derivative terms included.
 Solvent              : Toluene, Eps=   2.374100 Eps(inf)=   2.238315
 ------------------------------------------------------------------------------
 Spheres list:
 ISph  on   Nord     Re0    Alpha      Xe            Ye            Ze
    1   C      1    1.9255  1.100     -0.917072     -0.463805     -0.940306
    2   C      2    1.9255  1.100      2.395356     -0.199166      0.265932
    3   C      3    1.9255  1.100     -0.992572      1.887163     -0.536956
    4   C      4    1.9255  1.100      2.295456      0.676388     -0.722505
    5   N      5    1.8300  1.100     -1.245957      0.480457     -0.138617
    6   H      6    1.4430  1.100      3.148435      0.800743     -1.391280
    7   H      7    1.4430  1.100     -0.338831      2.258974      0.281730
    8   H      8    1.4430  1.100      3.263556     -0.826015      0.486652
    9   H      9    1.4430  1.100     -1.961646      2.397810     -0.353013
   10   H     10    1.4430  1.100     -0.531005     -0.097924     -1.896181
   11   H     11    1.4430  1.100      1.392344      1.282565     -0.878707
   12   F     12    1.6820  1.100      1.393358     -0.417986      1.137500
   13   C     13    1.9255  1.100     -0.999267     -1.923200     -0.653847
   14   H     14    1.4430  1.100     -0.604037     -2.494452     -1.501479
   15   H     15    1.4430  1.100     -0.410736     -2.170281      0.242658
   16   H     16    1.4430  1.100     -2.038934     -2.240615     -0.477026
   17   C     17    1.9255  1.100     -1.782159      0.196073      1.190962
   18   H     18    1.4430  1.100     -2.637948      0.861357      1.358528
   19   H     19    1.4430  1.100     -2.095351     -0.849059      1.314176
   20   H     20    1.4430  1.100     -1.002823      0.434857      1.927087
 ------------------------------------------------------------------------------
 One-electron integrals computed using PRISM.
   1 Symmetry operations used in ECPInt.
 ECPInt:  NShTT=    3570 NPrTT=   12386 LenC2=    3545 LenP2D=    9908.
 LDataN:  DoStor=T MaxTD1= 4 Len=   56
 NBasis=   172 RedAO= T EigKep=  2.98D-03  NBF=   172
 NBsUse=   172 1.00D-06 EigRej= -1.00D+00 NBFU=   172
 Initial guess from the checkpoint file:  "allylic-1_1_opt_dft.chk"
 B after Tr=     0.000000    0.000000   -0.000000
         Rot=    1.000000   -0.000000    0.000000    0.000000 Ang=   0.00 deg.
 Requested convergence on RMS density matrix=1.00D-08 within 128 cycles.
 Requested convergence on MAX density matrix=1.00D-06.
 Requested convergence on             energy=1.00D-06.
 No special actions if energy rises.
 Inv3:  Mode=1 IEnd=     7096332.
 Iteration    1 A*A^-1 deviation from unit magnitude is 2.66D-15 for    746.
 Iteration    1 A*A^-1 deviation from orthogonality  is 2.15D-15 for   1206    231.
 Iteration    1 A^-1*A deviation from unit magnitude is 2.66D-15 for   1143.
 Iteration    1 A^-1*A deviation from orthogonality  is 2.00D-15 for   1350    735.
 Error on total polarization charges =  0.00606
 SCF Done:  E(RwB97XD) =  -389.899448602     A.U. after    1 cycles
            NFock=  1  Conv=0.14D-08     -V/T= 2.0102

 **********************************************************************

            Population analysis using the SCF Density.

 **********************************************************************

 Orbital symmetries:
       Occupied  (A) (A) (A) (A) (A) (A) (A) (A) (A) (A) (A) (A)
                 (A) (A) (A) (A) (A) (A) (A) (A) (A) (A) (A) (A)
                 (A) (A) (A) (A) (A) (A) (A) (A)
       Virtual   (A) (A) (A) (A) (A) (A) (A) (A) (A) (A) (A) (A)
                 (A) (A) (A) (A) (A) (A) (A) (A) (A) (A) (A) (A)
                 (A) (A) (A) (A) (A) (A) (A) (A) (A) (A) (A) (A)
                 (A) (A) (A) (A) (A) (A) (A) (A) (A) (A) (A) (A)
                 (A) (A) (A) (A) (A) (A) (A) (A) (A) (A) (A) (A)
                 (A) (A) (A) (A) (A) (A) (A) (A) (A) (A) (A) (A)
                 (A) (A) (A) (A) (A) (A) (A) (A) (A) (A) (A) (A)
                 (A) (A) (A) (A) (A) (A) (A) (A) (A) (A) (A) (A)
                 (A) (A) (A) (A) (A) (A) (A) (A) (A) (A) (A) (A)
                 (A) (A) (A) (A) (A) (A) (A) (A) (A) (A) (A) (A)
                 (A) (A) (A) (A) (A) (A) (A) (A) (A) (A) (A) (A)
                 (A) (A) (A) (A) (A) (A) (A) (A)
 The electronic state is 1-A.
 Alpha  occ. eigenvalues --  -24.82778 -14.52776 -10.37936 -10.37667 -10.33996
 Alpha  occ. eigenvalues --  -10.32435 -10.29265 -10.23134  -1.31073  -1.08264
 Alpha  occ. eigenvalues --   -0.87345  -0.85660  -0.82213  -0.74816  -0.69462
 Alpha  occ. eigenvalues --   -0.65592  -0.61777  -0.58433  -0.57693  -0.56364
 Alpha  occ. eigenvalues --   -0.56187  -0.55517  -0.51711  -0.49742  -0.48719
 Alpha  occ. eigenvalues --   -0.48457  -0.46089  -0.45182  -0.44347  -0.37020
 Alpha  occ. eigenvalues --   -0.34626  -0.22319
 Alpha virt. eigenvalues --    0.02618   0.08972   0.13251   0.16473   0.16696
 Alpha virt. eigenvalues --    0.17044   0.19381   0.20746   0.21089   0.21570
 Alpha virt. eigenvalues --    0.22486   0.22884   0.24374   0.25164   0.27172
 Alpha virt. eigenvalues --    0.28960   0.32090   0.36057   0.37507   0.41322
 Alpha virt. eigenvalues --    0.44010   0.48837   0.48971   0.51115   0.53615
 Alpha virt. eigenvalues --    0.54779   0.55773   0.57035   0.58573   0.59979
 Alpha virt. eigenvalues --    0.61957   0.65404   0.66700   0.67976   0.69480
 Alpha virt. eigenvalues --    0.71017   0.71707   0.72195   0.72870   0.74279
 Alpha virt. eigenvalues --    0.74871   0.75011   0.75356   0.76484   0.76746
 Alpha virt. eigenvalues --    0.77647   0.80102   0.81964   0.83465   0.84390
 Alpha virt. eigenvalues --    0.88177   0.88587   0.91773   0.92204   1.00146
 Alpha virt. eigenvalues --    1.08585   1.10906   1.14972   1.19174   1.20569
 Alpha virt. eigenvalues --    1.27982   1.28177   1.30668   1.32813   1.33694
 Alpha virt. eigenvalues --    1.36152   1.39804   1.46145   1.49223   1.54871
 Alpha virt. eigenvalues --    1.58972   1.59550   1.60418   1.61894   1.64766
 Alpha virt. eigenvalues --    1.66955   1.68502   1.71482   1.73604   1.76326
 Alpha virt. eigenvalues --    1.77602   1.79432   1.81504   1.82296   1.84849
 Alpha virt. eigenvalues --    1.85249   1.85696   1.88215   1.91406   1.91765
 Alpha virt. eigenvalues --    1.93052   1.96375   1.97575   1.98428   2.02591
 Alpha virt. eigenvalues --    2.04479   2.05117   2.05728   2.10453   2.13742
 Alpha virt. eigenvalues --    2.17414   2.18273   2.18795   2.21488   2.24091
 Alpha virt. eigenvalues --    2.31874   2.34307   2.35671   2.38036   2.40327
 Alpha virt. eigenvalues --    2.41911   2.49937   2.51701   2.52348   2.55004
 Alpha virt. eigenvalues --    2.58203   2.63160   2.72227   2.73675   2.76737
 Alpha virt. eigenvalues --    2.79081   2.81444   2.84347   2.87916   2.91759
 Alpha virt. eigenvalues --    2.94334   2.98916   3.01829   3.02687   3.05663
 Alpha virt. eigenvalues --    3.08080   3.10312   3.14475   3.17327   3.29328
 Alpha virt. eigenvalues --    3.31586   3.39553   3.44944   3.61306   3.94451
          Condensed to atoms (all electrons):
               1          2          3          4          5          6
     1  C    4.922445  -0.000977  -0.089888   0.007302   0.540152  -0.000028
     2  C   -0.000977   4.544576  -0.000117   0.611678  -0.000813  -0.006265
     3  C   -0.089888  -0.000117   5.351464  -0.030029   0.264016   0.000219
     4  C    0.007302   0.611678  -0.030029   4.997617   0.000312   0.371201
     5  N    0.540152  -0.000813   0.264016   0.000312   6.285172   0.000054
     6  H   -0.000028  -0.006265   0.000219   0.371201   0.000054   0.590844
     7  H   -0.000076  -0.000120   0.363140   0.002383  -0.033979   0.000099
     8  H    0.000268   0.421843  -0.000045  -0.062146  -0.000028  -0.006744
     9  H    0.004177   0.000007   0.359124   0.000734  -0.031895  -0.000007
    10  H    0.383855  -0.000317   0.033091  -0.003828  -0.026633   0.000120
    11  H   -0.010296  -0.013195   0.075948   0.321781  -0.003040  -0.023180
    12  F    0.009553   0.295393  -0.000911  -0.059327  -0.002288   0.002616
    13  C    0.299038   0.001221   0.011095  -0.001256  -0.042900   0.000011
    14  H   -0.008716   0.000192  -0.000249   0.000238   0.004148  -0.000003
    15  H   -0.003431  -0.001539  -0.000361  -0.000676  -0.008093  -0.000026
    16  H   -0.010457  -0.000001  -0.000212   0.000013  -0.004651   0.000000
    17  C   -0.086885  -0.000049  -0.037529  -0.001040   0.307249   0.000004
    18  H    0.005898   0.000000  -0.000512   0.000019  -0.022693  -0.000000
    19  H   -0.009968  -0.000021   0.006281   0.000206  -0.013014  -0.000000
    20  H    0.000345  -0.000034  -0.001115  -0.000042  -0.022095  -0.000007
               7          8          9         10         11         12
     1  C   -0.000076   0.000268   0.004177   0.383855  -0.010296   0.009553
     2  C   -0.000120   0.421843   0.000007  -0.000317  -0.013195   0.295393
     3  C    0.363140  -0.000045   0.359124   0.033091   0.075948  -0.000911
     4  C    0.002383  -0.062146   0.000734  -0.003828   0.321781  -0.059327
     5  N   -0.033979  -0.000028  -0.031895  -0.026633  -0.003040  -0.002288
     6  H    0.000099  -0.006744  -0.000007   0.000120  -0.023180   0.002616
     7  H    0.734226   0.000029  -0.039624  -0.001568  -0.006541   0.001232
     8  H    0.000029   0.616714   0.000001  -0.000031   0.004919  -0.030975
     9  H   -0.039624   0.000001   0.743778  -0.000474  -0.002586   0.000002
    10  H   -0.001568  -0.000031  -0.000474   0.555624   0.007978  -0.000106
    11  H   -0.006541   0.004919  -0.002586   0.007978   0.570484  -0.001709
    12  F    0.001232  -0.030975   0.000002  -0.000106  -0.001709   9.005891
    13  C   -0.000974  -0.000139  -0.000859  -0.034298   0.002264  -0.006458
    14  H    0.000026   0.000004   0.000018  -0.008479  -0.000126  -0.000098
    15  H    0.000177   0.000015  -0.000016   0.002532  -0.000210   0.011233
    16  H   -0.000039   0.000001   0.000087   0.002855  -0.000009   0.000085
    17  C   -0.003289  -0.000010  -0.009508   0.009303   0.002039  -0.000055
    18  H   -0.001887   0.000001   0.008925  -0.000352  -0.000086   0.000092
    19  H    0.000962   0.000001   0.000923  -0.000907  -0.000399  -0.000333
    20  H    0.005312   0.000074  -0.001472  -0.000324  -0.000040   0.007033
              13         14         15         16         17         18
     1  C    0.299038  -0.008716  -0.003431  -0.010457  -0.086885   0.005898
     2  C    0.001221   0.000192  -0.001539  -0.000001  -0.000049   0.000000
     3  C    0.011095  -0.000249  -0.000361  -0.000212  -0.037529  -0.000512
     4  C   -0.001256   0.000238  -0.000676   0.000013  -0.001040   0.000019
     5  N   -0.042900   0.004148  -0.008093  -0.004651   0.307249  -0.022693
     6  H    0.000011  -0.000003  -0.000026   0.000000   0.000004  -0.000000
     7  H   -0.000974   0.000026   0.000177  -0.000039  -0.003289  -0.001887
     8  H   -0.000139   0.000004   0.000015   0.000001  -0.000010   0.000001
     9  H   -0.000859   0.000018  -0.000016   0.000087  -0.009508   0.008925
    10  H   -0.034298  -0.008479   0.002532   0.002855   0.009303  -0.000352
    11  H    0.002264  -0.000126  -0.000210  -0.000009   0.002039  -0.000086
    12  F   -0.006458  -0.000098   0.011233   0.000085  -0.000055   0.000092
    13  C    4.680463   0.387137   0.374040   0.386253   0.009505  -0.000487
    14  H    0.387137   0.577740  -0.015005  -0.014087   0.000425  -0.000016
    15  H    0.374040  -0.015005   0.565252  -0.013770   0.000067  -0.000020
    16  H    0.386253  -0.014087  -0.013770   0.558889  -0.002162   0.000352
    17  C    0.009505   0.000425   0.000067  -0.002162   4.607163   0.394702
    18  H   -0.000487  -0.000016  -0.000020   0.000352   0.394702   0.578321
    19  H    0.004389   0.000375  -0.000259   0.002418   0.360382  -0.018173
    20  H   -0.000566  -0.000008   0.000721  -0.000318   0.397568  -0.014962
              19         20
     1  C   -0.009968   0.000345
     2  C   -0.000021  -0.000034
     3  C    0.006281  -0.001115
     4  C    0.000206  -0.000042
     5  N   -0.013014  -0.022095
     6  H   -0.000000  -0.000007
     7  H    0.000962   0.005312
     8  H    0.000001   0.000074
     9  H    0.000923  -0.001472
    10  H   -0.000907  -0.000324
    11  H   -0.000399  -0.000040
    12  F   -0.000333   0.007033
    13  C    0.004389  -0.000566
    14  H    0.000375  -0.000008
    15  H   -0.000259   0.000721
    16  H    0.002418  -0.000318
    17  C    0.360382   0.397568
    18  H   -0.018173  -0.014962
    19  H    0.635247  -0.018055
    20  H   -0.018055   0.566358
 Mulliken charges:
               1
     1  C    0.047689
     2  C    0.148536
     3  C   -0.303408
     4  C   -0.155141
     5  N   -0.188981
     6  H    0.071090
     7  H   -0.019489
     8  H    0.056247
     9  H   -0.031336
    10  H    0.081960
    11  H    0.076003
    12  F   -0.230872
    13  C   -0.067477
    14  H    0.076486
    15  H    0.089369
    16  H    0.094754
    17  C    0.052120
    18  H    0.070879
    19  H    0.049944
    20  H    0.081627
 Sum of Mulliken charges =  -0.00000
 Mulliken charges with hydrogens summed into heavy atoms:
               1
     1  C    0.129650
     2  C    0.204783
     3  C   -0.354233
     4  C   -0.008048
     5  N   -0.188981
    12  F   -0.230872
    13  C    0.193132
    17  C    0.254570
 Electronic spatial extent (au):  <R**2>=           1206.9838
 Charge=              0.0000 electrons
 Dipole moment (field-independent basis, Debye):
    X=             -0.2442    Y=             -5.9371    Z=              1.6054  Tot=              6.1552
 Quadrupole moment (field-independent basis, Debye-Ang):
   XX=            -41.8486   YY=            -56.6005   ZZ=            -50.9548
   XY=              3.7036   XZ=             -4.1559   YZ=              6.6368
 Traceless Quadrupole moment (field-independent basis, Debye-Ang):
   XX=              7.9527   YY=             -6.7992   ZZ=             -1.1535
   XY=              3.7036   XZ=             -4.1559   YZ=              6.6368
 Octapole moment (field-independent basis, Debye-Ang**2):
  XXX=             19.6366  YYY=            -38.8761  ZZZ=             13.9289  XYY=              5.7100
  XXY=            -13.0266  XXZ=              6.6789  XZZ=              2.4969  YZZ=            -12.3944
  YYZ=             13.7179  XYZ=             -8.5802
 Hexadecapole moment (field-independent basis, Debye-Ang**3):
 XXXX=           -777.3819 YYYY=           -503.8934 ZZZZ=           -268.1033 XXXY=            -11.4364
 XXXZ=             -9.7294 YYYX=             19.2424 YYYZ=             32.3733 ZZZX=             -0.3019
 ZZZY=             19.0684 XXYY=           -221.0994 XXZZ=           -183.1874 YYZZ=           -136.9852
 XXYZ=             -1.5589 YYXZ=             -5.4936 ZZXY=              9.7324
 N-N= 3.847469046019D+02 E-N=-1.677917895214D+03  KE= 3.859553016494D+02
   1 Symmetry operations used in ECPInt.
 ECPInt:  NShTT=    3570 NPrTT=   12386 LenC2=    3545 LenP2D=    9908.
 LDataN:  DoStor=T MaxTD1= 5 Len=  102
 D1PCM: PCM CHGder 1st derivatives, ID1Alg=3 FixD1E=F DoIter=F DoCFld=F I1PDM=0.
 Calling FoFJK, ICntrl=      2127 FMM=F ISym2X=0 I1Cent= 0 IOpClX= 0 NMat=1 NMatS=1 NMatT=0.
 ***** Axes restored to original set *****
 -------------------------------------------------------------------
 Center     Atomic                   Forces (Hartrees/Bohr)
 Number     Number              X              Y              Z
 -------------------------------------------------------------------
      1        6           0.000044536   -0.000440756   -0.000021244
      2        6           0.000344324    0.000480094    0.000180261
      3        6          -0.000052225    0.000144559   -0.000211008
      4        6          -0.000576641   -0.000238518   -0.000886348
      5        7           0.000325449   -0.000439322    0.000392479
      6        1           0.000072958   -0.000040911    0.000068250
      7        1          -0.000422883    0.000351923   -0.000076149
      8        1           0.000097466   -0.000118081   -0.000002209
      9        1          -0.000101790    0.000117916   -0.000134401
     10        1          -0.000172214    0.000065393    0.000032497
     11        1           0.000712040    0.000104337    0.000417155
     12        9          -0.000163043   -0.000217046    0.000122913
     13        6           0.000010130   -0.000170960    0.000225628
     14        1           0.000035745   -0.000000258    0.000002078
     15        1          -0.000060509    0.000023279    0.000047810
     16        1           0.000029332   -0.000032837   -0.000001157
     17        6           0.000281616    0.000136914   -0.000118370
     18        1          -0.000040464    0.000038692    0.000029304
     19        1          -0.000220231    0.000247890   -0.000093653
     20        1          -0.000143596   -0.000012308    0.000026165
 -------------------------------------------------------------------
 Cartesian Forces:  Max     0.000886348 RMS     0.000252394

 GradGradGradGradGradGradGradGradGradGradGradGradGradGradGradGradGradGrad
 Berny optimization.
 FormGI is forming the generalized inverse of G from B-inverse, IUseBI=4.
 Internal  Forces:  Max     0.001168668 RMS     0.000283589
 Search for a saddle point.
 Step number   1 out of a maximum of   50
 All quantities printed in internal units (Hartrees-Bohrs-Radians)
 Swapping is turned off.
 Second derivative matrix not updated -- first step.
 ITU=  0
     Eigenvalues ---   -0.01396   0.00092   0.00101   0.00186   0.00530
     Eigenvalues ---    0.01348   0.01775   0.02365   0.02462   0.02957
     Eigenvalues ---    0.04087   0.04310   0.05541   0.05554   0.05893
     Eigenvalues ---    0.05978   0.06014   0.06190   0.09210   0.10203
     Eigenvalues ---    0.10780   0.12061   0.12227   0.12403   0.12841
     Eigenvalues ---    0.13806   0.14131   0.16403   0.17092   0.17746
     Eigenvalues ---    0.19393   0.20037   0.22680   0.23872   0.26353
     Eigenvalues ---    0.29343   0.34081   0.35043   0.35962   0.36424
     Eigenvalues ---    0.36489   0.36565   0.36646   0.36739   0.36877
     Eigenvalues ---    0.38406   0.38580   0.38886   0.39480   0.40693
     Eigenvalues ---    0.45084   0.55806   0.61267   0.67297
 Eigenvectors required to have negative eigenvalues:
                          D17       D18       D15       D16       A16
   1                    0.48135   0.44900   0.43239   0.40004   0.25905
                          R13       D3        D1        D20       D4
   1                   -0.15505  -0.15395  -0.14263  -0.13004  -0.12020
 RFO step:  Lambda0=6.343669427D-07 Lambda=-4.81350121D-05.
 Linear search not attempted -- option 19 set.
 Iteration  1 RMS(Cart)=  0.02408797 RMS(Int)=  0.00035490
 Iteration  2 RMS(Cart)=  0.00070851 RMS(Int)=  0.00000212
 Iteration  3 RMS(Cart)=  0.00000026 RMS(Int)=  0.00000212
 Variable       Old X    -DE/DX   Delta X   Delta X   Delta X     New X
                                 (Linear)    (Quad)   (Total)
    R1        2.42188   0.00053   0.00000   0.00101   0.00101   2.42289
    R2        2.06717   0.00007   0.00000   0.00022   0.00022   2.06739
    R3        2.81477   0.00017   0.00000  -0.00014  -0.00014   2.81463
    R4        2.50243  -0.00031   0.00000  -0.00053  -0.00053   2.50190
    R5        2.06615   0.00002   0.00000   0.00003   0.00003   2.06617
    R6        2.54343  -0.00013   0.00000   0.00059   0.00059   2.54402
    R7        2.80400   0.00051   0.00000   0.00088   0.00088   2.80488
    R8        2.10080   0.00006   0.00000   0.00054   0.00054   2.10134
    R9        2.09896   0.00009   0.00000   0.00001   0.00001   2.09897
   R10        2.06170   0.00002   0.00000   0.00011   0.00011   2.06181
   R11        2.07652   0.00005   0.00000   0.00068   0.00068   2.07719
   R12        2.76195  -0.00002   0.00000  -0.00015  -0.00015   2.76181
   R13        4.34923  -0.00027   0.00000  -0.04220  -0.04220   4.30702
   R14        2.07097   0.00001   0.00000  -0.00006  -0.00006   2.07091
   R15        2.07968   0.00001   0.00000   0.00058   0.00058   2.08026
   R16        2.08121   0.00003   0.00000  -0.00036  -0.00036   2.08085
   R17        2.07273  -0.00001   0.00000  -0.00040  -0.00040   2.07232
   R18        2.07489  -0.00031   0.00000  -0.00072  -0.00072   2.07417
   R19        2.07549   0.00012   0.00000   0.00063   0.00063   2.07611
    A1        1.97223  -0.00041   0.00000  -0.00171  -0.00171   1.97052
    A2        2.19867   0.00065   0.00000   0.00169   0.00168   2.20035
    A3        2.11208  -0.00024   0.00000  -0.00008  -0.00009   2.11200
    A4        2.20143  -0.00010   0.00000   0.00047   0.00047   2.20190
    A5        2.13493   0.00039   0.00000   0.00132   0.00132   2.13625
    A6        1.94682  -0.00029   0.00000  -0.00179  -0.00179   1.94503
    A7        1.79240  -0.00003   0.00000   0.00135   0.00135   1.79375
    A8        1.81564   0.00042   0.00000   0.00172   0.00172   1.81736
    A9        1.81043  -0.00003   0.00000  -0.00050  -0.00050   1.80992
   A10        2.06455  -0.00016   0.00000  -0.00143  -0.00144   2.06311
   A11        2.13276   0.00033   0.00000   0.00218   0.00217   2.13493
   A12        2.08581  -0.00016   0.00000  -0.00069  -0.00070   2.08512
   A13        2.07916   0.00012   0.00000   0.00081   0.00080   2.07996
   A14        2.11745   0.00069   0.00000   0.00218   0.00218   2.11963
   A15        2.08441  -0.00082   0.00000  -0.00326  -0.00326   2.08115
   A16        1.49986  -0.00117   0.00000  -0.00684  -0.00684   1.49303
   A17        2.46637  -0.00049   0.00000  -0.00359  -0.00359   2.46278
   A18        1.91992  -0.00001   0.00000   0.00047   0.00047   1.92038
   A19        1.92530  -0.00006   0.00000  -0.00470  -0.00470   1.92060
   A20        1.94481   0.00006   0.00000   0.00334   0.00334   1.94815
   A21        1.89671   0.00001   0.00000  -0.00035  -0.00035   1.89636
   A22        1.89062  -0.00003   0.00000   0.00151   0.00150   1.89212
   A23        1.88529   0.00004   0.00000  -0.00025  -0.00025   1.88505
   A24        1.88305  -0.00007   0.00000   0.00052   0.00052   1.88357
   A25        1.97354   0.00021   0.00000   0.00078   0.00078   1.97431
   A26        1.88293  -0.00014   0.00000  -0.00159  -0.00159   1.88134
   A27        1.91522   0.00000   0.00000   0.00119   0.00119   1.91641
   A28        1.89587   0.00004   0.00000   0.00057   0.00057   1.89644
   A29        1.91149  -0.00005   0.00000  -0.00148  -0.00148   1.91001
    D1       -0.06984  -0.00004   0.00000   0.00339   0.00338  -0.06646
    D2       -3.14032   0.00011   0.00000   0.00800   0.00800  -3.13232
    D3        3.05022  -0.00012   0.00000  -0.00202  -0.00203   3.04819
    D4       -0.02026   0.00003   0.00000   0.00259   0.00259  -0.01767
    D5       -3.09096   0.00003   0.00000  -0.03701  -0.03701  -3.12797
    D6       -0.99880  -0.00001   0.00000  -0.04012  -0.04012  -1.03891
    D7        1.09516   0.00003   0.00000  -0.04139  -0.04139   1.05377
    D8        0.02750  -0.00006   0.00000  -0.04284  -0.04284  -0.01534
    D9        2.11967  -0.00010   0.00000  -0.04595  -0.04595   2.07372
   D10       -2.06956  -0.00005   0.00000  -0.04721  -0.04722  -2.11677
   D11       -0.00102   0.00006   0.00000   0.00006   0.00006  -0.00096
   D12       -3.12979  -0.00027   0.00000  -0.00427  -0.00427  -3.13406
   D13       -3.14095   0.00021   0.00000  -0.00036  -0.00036  -3.14131
   D14        0.01347  -0.00013   0.00000  -0.00469  -0.00469   0.00878
   D15       -2.12599   0.00024   0.00000  -0.00196  -0.00196  -2.12795
   D16        0.94586   0.00016   0.00000  -0.00626  -0.00626   0.93960
   D17        2.27429   0.00015   0.00000  -0.00241  -0.00242   2.27187
   D18       -0.93705   0.00007   0.00000  -0.00672  -0.00671  -0.94376
   D19        1.44425  -0.00064   0.00000   0.00076   0.00076   1.44501
   D20       -2.95207  -0.00021   0.00000   0.00290   0.00290  -2.94917
   D21        0.53503   0.00043   0.00000   0.06108   0.06108   0.59610
   D22       -2.59359   0.00009   0.00000   0.05670   0.05670  -2.53689
   D23       -2.37046  -0.00011   0.00000  -0.02103  -0.02103  -2.39148
   D24       -0.24907  -0.00002   0.00000  -0.01866  -0.01866  -0.26773
   D25        1.86753  -0.00005   0.00000  -0.02113  -0.02113   1.84640
   D26        0.84246  -0.00000   0.00000  -0.01657  -0.01657   0.82589
   D27        2.96385   0.00009   0.00000  -0.01420  -0.01420   2.94965
   D28       -1.20274   0.00006   0.00000  -0.01667  -0.01667  -1.21941
   D29       -2.39774   0.00051   0.00000  -0.04827  -0.04827  -2.44602
         Item               Value     Threshold  Converged?
 Maximum Force            0.001169     0.000450     NO 
 RMS     Force            0.000284     0.000300     YES
 Maximum Displacement     0.090753     0.001800     NO 
 RMS     Displacement     0.024211     0.001200     NO 
 Predicted change in Energy=-2.433337D-05
 GradGradGradGradGradGradGradGradGradGradGradGradGradGradGradGradGradGrad

                          Input orientation:                          
 ---------------------------------------------------------------------
 Center     Atomic      Atomic             Coordinates (Angstroms)
 Number     Number       Type             X           Y           Z
 ---------------------------------------------------------------------
      1          6           0        1.419564    0.028724    0.630930
      2          6           0       -2.053641   -0.563265    1.036184
      3          6           0        0.697088    2.152821   -0.186655
      4          6           0       -1.794341    0.568591    1.672196
      5          7           0        1.135457    0.749506   -0.390651
      6          1           0       -2.321134    0.767361    2.606756
      7          1           0       -0.302082    2.171642   -0.674312
      8          1           0       -2.755761   -1.337464    1.357281
      9          1           0        1.338213    2.740292   -0.877707
     10          1           0        1.361837    0.582977    1.572385
     11          1           0       -1.078523    1.308516    1.287016
     12          9           0       -1.452489   -0.893839   -0.122129
     13          6           0        1.764243   -1.420179    0.613417
     14          1           0        1.946232   -1.775071    1.634141
     15          1           0        0.934198   -2.000242    0.181715
     16          1           0        2.665312   -1.615626    0.011440
     17          6           0        1.143503    0.193385   -1.742170
     18          1           0        1.630761    0.920161   -2.403202
     19          1           0        1.659633   -0.773096   -1.807460
     20          1           0        0.099330    0.072506   -2.061676
 ---------------------------------------------------------------------
                    Distance matrix (angstroms):
                    1          2          3          4          5
     1  C    0.000000
     2  C    3.546524   0.000000
     3  C    2.387930   4.054499   0.000000
     4  C    3.421239   1.323951   3.488886   0.000000
     5  N    1.282136   3.732234   1.484276   3.587726   0.000000
     6  H    4.294450   2.075769   4.339621   1.091065   4.575237
     7  H    3.042995   3.670622   1.111982   3.209782   2.041923
     8  H    4.452796   1.093371   5.146648   2.157903   4.748924
     9  H    3.104062   5.106969   1.110727   4.585976   2.059505
    10  H    1.094015   3.642372   2.449597   3.157788   1.983052
    11  H    2.882492   2.125402   2.457103   1.099202   2.833508
    12  F    3.109165   1.346236   3.729207   2.339908   3.077361
    13  C    1.489439   3.935641   3.813826   4.211857   2.472055
    14  H    2.130138   4.221968   4.505996   4.414305   3.336260
    15  H    2.134028   3.423770   4.176105   4.033034   2.815887
    16  H    2.153960   4.942275   4.256096   5.236165   2.845345
    17  C    2.394771   4.302732   2.541320   4.519912   1.461485
    18  H    3.169420   5.254022   2.702643   5.335147   2.079618
    19  H    2.578040   4.681746   3.480588   5.083116   2.144860
    20  H    2.999176   3.825731   2.863692   4.215909   2.079473
                    6          7          8          9         10
     6  H    0.000000
     7  H    4.100486   0.000000
     8  H    2.486036   4.739381   0.000000
     9  H    5.424459   1.747942   6.195472   0.000000
    10  H    3.829908   3.215607   4.548513   3.264585   0.000000
    11  H    1.891730   2.279179   3.133571   3.546353   2.561874
    12  F    3.310732   3.320469   2.020885   4.643901   3.601777
    13  C    5.044704   4.339253   4.581551   4.440098   2.257030
    14  H    5.061655   5.095136   4.730422   5.202651   2.430170
    15  H    4.913007   4.434612   3.928998   4.874245   2.964770
    16  H    6.105648   4.859947   5.592557   4.639590   2.994905
    17  C    5.589841   2.672740   5.210984   2.696654   3.344508
    18  H    6.382829   2.879435   6.203199   2.392822   3.998914
    19  H    6.140425   3.715351   5.461666   3.648513   3.653898
    20  H    5.304312   2.547995   4.672133   3.170756   3.880838
                   11         12         13         14         15
    11  H    0.000000
    12  F    2.641194   0.000000
    13  C    3.997603   3.341471   0.000000
    14  H    4.333376   3.925858   1.095877   0.000000
    15  H    4.027482   2.648155   1.100825   1.784504   0.000000
    16  H    4.918740   4.182715   1.101137   1.782037   1.781482
    17  C    3.918787   3.247424   2.921934   3.989821   2.925260
    18  H    4.594426   4.242678   3.820340   4.864560   3.961787
    19  H    4.626704   3.541218   2.508048   3.595930   2.447235
    20  H    3.758829   2.665296   3.486570   4.525887   3.166401
                   16         17         18         19         20
    16  H    0.000000
    17  C    2.943395   0.000000
    18  H    3.651166   1.096625   0.000000
    19  H    2.242687   1.097606   1.795233   0.000000
    20  H    3.705654   1.098633   1.783379   1.792824   0.000000
 Stoichiometry    C6H12FN
 Framework group  C1[X(C6H12FN)]
 Deg. of freedom    54
 Full point group                 C1      NOp   1
 Largest Abelian subgroup         C1      NOp   1
 Largest concise Abelian subgroup C1      NOp   1
                         Standard orientation:                         
 ---------------------------------------------------------------------
 Center     Atomic      Atomic             Coordinates (Angstroms)
 Number     Number       Type             X           Y           Z
 ---------------------------------------------------------------------
      1          6           0       -0.925681   -0.457683   -0.940812
      2          6           0        2.401871   -0.201174    0.258952
      3          6           0       -0.980381    1.893025   -0.524416
      4          6           0        2.289180    0.690284   -0.713391
      5          7           0       -1.245506    0.485841   -0.133752
      6          1           0        3.143856    0.843664   -1.374017
      7          1           0       -0.324187    2.256604    0.296391
      8          1           0        3.281483   -0.814150    0.473437
      9          1           0       -1.944873    2.411993   -0.339636
     10          1           0       -0.534330   -0.088702   -1.893475
     11          1           0        1.373815    1.278911   -0.867894
     12          9           0        1.400855   -0.457901    1.121744
     13          6           0       -1.017407   -1.918102   -0.662981
     14          1           0       -0.663536   -2.487992   -1.529553
     15          1           0       -0.394083   -2.176552    0.206781
     16          1           0       -2.051862   -2.225197   -0.443667
     17          6           0       -1.777762    0.202706    1.197592
     18          1           0       -2.614460    0.887930    1.379224
     19          1           0       -2.114887   -0.835203    1.315193
     20          1           0       -0.985014    0.414572    1.928110
 ---------------------------------------------------------------------
 Rotational constants (GHZ):           2.3078076           1.2917594           1.1403171
 Basis read from rwf:  (5D, 7F)
 Pseudo-potential data read from rwf file.
 There are   180 symmetry adapted cartesian basis functions of A   symmetry.
 There are   172 symmetry adapted basis functions of A   symmetry.
   172 basis functions,   284 primitive gaussians,   180 cartesian basis functions
    32 alpha electrons       32 beta electrons
       nuclear repulsion energy       384.6041723308 Hartrees.
 NAtoms=   20 NActive=   20 NUniq=   20 SFac= 1.00D+00 NAtFMM=   60 NAOKFM=F Big=F
 Integral buffers will be    131072 words long.
 Raffenetti 2 integral format.
 Two-electron integral symmetry is turned on.
 Nuclear repulsion after empirical dispersion term =      384.5918546080 Hartrees.
 ------------------------------------------------------------------------------
 Polarizable Continuum Model (PCM)
 =================================
 Model                : PCM.
 Atomic radii         : UFF (Universal Force Field).
 Polarization charges : Total charges.
 Charge compensation  : None.
 Solution method      : On-the-fly selection.
 Cavity type          : Scaled VdW (van der Waals Surface) (Alpha=1.100).
 Cavity algorithm     : GePol (No added spheres)
                        Default sphere list used, NSphG=   20.
                        Lebedev-Laikov grids with approx.  5.0 points / Ang**2.
                        Smoothing algorithm: York/Karplus (Gamma=1.0000).
                        Polarization charges: spherical gaussians, with
                                              point-specific exponents (IZeta= 3).
                        Self-potential: point-specific (ISelfS= 7).
                        Self-field    : sphere-specific E.n sum rule (ISelfD= 2).
 1st derivatives      : Analytical E(r).r(x)/FMM algorithm (CHGder, D1EAlg=3).
                        Cavity 1st derivative terms included.
 Solvent              : Toluene, Eps=   2.374100 Eps(inf)=   2.238315
 ------------------------------------------------------------------------------
 Spheres list:
 ISph  on   Nord     Re0    Alpha      Xe            Ye            Ze
    1   C      1    1.9255  1.100     -0.925681     -0.457683     -0.940812
    2   C      2    1.9255  1.100      2.401871     -0.201174      0.258952
    3   C      3    1.9255  1.100     -0.980381      1.893025     -0.524416
    4   C      4    1.9255  1.100      2.289180      0.690284     -0.713391
    5   N      5    1.8300  1.100     -1.245506      0.485841     -0.133752
    6   H      6    1.4430  1.100      3.143856      0.843664     -1.374017
    7   H      7    1.4430  1.100     -0.324187      2.256604      0.296391
    8   H      8    1.4430  1.100      3.281483     -0.814150      0.473437
    9   H      9    1.4430  1.100     -1.944873      2.411993     -0.339636
   10   H     10    1.4430  1.100     -0.534330     -0.088702     -1.893475
   11   H     11    1.4430  1.100      1.373815      1.278911     -0.867894
   12   F     12    1.6820  1.100      1.400855     -0.457901      1.121744
   13   C     13    1.9255  1.100     -1.017407     -1.918102     -0.662981
   14   H     14    1.4430  1.100     -0.663536     -2.487992     -1.529553
   15   H     15    1.4430  1.100     -0.394083     -2.176552      0.206781
   16   H     16    1.4430  1.100     -2.051862     -2.225197     -0.443667
   17   C     17    1.9255  1.100     -1.777762      0.202706      1.197592
   18   H     18    1.4430  1.100     -2.614460      0.887930      1.379224
   19   H     19    1.4430  1.100     -2.114887     -0.835203      1.315193
   20   H     20    1.4430  1.100     -0.985014      0.414572      1.928110
 ------------------------------------------------------------------------------
 One-electron integrals computed using PRISM.
   1 Symmetry operations used in ECPInt.
 ECPInt:  NShTT=    3570 NPrTT=   12386 LenC2=    3546 LenP2D=    9910.
 LDataN:  DoStor=T MaxTD1= 4 Len=   56
 NBasis=   172 RedAO= T EigKep=  2.98D-03  NBF=   172
 NBsUse=   172 1.00D-06 EigRej= -1.00D+00 NBFU=   172
 Initial guess from the checkpoint file:  "allylic-1_1_opt_dft.chk"
 B after Tr=    -0.000000   -0.000000   -0.000000
         Rot=    0.999987   -0.004339   -0.001796    0.002067 Ang=  -0.59 deg.
 ExpMin= 1.22D-01 ExpMax= 2.89D+03 ExpMxC= 4.35D+02 IAcc=3 IRadAn=         5 AccDes= 0.00D+00
 Harris functional with IExCor= 4639 and IRadAn=       5 diagonalized for initial guess.
 HarFok:  IExCor= 4639 AccDes= 0.00D+00 IRadAn=         5 IDoV= 1 UseB2=F ITyADJ=14
 ICtDFT=  3500011 ScaDFX=  1.000000  1.000000  1.000000  1.000000
 FoFCou: FMM=F IPFlag=           0 FMFlag=      100000 FMFlg1=           0
         NFxFlg=           0 DoJE=T BraDBF=F KetDBF=T FulRan=T
         wScrn=  0.000000 ICntrl=       500 IOpCl=  0 I1Cent=   200000004 NGrid=           0
         NMat0=    1 NMatS0=      1 NMatT0=    0 NMatD0=    1 NMtDS0=    0 NMtDT0=    0
 Petite list used in FoFCou.
 Requested convergence on RMS density matrix=1.00D-08 within 128 cycles.
 Requested convergence on MAX density matrix=1.00D-06.
 Requested convergence on             energy=1.00D-06.
 No special actions if energy rises.
 Inv3:  Mode=1 IEnd=     6995187.
 Iteration    1 A*A^-1 deviation from unit magnitude is 3.11D-15 for    426.
 Iteration    1 A*A^-1 deviation from orthogonality  is 1.87D-15 for   1169    239.
 Iteration    1 A^-1*A deviation from unit magnitude is 3.00D-15 for   1266.
 Iteration    1 A^-1*A deviation from orthogonality  is 7.65D-14 for   1173   1149.
 Error on total polarization charges =  0.00605
 SCF Done:  E(RwB97XD) =  -389.899473000     A.U. after   12 cycles
            NFock= 12  Conv=0.88D-08     -V/T= 2.0102
   1 Symmetry operations used in ECPInt.
 ECPInt:  NShTT=    3570 NPrTT=   12386 LenC2=    3546 LenP2D=    9910.
 LDataN:  DoStor=T MaxTD1= 5 Len=  102
 D1PCM: PCM CHGder 1st derivatives, ID1Alg=3 FixD1E=F DoIter=F DoCFld=F I1PDM=0.
 Calling FoFJK, ICntrl=      2127 FMM=F ISym2X=0 I1Cent= 0 IOpClX= 0 NMat=1 NMatS=1 NMatT=0.
 ***** Axes restored to original set *****
 -------------------------------------------------------------------
 Center     Atomic                   Forces (Hartrees/Bohr)
 Number     Number              X              Y              Z
 -------------------------------------------------------------------
      1        6          -0.000206293    0.000128094   -0.000447528
      2        6           0.000060482    0.000109427    0.000043652
      3        6          -0.000181837    0.000209756    0.000142056
      4        6          -0.000305840   -0.000281779   -0.000542308
      5        7           0.000288421   -0.000378606    0.000388204
      6        1           0.000071604   -0.000031334    0.000064598
      7        1          -0.000181438    0.000202459   -0.000139734
      8        1           0.000010373   -0.000026847    0.000051111
      9        1           0.000033323   -0.000074466   -0.000045415
     10        1          -0.000015757    0.000003960    0.000032246
     11        1           0.000396861    0.000291151    0.000380422
     12        9           0.000086156   -0.000039859    0.000084903
     13        6           0.000040626    0.000002396   -0.000025783
     14        1           0.000003340   -0.000002934   -0.000010612
     15        1          -0.000003898    0.000014019   -0.000013106
     16        1          -0.000006918   -0.000032702    0.000014211
     17        6          -0.000095007   -0.000073239    0.000027380
     18        1           0.000012363    0.000004217    0.000023596
     19        1          -0.000027157   -0.000058223   -0.000000732
     20        1           0.000020597    0.000034511   -0.000027160
 -------------------------------------------------------------------
 Cartesian Forces:  Max     0.000542308 RMS     0.000171522

 GradGradGradGradGradGradGradGradGradGradGradGradGradGradGradGradGradGrad
 Berny optimization.
 FormGI is forming the generalized inverse of G from B-inverse, IUseBI=4.
 Internal  Forces:  Max     0.000821645 RMS     0.000182350
 Search for a saddle point.
 Step number   2 out of a maximum of   50
 All quantities printed in internal units (Hartrees-Bohrs-Radians)
 Swapping is turned off.
 Update second derivatives using D2CorX and points    1    2
 ITU=  0  0
     Eigenvalues ---   -0.01403   0.00078   0.00125   0.00179   0.00545
     Eigenvalues ---    0.01350   0.01775   0.02364   0.02463   0.02961
     Eigenvalues ---    0.04088   0.04309   0.05541   0.05554   0.05894
     Eigenvalues ---    0.05978   0.06014   0.06187   0.09209   0.10201
     Eigenvalues ---    0.10779   0.12061   0.12227   0.12403   0.12843
     Eigenvalues ---    0.13805   0.14131   0.16403   0.17091   0.17744
     Eigenvalues ---    0.19393   0.20036   0.22677   0.23874   0.26345
     Eigenvalues ---    0.29341   0.34082   0.35042   0.35961   0.36424
     Eigenvalues ---    0.36489   0.36565   0.36646   0.36739   0.36877
     Eigenvalues ---    0.38407   0.38580   0.38886   0.39480   0.40693
     Eigenvalues ---    0.45084   0.55796   0.61271   0.67295
 Eigenvectors required to have negative eigenvalues:
                          D17       D18       D15       D16       A16
   1                    0.48042   0.44923   0.43172   0.40054   0.25973
                          D3        R13       D1        D20       D4
   1                   -0.15380  -0.14629  -0.14322  -0.13037  -0.12109
 RFO step:  Lambda0=6.159337843D-07 Lambda=-1.05788424D-05.
 Linear search not attempted -- option 19 set.
 Iteration  1 RMS(Cart)=  0.01067278 RMS(Int)=  0.00008985
 Iteration  2 RMS(Cart)=  0.00017333 RMS(Int)=  0.00000023
 Iteration  3 RMS(Cart)=  0.00000002 RMS(Int)=  0.00000023
 Variable       Old X    -DE/DX   Delta X   Delta X   Delta X     New X
                                 (Linear)    (Quad)   (Total)
    R1        2.42289  -0.00044   0.00000  -0.00101  -0.00101   2.42188
    R2        2.06739   0.00004   0.00000   0.00002   0.00002   2.06741
    R3        2.81463   0.00001   0.00000   0.00024   0.00024   2.81487
    R4        2.50190  -0.00014   0.00000  -0.00001  -0.00001   2.50190
    R5        2.06617   0.00003   0.00000   0.00004   0.00004   2.06621
    R6        2.54402  -0.00002   0.00000   0.00011   0.00011   2.54413
    R7        2.80488   0.00034   0.00000   0.00162   0.00162   2.80650
    R8        2.10134  -0.00006   0.00000   0.00025   0.00025   2.10159
    R9        2.09897   0.00001   0.00000   0.00019   0.00019   2.09916
   R10        2.06181   0.00001   0.00000   0.00003   0.00003   2.06185
   R11        2.07719   0.00013   0.00000   0.00021   0.00021   2.07740
   R12        2.76181   0.00001   0.00000  -0.00023  -0.00023   2.76157
   R13        4.30702  -0.00007   0.00000   0.00198   0.00198   4.30901
   R14        2.07091  -0.00000   0.00000  -0.00001  -0.00001   2.07090
   R15        2.08026  -0.00001   0.00000   0.00016   0.00016   2.08042
   R16        2.08085  -0.00001   0.00000  -0.00031  -0.00031   2.08054
   R17        2.07232  -0.00001   0.00000   0.00018   0.00018   2.07251
   R18        2.07417   0.00004   0.00000  -0.00000  -0.00000   2.07417
   R19        2.07611  -0.00002   0.00000  -0.00022  -0.00022   2.07590
    A1        1.97052  -0.00001   0.00000  -0.00001  -0.00001   1.97052
    A2        2.20035   0.00003   0.00000   0.00072   0.00072   2.20107
    A3        2.11200  -0.00002   0.00000  -0.00067  -0.00067   2.11132
    A4        2.20190  -0.00002   0.00000  -0.00018  -0.00018   2.20173
    A5        2.13625  -0.00000   0.00000  -0.00010  -0.00010   2.13616
    A6        1.94503   0.00002   0.00000   0.00027   0.00027   1.94530
    A7        1.79375  -0.00032   0.00000  -0.00043  -0.00043   1.79332
    A8        1.81736   0.00010   0.00000  -0.00179  -0.00179   1.81557
    A9        1.80992   0.00011   0.00000  -0.00091  -0.00091   1.80901
   A10        2.06311  -0.00000   0.00000  -0.00015  -0.00015   2.06296
   A11        2.13493   0.00003   0.00000   0.00018   0.00018   2.13511
   A12        2.08512  -0.00002   0.00000  -0.00003  -0.00003   2.08509
   A13        2.07996   0.00007   0.00000  -0.00031  -0.00031   2.07965
   A14        2.11963  -0.00015   0.00000   0.00038   0.00038   2.12001
   A15        2.08115   0.00007   0.00000  -0.00006  -0.00006   2.08109
   A16        1.49303  -0.00082   0.00000   0.00067   0.00067   1.49370
   A17        2.46278  -0.00062   0.00000  -0.01501  -0.01501   2.44777
   A18        1.92038  -0.00001   0.00000  -0.00009  -0.00009   1.92030
   A19        1.92060  -0.00003   0.00000  -0.00096  -0.00096   1.91964
   A20        1.94815   0.00006   0.00000   0.00116   0.00116   1.94931
   A21        1.89636   0.00001   0.00000  -0.00025  -0.00025   1.89611
   A22        1.89212  -0.00002   0.00000   0.00016   0.00016   1.89228
   A23        1.88505  -0.00001   0.00000  -0.00003  -0.00003   1.88501
   A24        1.88357  -0.00004   0.00000   0.00005   0.00005   1.88362
   A25        1.97431   0.00000   0.00000   0.00045   0.00045   1.97477
   A26        1.88134   0.00004   0.00000  -0.00013  -0.00013   1.88121
   A27        1.91641   0.00002   0.00000   0.00008   0.00008   1.91649
   A28        1.89644  -0.00001   0.00000  -0.00035  -0.00035   1.89609
   A29        1.91001  -0.00001   0.00000  -0.00013  -0.00013   1.90987
    D1       -0.06646  -0.00001   0.00000  -0.00064  -0.00064  -0.06710
    D2       -3.13232   0.00006   0.00000  -0.00071  -0.00071  -3.13303
    D3        3.04819  -0.00002   0.00000   0.00075   0.00075   3.04894
    D4       -0.01767   0.00005   0.00000   0.00068   0.00068  -0.01698
    D5       -3.12797   0.00001   0.00000  -0.01395  -0.01395   3.14126
    D6       -1.03891   0.00000   0.00000  -0.01492  -0.01492  -1.05383
    D7        1.05377   0.00001   0.00000  -0.01485  -0.01485   1.03892
    D8       -0.01534   0.00001   0.00000  -0.01245  -0.01245  -0.02778
    D9        2.07372  -0.00000   0.00000  -0.01341  -0.01341   2.06031
   D10       -2.11677   0.00001   0.00000  -0.01335  -0.01335  -2.13012
   D11       -0.00096   0.00007   0.00000   0.00133   0.00133   0.00038
   D12       -3.13406  -0.00014   0.00000   0.00097   0.00097  -3.13309
   D13       -3.14131   0.00024   0.00000   0.00105   0.00105  -3.14026
   D14        0.00878   0.00003   0.00000   0.00068   0.00068   0.00946
   D15       -2.12795   0.00012   0.00000   0.00522   0.00522  -2.12273
   D16        0.93960   0.00004   0.00000   0.00530   0.00530   0.94490
   D17        2.27187   0.00007   0.00000   0.00692   0.00692   2.27879
   D18       -0.94376  -0.00000   0.00000   0.00700   0.00700  -0.93676
   D19        1.44501  -0.00030   0.00000   0.00255   0.00255   1.44755
   D20       -2.94917  -0.00026   0.00000   0.00019   0.00019  -2.94898
   D21        0.59610   0.00037   0.00000   0.01874   0.01874   0.61484
   D22       -2.53689   0.00015   0.00000   0.01837   0.01837  -2.51852
   D23       -2.39148  -0.00000   0.00000   0.01222   0.01222  -2.37926
   D24       -0.26773  -0.00000   0.00000   0.01265   0.01265  -0.25508
   D25        1.84640   0.00001   0.00000   0.01267   0.01267   1.85907
   D26        0.82589   0.00007   0.00000   0.01217   0.01217   0.83806
   D27        2.94965   0.00007   0.00000   0.01259   0.01259   2.96224
   D28       -1.21941   0.00007   0.00000   0.01262   0.01262  -1.20679
   D29       -2.44602   0.00072   0.00000  -0.01692  -0.01692  -2.46293
         Item               Value     Threshold  Converged?
 Maximum Force            0.000822     0.000450     NO 
 RMS     Force            0.000182     0.000300     YES
 Maximum Displacement     0.040412     0.001800     NO 
 RMS     Displacement     0.010710     0.001200     NO 
 Predicted change in Energy=-4.999609D-06
 GradGradGradGradGradGradGradGradGradGradGradGradGradGradGradGradGradGrad

                          Input orientation:                          
 ---------------------------------------------------------------------
 Center     Atomic      Atomic             Coordinates (Angstroms)
 Number     Number       Type             X           Y           Z
 ---------------------------------------------------------------------
      1          6           0        1.421946    0.027238    0.629636
      2          6           0       -2.058033   -0.559169    1.035307
      3          6           0        0.694144    2.150583   -0.185452
      4          6           0       -1.799185    0.570383    1.675576
      5          7           0        1.136095    0.747710   -0.391008
      6          1           0       -2.335934    0.771430    2.603984
      7          1           0       -0.307643    2.165535   -0.668147
      8          1           0       -2.769746   -1.328578    1.346716
      9          1           0        1.329566    2.737823   -0.882109
     10          1           0        1.363611    0.580902    1.571412
     11          1           0       -1.073854    1.306161    1.300060
     12          9           0       -1.444228   -0.892861   -0.115519
     13          6           0        1.771138   -1.420715    0.612084
     14          1           0        1.967617   -1.771730    1.631455
     15          1           0        0.936406   -2.004066    0.193841
     16          1           0        2.664127   -1.616469   -0.001426
     17          6           0        1.145258    0.193067   -1.742993
     18          1           0        1.641932    0.916245   -2.401119
     19          1           0        1.652617   -0.778100   -1.807481
     20          1           0        0.101568    0.082310   -2.067316
 ---------------------------------------------------------------------
                    Distance matrix (angstroms):
                    1          2          3          4          5
     1  C    0.000000
     2  C    3.552280   0.000000
     3  C    2.388024   4.050616   0.000000
     4  C    3.429968   1.323946   3.489577   0.000000
     5  N    1.281602   3.734269   1.485136   3.594174   0.000000
     6  H    4.309701   2.075686   4.343315   1.091082   4.585359
     7  H    3.041058   3.659185   1.112113   3.203474   2.042404
     8  H    4.463487   1.093390   5.143018   2.157820   4.752500
     9  H    3.105025   5.101222   1.110830   4.585698   2.058923
    10  H    1.094024   3.646206   2.449215   3.164528   1.982594
    11  H    2.883423   2.125596   2.458782   1.099312   2.838213
    12  F    3.101095   1.346294   3.720226   2.339893   3.070087
    13  C    1.489567   3.947648   3.814466   4.224061   2.472153
    14  H    2.130184   4.246358   4.506377   4.435791   3.336070
    15  H    2.133509   3.429643   4.178954   4.038166   2.820318
    16  H    2.154768   4.948888   4.255042   5.245552   2.841829
    17  C    2.394457   4.306493   2.541910   4.527552   1.461361
    18  H    3.166102   5.260761   2.707595   5.346059   2.079620
    19  H    2.577075   4.679561   3.482360   5.085767   2.145061
    20  H    3.003329   3.834272   2.858376   4.226147   2.079186
                    6          7          8          9         10
     6  H    0.000000
     7  H    4.094426   0.000000
     8  H    2.485749   4.725510   0.000000
     9  H    5.427285   1.747497   6.189316   0.000000
    10  H    3.845664   3.212440   4.558645   3.266991   0.000000
    11  H    1.891824   2.280228   3.133700   3.547949   2.557512
    12  F    3.310695   3.309231   2.021133   4.632867   3.591890
    13  C    5.063714   4.338377   4.600847   4.440838   2.256737
    14  H    5.092546   5.095787   4.766558   5.202037   2.429673
    15  H    4.921420   4.435792   3.939666   4.878294   2.960112
    16  H    6.122976   4.855871   5.606010   4.638590   2.998933
    17  C    5.599054   2.675228   5.214304   2.692745   3.344155
    18  H    6.394954   2.892190   6.208736   2.392303   3.996363
    19  H    6.145779   3.715601   5.459788   3.649985   3.653400
    20  H    5.313882   2.542627   4.678746   3.156651   3.883515
                   11         12         13         14         15
    11  H    0.000000
    12  F    2.641352   0.000000
    13  C    4.000393   3.338654   0.000000
    14  H    4.339791   3.932559   1.095871   0.000000
    15  H    4.027712   2.645353   1.100910   1.784409   0.000000
    16  H    4.920177   4.173153   1.100974   1.782003   1.781399
    17  C    3.927290   3.245512   2.922740   3.990440   2.936382
    18  H    4.607196   4.245140   3.815425   4.857256   3.969861
    19  H    4.629752   3.530772   2.506252   3.593440   2.453821
    20  H    3.770763   2.673940   3.496532   4.538780   3.187907
                   16         17         18         19         20
    16  H    0.000000
    17  C    2.935037   0.000000
    18  H    3.635663   1.096722   0.000000
    19  H    2.233349   1.097606   1.795362   0.000000
    20  H    3.704114   1.098518   1.783141   1.792644   0.000000
 Stoichiometry    C6H12FN
 Framework group  C1[X(C6H12FN)]
 Deg. of freedom    54
 Full point group                 C1      NOp   1
 Largest Abelian subgroup         C1      NOp   1
 Largest concise Abelian subgroup C1      NOp   1
                         Standard orientation:                         
 ---------------------------------------------------------------------
 Center     Atomic      Atomic             Coordinates (Angstroms)
 Number     Number       Type             X           Y           Z
 ---------------------------------------------------------------------
      1          6           0       -0.928759   -0.456365   -0.939302
      2          6           0        2.403969   -0.206807    0.264582
      3          6           0       -0.966614    1.895522   -0.527169
      4          6           0        2.299357    0.680509   -0.712435
      5          7           0       -1.242920    0.490171   -0.134395
      6          1           0        3.161170    0.834349   -1.363642
      7          1           0       -0.304489    2.253511    0.291506
      8          1           0        3.283731   -0.814852    0.492177
      9          1           0       -1.926262    2.421769   -0.337213
     10          1           0       -0.533780   -0.091523   -1.892072
     11          1           0        1.383620    1.265127   -0.880171
     12          9           0        1.393437   -0.464636    1.115967
     13          6           0       -1.032006   -1.916039   -0.660904
     14          1           0       -0.693855   -2.488987   -1.531719
     15          1           0       -0.400250   -2.180325    0.201094
     16          1           0       -2.066228   -2.213804   -0.428812
     17          6           0       -1.779460    0.213304    1.196412
     18          1           0       -2.619487    0.896566    1.370507
     19          1           0       -2.112973   -0.825115    1.319675
     20          1           0       -0.990604    0.433070    1.928635
 ---------------------------------------------------------------------
 Rotational constants (GHZ):           2.3102444           1.2908599           1.1386656
 Basis read from rwf:  (5D, 7F)
 Pseudo-potential data read from rwf file.
 There are   180 symmetry adapted cartesian basis functions of A   symmetry.
 There are   172 symmetry adapted basis functions of A   symmetry.
   172 basis functions,   284 primitive gaussians,   180 cartesian basis functions
    32 alpha electrons       32 beta electrons
       nuclear repulsion energy       384.5757349549 Hartrees.
 NAtoms=   20 NActive=   20 NUniq=   20 SFac= 1.00D+00 NAtFMM=   60 NAOKFM=F Big=F
 Integral buffers will be    131072 words long.
 Raffenetti 2 integral format.
 Two-electron integral symmetry is turned on.
 Nuclear repulsion after empirical dispersion term =      384.5634305928 Hartrees.
 ------------------------------------------------------------------------------
 Polarizable Continuum Model (PCM)
 =================================
 Model                : PCM.
 Atomic radii         : UFF (Universal Force Field).
 Polarization charges : Total charges.
 Charge compensation  : None.
 Solution method      : On-the-fly selection.
 Cavity type          : Scaled VdW (van der Waals Surface) (Alpha=1.100).
 Cavity algorithm     : GePol (No added spheres)
                        Default sphere list used, NSphG=   20.
                        Lebedev-Laikov grids with approx.  5.0 points / Ang**2.
                        Smoothing algorithm: York/Karplus (Gamma=1.0000).
                        Polarization charges: spherical gaussians, with
                                              point-specific exponents (IZeta= 3).
                        Self-potential: point-specific (ISelfS= 7).
                        Self-field    : sphere-specific E.n sum rule (ISelfD= 2).
 1st derivatives      : Analytical E(r).r(x)/FMM algorithm (CHGder, D1EAlg=3).
                        Cavity 1st derivative terms included.
 Solvent              : Toluene, Eps=   2.374100 Eps(inf)=   2.238315
 ------------------------------------------------------------------------------
 Spheres list:
 ISph  on   Nord     Re0    Alpha      Xe            Ye            Ze
    1   C      1    1.9255  1.100     -0.928759     -0.456365     -0.939302
    2   C      2    1.9255  1.100      2.403969     -0.206807      0.264582
    3   C      3    1.9255  1.100     -0.966614      1.895522     -0.527169
    4   C      4    1.9255  1.100      2.299357      0.680509     -0.712435
    5   N      5    1.8300  1.100     -1.242920      0.490171     -0.134395
    6   H      6    1.4430  1.100      3.161170      0.834349     -1.363642
    7   H      7    1.4430  1.100     -0.304489      2.253511      0.291506
    8   H      8    1.4430  1.100      3.283731     -0.814852      0.492177
[...]
      7          1           0       -0.307829    2.172505   -0.666640
      8          1           0       -2.759981   -1.331459    1.339306
      9          1           0        1.331710    2.737017   -0.886177
     10          1           0        1.364538    0.585363    1.572569
     11          1           0       -1.064230    1.305696    1.302347
     12          9           0       -1.438189   -0.893339   -0.124917
     13          6           0        1.765106   -1.419157    0.616780
     14          1           0        1.946457   -1.771806    1.638404
     15          1           0        0.936326   -2.001159    0.185464
     16          1           0        2.667283   -1.614601    0.016547
     17          6           0        1.138625    0.192233   -1.740939
     18          1           0        1.653220    0.904872   -2.396994
     19          1           0        1.627446   -0.788616   -1.801434
     20          1           0        0.094972    0.101722   -2.071306
 ---------------------------------------------------------------------
                    Distance matrix (angstroms):
                    1          2          3          4          5
     1  C    0.000000
     2  C    3.540414   0.000000
     3  C    2.388523   4.047134   0.000000
     4  C    3.415514   1.323869   3.485577   0.000000
     5  N    1.281791   3.721164   1.484927   3.580404   0.000000
     6  H    4.294250   2.074213   4.340719   1.091180   4.572289
     7  H    3.043062   3.657399   1.112247   3.200124   2.043939
     8  H    4.451735   1.093417   5.139629   2.157002   4.739954
     9  H    3.105139   5.096255   1.110770   4.582064   2.058945
    10  H    1.094096   3.642089   2.450130   3.156003   1.982792
    11  H    2.871445   2.128664   2.456476   1.099609   2.828129
    12  F    3.096530   1.346072   3.720211   2.340839   3.061737
    13  C    1.489557   3.931024   3.814967   4.206104   2.472555
    14  H    2.129901   4.219340   4.506137   4.407723   3.336122
    15  H    2.134515   3.419833   4.178261   4.028752   2.816288
    16  H    2.153999   4.937218   4.257651   5.230658   2.847238
    17  C    2.394723   4.288903   2.541073   4.511901   1.461300
    18  H    3.161347   5.252170   2.712842   5.340220   2.079564
    19  H    2.575490   4.644625   3.482850   5.056836   2.145106
    20  H    3.010809   3.826272   2.849647   4.215830   2.079011
                    6          7          8          9         10
     6  H    0.000000
     7  H    4.091673   0.000000
     8  H    2.482164   4.723836   0.000000
     9  H    5.426092   1.747844   6.184432   0.000000
    10  H    3.835301   3.214014   4.554149   3.267434   0.000000
    11  H    1.890752   2.280440   3.135526   3.546666   2.547708
    12  F    3.310294   3.312186   2.020651   4.629400   3.594900
    13  C    5.042901   4.340998   4.583246   4.440777   2.256566
    14  H    5.059589   5.094372   4.736446   5.203932   2.428829
    15  H    4.910315   4.437733   3.929698   4.873916   2.966062
    16  H    6.104071   4.864176   5.593304   4.640608   2.993024
    17  C    5.584015   2.677279   5.196986   2.691435   3.344387
    18  H    6.390289   2.906326   6.199794   2.396391   3.992850
    19  H    6.116813   3.715008   5.422955   3.654483   3.652511
    20  H    5.303567   2.534457   4.673011   3.143060   3.888898
                   11         12         13         14         15
    11  H    0.000000
    12  F    2.648148   0.000000
    13  C    3.987477   3.329820   0.000000
    14  H    4.318356   3.916227   1.095885   0.000000
    15  H    4.023051   2.638546   1.100744   1.784377   0.000000
    16  H    4.909746   4.170747   1.101091   1.781775   1.781621
    17  C    3.918413   3.229546   2.923679   3.991241   2.926247
    18  H    4.607636   4.237063   3.807422   4.851291   3.953231
    19  H    4.611369   3.495683   2.502857   3.591784   2.428100
    20  H    3.764948   2.670049   3.511157   4.549730   3.197342
                   16         17         18         19         20
    16  H    0.000000
    17  C    2.947915   0.000000
    18  H    3.633352   1.096845   0.000000
    19  H    2.251348   1.097575   1.795343   0.000000
    20  H    3.731176   1.098428   1.783047   1.792766   0.000000
 Stoichiometry    C6H12FN
 Framework group  C1[X(C6H12FN)]
 Deg. of freedom    54
 Full point group                 C1      NOp   1
 Largest Abelian subgroup         C1      NOp   1
 Largest concise Abelian subgroup C1      NOp   1
                         Standard orientation:                         
 ---------------------------------------------------------------------
 Center     Atomic      Atomic             Coordinates (Angstroms)
 Number     Number       Type             X           Y           Z
 ---------------------------------------------------------------------
      1          6           0       -0.923362   -0.458359   -0.940459
      2          6           0        2.395452   -0.199262    0.264895
      3          6           0       -0.976564    1.893659   -0.527875
      4          6           0        2.287283    0.684672   -0.714692
      5          7           0       -1.240171    0.486356   -0.134149
      6          1           0        3.148886    0.836058   -1.366917
      7          1           0       -0.312893    2.258575    0.286661
      8          1           0        3.277558   -0.804320    0.491507
      9          1           0       -1.939427    2.412550   -0.334336
     10          1           0       -0.535014   -0.091017   -1.895074
     11          1           0        1.371121    1.267295   -0.888868
     12          9           0        1.388428   -0.458442    1.119668
     13          6           0       -1.015862   -1.918744   -0.662076
     14          1           0       -0.661557   -2.488679   -1.528451
     15          1           0       -0.393398   -2.177731    0.208041
     16          1           0       -2.050678   -2.225425   -0.444126
     17          6           0       -1.770937    0.206535    1.198287
     18          1           0       -2.626987    0.871224    1.366918
     19          1           0       -2.080232   -0.838418    1.328980
     20          1           0       -0.988096    0.450369    1.929210
 ---------------------------------------------------------------------
 Rotational constants (GHZ):           2.3075703           1.2978768           1.1452996

 **********************************************************************

            Population analysis using the SCF Density.

 **********************************************************************

 Orbital symmetries:
       Occupied  (A) (A) (A) (A) (A) (A) (A) (A) (A) (A) (A) (A)
                 (A) (A) (A) (A) (A) (A) (A) (A) (A) (A) (A) (A)
                 (A) (A) (A) (A) (A) (A) (A) (A)
       Virtual   (A) (A) (A) (A) (A) (A) (A) (A) (A) (A) (A) (A)
                 (A) (A) (A) (A) (A) (A) (A) (A) (A) (A) (A) (A)
                 (A) (A) (A) (A) (A) (A) (A) (A) (A) (A) (A) (A)
                 (A) (A) (A) (A) (A) (A) (A) (A) (A) (A) (A) (A)
                 (A) (A) (A) (A) (A) (A) (A) (A) (A) (A) (A) (A)
                 (A) (A) (A) (A) (A) (A) (A) (A) (A) (A) (A) (A)
                 (A) (A) (A) (A) (A) (A) (A) (A) (A) (A) (A) (A)
                 (A) (A) (A) (A) (A) (A) (A) (A) (A) (A) (A) (A)
                 (A) (A) (A) (A) (A) (A) (A) (A) (A) (A) (A) (A)
                 (A) (A) (A) (A) (A) (A) (A) (A) (A) (A) (A) (A)
                 (A) (A) (A) (A) (A) (A) (A) (A) (A) (A) (A) (A)
                 (A) (A) (A) (A) (A) (A) (A) (A)
 The electronic state is 1-A.
 Alpha  occ. eigenvalues --  -24.82785 -14.52797 -10.37909 -10.37702 -10.34000
 Alpha  occ. eigenvalues --  -10.32438 -10.29225 -10.23170  -1.31074  -1.08262
 Alpha  occ. eigenvalues --   -0.87366  -0.85644  -0.82209  -0.74816  -0.69453
 Alpha  occ. eigenvalues --   -0.65607  -0.61754  -0.58437  -0.57670  -0.56362
 Alpha  occ. eigenvalues --   -0.56199  -0.55562  -0.51703  -0.49765  -0.48712
 Alpha  occ. eigenvalues --   -0.48441  -0.46088  -0.45170  -0.44299  -0.37055
 Alpha  occ. eigenvalues --   -0.34609  -0.22340
 Alpha virt. eigenvalues --    0.02601   0.09009   0.13262   0.16437   0.16692
 Alpha virt. eigenvalues --    0.17040   0.19362   0.20794   0.21179   0.21586
 Alpha virt. eigenvalues --    0.22624   0.22912   0.24365   0.25106   0.27207
 Alpha virt. eigenvalues --    0.28948   0.32327   0.36034   0.37479   0.41356
 Alpha virt. eigenvalues --    0.44215   0.48875   0.48882   0.51135   0.53634
 Alpha virt. eigenvalues --    0.54842   0.55843   0.56975   0.58500   0.59907
 Alpha virt. eigenvalues --    0.61947   0.65427   0.66631   0.67970   0.69423
 Alpha virt. eigenvalues --    0.71095   0.71679   0.72160   0.72962   0.74282
 Alpha virt. eigenvalues --    0.74859   0.75000   0.75379   0.76495   0.76721
 Alpha virt. eigenvalues --    0.77663   0.80106   0.82146   0.83467   0.84384
 Alpha virt. eigenvalues --    0.88470   0.88711   0.91742   0.92129   1.00307
 Alpha virt. eigenvalues --    1.08429   1.11062   1.15052   1.19208   1.20737
 Alpha virt. eigenvalues --    1.27923   1.28142   1.30715   1.32780   1.33742
 Alpha virt. eigenvalues --    1.36107   1.39727   1.46058   1.49165   1.55167
 Alpha virt. eigenvalues --    1.59000   1.59656   1.60423   1.61825   1.64838
 Alpha virt. eigenvalues --    1.66954   1.68411   1.71483   1.73679   1.76469
 Alpha virt. eigenvalues --    1.77569   1.79570   1.81604   1.82645   1.84933
 Alpha virt. eigenvalues --    1.85228   1.85503   1.88300   1.91245   1.91685
 Alpha virt. eigenvalues --    1.93101   1.96491   1.97551   1.98394   2.02671
 Alpha virt. eigenvalues --    2.04530   2.05144   2.05590   2.10416   2.13688
 Alpha virt. eigenvalues --    2.17332   2.18298   2.18576   2.21403   2.24061
 Alpha virt. eigenvalues --    2.31820   2.34486   2.35623   2.38055   2.40210
 Alpha virt. eigenvalues --    2.41887   2.49956   2.51755   2.52352   2.55013
 Alpha virt. eigenvalues --    2.58117   2.63203   2.72238   2.73716   2.76717
 Alpha virt. eigenvalues --    2.78918   2.81521   2.84347   2.88206   2.91705
 Alpha virt. eigenvalues --    2.94357   2.98840   3.01742   3.02464   3.05640
 Alpha virt. eigenvalues --    3.08106   3.10348   3.14707   3.17346   3.29379
 Alpha virt. eigenvalues --    3.31488   3.39556   3.44920   3.61269   3.94561
          Condensed to atoms (all electrons):
               1          2          3          4          5          6
     1  C    4.922893  -0.000983  -0.090097   0.007566   0.539429  -0.000026
     2  C   -0.000983   4.545367  -0.000167   0.611095  -0.000848  -0.005774
     3  C   -0.090097  -0.000167   5.349333  -0.031787   0.264219   0.000241
     4  C    0.007566   0.611095  -0.031787   5.002926   0.000281   0.370467
     5  N    0.539429  -0.000848   0.264219   0.000281   6.285759   0.000057
     6  H   -0.000026  -0.005774   0.000241   0.370467   0.000057   0.591413
     7  H   -0.000042  -0.000114   0.363497   0.002741  -0.033862   0.000108
     8  H    0.000274   0.421859  -0.000048  -0.061823  -0.000029  -0.006868
     9  H    0.004248   0.000009   0.358751   0.000790  -0.031873  -0.000008
    10  H    0.383964  -0.000289   0.032395  -0.004013  -0.026538   0.000117
    11  H   -0.010796  -0.013953   0.079226   0.319689  -0.003098  -0.023059
    12  F    0.009872   0.295211  -0.000878  -0.059385  -0.002402   0.002616
    13  C    0.299536   0.001247   0.011000  -0.001281  -0.042366   0.000012
    14  H   -0.008802   0.000138  -0.000244   0.000200   0.004130  -0.000003
    15  H   -0.003174  -0.001534  -0.000361  -0.000683  -0.007911  -0.000027
    16  H   -0.010480  -0.000004  -0.000212   0.000012  -0.004747   0.000000
    17  C   -0.086753  -0.000023  -0.037541  -0.001108   0.307602   0.000004
    18  H    0.005762   0.000001  -0.000649   0.000020  -0.022713  -0.000000
    19  H   -0.009605  -0.000024   0.006346   0.000221  -0.013230  -0.000000
    20  H    0.000451  -0.000038  -0.001096  -0.000059  -0.022182  -0.000007
               7          8          9         10         11         12
     1  C   -0.000042   0.000274   0.004248   0.383964  -0.010796   0.009872
     2  C   -0.000114   0.421859   0.000009  -0.000289  -0.013953   0.295211
     3  C    0.363497  -0.000048   0.358751   0.032395   0.079226  -0.000878
     4  C    0.002741  -0.061823   0.000790  -0.004013   0.319689  -0.059385
     5  N   -0.033862  -0.000029  -0.031873  -0.026538  -0.003098  -0.002402
     6  H    0.000108  -0.006868  -0.000008   0.000117  -0.023059   0.002616
     7  H    0.733607   0.000029  -0.039522  -0.001559  -0.007273   0.001153
     8  H    0.000029   0.616748   0.000001  -0.000031   0.004836  -0.031046
     9  H   -0.039522   0.000001   0.743805  -0.000462  -0.002735   0.000002
    10  H   -0.001559  -0.000031  -0.000462   0.555338   0.008465  -0.000122
    11  H   -0.007273   0.004836  -0.002735   0.008465   0.572126  -0.001797
    12  F    0.001153  -0.031046   0.000002  -0.000122  -0.001797   9.005915
    13  C   -0.000969  -0.000140  -0.000850  -0.034325   0.002363  -0.006936
    14  H    0.000023   0.000004   0.000019  -0.008475  -0.000124  -0.000076
    15  H    0.000182   0.000028  -0.000015   0.002417  -0.000232   0.011949
    16  H   -0.000038   0.000001   0.000082   0.002949  -0.000009   0.000091
    17  C   -0.003390  -0.000008  -0.009260   0.009249   0.002197   0.000137
    18  H   -0.001927   0.000001   0.008797  -0.000351  -0.000086   0.000096
    19  H    0.000966   0.000001   0.000939  -0.000894  -0.000432  -0.000334
    20  H    0.005432   0.000072  -0.001523  -0.000318  -0.000062   0.006927
              13         14         15         16         17         18
     1  C    0.299536  -0.008802  -0.003174  -0.010480  -0.086753   0.005762
     2  C    0.001247   0.000138  -0.001534  -0.000004  -0.000023   0.000001
     3  C    0.011000  -0.000244  -0.000361  -0.000212  -0.037541  -0.000649
     4  C   -0.001281   0.000200  -0.000683   0.000012  -0.001108   0.000020
     5  N   -0.042366   0.004130  -0.007911  -0.004747   0.307602  -0.022713
     6  H    0.000012  -0.000003  -0.000027   0.000000   0.000004  -0.000000
     7  H   -0.000969   0.000023   0.000182  -0.000038  -0.003390  -0.001927
     8  H   -0.000140   0.000004   0.000028   0.000001  -0.000008   0.000001
     9  H   -0.000850   0.000019  -0.000015   0.000082  -0.009260   0.008797
    10  H   -0.034325  -0.008475   0.002417   0.002949   0.009249  -0.000351
    11  H    0.002363  -0.000124  -0.000232  -0.000009   0.002197  -0.000086
    12  F   -0.006936  -0.000076   0.011949   0.000091   0.000137   0.000096
    13  C    4.679540   0.387244   0.373113   0.386589   0.009290  -0.000477
    14  H    0.387244   0.577702  -0.014623  -0.014363   0.000429  -0.000014
    15  H    0.373113  -0.014623   0.564080  -0.013560  -0.000037  -0.000031
    16  H    0.386589  -0.014363  -0.013560   0.559252  -0.002154   0.000351
    17  C    0.009290   0.000429  -0.000037  -0.002154   4.605782   0.395034
    18  H   -0.000477  -0.000014  -0.000031   0.000351   0.395034   0.578357
    19  H    0.004181   0.000353  -0.000145   0.002488   0.360160  -0.018338
    20  H   -0.000495  -0.000013   0.000669  -0.000320   0.397521  -0.014973
              19         20
     1  C   -0.009605   0.000451
     2  C   -0.000024  -0.000038
     3  C    0.006346  -0.001096
     4  C    0.000221  -0.000059
     5  N   -0.013230  -0.022182
     6  H   -0.000000  -0.000007
     7  H    0.000966   0.005432
     8  H    0.000001   0.000072
     9  H    0.000939  -0.001523
    10  H   -0.000894  -0.000318
    11  H   -0.000432  -0.000062
    12  F   -0.000334   0.006927
    13  C    0.004181  -0.000495
    14  H    0.000353  -0.000013
    15  H   -0.000145   0.000669
    16  H    0.002488  -0.000320
    17  C    0.360160   0.397521
    18  H   -0.018338  -0.014973
    19  H    0.635836  -0.017997
    20  H   -0.017997   0.566720
 Mulliken charges:
               1
     1  C    0.046765
     2  C    0.148824
     3  C   -0.301926
     4  C   -0.155869
     5  N   -0.189677
     6  H    0.070738
     7  H   -0.019044
     8  H    0.056139
     9  H   -0.031193
    10  H    0.082484
    11  H    0.074755
    12  F   -0.230992
    13  C   -0.066276
    14  H    0.076497
    15  H    0.089897
    16  H    0.094070
    17  C    0.052869
    18  H    0.071141
    19  H    0.049507
    20  H    0.081291
 Sum of Mulliken charges =  -0.00000
 Mulliken charges with hydrogens summed into heavy atoms:
               1
     1  C    0.129249
     2  C    0.204964
     3  C   -0.352164
     4  C   -0.010376
     5  N   -0.189677
    12  F   -0.230992
    13  C    0.194187
    17  C    0.254809
 Electronic spatial extent (au):  <R**2>=           1205.0991
 Charge=             -0.0000 electrons
 Dipole moment (field-independent basis, Debye):
    X=             -0.2827    Y=             -5.8883    Z=              1.6043  Tot=              6.1095
 Quadrupole moment (field-independent basis, Debye-Ang):
   XX=            -41.7914   YY=            -56.7079   ZZ=            -50.8913
   XY=              3.7461   XZ=             -4.0332   YZ=              6.6455
 Traceless Quadrupole moment (field-independent basis, Debye-Ang):
   XX=              8.0055   YY=             -6.9110   ZZ=             -1.0945
   XY=              3.7461   XZ=             -4.0332   YZ=              6.6455
 Octapole moment (field-independent basis, Debye-Ang**2):
  XXX=             19.9296  YYY=            -39.3013  ZZZ=             13.7496  XYY=              5.4968
  XXY=            -12.6901  XXZ=              6.8401  XZZ=              2.2266  YZZ=            -12.3931
  YYZ=             13.5942  XYZ=             -8.5631
 Hexadecapole moment (field-independent basis, Debye-Ang**3):
 XXXX=           -772.2508 YYYY=           -506.4396 ZZZZ=           -266.9377 XXXY=            -11.0058
 XXXZ=             -9.2257 YYYX=             18.7129 YYYZ=             32.1546 ZZZX=              0.2282
 ZZZY=             18.8496 XXYY=           -220.7665 XXZZ=           -182.7941 YYZZ=           -137.0140
 XXYZ=             -2.0472 YYXZ=             -5.6207 ZZXY=              9.6062
 N-N= 3.849306640362D+02 E-N=-1.678283303787D+03  KE= 3.859528414849D+02
 Unable to Open any file for archive entry.
 1\1\GINC-NODE-003\FTS\RwB97XD\Gen\C6H12F1N1\JP2658\22-Dec-2023\0\\# wb
 97xd chkbasis guess=read geom=allchk scrf=(iefpcm,solvent=toluene) opt
 =(readfc,ts,noeigen,maxcycles=50,maxstep=10)\\allyl_ts_46_reopt.out\\0
 ,1\C,1.4191161108,0.0295824446,0.6317318062\C,-2.0491107407,-0.5613257
 839,1.0276671283\C,0.6955764333,2.1534847249,-0.1871528434\C,-1.789872
 5912,0.5663128145,1.6709844101\N,1.1323229009,0.7487776919,-0.38978509
 84\H,-2.3260863729,0.761597646,2.6010450068\H,-0.3078291052,2.17250471
 94,-0.6666399666\H,-2.7599805665,-1.3314591045,1.339305538\H,1.3317097
 189,2.7370169838,-0.8861774983\H,1.3645381764,0.5853633195,1.572569419
 9\H,-1.0642298778,1.3056964932,1.3023467082\F,-1.438189341,-0.89333929
 96,-0.1249173116\C,1.765106229,-1.4191570759,0.6167803033\H,1.94645730
 94,-1.7718062139,1.6384036225\H,0.9363256114,-2.0011590961,0.185463906
 8\H,2.6672828215,-1.6146010013,0.0165472042\C,1.1386246304,0.192233146
 3,-1.740939119\H,1.6532200035,0.9048715858,-2.3969936811\H,1.627446286
 9,-0.7886162153,-1.8014339996\H,0.0949723629,0.1017222206,-2.071305536
 2\\Version=ES64L-G16RevC.01\State=1-A\HF=-389.8994875\RMSD=2.071e-09\R
 MSF=4.690e-06\Dipole=0.4418329,-2.3563452,-0.1732402\Quadrupole=4.3049
 267,-8.2106382,3.9057115,-2.6967223,-3.0473736,-2.2899892\PG=C01 [X(C6
 H12F1N1)]\\@
 The archive entry for this job was punched.


 BREAD HAS TO MOLD IN ORDER TO GET PENICILLIN.
          -- JERRY BOATZ
 Job cpu time:       0 days  1 hours 27 minutes  0.2 seconds.
 Elapsed time:       0 days  0 hours  7 minutes 25.0 seconds.
 File lengths (MBytes):  RWF=    102 Int=      0 D2E=      0 Chk=      8 Scr=      1
 Normal termination of Gaussian 16 at Fri Dec 22 22:59:20 2023.
