Unloading slurm/anatra/current
  ERROR: No such file or directory on
    '/cm/local/modulefiles/slurm/anatra/current'
environment: line 0: unalias: gv: not found
environment: line 0: unalias: sl: not found
 Entering Gaussian System, Link 0=g16
 Initial command:
 /apps/gaussian/g16/C.01/g16/l1.exe "/local/jobs/1153151/Gau-1729998.inp" -scrdir="/local/jobs/1153151/"
 Entering Link 1 = /apps/gaussian/g16/C.01/g16/l1.exe PID=   1730002.
  
 Copyright (c) 1988-2019, Gaussian, Inc.  All Rights Reserved.
  
 This is part of the Gaussian(R) 16 program.  It is based on
 the Gaussian(R) 09 system (copyright 2009, Gaussian, Inc.),
 the Gaussian(R) 03 system (copyright 2003, Gaussian, Inc.),
 the Gaussian(R) 98 system (copyright 1998, Gaussian, Inc.),
 the Gaussian(R) 94 system (copyright 1995, Gaussian, Inc.),
 the Gaussian 92(TM) system (copyright 1992, Gaussian, Inc.),
 the Gaussian 90(TM) system (copyright 1990, Gaussian, Inc.),
 the Gaussian 88(TM) system (copyright 1988, Gaussian, Inc.),
 the Gaussian 86(TM) system (copyright 1986, Carnegie Mellon
 University), and the Gaussian 82(TM) system (copyright 1983,
 Carnegie Mellon University). Gaussian is a federally registered
 trademark of Gaussian, Inc.
  
 This software contains proprietary and confidential information,
 including trade secrets, belonging to Gaussian, Inc.
  
 This software is provided under written license and may be
 used, copied, transmitted, or stored only in accord with that
 written license.
  
 The following legend is applicable only to US Government
 contracts under FAR:
  
                    RESTRICTED RIGHTS LEGEND
  
 Use, reproduction and disclosure by the US Government is
 subject to restrictions as set forth in subparagraphs (a)
 and (c) of the Commercial Computer Software - Restricted
 Rights clause in FAR 52.227-19.
  
 Gaussian, Inc.
 340 Quinnipiac St., Bldg. 40, Wallingford CT 06492
  
  
 ---------------------------------------------------------------
 Warning -- This program may not be used in any manner that
 competes with the business of Gaussian, Inc. or will provide
 assistance to any competitor of Gaussian, Inc.  The licensee
 of this program is prohibited from giving any competitor of
 Gaussian, Inc. access to this program.  By using this program,
 the user acknowledges that Gaussian, Inc. is engaged in the
 business of creating and licensing software in the field of
 computational chemistry and represents and warrants to the
 licensee that it is not a competitor of Gaussian, Inc. and that
 it will not use this program in any manner prohibited above.
 ---------------------------------------------------------------
  

 Cite this work as:
 Gaussian 16, Revision C.01,
 M. J. Frisch, G. W. Trucks, H. B. Schlegel, G. E. Scuseria, 
 M. A. Robb, J. R. Cheeseman, G. Scalmani, V. Barone, 
 G. A. Petersson, H. Nakatsuji, X. Li, M. Caricato, A. V. Marenich, 
 J. Bloino, B. G. Janesko, R. Gomperts, B. Mennucci, H. P. Hratchian, 
 J. V. Ortiz, A. F. Izmaylov, J. L. Sonnenberg, D. Williams-Young, 
 F. Ding, F. Lipparini, F. Egidi, J. Goings, B. Peng, A. Petrone, 
 T. Henderson, D. Ranasinghe, V. G. Zakrzewski, J. Gao, N. Rega, 
 G. Zheng, W. Liang, M. Hada, M. Ehara, K. Toyota, R. Fukuda, 
 J. Hasegawa, M. Ishida, T. Nakajima, Y. Honda, O. Kitao, H. Nakai, 
 T. Vreven, K. Throssell, J. A. Montgomery, Jr., J. E. Peralta, 
 F. Ogliaro, M. J. Bearpark, J. J. Heyd, E. N. Brothers, K. N. Kudin, 
 V. N. Staroverov, T. A. Keith, R. Kobayashi, J. Normand, 
 K. Raghavachari, A. P. Rendell, J. C. Burant, S. S. Iyengar, 
 J. Tomasi, M. Cossi, J. M. Millam, M. Klene, C. Adamo, R. Cammi, 
 J. W. Ochterski, R. L. Martin, K. Morokuma, O. Farkas, 
 J. B. Foresman, and D. J. Fox, Gaussian, Inc., Wallingford CT, 2019.
 
 ******************************************
 Gaussian 16:  ES64L-G16RevC.01  3-Jul-2019
                30-Dec-2023 
 ******************************************
 %chk=allylic-1_1_opt_hf_re_freq.chk
 %nprocshared=12
 Will use up to   12 processors via shared memory.
 %mem=48GB
 -----------------------------------------------------------
 # wb97xd def2svp scrf=(iefpcm,solvent=toluene) freq=noraman
 -----------------------------------------------------------
 1/10=4,30=1,38=1/1,3;
 2/12=2,17=6,18=5,40=1/2;
 3/5=43,7=101,11=2,25=1,30=1,70=2201,71=2,72=13,74=-58,140=1/1,2,3;
 4//1;
 5/5=2,38=5,53=13,98=1/2;
 8/6=4,10=90,11=11/1;
 11/6=1,8=1,9=11,15=111,16=1/1,2,10;
 10/6=1/2;
 6/7=2,8=2,9=2,10=2,28=1/1;
 7/8=1,10=1,25=1/1,2,3,16;
 1/10=4,30=1/3;
 99//99;
 -------------------------
 allylic-1_1_opt_hf_re.out
 -------------------------
 Symbolic Z-matrix:
 Charge =  0 Multiplicity = 1
 C                     0.92343   0.45825  -0.94048 
 C                    -2.39553   0.19929   0.26479 
 C                     0.97663  -1.89375  -0.5277 
 C                    -2.28729  -0.685    -0.71446 
 N                     1.24019  -0.4864   -0.13406 
 H                    -3.14889  -0.83678  -1.3666 
 H                     0.31288  -2.25857   0.28681 
 H                    -3.2777    0.80433   0.49121 
 H                     1.93947  -2.41262  -0.33396 
 H                     0.53513   0.09081  -1.89507 
 H                    -1.37106  -1.26758  -0.88842 
 F                    -1.3885    0.45893   1.11942 
 C                     1.01594   1.91866  -0.66226 
 H                     0.6619    2.4885   -1.5288 
 H                     0.39324   2.17779   0.20765 
 H                     2.05071   2.22533  -0.44406 
 C                     1.77088  -0.20645   1.19838 
 H                     2.62697  -0.87107   1.3671 
 H                     2.0801    0.83853   1.329 
 H                     0.98803  -0.45027   1.92929 
 

 GradGradGradGradGradGradGradGradGradGradGradGradGradGradGradGradGradGrad
 Berny optimization.
 Initialization pass.
 Trust Radius=3.00D-01 FncErr=1.00D-07 GrdErr=1.00D-07 EigMax=2.50D+02 EigMin=1.00D-04
 Number of steps in this run=      2 maximum allowed number of steps=      2.
 GradGradGradGradGradGradGradGradGradGradGradGradGradGradGradGradGradGrad

                          Input orientation:                          
 ---------------------------------------------------------------------
 Center     Atomic      Atomic             Coordinates (Angstroms)
 Number     Number       Type             X           Y           Z
 ---------------------------------------------------------------------
      1          6           0        0.923430    0.458250   -0.940480
      2          6           0       -2.395530    0.199290    0.264790
      3          6           0        0.976630   -1.893750   -0.527700
      4          6           0       -2.287290   -0.685000   -0.714460
      5          7           0        1.240190   -0.486400   -0.134060
      6          1           0       -3.148890   -0.836780   -1.366600
      7          1           0        0.312880   -2.258570    0.286810
      8          1           0       -3.277700    0.804330    0.491210
      9          1           0        1.939470   -2.412620   -0.333960
     10          1           0        0.535130    0.090810   -1.895070
     11          1           0       -1.371060   -1.267580   -0.888420
     12          9           0       -1.388500    0.458930    1.119420
     13          6           0        1.015940    1.918660   -0.662260
     14          1           0        0.661900    2.488500   -1.528800
     15          1           0        0.393240    2.177790    0.207650
     16          1           0        2.050710    2.225330   -0.444060
     17          6           0        1.770880   -0.206450    1.198380
     18          1           0        2.626970   -0.871070    1.367100
     19          1           0        2.080100    0.838530    1.329000
     20          1           0        0.988030   -0.450270    1.929290
 ---------------------------------------------------------------------
                    Distance matrix (angstroms):
                    1          2          3          4          5
     1  C    0.000000
     2  C    3.540513   0.000000
     3  C    2.388540   4.047261   0.000000
     4  C    3.415674   1.323864   3.485560   0.000000
     5  N    1.281801   3.721251   1.484941   3.580422   0.000000
     6  H    4.294470   2.074229   4.340605   1.091182   4.572302
     7  H    3.043045   3.657464   1.112243   3.199929   2.043923
     8  H    4.451854   1.093418   5.139760   2.157002   4.740071
     9  H    3.105173   5.096352   1.110775   4.582025   2.058950
    10  H    1.094089   3.642188   2.450123   3.156228   1.982785
    11  H    2.871565   2.128647   2.456391   1.099609   2.828061
    12  F    3.096483   1.346074   3.720477   2.340836   3.061841
    13  C    1.489551   3.931130   3.814986   4.206317   2.472569
    14  H    2.129890   4.219636   4.506148   4.408171   3.336128
    15  H    2.134507   3.419790   4.178340   4.028783   2.816380
    16  H    2.154011   4.937242   4.257636   5.230811   2.847196
    17  C    2.394727   4.288961   2.541096   4.511841   1.461301
    18  H    3.161339   5.252263   2.712888   5.340175   2.079570
    19  H    2.575468   4.644614   3.482863   5.056774   2.145095
    20  H    3.010841   3.826352   2.849660   4.215713   2.079015
                    6          7          8          9         10
     6  H    0.000000
     7  H    4.091345   0.000000
     8  H    2.482195   4.723918   0.000000
     9  H    5.425958   1.747822   6.184540   0.000000
    10  H    3.835584   3.213967   4.554241   3.267476   0.000000
    11  H    1.890747   2.280105   3.135517   3.546569   2.547965
    12  F    3.310307   3.312513   2.020650   4.629633   3.594859
    13  C    5.043248   4.341000   4.583401   4.440797   2.256554
    14  H    5.060229   5.094402   4.736805   5.203922   2.428815
    15  H    4.910456   4.437794   3.929707   4.874016   2.965982
    16  H    6.104379   4.864112   5.593382   4.640590   2.993090
    17  C    5.583957   2.677297   5.197107   2.691408   3.344380
    18  H    6.390215   2.906406   6.199942   2.396380   3.992839
    19  H    6.116801   3.715004   5.423014   3.654475   3.652485
    20  H    5.303432   2.534466   4.673173   3.142985   3.888909
                   11         12         13         14         15
    11  H    0.000000
    12  F    2.648124   0.000000
    13  C    3.987611   3.329644   0.000000
    14  H    4.318698   3.916167   1.095880   0.000000
    15  H    4.023021   2.638257   1.100748   1.784370   0.000000
    16  H    4.909825   4.170468   1.101093   1.781772   1.781626
    17  C    3.918229   3.229651   2.923698   3.991253   2.926438
    18  H    4.607476   4.237245   3.807402   4.851232   3.953406
    19  H    4.611199   3.495598   2.502845   3.591756   2.428279
    20  H    3.764677   2.670286   3.511231   4.549848   3.197580
                   16         17         18         19         20
    16  H    0.000000
    17  C    2.947790   0.000000
    18  H    3.633190   1.096848   0.000000
    19  H    2.251182   1.097571   1.795341   0.000000
    20  H    3.731074   1.098422   1.783046   1.792755   0.000000
 Stoichiometry    C6H12FN
 Framework group  C1[X(C6H12FN)]
 Deg. of freedom    54
 Full point group                 C1      NOp   1
 Largest Abelian subgroup         C1      NOp   1
 Largest concise Abelian subgroup C1      NOp   1
                         Standard orientation:                         
 ---------------------------------------------------------------------
 Center     Atomic      Atomic             Coordinates (Angstroms)
 Number     Number       Type             X           Y           Z
 ---------------------------------------------------------------------
      1          6           0        0.923430    0.458251   -0.940482
      2          6           0       -2.395530    0.199289    0.264788
      3          6           0        0.976632   -1.893749   -0.527702
      4          6           0       -2.287289   -0.685001   -0.714462
      5          7           0        1.240191   -0.486399   -0.134062
      6          1           0       -3.148889   -0.836782   -1.366602
      7          1           0        0.312882   -2.258569    0.286808
      8          1           0       -3.277700    0.804328    0.491208
      9          1           0        1.939472   -2.412618   -0.333962
     10          1           0        0.535130    0.090811   -1.895072
     11          1           0       -1.371059   -1.267580   -0.888422
     12          9           0       -1.388500    0.458930    1.119418
     13          6           0        1.015939    1.918661   -0.662262
     14          1           0        0.661899    2.488501   -1.528802
     15          1           0        0.393239    2.177791    0.207648
     16          1           0        2.050709    2.225332   -0.444062
     17          6           0        1.770881   -0.206448    1.198378
     18          1           0        2.626971   -0.871068    1.367098
     19          1           0        2.080100    0.838532    1.328998
     20          1           0        0.988031   -0.450269    1.929288
 ---------------------------------------------------------------------
 Rotational constants (GHZ):           2.3075472           1.2978749           1.1452299
 Standard basis: def2SVP (5D, 7F)
 There are   180 symmetry adapted cartesian basis functions of A   symmetry.
 There are   172 symmetry adapted basis functions of A   symmetry.
   172 basis functions,   284 primitive gaussians,   180 cartesian basis functions
    32 alpha electrons       32 beta electrons
       nuclear repulsion energy       384.9404715752 Hartrees.
 NAtoms=   20 NActive=   20 NUniq=   20 SFac= 1.00D+00 NAtFMM=   60 NAOKFM=F Big=F
 Integral buffers will be    131072 words long.
 Raffenetti 2 integral format.
 Two-electron integral symmetry is turned on.
 Nuclear repulsion after empirical dispersion term =      384.9281274527 Hartrees.
 Force inversion solution in PCM.
 ------------------------------------------------------------------------------
 Polarizable Continuum Model (PCM)
 =================================
 Model                : PCM.
 Atomic radii         : UFF (Universal Force Field).
 Polarization charges : Total charges.
 Charge compensation  : None.
 Solution method      : Matrix inversion.
 Cavity type          : Scaled VdW (van der Waals Surface) (Alpha=1.100).
 Cavity algorithm     : GePol (No added spheres)
                        Default sphere list used, NSphG=   20.
                        Lebedev-Laikov grids with approx.  5.0 points / Ang**2.
                        Smoothing algorithm: York/Karplus (Gamma=1.0000).
                        Polarization charges: spherical gaussians, with
                                              point-specific exponents (IZeta= 3).
                        Self-potential: point-specific (ISelfS= 7).
                        Self-field    : sphere-specific E.n sum rule (ISelfD= 2).
 1st derivatives      : Analytical E(r).r(x)/FMM algorithm (CHGder, D1EAlg=3).
                        Cavity 1st derivative terms included.
 2nd derivatives      : Analytical E(r).r(xy)/FMM algorithm (CHGder, D2EAlg=3).
                        Cavity 2nd derivative terms included.
 Solvent              : Toluene, Eps=   2.374100 Eps(inf)=   2.238315
 ------------------------------------------------------------------------------
 Spheres list:
 ISph  on   Nord     Re0    Alpha      Xe            Ye            Ze
    1   C      1    1.9255  1.100      0.923430      0.458251     -0.940482
    2   C      2    1.9255  1.100     -2.395530      0.199289      0.264788
    3   C      3    1.9255  1.100      0.976632     -1.893749     -0.527702
    4   C      4    1.9255  1.100     -2.287289     -0.685001     -0.714462
    5   N      5    1.8300  1.100      1.240191     -0.486399     -0.134062
    6   H      6    1.4430  1.100     -3.148889     -0.836782     -1.366602
    7   H      7    1.4430  1.100      0.312882     -2.258569      0.286808
    8   H      8    1.4430  1.100     -3.277700      0.804328      0.491208
    9   H      9    1.4430  1.100      1.939472     -2.412618     -0.333962
   10   H     10    1.4430  1.100      0.535130      0.090811     -1.895072
   11   H     11    1.4430  1.100     -1.371059     -1.267580     -0.888422
   12   F     12    1.6820  1.100     -1.388500      0.458930      1.119418
   13   C     13    1.9255  1.100      1.015939      1.918661     -0.662262
   14   H     14    1.4430  1.100      0.661899      2.488501     -1.528802
   15   H     15    1.4430  1.100      0.393239      2.177791      0.207648
   16   H     16    1.4430  1.100      2.050709      2.225332     -0.444062
   17   C     17    1.9255  1.100      1.770881     -0.206448      1.198378
   18   H     18    1.4430  1.100      2.626971     -0.871068      1.367098
   19   H     19    1.4430  1.100      2.080100      0.838532      1.328998
   20   H     20    1.4430  1.100      0.988031     -0.450269      1.929288
 ------------------------------------------------------------------------------
 One-electron integrals computed using PRISM.
   1 Symmetry operations used in ECPInt.
 ECPInt:  NShTT=    3570 NPrTT=   12386 LenC2=    3546 LenP2D=    9917.
 LDataN:  DoStor=T MaxTD1= 4 Len=   56
 NBasis=   172 RedAO= T EigKep=  2.98D-03  NBF=   172
 NBsUse=   172 1.00D-06 EigRej= -1.00D+00 NBFU=   172
 ExpMin= 1.22D-01 ExpMax= 2.89D+03 ExpMxC= 4.35D+02 IAcc=3 IRadAn=         5 AccDes= 0.00D+00
 Harris functional with IExCor= 4639 and IRadAn=       5 diagonalized for initial guess.
 HarFok:  IExCor= 4639 AccDes= 0.00D+00 IRadAn=         5 IDoV= 1 UseB2=F ITyADJ=14
 ICtDFT=  3500011 ScaDFX=  1.000000  1.000000  1.000000  1.000000
 FoFCou: FMM=F IPFlag=           0 FMFlag=      100000 FMFlg1=           0
         NFxFlg=           0 DoJE=T BraDBF=F KetDBF=T FulRan=T
         wScrn=  0.000000 ICntrl=       500 IOpCl=  0 I1Cent=   200000004 NGrid=           0
         NMat0=    1 NMatS0=      1 NMatT0=    0 NMatD0=    1 NMtDS0=    0 NMtDT0=    0
 Petite list used in FoFCou.
 Requested convergence on RMS density matrix=1.00D-08 within 128 cycles.
 Requested convergence on MAX density matrix=1.00D-06.
 Requested convergence on             energy=1.00D-06.
 No special actions if energy rises.
 Inv3:  Mode=1 IEnd=     6986028.
 Iteration    1 A*A^-1 deviation from unit magnitude is 2.66D-15 for     89.
 Iteration    1 A*A^-1 deviation from orthogonality  is 1.55D-15 for   1272    622.
 Iteration    1 A^-1*A deviation from unit magnitude is 3.11D-15 for    199.
 Iteration    1 A^-1*A deviation from orthogonality  is 1.26D-15 for   1116    593.
 Error on total polarization charges =  0.00602
 SCF Done:  E(RwB97XD) =  -389.899487447     A.U. after   16 cycles
            NFock= 16  Conv=0.30D-08     -V/T= 2.0102
 DoSCS=F DFT=T ScalE2(SS,OS)=  1.000000  1.000000
 Range of M.O.s used for correlation:     1   172
 NBasis=   172 NAE=    32 NBE=    32 NFC=     0 NFV=     0
 NROrb=    172 NOA=    32 NOB=    32 NVA=   140 NVB=   140
   1 Symmetry operations used in ECPInt.
 ECPInt:  NShTT=    3570 NPrTT=   12386 LenC2=    3546 LenP2D=    9917.
 LDataN:  DoStor=T MaxTD1= 5 Len=  102
 Symmetrizing basis deriv contribution to polar:
 IMax=3 JMax=2 DiffMx= 0.00D+00
 G2DrvN: will do    21 centers at a time, making    1 passes.
 Calling FoFCou, ICntrl=  3107 FMM=F I1Cent=   0 AccDes= 0.00D+00.
 NEqPCM:  Using equilibrium solvation (IEInf=0, Eps=   2.3741, EpsInf=   2.2383)
 G2PCM: DoFxE=T DoFxN=T DoGrad=T DoDP/DQ/DG/TGxP=FFFF NFrqRd=   0 IEInf=0 SqF1=F DoCFld=F IF1Alg=4.
 End of G2Drv F.D. properties file   721 does not exist.
 End of G2Drv F.D. properties file   722 does not exist.
 End of G2Drv F.D. properties file   788 does not exist.
          IDoAtm=11111111111111111111
 NEqPCM:  Using equilibrium solvation (IEInf=0, Eps=   2.3741, EpsInf=   2.2383)
          Differentiating once with respect to electric field.
                with respect to dipole field.
          Differentiating once with respect to nuclear coordinates.
 Keep R1 ints in memory in canonical form, NReq=236059372.
          There are    63 degrees of freedom in the 1st order CPHF.  IDoFFX=6 NUNeed=     3.
     60 vectors produced by pass  0 Test12= 7.11D-15 1.59D-09 XBig12= 3.71D+01 3.06D+00.
 AX will form    60 AO Fock derivatives at one time.
     60 vectors produced by pass  1 Test12= 7.11D-15 1.59D-09 XBig12= 2.74D+00 3.46D-01.
     60 vectors produced by pass  2 Test12= 7.11D-15 1.59D-09 XBig12= 6.83D-02 5.08D-02.
     60 vectors produced by pass  3 Test12= 7.11D-15 1.59D-09 XBig12= 4.77D-04 4.19D-03.
     60 vectors produced by pass  4 Test12= 7.11D-15 1.59D-09 XBig12= 2.63D-06 1.97D-04.
     60 vectors produced by pass  5 Test12= 7.11D-15 1.59D-09 XBig12= 1.23D-08 1.75D-05.
     40 vectors produced by pass  6 Test12= 7.11D-15 1.59D-09 XBig12= 5.04D-11 7.05D-07.
      6 vectors produced by pass  7 Test12= 7.11D-15 1.59D-09 XBig12= 1.88D-13 4.52D-08.
      3 vectors produced by pass  8 Test12= 7.11D-15 1.59D-09 XBig12= 6.59D-16 3.13D-09.
 InvSVY:  IOpt=1 It=  1 EMax= 3.03D-15
 Solved reduced A of dimension   409 with    63 vectors.
 Isotropic polarizability for W=    0.000000       85.68 Bohr**3.
 End of Minotr F.D. properties file   721 does not exist.
 End of Minotr F.D. properties file   722 does not exist.
 End of Minotr F.D. properties file   788 does not exist.

 **********************************************************************

            Population analysis using the SCF Density.

 **********************************************************************

 Orbital symmetries:
       Occupied  (A) (A) (A) (A) (A) (A) (A) (A) (A) (A) (A) (A)
                 (A) (A) (A) (A) (A) (A) (A) (A) (A) (A) (A) (A)
                 (A) (A) (A) (A) (A) (A) (A) (A)
       Virtual   (A) (A) (A) (A) (A) (A) (A) (A) (A) (A) (A) (A)
                 (A) (A) (A) (A) (A) (A) (A) (A) (A) (A) (A) (A)
                 (A) (A) (A) (A) (A) (A) (A) (A) (A) (A) (A) (A)
                 (A) (A) (A) (A) (A) (A) (A) (A) (A) (A) (A) (A)
                 (A) (A) (A) (A) (A) (A) (A) (A) (A) (A) (A) (A)
                 (A) (A) (A) (A) (A) (A) (A) (A) (A) (A) (A) (A)
                 (A) (A) (A) (A) (A) (A) (A) (A) (A) (A) (A) (A)
                 (A) (A) (A) (A) (A) (A) (A) (A) (A) (A) (A) (A)
                 (A) (A) (A) (A) (A) (A) (A) (A) (A) (A) (A) (A)
                 (A) (A) (A) (A) (A) (A) (A) (A) (A) (A) (A) (A)
                 (A) (A) (A) (A) (A) (A) (A) (A) (A) (A) (A) (A)
                 (A) (A) (A) (A) (A) (A) (A) (A)
 The electronic state is 1-A.
 Alpha  occ. eigenvalues --  -24.82785 -14.52797 -10.37909 -10.37702 -10.34000
 Alpha  occ. eigenvalues --  -10.32438 -10.29225 -10.23170  -1.31074  -1.08262
 Alpha  occ. eigenvalues --   -0.87366  -0.85644  -0.82209  -0.74816  -0.69453
 Alpha  occ. eigenvalues --   -0.65607  -0.61754  -0.58437  -0.57670  -0.56363
 Alpha  occ. eigenvalues --   -0.56199  -0.55562  -0.51703  -0.49765  -0.48712
 Alpha  occ. eigenvalues --   -0.48441  -0.46088  -0.45170  -0.44299  -0.37055
 Alpha  occ. eigenvalues --   -0.34609  -0.22341
 Alpha virt. eigenvalues --    0.02601   0.09009   0.13262   0.16437   0.16691
 Alpha virt. eigenvalues --    0.17040   0.19362   0.20794   0.21179   0.21586
 Alpha virt. eigenvalues --    0.22624   0.22912   0.24365   0.25106   0.27206
 Alpha virt. eigenvalues --    0.28948   0.32328   0.36034   0.37478   0.41356
 Alpha virt. eigenvalues --    0.44216   0.48875   0.48882   0.51134   0.53634
 Alpha virt. eigenvalues --    0.54841   0.55843   0.56974   0.58499   0.59906
 Alpha virt. eigenvalues --    0.61947   0.65426   0.66630   0.67970   0.69422
 Alpha virt. eigenvalues --    0.71095   0.71679   0.72160   0.72962   0.74282
 Alpha virt. eigenvalues --    0.74859   0.75000   0.75379   0.76495   0.76721
 Alpha virt. eigenvalues --    0.77663   0.80106   0.82147   0.83467   0.84383
 Alpha virt. eigenvalues --    0.88472   0.88710   0.91741   0.92129   1.00310
 Alpha virt. eigenvalues --    1.08427   1.11063   1.15052   1.19209   1.20737
 Alpha virt. eigenvalues --    1.27922   1.28141   1.30716   1.32779   1.33743
 Alpha virt. eigenvalues --    1.36107   1.39725   1.46058   1.49163   1.55167
 Alpha virt. eigenvalues --    1.59000   1.59656   1.60423   1.61824   1.64839
 Alpha virt. eigenvalues --    1.66954   1.68411   1.71484   1.73681   1.76469
 Alpha virt. eigenvalues --    1.77569   1.79571   1.81604   1.82646   1.84933
 Alpha virt. eigenvalues --    1.85227   1.85504   1.88299   1.91245   1.91684
 Alpha virt. eigenvalues --    1.93100   1.96492   1.97550   1.98393   2.02672
 Alpha virt. eigenvalues --    2.04531   2.05143   2.05589   2.10417   2.13688
 Alpha virt. eigenvalues --    2.17333   2.18299   2.18575   2.21403   2.24060
 Alpha virt. eigenvalues --    2.31820   2.34486   2.35624   2.38055   2.40209
 Alpha virt. eigenvalues --    2.41888   2.49957   2.51756   2.52351   2.55012
 Alpha virt. eigenvalues --    2.58117   2.63203   2.72237   2.73716   2.76716
 Alpha virt. eigenvalues --    2.78917   2.81521   2.84347   2.88205   2.91705
 Alpha virt. eigenvalues --    2.94357   2.98840   3.01742   3.02464   3.05641
 Alpha virt. eigenvalues --    3.08106   3.10349   3.14707   3.17346   3.29379
 Alpha virt. eigenvalues --    3.31487   3.39555   3.44919   3.61268   3.94561
          Condensed to atoms (all electrons):
               1          2          3          4          5          6
     1  C    4.922891  -0.000984  -0.090099   0.007564   0.539425  -0.000026
     2  C   -0.000984   4.545369  -0.000167   0.611091  -0.000848  -0.005775
     3  C   -0.090099  -0.000167   5.349358  -0.031788   0.264211   0.000241
     4  C    0.007564   0.611091  -0.031788   5.002919   0.000283   0.370473
     5  N    0.539425  -0.000848   0.264211   0.000283   6.285793   0.000057
     6  H   -0.000026  -0.005775   0.000241   0.370473   0.000057   0.591403
     7  H   -0.000040  -0.000114   0.363470   0.002744  -0.033862   0.000108
     8  H    0.000274   0.421857  -0.000048  -0.061822  -0.000029  -0.006868
     9  H    0.004249   0.000009   0.358737   0.000790  -0.031873  -0.000008
    10  H    0.383958  -0.000288   0.032403  -0.004012  -0.026540   0.000117
    11  H   -0.010794  -0.013949   0.079222   0.319682  -0.003098  -0.023060
    12  F    0.009873   0.295209  -0.000878  -0.059385  -0.002403   0.002615
    13  C    0.299537   0.001247   0.011000  -0.001281  -0.042365   0.000012
    14  H   -0.008802   0.000137  -0.000244   0.000200   0.004130  -0.000003
    15  H   -0.003174  -0.001534  -0.000361  -0.000683  -0.007909  -0.000027
    16  H   -0.010481  -0.000004  -0.000212   0.000012  -0.004748   0.000000
    17  C   -0.086750  -0.000023  -0.037535  -0.001108   0.307600   0.000004
    18  H    0.005761   0.000001  -0.000651   0.000020  -0.022713  -0.000000
    19  H   -0.009605  -0.000024   0.006346   0.000221  -0.013231  -0.000000
    20  H    0.000452  -0.000038  -0.001096  -0.000059  -0.022181  -0.000007
               7          8          9         10         11         12
     1  C   -0.000040   0.000274   0.004249   0.383958  -0.010794   0.009873
     2  C   -0.000114   0.421857   0.000009  -0.000288  -0.013949   0.295209
     3  C    0.363470  -0.000048   0.358737   0.032403   0.079222  -0.000878
     4  C    0.002744  -0.061822   0.000790  -0.004012   0.319682  -0.059385
     5  N   -0.033862  -0.000029  -0.031873  -0.026540  -0.003098  -0.002403
     6  H    0.000108  -0.006868  -0.000008   0.000117  -0.023060   0.002615
     7  H    0.733637   0.000029  -0.039516  -0.001560  -0.007278   0.001151
     8  H    0.000029   0.616748   0.000001  -0.000031   0.004837  -0.031046
     9  H   -0.039516   0.000001   0.743821  -0.000462  -0.002736   0.000002
    10  H   -0.001560  -0.000031  -0.000462   0.555344   0.008464  -0.000122
    11  H   -0.007278   0.004837  -0.002736   0.008464   0.572146  -0.001796
    12  F    0.001151  -0.031046   0.000002  -0.000122  -0.001796   9.005917
    13  C   -0.000969  -0.000140  -0.000850  -0.034323   0.002363  -0.006939
    14  H    0.000023   0.000004   0.000019  -0.008475  -0.000124  -0.000076
    15  H    0.000182   0.000028  -0.000015   0.002416  -0.000232   0.011955
    16  H   -0.000038   0.000001   0.000082   0.002949  -0.000009   0.000091
    17  C   -0.003392  -0.000008  -0.009260   0.009250   0.002197   0.000139
    18  H   -0.001927   0.000001   0.008797  -0.000351  -0.000086   0.000096
    19  H    0.000967   0.000001   0.000939  -0.000894  -0.000433  -0.000334
    20  H    0.005433   0.000072  -0.001524  -0.000318  -0.000062   0.006924
              13         14         15         16         17         18
     1  C    0.299537  -0.008802  -0.003174  -0.010481  -0.086750   0.005761
     2  C    0.001247   0.000137  -0.001534  -0.000004  -0.000023   0.000001
     3  C    0.011000  -0.000244  -0.000361  -0.000212  -0.037535  -0.000651
     4  C   -0.001281   0.000200  -0.000683   0.000012  -0.001108   0.000020
     5  N   -0.042365   0.004130  -0.007909  -0.004748   0.307600  -0.022713
     6  H    0.000012  -0.000003  -0.000027   0.000000   0.000004  -0.000000
     7  H   -0.000969   0.000023   0.000182  -0.000038  -0.003392  -0.001927
     8  H   -0.000140   0.000004   0.000028   0.000001  -0.000008   0.000001
     9  H   -0.000850   0.000019  -0.000015   0.000082  -0.009260   0.008797
    10  H   -0.034323  -0.008475   0.002416   0.002949   0.009250  -0.000351
    11  H    0.002363  -0.000124  -0.000232  -0.000009   0.002197  -0.000086
    12  F   -0.006939  -0.000076   0.011955   0.000091   0.000139   0.000096
    13  C    4.679544   0.387243   0.373108   0.386591   0.009287  -0.000476
    14  H    0.387243   0.577705  -0.014621  -0.014365   0.000429  -0.000014
    15  H    0.373108  -0.014621   0.564069  -0.013559  -0.000038  -0.000032
    16  H    0.386591  -0.014365  -0.013559   0.559255  -0.002154   0.000351
    17  C    0.009287   0.000429  -0.000038  -0.002154   4.605762   0.395036
    18  H   -0.000476  -0.000014  -0.000032   0.000351   0.395036   0.578356
    19  H    0.004181   0.000352  -0.000145   0.002489   0.360164  -0.018339
    20  H   -0.000495  -0.000013   0.000668  -0.000320   0.397522  -0.014973
              19         20
     1  C   -0.009605   0.000452
     2  C   -0.000024  -0.000038
     3  C    0.006346  -0.001096
     4  C    0.000221  -0.000059
     5  N   -0.013231  -0.022181
     6  H   -0.000000  -0.000007
     7  H    0.000967   0.005433
     8  H    0.000001   0.000072
     9  H    0.000939  -0.001524
    10  H   -0.000894  -0.000318
    11  H   -0.000433  -0.000062
    12  F   -0.000334   0.006924
    13  C    0.004181  -0.000495
    14  H    0.000352  -0.000013
    15  H   -0.000145   0.000668
    16  H    0.002489  -0.000320
    17  C    0.360164   0.397522
    18  H   -0.018339  -0.014973
    19  H    0.635835  -0.017997
    20  H   -0.017997   0.566724
 Mulliken charges:
               1
     1  C    0.046771
     2  C    0.148827
     3  C   -0.301907
     4  C   -0.155862
     5  N   -0.189698
     6  H    0.070743
     7  H   -0.019046
     8  H    0.056140
     9  H   -0.031201
    10  H    0.082477
    11  H    0.074746
    12  F   -0.230994
    13  C   -0.066274
    14  H    0.076495
    15  H    0.089901
    16  H    0.094067
    17  C    0.052878
    18  H    0.071144
    19  H    0.049504
    20  H    0.081287
 Sum of Mulliken charges =  -0.00000
 Mulliken charges with hydrogens summed into heavy atoms:
               1
     1  C    0.129248
     2  C    0.204967
     3  C   -0.352154
     4  C   -0.010373
     5  N   -0.189698
    12  F   -0.230994
    13  C    0.194189
    17  C    0.254814
 APT charges:
               1
     1  C    0.361556
     2  C    0.594140
     3  C   -0.343805
     4  C   -0.310940
     5  N   -0.241873
     6  H    0.064395
     7  H   -0.052332
     8  H    0.047740
     9  H   -0.074656
    10  H    0.097340
    11  H    0.198965
    12  F   -0.593705
    13  C   -0.086439
    14  H    0.040245
    15  H    0.048575
    16  H    0.038511
    17  C    0.139399
    18  H    0.044662
    19  H   -0.018846
    20  H    0.047068
 Sum of APT charges =   0.00000
 APT charges with hydrogens summed into heavy atoms:
               1
     1  C    0.458897
     2  C    0.641880
     3  C   -0.470793
     4  C   -0.047581
     5  N   -0.241873
    12  F   -0.593705
    13  C    0.040892
    17  C    0.212283
 Electronic spatial extent (au):  <R**2>=           1205.1281
 Charge=             -0.0000 electrons
 Dipole moment (field-independent basis, Debye):
    X=              0.2823    Y=              5.8881    Z=              1.6040  Tot=              6.1092
 Quadrupole moment (field-independent basis, Debye-Ang):
   XX=            -41.7913   YY=            -56.7094   ZZ=            -50.8905
   XY=              3.7483   XZ=              4.0336   YZ=             -6.6454
 Traceless Quadrupole moment (field-independent basis, Debye-Ang):
   XX=              8.0057   YY=             -6.9123   ZZ=             -1.0934
   XY=              3.7483   XZ=              4.0336   YZ=             -6.6454
 Octapole moment (field-independent basis, Debye-Ang**2):
  XXX=            -19.9352  YYY=             39.3091  ZZZ=             13.7464  XYY=             -5.5018
  XXY=             12.6903  XXZ=              6.8388  XZZ=             -2.2237  YZZ=             12.3931
  YYZ=             13.5918  XYZ=             -8.5644
 Hexadecapole moment (field-independent basis, Debye-Ang**3):
 XXXX=           -772.2673 YYYY=           -506.4877 ZZZZ=           -266.9081 XXXY=            -10.9991
 XXXZ=              9.2353 YYYX=             18.7175 YYYZ=            -32.1516 ZZZX=             -0.2318
 ZZZY=            -18.8439 XXYY=           -220.7744 XXZZ=           -182.8017 YYZZ=           -137.0144
 XXYZ=              2.0509 YYXZ=              5.6279 ZZXY=              9.6077
 N-N= 3.849281274527D+02 E-N=-1.678278184517D+03  KE= 3.859528371147D+02
  Exact polarizability:      78.832      -4.318      97.537       7.479       1.733      80.665
 Approx polarizability:      71.410      -3.663      90.287       5.968       3.196      81.748
   1 Symmetry operations used in ECPInt.
 ECPInt:  NShTT=    3570 NPrTT=   12386 LenC2=    3546 LenP2D=    9917.
 LDataN:  DoStor=T MaxTD1= 6 Len=  172
 D2PCM: PCM CHGder 2nd derivatives, FixD1E=F FixD2E=F DoIter=F DoCFld=F I1PDM=0
 Calling FoFJK, ICntrl=    100127 FMM=F ISym2X=0 I1Cent= 0 IOpClX= 0 NMat=1 NMatS=1 NMatT=0.
 Full mass-weighted force constant matrix:
 Low frequencies --- -359.8291   -0.0007   -0.0006   -0.0005   11.7039   14.5633
 Low frequencies ---   26.8666   48.1785   73.9703
 ******    1 imaginary frequencies (negative Signs) ****** 
 Diagonal vibrational polarizability:
      140.9001224      43.0434663      53.8765477
 Harmonic frequencies (cm**-1), IR intensities (KM/Mole), Raman scattering
 activities (A**4/AMU), depolarization ratios for plane and unpolarized
 incident light, reduced masses (AMU), force constants (mDyne/A),
 and normal coordinates:
                      1                      2                      3
                      A                      A                      A
 Frequencies --   -359.8281                47.4591                73.7273
 Red. masses --      1.0889                 3.8005                 3.4113
 Frc consts  --      0.0831                 0.0050                 0.0109
 IR Inten    --     61.4446                 5.8152                21.4040
  Atom  AN      X      Y      Z        X      Y      Z        X      Y      Z
     1   6     0.00  -0.00  -0.00     0.06   0.06   0.04     0.02  -0.04  -0.03
     2   6    -0.00  -0.00   0.00    -0.13  -0.13   0.05     0.02   0.05   0.03
     3   6     0.04   0.01  -0.00    -0.05   0.04  -0.05     0.20  -0.06  -0.15
     4   6    -0.02   0.01  -0.01    -0.12  -0.19   0.10     0.07  -0.02   0.10
     5   7     0.03  -0.01  -0.01     0.03   0.02  -0.01     0.01  -0.05  -0.03
     6   1    -0.03   0.02   0.01    -0.22  -0.44   0.28     0.07  -0.13   0.13
     7   1    -0.54   0.19  -0.40    -0.06   0.05  -0.06     0.09  -0.16  -0.28
     8   1    -0.00  -0.00   0.01    -0.22  -0.30   0.16    -0.02   0.00  -0.02
     9   1    -0.17  -0.13   0.65    -0.07  -0.01  -0.09     0.21   0.02   0.00
    10   1     0.08  -0.00  -0.03     0.00   0.12   0.04     0.18  -0.04  -0.10
    11   1    -0.04   0.02  -0.05    -0.03  -0.01  -0.01     0.09   0.02   0.11
    12   9     0.00  -0.01  -0.00    -0.03   0.17  -0.16     0.01   0.20  -0.00
    13   6    -0.04  -0.00   0.02     0.16   0.05   0.09    -0.14  -0.04   0.04
    14   1    -0.07  -0.00   0.03     0.25   0.10   0.09    -0.09  -0.04   0.02
    15   1    -0.00   0.01   0.04     0.14   0.06   0.07    -0.25  -0.13  -0.02
    16   1    -0.03  -0.00  -0.03     0.17  -0.04   0.15    -0.19   0.04   0.16
    17   6     0.04   0.00  -0.01     0.07  -0.06  -0.01    -0.17  -0.08   0.04
    18   1     0.03  -0.02  -0.01    -0.02  -0.18  -0.00    -0.03   0.10   0.05
    19   1     0.07  -0.01  -0.03     0.22  -0.10  -0.01    -0.43  -0.02   0.19
    20   1     0.04   0.03  -0.01     0.03   0.05  -0.01    -0.18  -0.35  -0.06
                      4                      5                      6
                      A                      A                      A
 Frequencies --     80.9521               117.4120               128.4180
 Red. masses --      2.4477                 4.9854                 1.2150
 Frc consts  --      0.0095                 0.0405                 0.0118
 IR Inten    --      1.2713                 0.3512                 0.2814
  Atom  AN      X      Y      Z        X      Y      Z        X      Y      Z
     1   6    -0.11  -0.03   0.07    -0.13   0.04   0.07    -0.03  -0.00   0.03
     2   6     0.01   0.08  -0.10     0.18  -0.01  -0.05    -0.01   0.03  -0.02
     3   6     0.03  -0.04   0.02    -0.15   0.03   0.05     0.01  -0.00   0.03
     4   6     0.03  -0.02  -0.01     0.00  -0.09   0.01    -0.06   0.01  -0.01
     5   7     0.04  -0.04   0.01    -0.13   0.02   0.05     0.02  -0.00   0.02
     6   1     0.08  -0.01  -0.07    -0.09  -0.09   0.13    -0.06   0.04  -0.01
     7   1     0.17  -0.08   0.11    -0.16   0.04   0.04     0.02   0.00   0.04
     8   1     0.03   0.17  -0.24     0.25   0.06   0.02     0.02   0.08  -0.02
     9   1     0.08  -0.01  -0.15    -0.16   0.02   0.05     0.01  -0.00   0.00
    10   1    -0.21  -0.02   0.11    -0.15   0.06   0.07    -0.10  -0.01   0.06
    11   1     0.01  -0.10   0.12    -0.04  -0.15  -0.07    -0.08  -0.03   0.01
    12   9    -0.05   0.08  -0.03     0.31  -0.01  -0.19     0.01  -0.01  -0.03
    13   6    -0.14  -0.03   0.11    -0.08   0.04   0.07    -0.03   0.00   0.00
    14   1    -0.40  -0.02   0.22    -0.29   0.04   0.16     0.37  -0.01  -0.17
    15   1     0.07  -0.10   0.28     0.14   0.05   0.23    -0.41   0.05  -0.28
    16   1    -0.10   0.02  -0.15    -0.02   0.03  -0.20    -0.12  -0.03   0.46
    17   6     0.19  -0.03  -0.05    -0.09  -0.01   0.04     0.09  -0.02  -0.01
    18   1     0.08  -0.17  -0.07     0.08   0.18  -0.11     0.27   0.17  -0.17
    19   1     0.38  -0.07  -0.16    -0.34   0.05   0.15    -0.16   0.04   0.08
    20   1     0.20   0.17   0.03     0.03  -0.30   0.08     0.22  -0.29   0.04
                      7                      8                      9
                      A                      A                      A
 Frequencies --    144.8487               157.7837               184.4215
 Red. masses --      1.5054                 2.0213                 2.1420
 Frc consts  --      0.0186                 0.0296                 0.0429
 IR Inten    --      2.0342                12.3703                 3.4813
  Atom  AN      X      Y      Z        X      Y      Z        X      Y      Z
     1   6    -0.03   0.01  -0.01    -0.03   0.03  -0.00    -0.02  -0.04   0.02
     2   6     0.07  -0.03  -0.01     0.03  -0.03  -0.04    -0.05  -0.12   0.10
     3   6    -0.10   0.01  -0.01    -0.10   0.02  -0.00    -0.03  -0.02   0.05
     4   6     0.14  -0.04   0.01     0.17  -0.07   0.01     0.10   0.15  -0.13
     5   7    -0.03   0.00  -0.02    -0.06   0.01  -0.01     0.00  -0.02   0.02
     6   1     0.16  -0.07  -0.02     0.24  -0.11  -0.07     0.02  -0.01   0.01
     7   1    -0.12   0.06  -0.00    -0.18   0.06  -0.05     0.02  -0.02   0.10
     8   1     0.04  -0.05  -0.07    -0.02  -0.05  -0.18    -0.23  -0.50   0.41
     9   1    -0.13  -0.04   0.01    -0.14  -0.03   0.08    -0.02  -0.03  -0.04
    10   1    -0.05   0.03  -0.01    -0.06   0.04   0.00    -0.03  -0.05   0.02
    11   1     0.15  -0.03   0.04     0.19  -0.06   0.11     0.22   0.41  -0.36
    12   9     0.02   0.03   0.03    -0.09   0.05   0.08     0.02   0.07  -0.04
    13   6    -0.04   0.01   0.02     0.08   0.02  -0.02    -0.07  -0.03  -0.01
    14   1     0.28   0.03  -0.09    -0.00   0.03   0.01    -0.12  -0.06  -0.01
    15   1    -0.34   0.00  -0.19     0.20   0.08   0.05    -0.06  -0.05   0.00
    16   1    -0.11  -0.02   0.41     0.12  -0.03  -0.17    -0.08   0.02  -0.04
    17   6    -0.03  -0.01  -0.02     0.03  -0.04  -0.04     0.05  -0.00  -0.00
    18   1    -0.26  -0.27   0.12     0.29   0.23  -0.27     0.10   0.05  -0.05
    19   1     0.31  -0.09  -0.14    -0.32   0.04   0.12    -0.01   0.01  -0.01
    20   1    -0.16   0.35  -0.04     0.22  -0.46   0.02     0.10  -0.06   0.04
                     10                     11                     12
                      A                      A                      A
 Frequencies --    304.9362               331.4140               452.4468
 Red. masses --      2.5392                 2.6721                 2.6348
 Frc consts  --      0.1391                 0.1729                 0.3178
 IR Inten    --     23.6620                 4.9910                11.4373
  Atom  AN      X      Y      Z        X      Y      Z        X      Y      Z
     1   6     0.24   0.00  -0.10    -0.03  -0.03  -0.09    -0.05   0.08  -0.06
     2   6    -0.01   0.02  -0.01    -0.00  -0.00   0.01    -0.01   0.00   0.01
     3   6    -0.18   0.02   0.06     0.03  -0.08   0.09     0.09  -0.03   0.23
     4   6    -0.02  -0.02   0.02     0.00   0.01  -0.01     0.00   0.01  -0.00
     5   7     0.11   0.00  -0.04    -0.04  -0.03  -0.10     0.03   0.05  -0.11
     6   1    -0.01  -0.02   0.01    -0.00   0.00   0.00     0.02  -0.01  -0.01
     7   1    -0.03   0.19   0.26     0.05   0.00   0.14     0.18   0.17   0.39
     8   1     0.01   0.06  -0.04    -0.01  -0.02   0.02    -0.02  -0.01   0.03
     9   1    -0.22  -0.14  -0.15     0.05  -0.01   0.16     0.14   0.10   0.37
    10   1     0.36  -0.00  -0.14    -0.05   0.10  -0.13    -0.14   0.13  -0.05
    11   1    -0.01  -0.03   0.06    -0.00   0.01  -0.01     0.01   0.01   0.03
    12   9    -0.01  -0.01  -0.00     0.00   0.00  -0.00     0.00  -0.00  -0.01
    13   6    -0.12   0.00   0.05     0.08  -0.09   0.21    -0.01   0.09  -0.01
    14   1    -0.34  -0.01   0.13     0.18   0.17   0.34    -0.00   0.15   0.02
    15   1    -0.18  -0.33   0.10     0.06  -0.25   0.24     0.03   0.08   0.02
    16   1    -0.22   0.33   0.06     0.10  -0.23   0.33     0.01   0.03  -0.02
    17   6     0.01  -0.01  -0.00    -0.06   0.18  -0.14    -0.05  -0.19  -0.07
    18   1     0.08   0.08  -0.01     0.06   0.34  -0.09    -0.16  -0.34  -0.11
    19   1    -0.11   0.02   0.07    -0.22   0.23  -0.21     0.05  -0.25   0.19
    20   1     0.01  -0.15  -0.05    -0.01   0.12  -0.11    -0.16  -0.27  -0.21
                     13                     14                     15
                      A                      A                      A
 Frequencies --    486.6001               525.1210               569.7873
 Red. masses --      2.4200                 2.5067                 3.2129
 Frc consts  --      0.3376                 0.4073                 0.6146
 IR Inten    --      1.7696                 3.1432                13.0803
  Atom  AN      X      Y      Z        X      Y      Z        X      Y      Z
     1   6    -0.12  -0.02   0.07    -0.00   0.00   0.00    -0.07  -0.08  -0.16
     2   6    -0.02   0.01   0.00     0.17  -0.11  -0.04     0.01  -0.00  -0.00
     3   6    -0.06   0.02  -0.03    -0.00  -0.01   0.01     0.02   0.29   0.02
     4   6     0.02   0.01   0.01    -0.12  -0.07  -0.14    -0.01  -0.00  -0.01
     5   7     0.27  -0.02  -0.09     0.03  -0.00  -0.01     0.00   0.13   0.03
     6   1     0.05  -0.02  -0.02    -0.42   0.33   0.15    -0.02   0.01   0.01
     7   1    -0.07   0.23   0.06     0.03   0.02   0.05     0.00   0.18  -0.05
     8   1    -0.01   0.01   0.01     0.13  -0.14  -0.13     0.01  -0.01  -0.00
     9   1    -0.19  -0.24  -0.13     0.01  -0.02  -0.03     0.00   0.22  -0.09
    10   1    -0.45  -0.03   0.21    -0.04   0.01   0.02    -0.02  -0.25  -0.11
    11   1     0.03   0.02   0.06    -0.35  -0.30  -0.55    -0.01  -0.01  -0.02
    12   9    -0.00  -0.01  -0.01    -0.01   0.12   0.13     0.00   0.01   0.00
    13   6     0.01  -0.02  -0.01    -0.00   0.01  -0.00    -0.00  -0.23   0.00
    14   1     0.05  -0.04  -0.03    -0.01   0.00  -0.00     0.08   0.07   0.17
    15   1     0.08   0.13   0.00     0.00   0.01  -0.00     0.06  -0.41   0.10
    16   1     0.06  -0.16  -0.07    -0.00   0.02  -0.00     0.05  -0.47   0.10
    17   6    -0.05   0.04   0.04    -0.00  -0.00   0.00     0.03  -0.04   0.08
    18   1    -0.02   0.15   0.36    -0.00   0.01   0.04    -0.04  -0.18  -0.08
    19   1    -0.26   0.09   0.15    -0.02   0.00   0.02     0.13  -0.10   0.31
    20   1    -0.29  -0.06  -0.25    -0.03  -0.01  -0.03     0.01  -0.15   0.02
                     16                     17                     18
                      A                      A                      A
 Frequencies --    751.6015               804.8492               858.5816
 Red. masses --      1.4199                 3.2222                 1.1230
 Frc consts  --      0.4726                 1.2298                 0.4878
 IR Inten    --      8.5639                 3.9304                38.6811
  Atom  AN      X      Y      Z        X      Y      Z        X      Y      Z
     1   6     0.00   0.00  -0.00     0.07  -0.03   0.17    -0.04  -0.00   0.02
     2   6    -0.06  -0.13   0.11    -0.00  -0.00  -0.00     0.00  -0.00   0.00
     3   6    -0.00  -0.00  -0.01     0.05   0.26   0.08    -0.01   0.00   0.01
     4   6    -0.00  -0.00  -0.00    -0.00  -0.01   0.00    -0.00  -0.01   0.01
     5   7    -0.00   0.00   0.00    -0.01  -0.10   0.02     0.03  -0.01  -0.01
     6   1     0.29   0.62  -0.53     0.01   0.02  -0.02     0.01   0.03  -0.02
     7   1     0.00   0.00  -0.00    -0.00   0.12  -0.04     0.04   0.08   0.09
     8   1     0.12   0.25  -0.21     0.01   0.01  -0.01     0.01   0.01  -0.01
     9   1    -0.00   0.00   0.01     0.02   0.17  -0.08    -0.03  -0.09  -0.11
    10   1    -0.01  -0.01   0.00     0.04   0.04   0.17     0.64  -0.01  -0.25
    11   1    -0.11  -0.23   0.20     0.01   0.01  -0.01     0.01   0.02  -0.02
    12   9     0.02   0.05  -0.04     0.00   0.00   0.00    -0.00   0.00  -0.00
    13   6     0.00   0.00   0.00     0.02  -0.08   0.04    -0.08   0.01   0.03
    14   1    -0.01   0.00   0.01    -0.08  -0.52  -0.20     0.24   0.01  -0.09
    15   1    -0.00  -0.01   0.00    -0.08   0.17  -0.11     0.13   0.43   0.04
    16   1    -0.00   0.01   0.00    -0.03   0.22  -0.12     0.09  -0.41  -0.12
    17   6     0.00   0.00   0.00    -0.09  -0.06  -0.23    -0.01   0.00  -0.01
    18   1     0.00   0.00   0.00    -0.04   0.04  -0.12     0.01  -0.00  -0.08
    19   1     0.00   0.00   0.00    -0.18  -0.01  -0.44     0.02  -0.00  -0.03
    20   1     0.00   0.00   0.01    -0.08   0.04  -0.18     0.05   0.01   0.06
                     19                     20                     21
                      A                      A                      A
 Frequencies --    948.2415               958.5876               971.5352
 Red. masses --      1.9459                 1.4072                 1.7636
 Frc consts  --      1.0309                 0.7619                 0.9808
 IR Inten    --     45.6334                 7.7191                25.7355
  Atom  AN      X      Y      Z        X      Y      Z        X      Y      Z
     1   6    -0.00  -0.01  -0.01     0.01   0.00   0.01     0.02   0.06   0.07
     2   6     0.07   0.03   0.04    -0.03  -0.09   0.08     0.02   0.02  -0.01
     3   6     0.00   0.01   0.02    -0.01  -0.00  -0.02    -0.05  -0.08  -0.13
     4   6     0.12   0.01   0.14     0.06   0.10  -0.06     0.00  -0.01   0.02
     5   7    -0.00  -0.01  -0.00     0.00   0.01   0.00     0.01   0.11   0.01
     6   1    -0.21   0.67   0.43    -0.27  -0.38   0.49     0.01   0.13  -0.02
     7   1    -0.04  -0.04  -0.05     0.05   0.05   0.06     0.32   0.26   0.38
     8   1    -0.08  -0.14  -0.08     0.21   0.44  -0.41    -0.07  -0.15   0.11
     9   1     0.01  -0.01  -0.08    -0.00   0.03   0.07     0.02   0.22   0.52
    10   1    -0.02  -0.00  -0.00     0.02   0.00   0.00     0.03   0.14   0.04
    11   1    -0.09  -0.13  -0.42    -0.12  -0.23   0.12    -0.04  -0.07   0.02
    12   9    -0.10  -0.05  -0.11    -0.02  -0.00  -0.02    -0.01  -0.00  -0.01
    13   6     0.00   0.01   0.00    -0.00  -0.01   0.01     0.01  -0.13   0.02
    14   1    -0.00   0.02   0.01     0.00  -0.04  -0.02    -0.03  -0.38  -0.12
    15   1     0.00   0.01   0.00    -0.00   0.02  -0.01    -0.05   0.00  -0.07
    16   1    -0.00   0.02   0.01     0.00  -0.01  -0.02    -0.00  -0.03  -0.10
    17   6     0.00   0.00   0.00    -0.00   0.00  -0.00    -0.01   0.02  -0.02
    18   1    -0.00  -0.00   0.01    -0.00   0.00  -0.01    -0.03  -0.03  -0.11
    19   1    -0.00   0.00   0.01     0.01  -0.00  -0.00     0.06  -0.02   0.08
    20   1    -0.00  -0.01  -0.00     0.01   0.00   0.01     0.02  -0.03  -0.00
                     22                     23                     24
                      A                      A                      A
 Frequencies --   1016.4502              1031.9561              1037.9973
 Red. masses --      1.1586                 1.9874                 1.3484
 Frc consts  --      0.7053                 1.2470                 0.8560
 IR Inten    --     56.9162                 1.1322                28.7409
  Atom  AN      X      Y      Z        X      Y      Z        X      Y      Z
     1   6    -0.00   0.03   0.01    -0.03   0.00  -0.08    -0.02  -0.03  -0.02
     2   6    -0.02  -0.02   0.01     0.01   0.00  -0.00    -0.01  -0.01   0.00
     3   6     0.00  -0.04   0.02     0.02   0.05   0.03    -0.01   0.06  -0.06
     4   6    -0.02  -0.05   0.04     0.00   0.02  -0.01    -0.01  -0.03   0.02
     5   7    -0.00   0.03  -0.01    -0.06  -0.09  -0.14    -0.01  -0.08  -0.03
     6   1     0.03  -0.02  -0.05     0.00  -0.02  -0.00     0.01   0.02  -0.02
     7   1    -0.08  -0.08  -0.08    -0.02   0.03  -0.02     0.26   0.24   0.28
     8   1     0.16   0.36  -0.29    -0.04  -0.10   0.08     0.07   0.16  -0.13
     9   1     0.02  -0.04  -0.11     0.01   0.03  -0.05     0.01   0.21   0.35
    10   1    -0.01   0.15  -0.03    -0.07   0.44  -0.23    -0.02  -0.01  -0.03
    11   1     0.26   0.54  -0.46    -0.08  -0.16   0.15     0.14   0.29  -0.25
    12   9     0.01  -0.00   0.01    -0.00   0.00  -0.00     0.00  -0.00   0.00
    13   6     0.01  -0.05   0.01     0.03  -0.03   0.09    -0.00   0.04  -0.02
    14   1    -0.04  -0.20  -0.07    -0.04  -0.49  -0.19     0.01   0.19   0.07
    15   1    -0.04   0.00  -0.04    -0.13   0.31  -0.13     0.03  -0.04   0.03
    16   1    -0.01   0.05  -0.04    -0.01   0.29  -0.18    -0.00  -0.00   0.05
    17   6     0.01   0.03  -0.00     0.06   0.03   0.16     0.01  -0.07   0.07
    18   1    -0.07  -0.08  -0.07     0.05   0.00   0.11     0.18   0.19   0.23
    19   1     0.06  -0.00   0.18     0.07   0.03   0.18    -0.12   0.02  -0.34
    20   1    -0.03  -0.08  -0.08     0.03   0.01   0.11     0.06   0.19   0.21
                     25                     26                     27
                      A                      A                      A
 Frequencies --   1094.1382              1124.8097              1131.9704
 Red. masses --      1.5201                 1.2783                 1.8873
 Frc consts  --      1.0722                 0.9529                 1.4248
 IR Inten    --      1.3577                 1.3961                27.9524
  Atom  AN      X      Y      Z        X      Y      Z        X      Y      Z
     1   6     0.15   0.00  -0.06    -0.07  -0.00   0.03     0.04   0.17   0.10
     2   6     0.01  -0.00   0.00    -0.01   0.00  -0.00    -0.02   0.00  -0.01
     3   6    -0.03   0.00   0.00    -0.04   0.00  -0.00     0.02  -0.01   0.05
     4   6    -0.00  -0.00   0.00     0.00   0.00  -0.00     0.01   0.00  -0.01
     5   7    -0.04   0.00   0.02    -0.03  -0.00   0.01    -0.02  -0.02  -0.06
     6   1     0.01  -0.02  -0.02    -0.01   0.01   0.01    -0.02   0.02   0.03
     7   1     0.01  -0.23  -0.07     0.03  -0.18  -0.03    -0.12  -0.06  -0.11
     8   1     0.01   0.01  -0.00    -0.01  -0.01   0.01    -0.03  -0.02   0.01
     9   1     0.09   0.25   0.10     0.07   0.23   0.10     0.02  -0.06  -0.16
    10   1    -0.46  -0.01   0.19     0.42  -0.01  -0.16     0.01   0.58  -0.02
    11   1     0.01   0.04  -0.01    -0.02  -0.04   0.01    -0.04  -0.09   0.03
    12   9    -0.00   0.00  -0.00     0.00  -0.00   0.00     0.01   0.00   0.00
    13   6    -0.11  -0.00   0.04     0.04   0.00  -0.02    -0.05  -0.10  -0.12
    14   1     0.24   0.01  -0.09    -0.09   0.02   0.04    -0.00   0.11   0.02
    15   1     0.12   0.36   0.09    -0.04  -0.13  -0.03     0.09  -0.41   0.07
    16   1     0.05  -0.38  -0.17    -0.02   0.12   0.07     0.00  -0.43   0.09
    17   6     0.06  -0.01  -0.02     0.11  -0.01  -0.04     0.01  -0.04   0.04
    18   1     0.01   0.00   0.26     0.01  -0.01   0.48     0.13   0.14   0.16
    19   1    -0.13   0.04   0.08    -0.23   0.07   0.18    -0.08   0.01  -0.17
    20   1    -0.15   0.01  -0.24    -0.28  -0.01  -0.47     0.02   0.14   0.11
                     28                     29                     30
                      A                      A                      A
 Frequencies --   1178.5648              1204.2935              1241.1777
 Red. masses --      3.0178                 1.8913                 1.3244
 Frc consts  --      2.4697                 1.6161                 1.2021
 IR Inten    --    117.3161                 2.9758                18.3066
  Atom  AN      X      Y      Z        X      Y      Z        X      Y      Z
     1   6    -0.01   0.01   0.02    -0.04   0.05  -0.10     0.03   0.00  -0.01
     2   6     0.31  -0.06   0.09     0.01  -0.00   0.00     0.00  -0.00  -0.00
     3   6    -0.00   0.00   0.00     0.01  -0.06   0.04     0.09  -0.01  -0.03
     4   6    -0.12   0.06   0.01    -0.00   0.00  -0.00    -0.00  -0.00   0.00
     5   7     0.00  -0.01  -0.01     0.03   0.16   0.04    -0.11   0.00   0.04
     6   1     0.17  -0.29  -0.26     0.01  -0.02  -0.01    -0.01   0.01   0.01
     7   1    -0.00  -0.02  -0.01    -0.16  -0.10  -0.14     0.05   0.60   0.22
     8   1     0.46   0.06   0.30     0.02   0.01   0.02     0.01   0.01   0.01
     9   1    -0.00   0.01  -0.00     0.02  -0.10  -0.19    -0.21  -0.59  -0.19
    10   1     0.04   0.07  -0.01     0.01  -0.17  -0.04    -0.08   0.01   0.03
    11   1     0.14   0.37   0.42     0.00   0.01   0.02     0.02   0.02   0.00
    12   9    -0.16  -0.00  -0.09    -0.01  -0.00  -0.00    -0.00  -0.00  -0.00
    13   6     0.00  -0.01  -0.02     0.03  -0.04   0.07    -0.01  -0.00   0.00
    14   1    -0.03   0.04   0.02    -0.02  -0.28  -0.06     0.01   0.00  -0.00
    15   1     0.02  -0.06   0.01    -0.13   0.11  -0.09     0.00   0.01   0.00
    16   1    -0.02  -0.01   0.06     0.03   0.13  -0.14     0.01  -0.03  -0.01
    17   6     0.00   0.01  -0.00    -0.00  -0.14  -0.00     0.06  -0.00  -0.02
    18   1    -0.01  -0.01   0.02     0.24   0.24   0.30    -0.03  -0.05   0.18
    19   1     0.01   0.00   0.02    -0.26  -0.01  -0.50    -0.16   0.04   0.09
    20   1     0.00  -0.02  -0.01    -0.00   0.30   0.15    -0.10   0.04  -0.18
                     31                     32                     33
                      A                      A                      A
 Frequencies --   1339.7179              1346.9560              1394.3138
 Red. masses --      1.1485                 1.3261                 1.2548
 Frc consts  --      1.2145                 1.4175                 1.4373
 IR Inten    --      1.6758                 4.8924                15.0340
  Atom  AN      X      Y      Z        X      Y      Z        X      Y      Z
     1   6     0.00   0.00   0.00    -0.01  -0.08  -0.04     0.01   0.04   0.03
     2   6    -0.05   0.04   0.02    -0.01   0.00  -0.00     0.01   0.02   0.03
     3   6     0.00  -0.00   0.00    -0.00   0.01  -0.01     0.00  -0.03   0.01
     4   6     0.06  -0.06  -0.04     0.00  -0.01  -0.00    -0.00   0.01   0.01
     5   7    -0.00  -0.00  -0.01     0.04   0.03   0.10    -0.03   0.01  -0.06
     6   1     0.06  -0.08  -0.05    -0.01   0.01   0.01     0.11  -0.14  -0.10
     7   1    -0.01   0.02   0.00     0.05  -0.09   0.00    -0.15   0.21  -0.02
     8   1     0.38   0.41   0.70     0.02   0.03   0.05    -0.07  -0.04  -0.08
     9   1     0.01   0.02  -0.01    -0.05  -0.07   0.04     0.12   0.17  -0.13
    10   1     0.01  -0.04   0.02    -0.11   0.69  -0.27     0.06  -0.33   0.15
    11   1    -0.10  -0.25  -0.31    -0.00  -0.02  -0.01    -0.10  -0.10  -0.15
    12   9    -0.03   0.01  -0.01    -0.00   0.00   0.00     0.00  -0.00  -0.00
    13   6     0.00   0.01   0.00    -0.01  -0.06  -0.03    -0.01  -0.10  -0.04
    14   1     0.00  -0.01  -0.01     0.05   0.26   0.15     0.01   0.15   0.12
    15   1    -0.01  -0.02   0.00     0.19   0.31   0.01     0.36   0.40   0.08
    16   1     0.01  -0.02  -0.01    -0.14   0.30   0.14    -0.21   0.34   0.33
    17   6     0.00   0.00   0.00    -0.01  -0.01  -0.02     0.00  -0.00   0.01
    18   1     0.00   0.00  -0.01    -0.03  -0.05  -0.06     0.04   0.05   0.06
    19   1     0.01  -0.00   0.01    -0.06   0.01  -0.13     0.03  -0.01   0.09
    20   1    -0.00   0.00  -0.00    -0.04  -0.03  -0.06     0.03   0.05   0.05
                     34                     35                     36
                      A                      A                      A
 Frequencies --   1412.8996              1428.5942              1438.9842
 Red. masses --      1.1859                 1.1756                 1.0929
 Frc consts  --      1.3948                 1.4136                 1.3333
 IR Inten    --      4.6672                 2.7321                19.5365
  Atom  AN      X      Y      Z        X      Y      Z        X      Y      Z
     1   6     0.00   0.03   0.01    -0.01  -0.01  -0.02     0.00  -0.04   0.02
     2   6    -0.03  -0.05  -0.08    -0.01  -0.01  -0.02    -0.01  -0.01  -0.02
     3   6     0.00   0.01   0.00    -0.00  -0.00   0.00    -0.00  -0.06   0.00
     4   6     0.01  -0.03  -0.03     0.00  -0.01  -0.01     0.00  -0.00  -0.01
     5   7    -0.01   0.00  -0.03     0.01  -0.01   0.02     0.01   0.00   0.01
     6   1    -0.31   0.41   0.30    -0.07   0.10   0.07    -0.07   0.10   0.08
     7   1     0.05  -0.11  -0.01    -0.06   0.08  -0.01    -0.33   0.50  -0.04
     8   1     0.18   0.13   0.24     0.04   0.03   0.06     0.04   0.02   0.05
     9   1    -0.06  -0.08   0.06     0.05   0.09  -0.04     0.30   0.46  -0.26
    10   1     0.03  -0.18   0.07    -0.03   0.09  -0.05    -0.01   0.10  -0.02
    11   1     0.29   0.27   0.44     0.07   0.06   0.10     0.07   0.07   0.14
    12   9     0.01   0.01   0.01     0.00   0.00   0.00     0.00   0.00   0.00
    13   6    -0.01  -0.04  -0.01     0.00   0.01  -0.00     0.00   0.01   0.01
    14   1     0.02   0.04   0.03    -0.06  -0.06  -0.03     0.07   0.13   0.06
    15   1     0.14   0.14   0.04     0.03   0.02   0.02    -0.14  -0.06  -0.07
    16   1    -0.08   0.13   0.11    -0.00  -0.02   0.07     0.05  -0.00  -0.19
    17   6     0.00  -0.00   0.02    -0.03   0.00  -0.11     0.01   0.01   0.03
    18   1     0.07   0.05  -0.09    -0.16  -0.00   0.56    -0.09  -0.14  -0.07
    19   1     0.03  -0.01  -0.00     0.00  -0.06   0.36    -0.09   0.06  -0.20
    20   1    -0.09   0.05  -0.06     0.47  -0.03   0.43    -0.03  -0.11  -0.06
                     37                     38                     39
                      A                      A                      A
 Frequencies --   1455.0242              1458.9566              1475.0448
 Red. masses --      1.0492                 1.1451                 1.0422
 Frc consts  --      1.3087                 1.4361                 1.3360
 IR Inten    --     28.9458                 7.9215                 1.0987
  Atom  AN      X      Y      Z        X      Y      Z        X      Y      Z
     1   6     0.01  -0.02  -0.00     0.01   0.06   0.02    -0.02  -0.01   0.01
     2   6    -0.00  -0.00  -0.00     0.00   0.00   0.00     0.00  -0.00   0.00
     3   6    -0.01  -0.00   0.00    -0.00   0.02   0.00    -0.00   0.00   0.00
     4   6     0.00  -0.00  -0.00     0.00  -0.00   0.00    -0.00   0.00   0.00
     5   7     0.01  -0.00  -0.00     0.00  -0.01  -0.03     0.01  -0.00  -0.01
     6   1    -0.01   0.01   0.01     0.01  -0.01  -0.01     0.01  -0.01  -0.01
     7   1    -0.03   0.02  -0.02     0.10  -0.18   0.01    -0.00  -0.01  -0.01
     8   1     0.00   0.00   0.00    -0.00   0.00  -0.00    -0.00  -0.00  -0.01
     9   1     0.04   0.08  -0.01    -0.09  -0.13   0.09     0.01   0.02   0.01
    10   1    -0.03   0.04  -0.01     0.03  -0.12   0.08     0.01   0.01  -0.01
    11   1     0.00   0.00   0.01    -0.01  -0.01  -0.02    -0.01  -0.00  -0.01
    12   9     0.00   0.00   0.00    -0.00  -0.00  -0.00    -0.00  -0.00  -0.00
    13   6     0.03   0.02  -0.01     0.01  -0.08   0.01    -0.04   0.01   0.01
    14   1    -0.45  -0.07   0.12     0.06   0.40   0.30     0.48  -0.04  -0.23
    15   1    -0.08   0.21  -0.14    -0.31   0.14  -0.28     0.19  -0.30   0.25
    16   1     0.05  -0.28   0.25     0.04   0.11  -0.38    -0.07   0.28  -0.16
    17   6     0.02  -0.02  -0.00     0.02   0.02   0.00     0.02  -0.02  -0.01
    18   1    -0.02  -0.14  -0.31    -0.23  -0.29   0.05    -0.06  -0.15  -0.20
    19   1    -0.38   0.07   0.24    -0.27   0.11  -0.06    -0.36   0.07   0.23
    20   1    -0.04   0.46   0.09     0.17  -0.04   0.15     0.02   0.38   0.13
                     40                     41                     42
                      A                      A                      A
 Frequencies --   1479.7875              1748.0439              1806.5196
 Red. masses --      1.0706                 4.8757                 7.7026
 Frc consts  --      1.3813                 8.7780                14.8105
 IR Inten    --     12.0140               100.5665                31.8578
  Atom  AN      X      Y      Z        X      Y      Z        X      Y      Z
     1   6     0.01  -0.02   0.02    -0.00   0.01  -0.00    -0.12   0.46  -0.30
     2   6     0.00  -0.00  -0.00     0.04   0.27   0.34    -0.00  -0.01  -0.01
     3   6     0.00  -0.00  -0.00    -0.00  -0.00  -0.00    -0.01  -0.00  -0.03
     4   6    -0.00   0.00   0.00     0.02  -0.26  -0.29     0.00   0.01   0.01
     5   7    -0.01  -0.01   0.01     0.00  -0.01   0.00     0.12  -0.36   0.32
     6   1     0.00  -0.00  -0.00    -0.37   0.17  -0.00     0.01  -0.01  -0.00
     7   1    -0.04   0.07  -0.00    -0.01   0.01  -0.00    -0.06   0.27   0.10
     8   1     0.00  -0.00  -0.00    -0.42  -0.00  -0.23     0.01   0.00   0.01
     9   1     0.03   0.04  -0.04     0.01   0.01  -0.00     0.15   0.25  -0.02
    10   1     0.00   0.06  -0.01     0.00  -0.01   0.00    -0.06  -0.27  -0.11
    11   1    -0.00   0.00   0.00     0.43   0.03   0.26    -0.02  -0.01  -0.02
    12   9    -0.00  -0.00  -0.00    -0.02  -0.02  -0.03     0.00   0.00   0.00
    13   6     0.00  -0.02   0.01     0.00  -0.00   0.00     0.01  -0.08   0.01
    14   1     0.09   0.26   0.15     0.01  -0.00  -0.00    -0.01  -0.19  -0.04
    15   1    -0.23   0.02  -0.17    -0.01  -0.02  -0.00     0.03   0.05  -0.00
    16   1     0.04   0.07  -0.31     0.00   0.00  -0.01    -0.03   0.06   0.01
    17   6    -0.04  -0.04  -0.04     0.00  -0.00   0.00    -0.02   0.03  -0.04
    18   1     0.32   0.42  -0.06     0.01   0.00  -0.02    -0.01  -0.04  -0.26
    19   1     0.30  -0.17   0.43    -0.00   0.00   0.00     0.04  -0.01   0.15
    20   1    -0.14   0.31  -0.05    -0.02   0.01  -0.01    -0.13   0.01  -0.14
                     43                     44                     45
                      A                      A                      A
 Frequencies --   2970.8605              3016.5253              3064.7179
 Red. masses --      1.0567                 1.0999                 1.0391
 Frc consts  --      5.4951                 5.8968                 5.7505
 IR Inten    --     72.1129               109.5661                 1.4873
  Atom  AN      X      Y      Z        X      Y      Z        X      Y      Z
     1   6     0.00  -0.00   0.00    -0.00  -0.00   0.00     0.00   0.00   0.00
     2   6    -0.00   0.00   0.00    -0.00   0.00   0.00    -0.00   0.00   0.00
     3   6    -0.00   0.05  -0.05    -0.09   0.01   0.03     0.00  -0.00   0.00
     4   6     0.00  -0.00  -0.00     0.00  -0.00  -0.00     0.00  -0.00  -0.00
     5   7    -0.00   0.00  -0.00    -0.00   0.00  -0.00    -0.00   0.00  -0.00
     6   1     0.00   0.00   0.00     0.00   0.00   0.00     0.00   0.00   0.00
     7   1    -0.49  -0.25   0.54     0.37   0.22  -0.46     0.00   0.00  -0.00
     8   1     0.00   0.00   0.00     0.00  -0.00   0.00     0.00  -0.00  -0.00
     9   1     0.56  -0.29   0.07     0.67  -0.37   0.13    -0.00   0.00  -0.00
    10   1     0.00  -0.00  -0.00    -0.00  -0.00   0.00     0.00  -0.00   0.00
    11   1    -0.02   0.01   0.00    -0.02   0.01   0.01    -0.00   0.00   0.00
    12   9     0.00  -0.00   0.00     0.00   0.00   0.00     0.00   0.00  -0.00
    13   6    -0.00   0.00  -0.00     0.00   0.00  -0.00    -0.01  -0.05  -0.02
    14   1     0.00   0.00   0.00    -0.00   0.00   0.00    -0.14   0.22  -0.34
    15   1    -0.00   0.00   0.00     0.00  -0.00  -0.00    -0.35   0.14   0.48
    16   1     0.00   0.00  -0.00     0.00   0.00   0.00     0.63   0.18   0.13
    17   6     0.00  -0.00   0.00     0.00  -0.00  -0.00     0.00   0.00  -0.00
    18   1    -0.01   0.01  -0.00    -0.01   0.01   0.00     0.00   0.00   0.00
    19   1    -0.00  -0.01   0.00     0.00  -0.00  -0.00    -0.00  -0.01  -0.00
    20   1     0.01   0.00  -0.01    -0.00  -0.00   0.00    -0.00  -0.00   0.00
                     46                     47                     48
                      A                      A                      A
 Frequencies --   3075.1895              3103.4658              3155.6826
 Red. masses --      1.0332                 1.0748                 1.1024
 Frc consts  --      5.7568                 6.0993                 6.4678
 IR Inten    --     20.4423               110.0497                 0.4126
  Atom  AN      X      Y      Z        X      Y      Z        X      Y      Z
     1   6     0.00  -0.00   0.00    -0.00  -0.00  -0.00    -0.00   0.00   0.00
     2   6    -0.00   0.00   0.00    -0.00  -0.00  -0.01     0.00  -0.00   0.00
     3   6    -0.00   0.00  -0.00    -0.00   0.00  -0.00    -0.00   0.00   0.00
     4   6     0.00  -0.00  -0.00    -0.04   0.05   0.04     0.00  -0.00  -0.00
     5   7    -0.00   0.00  -0.00    -0.00  -0.00  -0.00     0.00  -0.00  -0.00
     6   1     0.01   0.00   0.00    -0.31  -0.06  -0.24     0.00   0.00   0.00
     7   1    -0.01  -0.01   0.01    -0.01   0.00  -0.00    -0.00  -0.00  -0.00
     8   1    -0.00   0.00   0.00     0.05  -0.04  -0.02    -0.00   0.00   0.00
     9   1     0.01  -0.01   0.00     0.03  -0.01   0.01    -0.00   0.00   0.00
    10   1     0.00   0.00   0.01     0.00  -0.00   0.00    -0.01  -0.00  -0.00
    11   1    -0.01   0.01   0.00     0.76  -0.48  -0.14    -0.00   0.00   0.00
    12   9     0.00  -0.00   0.00    -0.00   0.00  -0.00    -0.00  -0.00   0.00
    13   6     0.00  -0.00   0.00    -0.00  -0.00  -0.00    -0.09   0.00   0.03
    14   1    -0.00   0.00  -0.00     0.00   0.00   0.00     0.01  -0.04   0.07
    15   1    -0.00   0.00   0.00     0.00   0.00  -0.00     0.39  -0.17  -0.57
    16   1    -0.00  -0.00   0.00     0.01   0.00   0.00     0.65   0.19   0.15
    17   6    -0.01  -0.01  -0.04     0.00   0.00  -0.00    -0.00  -0.00   0.00
    18   1     0.41  -0.32   0.08     0.01  -0.01   0.00     0.01  -0.01   0.00
    19   1     0.17   0.58   0.06     0.00   0.00   0.00     0.00   0.02   0.00
    20   1    -0.42  -0.13   0.39    -0.01  -0.00   0.01     0.02   0.00  -0.01
                     49                     50                     51
                      A                      A                      A
 Frequencies --   3187.0673              3194.5133              3195.9681
 Red. masses --      1.1068                 1.1058                 1.1051
 Frc consts  --      6.6236                 6.6484                 6.6504
 IR Inten    --     13.6162                 7.2226                 4.4371
  Atom  AN      X      Y      Z        X      Y      Z        X      Y      Z
     1   6    -0.00   0.00   0.00     0.00   0.00   0.01    -0.00  -0.00  -0.01
     2   6    -0.00   0.00   0.00     0.00  -0.00   0.00     0.00   0.00   0.00
     3   6    -0.00  -0.00  -0.00    -0.00   0.00   0.00     0.00  -0.00   0.00
     4   6     0.00   0.00   0.00     0.00  -0.00  -0.00    -0.00  -0.00  -0.00
     5   7     0.00  -0.00   0.00    -0.00   0.00  -0.00    -0.00   0.00  -0.00
     6   1    -0.01  -0.00  -0.00     0.00   0.00   0.00     0.00   0.00   0.00
     7   1     0.01   0.00  -0.00     0.00   0.00  -0.00    -0.00  -0.00   0.00
     8   1     0.01  -0.00  -0.00    -0.00   0.00   0.00     0.00  -0.00  -0.00
     9   1     0.00  -0.00   0.00     0.00  -0.00  -0.00     0.00  -0.00  -0.00
    10   1    -0.01  -0.00  -0.01    -0.04  -0.03  -0.09     0.06   0.05   0.14
    11   1     0.01  -0.00  -0.00    -0.00   0.00   0.00    -0.00   0.00   0.00
    12   9    -0.00   0.00  -0.00    -0.00   0.00  -0.00    -0.00  -0.00  -0.00
    13   6     0.01  -0.00   0.01    -0.02   0.02  -0.06     0.02  -0.02   0.05
    14   1    -0.04   0.07  -0.11     0.21  -0.34   0.52    -0.19   0.30  -0.46
    15   1     0.01  -0.01  -0.02    -0.15   0.06   0.20     0.13  -0.05  -0.17
    16   1    -0.05  -0.01  -0.01     0.16   0.05   0.03    -0.16  -0.05  -0.03
    17   6    -0.07  -0.05   0.03    -0.04   0.05   0.01    -0.03   0.06   0.00
    18   1     0.12  -0.11   0.03     0.45  -0.35   0.09     0.47  -0.36   0.09
    19   1     0.16   0.57   0.06    -0.08  -0.26  -0.02    -0.12  -0.41  -0.04
    20   1     0.55   0.17  -0.51     0.16   0.06  -0.15     0.06   0.03  -0.06
                     52                     53                     54
                      A                      A                      A
 Frequencies --   3222.9718              3223.3263              3267.6291
 Red. masses --      1.0923                 1.0979                 1.1124
 Frc consts  --      6.6850                 6.7211                 6.9984
 IR Inten    --      1.1869                21.4600                 9.5247
  Atom  AN      X      Y      Z        X      Y      Z        X      Y      Z
     1   6    -0.03  -0.02  -0.07    -0.01  -0.01  -0.02     0.00   0.00   0.00
     2   6     0.02  -0.01  -0.01    -0.06   0.05   0.02    -0.02   0.01   0.01
     3   6    -0.00  -0.00  -0.00     0.00  -0.00   0.00     0.00   0.00  -0.00
     4   6    -0.01   0.00  -0.00     0.02  -0.01   0.00    -0.08   0.00  -0.04
     5   7     0.00  -0.00   0.00     0.00  -0.00   0.00    -0.00  -0.00  -0.00
     6   1     0.04   0.01   0.03    -0.14  -0.02  -0.10     0.71   0.13   0.54
     7   1    -0.00   0.00   0.00     0.00  -0.00   0.00    -0.00  -0.00  -0.00
     8   1    -0.18   0.13   0.05     0.76  -0.52  -0.20     0.17  -0.12  -0.05
     9   1     0.00   0.00   0.00    -0.00   0.00  -0.00     0.00  -0.00   0.00
    10   1     0.34   0.30   0.84     0.08   0.07   0.20    -0.00  -0.00  -0.01
    11   1     0.02  -0.02  -0.00    -0.10   0.07   0.02     0.30  -0.19  -0.06
    12   9     0.00   0.00   0.00    -0.00  -0.00  -0.00     0.00   0.00   0.00
    13   6    -0.00   0.01  -0.01    -0.00   0.00  -0.00     0.00  -0.00   0.00
    14   1     0.05  -0.09   0.12     0.01  -0.02   0.03    -0.00   0.00  -0.00
    15   1    -0.03   0.02   0.04    -0.01   0.00   0.01    -0.00   0.00   0.00
    16   1     0.04   0.02   0.01     0.01   0.00   0.00    -0.00  -0.00  -0.00
    17   6     0.00  -0.01   0.00     0.00  -0.00   0.00     0.00  -0.00  -0.00
    18   1    -0.03   0.02  -0.00    -0.01   0.01  -0.00    -0.00   0.00  -0.00
    19   1     0.01   0.04   0.00     0.00   0.00   0.00     0.00   0.00   0.00
    20   1     0.02   0.00  -0.01     0.00  -0.00   0.00     0.00  -0.00  -0.00

 -------------------
 - Thermochemistry -
 -------------------
 Temperature   298.150 Kelvin.  Pressure   1.00000 Atm.
 Atom     1 has atomic number  6 and mass  12.00000
 Atom     2 has atomic number  6 and mass  12.00000
 Atom     3 has atomic number  6 and mass  12.00000
 Atom     4 has atomic number  6 and mass  12.00000
 Atom     5 has atomic number  7 and mass  14.00307
 Atom     6 has atomic number  1 and mass   1.00783
 Atom     7 has atomic number  1 and mass   1.00783
 Atom     8 has atomic number  1 and mass   1.00783
 Atom     9 has atomic number  1 and mass   1.00783
 Atom    10 has atomic number  1 and mass   1.00783
 Atom    11 has atomic number  1 and mass   1.00783
 Atom    12 has atomic number  9 and mass  18.99840
 Atom    13 has atomic number  6 and mass  12.00000
 Atom    14 has atomic number  1 and mass   1.00783
 Atom    15 has atomic number  1 and mass   1.00783
 Atom    16 has atomic number  1 and mass   1.00783
 Atom    17 has atomic number  6 and mass  12.00000
 Atom    18 has atomic number  1 and mass   1.00783
 Atom    19 has atomic number  1 and mass   1.00783
 Atom    20 has atomic number  1 and mass   1.00783
 Molecular mass:   117.09538 amu.
 Principal axes and moments of inertia in atomic units:
                           1         2         3
     Eigenvalues --   782.103711390.535541575.87674
           X            0.99876   0.02160   0.04488
           Y           -0.01900   0.99816  -0.05756
           Z           -0.04604   0.05664   0.99733
 This molecule is an asymmetric top.
 Rotational symmetry number  1.
 Warning -- assumption of classical behavior for rotation
           may cause significant error
 Rotational temperatures (Kelvin)      0.11074     0.06229     0.05496
 Rotational constants (GHZ):           2.30755     1.29787     1.14523
    1 imaginary frequencies ignored.
 Zero-point vibrational energy     445147.5 (Joules/Mol)
                                  106.39279 (Kcal/Mol)
 Warning -- explicit consideration of  14 degrees of freedom as
           vibrations may cause significant error
 Vibrational temperatures:     68.28   106.08   116.47   168.93   184.76
          (Kelvin)            208.40   227.02   265.34   438.74   476.83
                              650.97   700.11   755.53   819.80  1081.39
                             1158.00  1235.31  1364.31  1379.19  1397.82
                             1462.45  1484.75  1493.45  1574.22  1618.35
                             1628.65  1695.69  1732.71  1785.78  1927.56
                             1937.97  2006.11  2032.85  2055.43  2070.38
                             2093.46  2099.11  2122.26  2129.08  2515.05
                             2599.18  4274.41  4340.11  4409.45  4424.51
                             4465.20  4540.32  4585.48  4596.19  4598.29
                             4637.14  4637.65  4701.39
 
 Zero-point correction=                           0.169548 (Hartree/Particle)
 Thermal correction to Energy=                    0.180358
 Thermal correction to Enthalpy=                  0.181303
 Thermal correction to Gibbs Free Energy=         0.132572
 Sum of electronic and zero-point Energies=           -389.729940
 Sum of electronic and thermal Energies=              -389.719129
 Sum of electronic and thermal Enthalpies=            -389.718185
 Sum of electronic and thermal Free Energies=         -389.766915
 
                     E (Thermal)             CV                S
                      KCal/Mol        Cal/Mol-Kelvin    Cal/Mol-Kelvin
 Total                  113.177             36.289            102.562
 Electronic               0.000              0.000              0.000
 Translational            0.889              2.981             40.188
 Rotational               0.889              2.981             28.929
 Vibrational            111.399             30.327             33.445
 Vibration     1          0.595              1.979              4.921
 Vibration     2          0.599              1.966              4.051
 Vibration     3          0.600              1.962              3.868
 Vibration     4          0.608              1.935              3.143
 Vibration     5          0.611              1.925              2.970
 Vibration     6          0.616              1.908              2.739
 Vibration     7          0.621              1.894              2.576
 Vibration     8          0.631              1.861              2.283
 Vibration     9          0.696              1.664              1.390
 Vibration    10          0.714              1.613              1.253
 Vibration    11          0.811              1.355              0.788
 Vibration    12          0.843              1.280              0.692
 Vibration    13          0.880              1.194              0.598
 Vibration    14          0.926              1.097              0.505
                       Q            Log10(Q)             Ln(Q)
 Total Bot       0.104983D-60        -60.978879       -140.409058
 Total V=0       0.101762D+18         17.007585         39.161411
 Vib (Bot)       0.449808D-74        -74.346973       -171.190231
 Vib (Bot)    1  0.435685D+01          0.639173          1.471750
 Vib (Bot)    2  0.279592D+01          0.446525          1.028161
 Vib (Bot)    3  0.254364D+01          0.405455          0.933595
 Vib (Bot)    4  0.174155D+01          0.240935          0.554774
 Vib (Bot)    5  0.158814D+01          0.200888          0.462562
 Vib (Bot)    6  0.140191D+01          0.146721          0.337838
 Vib (Bot)    7  0.128215D+01          0.107939          0.248538
 Vib (Bot)    8  0.108740D+01          0.036391          0.083793
 Vib (Bot)    9  0.621916D+00         -0.206268         -0.474950
 Vib (Bot)   10  0.563293D+00         -0.249265         -0.573955
 Vib (Bot)   11  0.378268D+00         -0.422201         -0.972153
 Vib (Bot)   12  0.341753D+00         -0.466288         -1.073668
 Vib (Bot)   13  0.305938D+00         -0.514367         -1.184373
 Vib (Bot)   14  0.270167D+00         -0.568368         -1.308717
 Vib (V=0)       0.436005D+04          3.639491          8.380238
 Vib (V=0)    1  0.488545D+01          0.688904          1.586261
 Vib (V=0)    2  0.334028D+01          0.523782          1.206053
 Vib (V=0)    3  0.309231D+01          0.490283          1.128919
 Vib (V=0)    4  0.231190D+01          0.363969          0.838070
 Vib (V=0)    5  0.216499D+01          0.335455          0.772414
 Vib (V=0)    6  0.198841D+01          0.298506          0.687335
 Vib (V=0)    7  0.187619D+01          0.273277          0.629245
 Vib (V=0)    8  0.169685D+01          0.229643          0.528773
 Vib (V=0)    9  0.129799D+01          0.113270          0.260813
 Vib (V=0)   10  0.125319D+01          0.098018          0.225695
 Vib (V=0)   11  0.112697D+01          0.051911          0.119529
 Vib (V=0)   12  0.110564D+01          0.043612          0.100421
 Vib (V=0)   13  0.108617D+01          0.035899          0.082660
[...]
 00012094,-0.00008057,0.13682316,-0.14360141,-0.04475062,0.00046173,-0.
 00015423,-0.00017881,0.01664242,-0.00197137,-0.00342805,0.00010462,-0.
 00012944,-0.00001309,-0.00156978,-0.00282450,0.00274918,-0.00004195,-0
 .00001958,0.00006056,-0.14413403,0.13569144,0.00004665,-0.00006288,-0.
 00013322,0.05553994,-0.04545309,-0.06457616,0.00049424,-0.00021288,-0.
 00013060,0.01801290,-0.01337842,0.00300274,-0.00017286,-0.00012355,-0.
 00000940,0.00123836,0.00290338,-0.00181428,-0.00010514,0.00000587,-0.0
 0023268,-0.04211232,0.05269720,0.06208437,-0.00000248,-0.00025856,0.00
 084278,-0.00050127,-0.00031806,-0.00061338,-0.23946266,0.10801986,-0.0
 2831579,-0.00039503,0.00028456,-0.00033367,0.00535267,-0.00763374,-0.0
 0438124,-0.00029956,0.00024874,0.00008192,-0.01998568,0.01008431,-0.00
 483695,-0.00002196,0.00009578,0.00017172,0.25302056,-0.00114692,-0.002
 34855,-0.00360544,-0.00050120,-0.00013042,-0.00037574,0.08655589,-0.08
 685355,0.01589270,-0.00039722,0.00039461,-0.00008258,0.03326692,-0.030
 73397,0.00668358,-0.00010487,0.00009483,0.00002578,-0.00920375,0.00592
 027,-0.00131254,0.00000581,0.00002626,0.00009372,-0.10891976,0.1149882
 5,0.00082023,0.00044091,0.00146924,-0.00085005,-0.00024696,-0.00087481
 ,-0.06412692,0.03583658,-0.02737224,-0.00125026,0.00098515,0.00046875,
 0.00516847,-0.00484655,-0.00504380,-0.00024960,0.00018217,0.00006206,0
 .02246539,-0.01078023,0.00195850,0.00000613,0.00014818,0.00021070,0.03
 544893,-0.02042534,0.02698651,-0.08499562,-0.03270229,-0.09052189,0.00
 001499,0.00003516,0.00014369,-0.00765101,-0.00190455,0.00292762,-0.000
 37312,-0.00004823,-0.00008872,0.00217308,-0.00051358,-0.01488909,-0.00
 003840,-0.00006151,0.00004849,0.00109080,-0.00149966,0.00168506,0.0000
 0133,-0.00002064,-0.00000207,0.00020485,0.00102475,-0.00106888,0.07200
 995,-0.03760692,-0.08218907,-0.09609117,0.00016906,-0.00009320,0.00005
 494,0.00113142,0.00018643,0.00163287,-0.00005871,-0.00004643,0.0000521
 3,0.01118965,0.00722619,0.02790954,0.00005311,-0.00004106,-0.00001386,
 -0.00012678,-0.00074054,-0.00035173,0.00000089,-0.00002363,-0.00005233
 ,-0.00023867,-0.00062164,-0.00060367,0.03461758,0.08911411,-0.09058558
 ,-0.08108846,-0.27499975,-0.00000957,-0.00013564,-0.00022996,0.0025575
 2,-0.00462413,-0.00120960,0.00001448,-0.00023605,0.00015500,-0.0128047
 1,-0.00343402,-0.02368216,-0.00011332,0.00003779,0.00002711,-0.0003453
 3,0.00047187,-0.00001562,0.00000428,0.00004332,0.00001413,0.00032967,-
 0.00055004,0.00091169,0.10674463,0.08476094,0.29220774,-0.00103523,-0.
 00076609,0.00034640,0.00752309,0.00002518,-0.00100737,0.00281302,-0.00
 230569,-0.00294129,-0.24864524,0.12871465,0.03357116,-0.00187953,-0.00
 107691,-0.00105521,-0.00781805,0.00910634,0.00523866,-0.00207379,0.000
 36072,-0.00160135,0.00174299,0.00115986,-0.00316384,0.00106609,0.00050
 374,0.00274552,-0.00056048,-0.00093708,0.00036649,0.25113548,-0.001366
 40,-0.00128148,-0.00048735,0.01661224,-0.00240510,-0.00487365,-0.00116
 952,-0.00057251,0.00134444,0.12660028,-0.12641908,-0.03214227,-0.00076
 769,0.00030892,-0.00074656,-0.00673269,0.00585196,0.00085785,0.0012663
 1,-0.00026741,0.00136075,0.00171951,0.00405144,-0.00586569,-0.00034781
 ,-0.00042206,-0.00093428,-0.00070031,-0.00020149,0.00032266,-0.1333684
 6,0.12500817,0.00031101,-0.00006555,0.00069180,0.01777917,-0.01425559,
 0.00263188,-0.00149896,-0.00036719,0.00014703,0.03041917,-0.03056264,-
 0.05666264,-0.00054905,0.00022504,-0.00092056,-0.01322692,0.00969727,0
 .00578438,-0.00094623,0.00044763,-0.00164265,-0.00238826,-0.00616598,0
 .00127708,0.00061948,0.00020119,-0.00050676,0.00048804,0.00060868,-0.0
 0032522,-0.03305744,0.03474057,0.05068331,-0.00087961,0.00001030,-0.00
 227167,-0.21904687,-0.02155925,-0.12184265,0.00178863,-0.00114517,-0.0
 0034239,-0.00064757,-0.01060871,-0.01852525,-0.00310157,-0.00054700,0.
 00203599,0.00331037,0.00285011,-0.00215815,-0.00024972,-0.00024157,-0.
 00046748,-0.02938677,-0.00941429,-0.03011026,0.00035423,0.00043013,0.0
 0050565,-0.00001136,-0.00008214,0.00000277,-0.00286043,-0.00132617,0.0
 0226091,0.25227513,0.00031219,-0.00121512,-0.00062514,-0.02013333,-0.0
 6862325,-0.04207117,0.00042425,-0.00011391,0.00005392,-0.03149685,0.00
 150939,-0.02592880,0.00049088,-0.00030532,-0.00040888,0.00401427,0.004
 03924,-0.00895569,-0.00017689,0.00038368,-0.00047511,0.00962260,0.0089
 8049,0.00921951,0.00029937,0.00015088,0.00022710,-0.00001323,0.0000254
 2,0.00006235,-0.00275454,-0.00276696,0.00581851,0.03957793,0.05790845,
 0.00104834,-0.00057915,-0.00150588,-0.12304770,-0.04343098,-0.16061806
 ,0.00159982,-0.00033753,-0.00016050,-0.04171150,-0.01394766,-0.0312877
 9,0.00180339,-0.00097983,-0.00122695,-0.00093175,-0.00952831,0.0019726
 9,-0.00044210,-0.00009784,-0.00023841,-0.00747534,-0.00108336,0.000079
 20,0.00039051,0.00017204,0.00053358,-0.00029583,-0.00009355,0.00018462
 ,0.00036766,0.00647213,-0.00100245,0.16745150,0.06195033,0.19361711,-0
 .08291799,-0.00896791,-0.01147105,0.00028234,0.00024009,0.00018749,0.0
 1023852,-0.00043447,-0.00362614,0.00003545,-0.00016831,0.00000245,0.01
 100328,0.00778512,0.00393807,0.00000075,0.00000793,-0.00000683,-0.0018
 0411,0.00277943,-0.00214421,0.00001850,0.00000898,-0.00005108,-0.00012
 633,-0.00183756,0.00209189,0.01072223,-0.00751906,-0.00354387,-0.00012
 310,0.00016887,-0.00005664,-0.00041888,-0.00055855,0.00028381,0.557072
 03,-0.01385969,-0.24170627,-0.03546226,0.00025518,-0.00000608,0.000239
 76,0.00097632,0.00154921,0.00085620,-0.00006943,-0.00001290,-0.0000458
 9,0.00135178,-0.03037505,0.00251469,0.00000270,0.00003106,-0.00002244,
 0.00009870,-0.00102108,0.00047076,-0.00003975,0.00000433,-0.00000158,0
 .00005561,-0.00118359,0.00056385,0.00132049,-0.00486089,0.00171845,0.0
 0023391,-0.00006147,0.00001960,-0.00047369,-0.00038081,-0.00020027,-0.
 00626267,0.52598149,-0.01112971,-0.03104605,-0.10190789,0.00042251,0.0
 0012796,0.00011529,-0.00506774,-0.00245716,0.00123068,0.00005976,0.000
 08784,-0.00014913,0.00256474,0.02425841,0.01150262,-0.00004454,-0.0000
 1268,0.00001557,0.00073977,-0.00081490,0.00128964,-0.00001077,0.000025
 86,0.00001593,0.00048527,0.00125995,-0.00078198,-0.00287058,-0.0175030
 3,0.00437086,0.00027715,-0.00005171,0.00001022,-0.00005689,-0.00014566
 ,0.00013948,0.01618019,-0.02942917,0.58912386,-0.00146154,-0.00285439,
 0.00319485,0.00020560,0.00010899,0.00021256,0.00049873,-0.00001760,-0.
 00005575,0.00002200,0.00000656,-0.00014678,0.00096353,-0.00092367,-0.0
 0050821,-0.00000463,-0.00000889,-0.00000541,0.00000286,0.00014402,0.00
 006859,-0.00004268,-0.00001224,0.00001193,-0.00004501,-0.00013869,-0.0
 0009353,0.00005525,-0.00016218,0.00033873,0.00001670,-0.00001879,0.000
 02377,-0.00027060,-0.00007938,-0.00012544,-0.07728053,0.04915799,-0.07
 489251,0.07694219,0.01191679,-0.01500958,0.02889610,0.00008838,0.00006
 217,0.00008399,0.00027934,0.00047964,0.00051876,0.00000709,0.00002118,
 -0.00009090,-0.00113553,-0.00630382,-0.00245098,-0.00002834,-0.0000011
 2,0.00001076,-0.00003690,-0.00033898,0.00003312,-0.00001736,0.00000055
 ,0.00001228,-0.00001759,-0.00038739,-0.00004385,-0.00004451,0.00073188
 ,-0.00016638,0.00008929,-0.00004258,0.00003776,-0.00009386,0.00002506,
 -0.00002344,0.04679295,-0.12186793,0.11417246,-0.05088677,0.13370324,0
 .00410796,-0.00755955,0.00703171,-0.00025176,-0.00006424,-0.00026602,-
 0.00011919,0.00003961,0.00025807,0.00002745,0.00000583,0.00009980,-0.0
 0046679,-0.00233621,0.00027974,0.00000393,0.00000468,0.00001013,-0.000
 04941,-0.00009301,-0.00005543,0.00005064,0.00000841,-0.00000206,0.0000
 3935,0.00002286,0.00000108,0.00033429,-0.00036095,0.00059782,-0.000020
 31,0.00001644,-0.00000904,0.00035850,0.00011660,0.00013184,-0.07519248
 ,0.12008596,-0.23126943,0.08060483,-0.12416886,0.24166313,0.00060643,-
 0.00110265,-0.00407376,-0.00111495,-0.00037234,-0.00068911,-0.00019439
 ,0.00011322,-0.00016423,0.00020255,0.00016052,0.00014659,0.00097653,0.
 00028352,0.00027420,-0.00000663,0.00002824,0.00003368,0.00002595,0.000
 01574,0.00010137,0.00003707,-0.00001069,0.00002537,-0.00005670,0.00004
 588,0.00004438,-0.00124759,-0.00073056,0.00013115,0.00006830,-0.000050
 19,-0.00000340,-0.00020890,-0.00010568,0.00103021,-0.13122144,0.037884
 01,0.12554882,0.00695577,-0.00388052,-0.00984146,0.13925482,0.01983458
 ,-0.00829581,-0.02607204,-0.00204616,-0.00044590,-0.00157133,-0.002274
 14,-0.00098461,0.00121859,0.00037147,0.00027544,0.00032535,-0.00193830
 ,0.00125161,-0.00094044,-0.00001723,0.00004714,0.00007574,0.00045469,-
 0.00071268,0.00078227,0.00018957,0.00001989,0.00012275,0.00007412,0.00
 026476,-0.00081266,-0.00113506,-0.00229581,0.00073824,0.00028365,-0.00
 014469,-0.00002743,0.00162619,0.00043406,0.00125116,0.03890746,-0.0590
 3653,-0.04998432,-0.01072425,0.00407894,0.01215505,-0.04014192,0.06422
 472,0.00059669,-0.00461993,-0.00394154,-0.00026659,-0.00028947,0.00002
 581,-0.00018803,-0.00040786,-0.00013947,-0.00002925,0.00005529,-0.0000
 0351,-0.00114051,0.00247268,-0.00115481,0.00002042,0.00002116,-0.00002
 597,0.00032790,0.00011533,0.00028582,-0.00005148,-0.00002165,0.0000404
 1,0.00002829,0.00008793,-0.00012300,0.00020184,-0.00085654,0.00051432,
 0.00006339,-0.00005458,0.00000518,0.00086806,0.00093163,-0.00092332,0.
 12733882,-0.04745703,-0.21976483,0.01407010,-0.00720317,-0.01525781,-0
 .13573145,0.05438992,0.23366355,0.00208714,-0.00089115,0.00054180,0.00
 021359,0.00006023,0.00013266,-0.00003086,-0.00024989,0.00039465,-0.000
 01544,-0.00004037,-0.00000854,0.00032069,0.00078461,-0.00186983,-0.000
 00114,-0.00000649,-0.00000072,-0.00017994,-0.00002087,-0.00010521,0.00
 000511,0.00001052,-0.00002561,-0.00004924,0.00006082,0.00016907,-0.000
 57201,0.00007067,0.00095855,-0.00004327,0.00003883,-0.00000015,-0.0002
 2020,-0.00018595,-0.00001072,-0.29073264,-0.06997471,-0.05273501,-0.00
 660505,-0.00262500,0.00058086,-0.01380994,-0.00471990,-0.00563818,0.30
 935593,-0.03174554,-0.00778365,-0.00597444,-0.00005475,-0.00002890,-0.
 00005342,0.00207497,-0.00061113,-0.00004278,0.00001781,0.00000022,-0.0
 0002646,0.00181259,0.00053507,-0.00134080,-0.00002380,0.00001073,0.000
 00619,-0.00049427,0.00037296,-0.00055690,-0.00001796,0.00000375,0.0000
 2356,0.00009009,-0.00053872,0.00040922,0.00125259,-0.00252081,-0.00029
 925,0.00006788,-0.00000583,0.00000754,0.00006524,0.00009315,0.00003834
 ,-0.07284548,-0.06526881,-0.01324683,0.01604002,0.00479478,0.00177035,
 0.00758416,0.00180637,0.00225306,0.07672486,0.06988725,-0.00461816,-0.
 00468536,-0.00450734,-0.00034467,-0.00012663,-0.00022840,0.00012727,-0
 .00006529,-0.00012160,0.00001962,-0.00001063,0.00008066,-0.00070180,0.
 00161593,-0.00073647,0.00000450,0.00001982,0.00000101,-0.00015552,0.00
 012028,-0.00016865,0.00001616,-0.00000010,0.00001477,-0.00001487,0.000
 09176,0.00039525,0.00079249,-0.00125474,-0.00013387,-0.00000207,0.0000
 0212,-0.00001573,0.00037960,0.00028359,-0.00003291,-0.05427572,-0.0120
 0717,-0.05128078,-0.02256114,-0.00868759,-0.00294838,0.02321654,0.0077
 8444,0.00631528,0.05779357,0.01526027,0.05375502,0.00369568,0.00250619
 ,-0.01302326,-0.00059794,0.00000718,-0.00037915,-0.00172209,-0.0092209
 4,-0.00991845,0.00033612,0.00061893,0.00003850,-0.10493691,-0.00111130
 ,-0.04152228,0.00013169,-0.00004903,-0.00001344,0.00247152,0.00017921,
 0.00207813,0.00007326,-0.00008640,0.00008214,0.00007582,0.00133397,-0.
 00100461,0.01019812,-0.00047166,-0.00436293,0.00053226,-0.00051225,-0.
 00018132,0.00029954,0.00008667,-0.00008279,-0.00580796,-0.00035710,0.0
 0009556,0.00004950,-0.00063310,-0.00057191,0.00078112,0.00047026,0.000
 11649,-0.00023622,-0.00086452,0.00023199,0.58504677,0.01030790,0.01235
 015,0.02834564,-0.00098575,-0.00033420,-0.00084928,-0.01223961,-0.0122
 4556,-0.02860677,-0.00007355,0.00043936,0.00034215,-0.00709700,-0.1049
 3323,-0.02045084,-0.00000478,0.00004162,0.00000907,0.00118634,0.000986
 14,-0.00079199,0.00012603,0.00005236,0.00014083,-0.00141487,0.00077723
 ,-0.00016530,-0.00006124,-0.00415282,0.00234115,0.00050210,-0.00063900
 ,-0.00030919,0.00103593,0.00020021,0.00084062,-0.00007726,-0.00061464,
 0.00103710,-0.00011042,-0.00018095,-0.00037534,0.00056054,-0.00034145,
 -0.00022091,0.00038047,-0.00089064,0.00105976,-0.00849619,0.63292590,-
 0.01642253,0.00694334,-0.03191937,-0.00003129,0.00018097,0.00038544,-0
 .00615342,-0.01557099,-0.00632501,-0.00012852,0.00001235,0.00002438,-0
 .03901512,-0.00763654,-0.19032805,0.00002732,0.00000569,-0.00004766,-0
 .00026374,0.00182439,-0.00150234,-0.00006535,-0.00009038,0.00000086,-0
 .00067409,0.00238978,0.00126049,-0.00335704,0.00067518,0.00243892,-0.0
 0034136,0.00006613,0.00000748,0.00041010,-0.00013727,-0.00112048,0.001
 05895,-0.00279914,-0.00291395,-0.00041022,-0.00121118,-0.00038915,0.00
 031729,-0.00031776,0.00095400,-0.00021541,0.00006300,0.00081696,-0.032
 10044,-0.02282997,0.49345372,-0.00037511,-0.00256851,-0.00045669,0.000
 38592,0.00012291,0.00034513,0.00108808,0.00031185,0.00140318,0.0000183
 8,-0.00006789,-0.00008093,-0.00872009,0.00769514,-0.00521649,0.0000103
 7,-0.00001722,-0.00001362,-0.00019393,0.00003175,0.00018090,-0.0000517
 4,-0.00001574,-0.00003918,0.00057220,-0.00061325,-0.00062783,0.0003188
 5,0.00033835,-0.00027659,-0.00008461,0.00007556,0.00004440,-0.00046163
 ,-0.00004168,-0.00033350,-0.00002430,-0.00029210,0.00049950,0.00004515
 ,0.00008358,0.00009442,-0.00011363,0.00008143,-0.00001449,0.00017547,0
 .00005072,0.00002058,-0.22061097,0.13470821,-0.03126663,0.23222383,-0.
 00010746,-0.00033781,-0.00222956,-0.00005551,-0.00000372,-0.00004091,-
 0.00177854,0.00048102,-0.00054871,-0.00006091,-0.00005003,0.00003252,-
 0.00647253,0.00320705,0.00044148,-0.00001271,0.00000384,0.00000612,-0.
 00045977,0.00005645,-0.00042299,-0.00000232,0.00000095,-0.00000840,0.0
 0017050,0.00011399,-0.00036147,0.00076278,0.00040318,-0.00021748,-0.00
 005900,0.00005843,-0.00000614,0.00005610,0.00001301,-0.00002467,-0.000
 83296,-0.00056268,0.00094537,0.00008166,0.00009491,0.00017284,-0.00023
 312,0.00040716,-0.00002283,0.00049656,-0.00012794,0.00001363,0.1396184
 9,-0.15652902,0.02380257,-0.14597414,0.16017133,-0.00152154,-0.0039996
 1,-0.00335855,-0.00017723,-0.00011550,-0.00027627,0.00059360,0.0023283
 8,0.00144718,0.00009407,-0.00004002,0.00002040,-0.03242636,0.02129428,
 -0.01475690,-0.00000373,-0.00000152,0.00001935,0.00024780,-0.00019996,
 0.00004991,0.00004610,0.00000958,0.00001549,0.00053862,-0.00080274,-0.
 00041058,0.00153151,0.00099528,-0.00132022,-0.00007504,0.00010006,0.00
 001698,0.00033756,0.00002332,0.00035665,-0.00064402,-0.00011656,0.0006
 1611,-0.00000540,0.00012094,0.00005285,-0.00001616,0.00026055,0.000012
 55,0.00004129,-0.00003052,-0.00012625,-0.02483290,0.01907991,-0.048188
 55,0.03814773,-0.02413512,0.06091030,0.00062339,-0.00164117,-0.0001287
 4,-0.00031270,-0.00015219,-0.00037240,0.00012705,-0.00024710,-0.002398
 34,0.00002469,0.00008592,0.00008180,-0.00462537,-0.01034555,0.00035220
 ,-0.00001058,0.00001342,0.00001324,0.00064020,0.00044636,0.00029077,0.
 00002583,0.00000398,0.00004206,0.00043607,-0.00024531,-0.00010568,0.00
 000311,0.00000584,0.00012095,0.00011092,-0.00005309,-0.00002304,0.0003
 9861,0.00023554,0.00028721,0.00016791,0.00032812,0.00019418,-0.0000413
 9,0.00012312,0.00028246,-0.00080954,0.00081824,-0.00079717,0.00031989,
 0.00001032,-0.00005076,-0.07206841,-0.07048421,-0.00928732,0.00999552,
 0.02223214,0.00287197,0.06838964,0.00028455,-0.00120670,0.00037957,-0.
 00019656,-0.00008632,-0.00023133,-0.00183378,0.00030142,-0.00368703,-0
 .00008150,0.00006606,0.00010140,0.00004126,-0.00265192,-0.00071396,-0.
 00004139,0.00003099,0.00001153,0.00047665,0.00018608,0.00029003,0.0000
 0196,0.00003037,0.00003241,-0.00027552,0.00039382,0.00074993,-0.000012
 35,-0.00003195,0.00004190,0.00027089,-0.00012683,-0.00008717,0.0001364
 7,0.00008960,0.00016813,0.00183981,-0.00095763,0.00265772,0.00022163,0
 .00012963,0.00053161,0.00008650,-0.00028304,0.00064604,0.00027936,-0.0
 0030670,0.00099026,-0.07426838,-0.30494620,-0.02667476,-0.00743060,-0.
 01231392,-0.00109277,0.07944352,0.32522450,0.00037145,-0.00221480,0.00
 134001,-0.00027136,-0.00009130,-0.00028405,-0.00260482,-0.00063252,-0.
 00541643,-0.00007981,0.00012242,0.00014088,-0.00832733,-0.03240782,-0.
 00260126,-0.00001806,0.00001258,0.00000864,-0.00005952,0.00016072,0.00
 071246,0.00002145,0.00002428,0.00003693,0.00028516,0.00026175,0.000486
 23,0.00024508,-0.00024594,0.00001188,0.00031392,-0.00020558,-0.0001110
 7,0.00026544,0.00004007,0.00019566,-0.00105943,0.00081538,-0.00056233,
 0.00028020,0.00005253,0.00002310,-0.00030411,0.00041840,-0.00029020,0.
 00000559,0.00146160,-0.00107780,-0.00703311,-0.01822831,-0.05523775,0.
 00214034,0.00384976,0.00036583,0.01263176,0.02721132,0.05819149,-0.001
 07189,-0.00025133,-0.00186103,-0.00098410,-0.00035887,-0.00077130,0.00
 014645,0.00078694,-0.00036216,0.00011072,0.00018569,0.00027316,0.01296
 065,0.00271053,-0.01399857,0.00002283,0.00004086,-0.00000660,0.0002377
 3,-0.00008608,0.00002296,0.00009178,-0.00001099,0.00011705,-0.00013655
 ,-0.00011940,-0.00008830,-0.00134297,0.00035718,0.00047266,0.00011489,
 -0.00006825,-0.00001454,-0.00066241,0.00048238,0.00019424,0.00091627,-
 0.00033567,-0.00025970,-0.00000585,0.00001894,0.00002862,-0.00012484,-
 0.00011472,0.00022515,0.00001815,0.00025507,0.00012239,-0.19771090,-0.
 04776265,0.13791881,-0.01419778,-0.00736927,0.01525211,-0.00339482,0.0
 0105751,0.00319716,0.20501266,-0.00028348,-0.00069400,0.00004024,0.000
 73820,0.00039079,0.00075162,0.00055274,-0.00008450,-0.00023402,-0.0001
 0569,-0.00012766,-0.00022106,0.00471652,0.00109466,-0.00349490,0.00000
 234,-0.00003624,-0.00001710,-0.00046801,-0.00023805,-0.00024807,-0.000
 10959,-0.00001672,-0.00009269,0.00000162,0.00009500,-0.00032278,-0.000
 29620,0.00013213,0.00021277,-0.00005044,0.00007760,0.00004308,-0.00029
 656,-0.00044729,-0.00056615,0.00097361,0.00035028,0.00011884,0.0001764
 0,0.00001039,0.00002793,-0.00013467,-0.00026954,0.00018093,-0.00019263
 ,0.00057884,-0.00040433,-0.04875004,-0.06196526,0.04130460,0.01352165,
 0.00491380,-0.01367799,-0.02057790,-0.00354125,0.01959544,0.05058213,0
 .05977703,-0.00017799,-0.00482417,-0.00139398,-0.00090890,-0.00042480,
 -0.00101970,0.00023089,0.00210265,0.00190111,0.00003300,-0.00000229,0.
 00032515,0.01841121,0.00810469,-0.03364004,-0.00000656,0.00001579,0.00
 003710,-0.00079474,-0.00073722,-0.00011176,0.00017957,0.00004602,0.000
 10578,-0.00009173,-0.00002862,0.00036909,-0.00204866,0.00073794,0.0004
 8232,-0.00002507,0.00007852,-0.00005919,0.00089865,0.00002078,0.000905
 93,0.00098980,0.00025685,0.00020005,-0.00000114,0.00010765,0.00004806,
 -0.00004593,0.00020352,-0.00019245,-0.00000865,0.00027824,-0.00000077,
 0.13238377,0.03963166,-0.16136993,-0.00455025,-0.00124601,0.00455371,-
 0.00400513,-0.00132484,0.00406778,-0.14046213,-0.04299636,0.18479173\\
 -0.00000637,0.00000555,-0.00000987,0.00000533,-0.00000755,0.00000283,-
 0.00000696,-0.00000367,-0.00000142,-0.00000384,0.00000358,0.00001335,0
 .00000229,-0.00000668,0.00000268,-0.00000399,-0.00000586,0.00000944,0.
 00000527,0.00000346,0.00000486,0.00000042,0.00000140,0.00000748,0.0000
 0168,-0.00000066,0.00000384,-0.00000435,-0.00000403,0.00000283,-0.0000
 0097,-0.00000328,0.00000995,0.00000327,0.00000476,0.00000367,-0.000004
 81,-0.00000447,-0.00001240,-0.00000324,-0.00000555,-0.00000568,-0.0000
 0145,0.00000211,-0.00000592,0.00000036,0.00000117,-0.00001069,0.000000
 32,0.00000631,0.00000098,0.00000576,0.00000394,-0.00000427,0.00000349,
 0.00000195,-0.00000842,0.00000779,0.00000750,-0.00000325\\\@
 The archive entry for this job was punched.


 "WOULD YOU TELL ME PLEASE, WHICH WAY I OUGHT TO WALK FROM HERE?"
 "THAT DEPENDS A GREAT DEAL ON WHERE YOU WANT TO GO," SAID THE CAT.
 "I DON'T MUCH CARE WHERE -- ", SAID ALICE.
 "THEN IT DOESN'T MATTER WHICH WAY YOU WALK," SAID THE CAT.

                                      -- LEWIS CARROLL
 Job cpu time:       0 days  0 hours 13 minutes 26.3 seconds.
 Elapsed time:       0 days  0 hours  1 minutes  8.0 seconds.
 File lengths (MBytes):  RWF=    114 Int=      0 D2E=      0 Chk=      8 Scr=      1
 Normal termination of Gaussian 16 at Sat Dec 30 20:49:48 2023.
