Unloading slurm/anatra/current
  ERROR: No such file or directory on
    '/cm/local/modulefiles/slurm/anatra/current'
environment: line 0: unalias: gv: not found
environment: line 0: unalias: sl: not found
 Entering Gaussian System, Link 0=g16
 Initial command:
 /apps/gaussian/g16/C.01/g16/l1.exe "/local/jobs/1149484/Gau-327294.inp" -scrdir="/local/jobs/1149484/"
 Entering Link 1 = /apps/gaussian/g16/C.01/g16/l1.exe PID=    327297.
  
 Copyright (c) 1988-2019, Gaussian, Inc.  All Rights Reserved.
  
 This is part of the Gaussian(R) 16 program.  It is based on
 the Gaussian(R) 09 system (copyright 2009, Gaussian, Inc.),
 the Gaussian(R) 03 system (copyright 2003, Gaussian, Inc.),
 the Gaussian(R) 98 system (copyright 1998, Gaussian, Inc.),
 the Gaussian(R) 94 system (copyright 1995, Gaussian, Inc.),
 the Gaussian 92(TM) system (copyright 1992, Gaussian, Inc.),
 the Gaussian 90(TM) system (copyright 1990, Gaussian, Inc.),
 the Gaussian 88(TM) system (copyright 1988, Gaussian, Inc.),
 the Gaussian 86(TM) system (copyright 1986, Carnegie Mellon
 University), and the Gaussian 82(TM) system (copyright 1983,
 Carnegie Mellon University). Gaussian is a federally registered
 trademark of Gaussian, Inc.
  
 This software contains proprietary and confidential information,
 including trade secrets, belonging to Gaussian, Inc.
  
 This software is provided under written license and may be
 used, copied, transmitted, or stored only in accord with that
 written license.
  
 The following legend is applicable only to US Government
 contracts under FAR:
  
                    RESTRICTED RIGHTS LEGEND
  
 Use, reproduction and disclosure by the US Government is
 subject to restrictions as set forth in subparagraphs (a)
 and (c) of the Commercial Computer Software - Restricted
 Rights clause in FAR 52.227-19.
  
 Gaussian, Inc.
 340 Quinnipiac St., Bldg. 40, Wallingford CT 06492
  
  
 ---------------------------------------------------------------
 Warning -- This program may not be used in any manner that
 competes with the business of Gaussian, Inc. or will provide
 assistance to any competitor of Gaussian, Inc.  The licensee
 of this program is prohibited from giving any competitor of
 Gaussian, Inc. access to this program.  By using this program,
 the user acknowledges that Gaussian, Inc. is engaged in the
 business of creating and licensing software in the field of
 computational chemistry and represents and warrants to the
 licensee that it is not a competitor of Gaussian, Inc. and that
 it will not use this program in any manner prohibited above.
 ---------------------------------------------------------------
  

 Cite this work as:
 Gaussian 16, Revision C.01,
 M. J. Frisch, G. W. Trucks, H. B. Schlegel, G. E. Scuseria, 
 M. A. Robb, J. R. Cheeseman, G. Scalmani, V. Barone, 
 G. A. Petersson, H. Nakatsuji, X. Li, M. Caricato, A. V. Marenich, 
 J. Bloino, B. G. Janesko, R. Gomperts, B. Mennucci, H. P. Hratchian, 
 J. V. Ortiz, A. F. Izmaylov, J. L. Sonnenberg, D. Williams-Young, 
 F. Ding, F. Lipparini, F. Egidi, J. Goings, B. Peng, A. Petrone, 
 T. Henderson, D. Ranasinghe, V. G. Zakrzewski, J. Gao, N. Rega, 
 G. Zheng, W. Liang, M. Hada, M. Ehara, K. Toyota, R. Fukuda, 
 J. Hasegawa, M. Ishida, T. Nakajima, Y. Honda, O. Kitao, H. Nakai, 
 T. Vreven, K. Throssell, J. A. Montgomery, Jr., J. E. Peralta, 
 F. Ogliaro, M. J. Bearpark, J. J. Heyd, E. N. Brothers, K. N. Kudin, 
 V. N. Staroverov, T. A. Keith, R. Kobayashi, J. Normand, 
 K. Raghavachari, A. P. Rendell, J. C. Burant, S. S. Iyengar, 
 J. Tomasi, M. Cossi, J. M. Millam, M. Klene, C. Adamo, R. Cammi, 
 J. W. Ochterski, R. L. Martin, K. Morokuma, O. Farkas, 
 J. B. Foresman, and D. J. Fox, Gaussian, Inc., Wallingford CT, 2019.
 
 ******************************************
 Gaussian 16:  ES64L-G16RevC.01  3-Jul-2019
                11-Dec-2023 
 ******************************************
 %chk=cinchonidine_OPLS3e_1000_1_opt_freq.chk
 %nprocshared=12
 Will use up to   12 processors via shared memory.
 %mem=48GB
 ----------------------------------------------------------------------
 # m062x 6-31g(d) scrf=(iefpcm,solvent=benzene) opt=(maxcycles=50,maxst
 ep=10) freq=noraman
 ----------------------------------------------------------------------
 1/6=50,8=10,18=20,19=15,26=3,38=1/1,3;
 2/9=110,12=2,17=6,18=5,40=1/2;
 3/5=1,6=6,7=1,11=2,25=1,30=1,70=2201,71=1,72=12,74=-55/1,2,3;
 4//1;
 5/5=2,38=5,53=12/2;
 6/7=2,8=2,9=2,10=2,28=1/1;
 7//1,2,3,16;
 1/6=50,8=10,18=20,19=15,26=3/3(2);
 2/9=110/2;
 99//99;
 2/9=110/2;
 3/5=1,6=6,7=1,11=2,25=1,30=1,70=2205,71=1,72=12,74=-55/1,2,3;
 4/5=5,16=3,69=1/1;
 5/5=2,38=5,53=12/2;
 7//1,2,3,16;
 1/6=50,8=10,18=20,19=15,26=3/3(-5);
 2/9=110/2;
 6/7=2,8=2,9=2,10=2,19=2,28=1/1;
 99/9=1/99;
 -------------
 Molecule Name
 -------------
 Symbolic Z-matrix:
 Charge =  1 Multiplicity = 1
 O                     1.5147    3.3805   -3.2502 
 C                     1.131     2.2669   -2.4658 
 C                    -0.3954    2.2935   -2.1261 
 H                     1.705     2.3738   -1.5444 
 C                     1.5239    0.9397   -3.1261 
 H                    -0.5975    1.3819   -1.5569 
 C                    -1.3898    2.3481   -3.3293 
 N                    -0.7575    3.4436   -1.1254 
 C                     1.8011   -0.2223   -2.3272 
 C                     1.5957    0.8227   -4.5213 
 C                    -2.5215    3.39     -3.1132 
 H                    -1.7942    1.3549   -3.5306 
 H                    -0.8455    2.595    -4.2428 
 C                    -0.8181    4.8367   -1.8238 
 C                    -2.1823    3.1551   -0.5595 
 C                     1.7429   -0.2544   -0.9023 
 C                     2.1543   -1.4301   -3.0137 
 C                     1.9477   -0.3953   -5.0916 
 H                     1.381     1.6643   -5.1661 
 C                    -1.8426    4.7798   -2.9902 
 H                    -3.2407    3.3742   -3.9379 
 C                    -3.2092    3.0923   -1.7428 
 H                     0.183     5.1084   -2.1613 
 H                    -1.107     5.5699   -1.0664 
 H                    -2.128     2.2254    0.0139 
 H                    -2.417     3.957     0.1462 
 C                     2.0328   -1.4263   -0.2056 
 H                     1.4804    0.6236   -0.336 
 C                     2.4414   -2.6023   -2.275 
 N                     2.2254   -1.5039   -4.3703 
 H                     2.0152   -0.5063   -6.1655 
 H                    -1.333     5.0276   -3.9245 
 H                    -2.595     5.5613   -2.8634 
 H                    -3.9526    3.8754   -1.5688 
 C                    -4.0094    1.7714   -1.7519 
 C                     2.3795   -2.5885   -0.8845 
 H                     2.7111   -3.5065   -2.8036 
 H                    -4.5815    1.6469   -0.8308 
 H                    -4.7276    1.7458   -2.5735 
 H                    -3.3686    0.8947   -1.8519 
 H                     2.6045   -3.4879   -0.3266 
 H                     2.442     3.262    -3.486 
 H                    -0.0768    3.4706   -0.3747 
 H                     1.9941   -1.4388    0.8755 
 

 GradGradGradGradGradGradGradGradGradGradGradGradGradGradGradGradGradGrad
 Berny optimization.
 Initialization pass.
                           ----------------------------
                           !    Initial Parameters    !
                           ! (Angstroms and Degrees)  !
 --------------------------                            --------------------------
 ! Name  Definition              Value          Derivative Info.                !
 --------------------------------------------------------------------------------
 ! R1    R(1,2)                  1.4151         estimate D2E/DX2                !
 ! R2    R(1,42)                 0.9641         estimate D2E/DX2                !
 ! R3    R(2,3)                  1.564          estimate D2E/DX2                !
 ! R4    R(2,4)                  1.0908         estimate D2E/DX2                !
 ! R5    R(2,5)                  1.5336         estimate D2E/DX2                !
 ! R6    R(3,6)                  1.0935         estimate D2E/DX2                !
 ! R7    R(3,7)                  1.5619         estimate D2E/DX2                !
 ! R8    R(3,8)                  1.5669         estimate D2E/DX2                !
 ! R9    R(5,9)                  1.4371         estimate D2E/DX2                !
 ! R10   R(5,10)                 1.4019         estimate D2E/DX2                !
 ! R11   R(7,11)                 1.5534         estimate D2E/DX2                !
 ! R12   R(7,12)                 1.0911         estimate D2E/DX2                !
 ! R13   R(7,13)                 1.0917         estimate D2E/DX2                !
 ! R14   R(8,14)                 1.5595         estimate D2E/DX2                !
 ! R15   R(8,15)                 1.56           estimate D2E/DX2                !
 ! R16   R(8,43)                 1.0137         estimate D2E/DX2                !
 ! R17   R(9,16)                 1.4264         estimate D2E/DX2                !
 ! R18   R(9,17)                 1.4335         estimate D2E/DX2                !
 ! R19   R(10,18)                1.3902         estimate D2E/DX2                !
 ! R20   R(10,19)                1.0817         estimate D2E/DX2                !
 ! R21   R(11,20)                1.5516         estimate D2E/DX2                !
 ! R22   R(11,21)                1.0944         estimate D2E/DX2                !
 ! R23   R(11,22)                1.5619         estimate D2E/DX2                !
 ! R24   R(14,20)                1.5535         estimate D2E/DX2                !
 ! R25   R(14,23)                1.0908         estimate D2E/DX2                !
 ! R26   R(14,24)                1.093          estimate D2E/DX2                !
 ! R27   R(15,22)                1.568          estimate D2E/DX2                !
 ! R28   R(15,25)                1.0937         estimate D2E/DX2                !
 ! R29   R(15,26)                1.0937         estimate D2E/DX2                !
 ! R30   R(16,27)                1.3938         estimate D2E/DX2                !
 ! R31   R(16,28)                1.0773         estimate D2E/DX2                !
 ! R32   R(17,29)                1.415          estimate D2E/DX2                !
 ! R33   R(17,30)                1.3605         estimate D2E/DX2                !
 ! R34   R(18,30)                1.3514         estimate D2E/DX2                !
 ! R35   R(18,31)                1.0817         estimate D2E/DX2                !
 ! R36   R(20,32)                1.0927         estimate D2E/DX2                !
 ! R37   R(20,33)                1.0922         estimate D2E/DX2                !
 ! R38   R(22,34)                1.0937         estimate D2E/DX2                !
 ! R39   R(22,35)                1.5444         estimate D2E/DX2                !
 ! R40   R(27,36)                1.3899         estimate D2E/DX2                !
 ! R41   R(27,44)                1.0819         estimate D2E/DX2                !
 ! R42   R(29,36)                1.3919         estimate D2E/DX2                !
 ! R43   R(29,37)                1.0815         estimate D2E/DX2                !
 ! R44   R(35,38)                1.0914         estimate D2E/DX2                !
 ! R45   R(35,39)                1.0916         estimate D2E/DX2                !
 ! R46   R(35,40)                1.0905         estimate D2E/DX2                !
 ! R47   R(36,41)                1.082          estimate D2E/DX2                !
 ! A1    A(2,1,42)             107.4354         estimate D2E/DX2                !
 ! A2    A(1,2,3)              111.8166         estimate D2E/DX2                !
 ! A3    A(1,2,4)              104.3834         estimate D2E/DX2                !
 ! A4    A(1,2,5)              111.8947         estimate D2E/DX2                !
 ! A5    A(3,2,4)              109.1738         estimate D2E/DX2                !
 ! A6    A(3,2,5)              110.9949         estimate D2E/DX2                !
 ! A7    A(4,2,5)              108.2818         estimate D2E/DX2                !
 ! A8    A(2,3,6)              106.2154         estimate D2E/DX2                !
 ! A9    A(2,3,7)              117.0419         estimate D2E/DX2                !
 ! A10   A(2,3,8)              112.1317         estimate D2E/DX2                !
 ! A11   A(6,3,7)              108.207          estimate D2E/DX2                !
 ! A12   A(6,3,8)              103.6941         estimate D2E/DX2                !
 ! A13   A(7,3,8)              108.614          estimate D2E/DX2                !
 ! A14   A(2,5,9)              120.6518         estimate D2E/DX2                !
 ! A15   A(2,5,10)             120.9201         estimate D2E/DX2                !
 ! A16   A(9,5,10)             118.4162         estimate D2E/DX2                !
 ! A17   A(3,7,11)             112.3408         estimate D2E/DX2                !
 ! A18   A(3,7,12)             110.2594         estimate D2E/DX2                !
 ! A19   A(3,7,13)             109.5784         estimate D2E/DX2                !
 ! A20   A(11,7,12)            111.4808         estimate D2E/DX2                !
 ! A21   A(11,7,13)            109.1453         estimate D2E/DX2                !
 ! A22   A(12,7,13)            103.6678         estimate D2E/DX2                !
 ! A23   A(3,8,14)             112.2491         estimate D2E/DX2                !
 ! A24   A(3,8,15)             107.8783         estimate D2E/DX2                !
 ! A25   A(3,8,43)             109.7133         estimate D2E/DX2                !
 ! A26   A(14,8,15)            106.9876         estimate D2E/DX2                !
 ! A27   A(14,8,43)            109.5076         estimate D2E/DX2                !
 ! A28   A(15,8,43)            110.462          estimate D2E/DX2                !
 ! A29   A(5,9,16)             124.4456         estimate D2E/DX2                !
 ! A30   A(5,9,17)             117.5532         estimate D2E/DX2                !
 ! A31   A(16,9,17)            118.0007         estimate D2E/DX2                !
 ! A32   A(5,10,18)            119.6264         estimate D2E/DX2                !
 ! A33   A(5,10,19)            121.2062         estimate D2E/DX2                !
 ! A34   A(18,10,19)           119.1674         estimate D2E/DX2                !
 ! A35   A(7,11,20)            107.0398         estimate D2E/DX2                !
 ! A36   A(7,11,21)            111.3624         estimate D2E/DX2                !
 ! A37   A(7,11,22)            108.3602         estimate D2E/DX2                !
 ! A38   A(20,11,21)           111.1133         estimate D2E/DX2                !
 ! A39   A(20,11,22)           107.0865         estimate D2E/DX2                !
 ! A40   A(21,11,22)           111.6591         estimate D2E/DX2                !
 ! A41   A(8,14,20)            109.217          estimate D2E/DX2                !
 ! A42   A(8,14,23)            108.989          estimate D2E/DX2                !
 ! A43   A(8,14,24)            107.4074         estimate D2E/DX2                !
 ! A44   A(20,14,23)           112.4608         estimate D2E/DX2                !
 ! A45   A(20,14,24)           111.7488         estimate D2E/DX2                !
 ! A46   A(23,14,24)           106.8509         estimate D2E/DX2                !
 ! A47   A(8,15,22)            109.3783         estimate D2E/DX2                !
 ! A48   A(8,15,25)            107.5814         estimate D2E/DX2                !
 ! A49   A(8,15,26)            107.126          estimate D2E/DX2                !
 ! A50   A(22,15,25)           113.2117         estimate D2E/DX2                !
 ! A51   A(22,15,26)           112.0715         estimate D2E/DX2                !
 ! A52   A(25,15,26)           107.1961         estimate D2E/DX2                !
 ! A53   A(9,16,27)            120.6461         estimate D2E/DX2                !
 ! A54   A(9,16,28)            121.1122         estimate D2E/DX2                !
 ! A55   A(27,16,28)           118.2407         estimate D2E/DX2                !
 ! A56   A(9,17,29)            119.8668         estimate D2E/DX2                !
 ! A57   A(9,17,30)            122.4208         estimate D2E/DX2                !
 ! A58   A(29,17,30)           117.7123         estimate D2E/DX2                !
 ! A59   A(10,18,30)           123.4891         estimate D2E/DX2                !
 ! A60   A(10,18,31)           120.8612         estimate D2E/DX2                !
 ! A61   A(30,18,31)           115.6497         estimate D2E/DX2                !
 ! A62   A(11,20,14)           112.3879         estimate D2E/DX2                !
 ! A63   A(11,20,32)           109.84           estimate D2E/DX2                !
 ! A64   A(11,20,33)           110.4069         estimate D2E/DX2                !
 ! A65   A(14,20,32)           109.0331         estimate D2E/DX2                !
 ! A66   A(14,20,33)           109.9335         estimate D2E/DX2                !
 ! A67   A(32,20,33)           104.9674         estimate D2E/DX2                !
 ! A68   A(11,22,15)           111.4775         estimate D2E/DX2                !
 ! A69   A(11,22,34)           107.6012         estimate D2E/DX2                !
 ! A70   A(11,22,35)           112.7044         estimate D2E/DX2                !
 ! A71   A(15,22,34)           107.2422         estimate D2E/DX2                !
 ! A72   A(15,22,35)           112.2115         estimate D2E/DX2                !
 ! A73   A(34,22,35)           105.1384         estimate D2E/DX2                !
 ! A74   A(16,27,36)           120.7148         estimate D2E/DX2                !
 ! A75   A(16,27,44)           120.1168         estimate D2E/DX2                !
 ! A76   A(36,27,44)           119.1678         estimate D2E/DX2                !
 ! A77   A(17,29,36)           120.2836         estimate D2E/DX2                !
 ! A78   A(17,29,37)           119.2111         estimate D2E/DX2                !
 ! A79   A(36,29,37)           120.5052         estimate D2E/DX2                !
 ! A80   A(17,30,18)           118.4879         estimate D2E/DX2                !
 ! A81   A(22,35,38)           111.3571         estimate D2E/DX2                !
 ! A82   A(22,35,39)           111.4323         estimate D2E/DX2                !
 ! A83   A(22,35,40)           112.5612         estimate D2E/DX2                !
 ! A84   A(38,35,39)           106.7179         estimate D2E/DX2                !
 ! A85   A(38,35,40)           107.0793         estimate D2E/DX2                !
 ! A86   A(39,35,40)           107.3825         estimate D2E/DX2                !
 ! A87   A(27,36,29)           120.4861         estimate D2E/DX2                !
 ! A88   A(27,36,41)           119.6738         estimate D2E/DX2                !
 ! A89   A(29,36,41)           119.84           estimate D2E/DX2                !
 ! D1    D(42,1,2,3)          -175.1584         estimate D2E/DX2                !
 ! D2    D(42,1,2,4)            66.945          estimate D2E/DX2                !
 ! D3    D(42,1,2,5)           -49.9321         estimate D2E/DX2                !
 ! D4    D(1,2,3,6)            177.8756         estimate D2E/DX2                !
 ! D5    D(1,2,3,7)             56.9594         estimate D2E/DX2                !
 ! D6    D(1,2,3,8)            -69.5158         estimate D2E/DX2                !
 ! D7    D(4,2,3,6)            -67.1329         estimate D2E/DX2                !
 ! D8    D(4,2,3,7)            171.9509         estimate D2E/DX2                !
 ! D9    D(4,2,3,8)             45.4757         estimate D2E/DX2                !
 ! D10   D(5,2,3,6)             52.1534         estimate D2E/DX2                !
 ! D11   D(5,2,3,7)            -68.7628         estimate D2E/DX2                !
 ! D12   D(5,2,3,8)            164.762          estimate D2E/DX2                !
 ! D13   D(1,2,5,9)            151.5744         estimate D2E/DX2                !
 ! D14   D(1,2,5,10)           -29.6972         estimate D2E/DX2                !
 ! D15   D(3,2,5,9)            -82.747          estimate D2E/DX2                !
 ! D16   D(3,2,5,10)            95.9814         estimate D2E/DX2                !
 ! D17   D(4,2,5,9)             37.0726         estimate D2E/DX2                !
 ! D18   D(4,2,5,10)          -144.199          estimate D2E/DX2                !
 ! D19   D(2,3,7,11)          -134.7368         estimate D2E/DX2                !
 ! D20   D(2,3,7,12)           100.2543         estimate D2E/DX2                !
 ! D21   D(2,3,7,13)           -13.2367         estimate D2E/DX2                !
 ! D22   D(6,3,7,11)           105.399          estimate D2E/DX2                !
 ! D23   D(6,3,7,12)           -19.6099         estimate D2E/DX2                !
 ! D24   D(6,3,7,13)          -133.101          estimate D2E/DX2                !
 ! D25   D(8,3,7,11)            -6.5483         estimate D2E/DX2                !
 ! D26   D(8,3,7,12)          -131.5572         estimate D2E/DX2                !
 ! D27   D(8,3,7,13)           114.9517         estimate D2E/DX2                !
 ! D28   D(2,3,8,14)            77.4156         estimate D2E/DX2                !
 ! D29   D(2,3,8,15)          -164.9617         estimate D2E/DX2                !
 ! D30   D(2,3,8,43)           -44.579          estimate D2E/DX2                !
 ! D31   D(6,3,8,14)          -168.4184         estimate D2E/DX2                !
 ! D32   D(6,3,8,15)           -50.7958         estimate D2E/DX2                !
 ! D33   D(6,3,8,43)            69.587          estimate D2E/DX2                !
 ! D34   D(7,3,8,14)           -53.4947         estimate D2E/DX2                !
 ! D35   D(7,3,8,15)            64.1279         estimate D2E/DX2                !
 ! D36   D(7,3,8,43)          -175.4893         estimate D2E/DX2                !
 ! D37   D(2,5,9,16)            -0.1028         estimate D2E/DX2                !
 ! D38   D(2,5,9,17)           179.6304         estimate D2E/DX2                !
 ! D39   D(10,5,9,16)         -178.8625         estimate D2E/DX2                !
 ! D40   D(10,5,9,17)            0.8707         estimate D2E/DX2                !
 ! D41   D(2,5,10,18)         -179.6542         estimate D2E/DX2                !
 ! D42   D(2,5,10,19)            0.2909         estimate D2E/DX2                !
 ! D43   D(9,5,10,18)           -0.898          estimate D2E/DX2                !
 ! D44   D(9,5,10,19)          179.0471         estimate D2E/DX2                !
 ! D45   D(3,7,11,20)           61.6666         estimate D2E/DX2                !
 ! D46   D(3,7,11,21)         -176.7037         estimate D2E/DX2                !
 ! D47   D(3,7,11,22)          -53.5161         estimate D2E/DX2                !
 ! D48   D(12,7,11,20)        -173.9977         estimate D2E/DX2                !
 ! D49   D(12,7,11,21)         -52.368          estimate D2E/DX2                !
 ! D50   D(12,7,11,22)          70.8195         estimate D2E/DX2                !
 ! D51   D(13,7,11,20)         -60.0806         estimate D2E/DX2                !
 ! D52   D(13,7,11,21)          61.5491         estimate D2E/DX2                !
 ! D53   D(13,7,11,22)        -175.2633         estimate D2E/DX2                !
 ! D54   D(3,8,14,20)           56.7952         estimate D2E/DX2                !
 ! D55   D(3,8,14,23)          -66.4229         estimate D2E/DX2                !
 ! D56   D(3,8,14,24)          178.1624         estimate D2E/DX2                !
 ! D57   D(15,8,14,20)         -61.356          estimate D2E/DX2                !
 ! D58   D(15,8,14,23)         175.4258         estimate D2E/DX2                !
 ! D59   D(15,8,14,24)          60.0112         estimate D2E/DX2                !
 ! D60   D(43,8,14,20)         178.9068         estimate D2E/DX2                !
 ! D61   D(43,8,14,23)          55.6887         estimate D2E/DX2                !
 ! D62   D(43,8,14,24)         -59.726          estimate D2E/DX2                !
 ! D63   D(3,8,15,22)          -59.0396         estimate D2E/DX2                !
 ! D64   D(3,8,15,25)           64.3084         estimate D2E/DX2                !
 ! D65   D(3,8,15,26)          179.2792         estimate D2E/DX2                !
 ! D66   D(14,8,15,22)          61.9272         estimate D2E/DX2                !
 ! D67   D(14,8,15,25)        -174.7249         estimate D2E/DX2                !
 ! D68   D(14,8,15,26)         -59.754          estimate D2E/DX2                !
 ! D69   D(43,8,15,22)        -178.9509         estimate D2E/DX2                !
 ! D70   D(43,8,15,25)         -55.603          estimate D2E/DX2                !
 ! D71   D(43,8,15,26)          59.3679         estimate D2E/DX2                !
 ! D72   D(5,9,16,27)         -179.7595         estimate D2E/DX2                !
 ! D73   D(5,9,16,28)           -0.1123         estimate D2E/DX2                !
 ! D74   D(17,9,16,27)           0.5085         estimate D2E/DX2                !
 ! D75   D(17,9,16,28)        -179.8444         estimate D2E/DX2                !
 ! D76   D(5,9,17,29)          179.7935         estimate D2E/DX2                !
 ! D77   D(5,9,17,30)           -0.3313         estimate D2E/DX2                !
 ! D78   D(16,9,17,29)          -0.4558         estimate D2E/DX2                !
 ! D79   D(16,9,17,30)         179.4195         estimate D2E/DX2                !
 ! D80   D(5,10,18,30)           0.369          estimate D2E/DX2                !
 ! D81   D(5,10,18,31)        -179.6159         estimate D2E/DX2                !
 ! D82   D(19,10,18,30)       -179.5773         estimate D2E/DX2                !
 ! D83   D(19,10,18,31)          0.4379         estimate D2E/DX2                !
 ! D84   D(7,11,20,14)         -58.4131         estimate D2E/DX2                !
 ! D85   D(7,11,20,32)          63.1597         estimate D2E/DX2                !
 ! D86   D(7,11,20,33)         178.4488         estimate D2E/DX2                !
 ! D87   D(21,11,20,14)        179.8005         estimate D2E/DX2                !
 ! D88   D(21,11,20,32)        -58.6268         estimate D2E/DX2                !
 ! D89   D(21,11,20,33)         56.6623         estimate D2E/DX2                !
 ! D90   D(22,11,20,14)         57.619          estimate D2E/DX2                !
 ! D91   D(22,11,20,32)        179.1917         estimate D2E/DX2                !
 ! D92   D(22,11,20,33)        -65.5192         estimate D2E/DX2                !
 ! D93   D(7,11,22,15)          58.5654         estimate D2E/DX2                !
 ! D94   D(7,11,22,34)         175.8878         estimate D2E/DX2                !
 ! D95   D(7,11,22,35)         -68.6621         estimate D2E/DX2                !
 ! D96   D(20,11,22,15)        -56.5868         estimate D2E/DX2                !
 ! D97   D(20,11,22,34)         60.7355         estimate D2E/DX2                !
 ! D98   D(20,11,22,35)        176.1857         estimate D2E/DX2                !
 ! D99   D(21,11,22,15)       -178.4264         estimate D2E/DX2                !
 ! D100  D(21,11,22,34)        -61.1041         estimate D2E/DX2                !
 ! D101  D(21,11,22,35)         54.3461         estimate D2E/DX2                !
 ! D102  D(8,14,20,11)           1.0121         estimate D2E/DX2                !
 ! D103  D(8,14,20,32)        -121.0198         estimate D2E/DX2                !
 ! D104  D(8,14,20,33)         124.4153         estimate D2E/DX2                !
 ! D105  D(23,14,20,11)        122.1417         estimate D2E/DX2                !
 ! D106  D(23,14,20,32)          0.1098         estimate D2E/DX2                !
 ! D107  D(23,14,20,33)       -114.4551         estimate D2E/DX2                !
 ! D108  D(24,14,20,11)       -117.6834         estimate D2E/DX2                !
 ! D109  D(24,14,20,32)        120.2847         estimate D2E/DX2                !
 ! D110  D(24,14,20,33)          5.7198         estimate D2E/DX2                !
 ! D111  D(8,15,22,11)          -2.2612         estimate D2E/DX2                !
 ! D112  D(8,15,22,34)        -119.8006         estimate D2E/DX2                !
 ! D113  D(8,15,22,35)         125.2331         estimate D2E/DX2                !
 ! D114  D(25,15,22,11)       -122.211          estimate D2E/DX2                !
 ! D115  D(25,15,22,34)        120.2497         estimate D2E/DX2                !
 ! D116  D(25,15,22,35)          5.2834         estimate D2E/DX2                !
 ! D117  D(26,15,22,11)        116.3891         estimate D2E/DX2                !
 ! D118  D(26,15,22,34)         -1.1502         estimate D2E/DX2                !
 ! D119  D(26,15,22,35)       -116.1165         estimate D2E/DX2                !
 ! D120  D(9,16,27,36)          -0.2424         estimate D2E/DX2                !
 ! D121  D(9,16,27,44)         179.4857         estimate D2E/DX2                !
 ! D122  D(28,16,27,36)       -179.8995         estimate D2E/DX2                !
 ! D123  D(28,16,27,44)         -0.1714         estimate D2E/DX2                !
 ! D124  D(9,17,29,36)           0.1407         estimate D2E/DX2                !
 ! D125  D(9,17,29,37)        -179.7247         estimate D2E/DX2                !
 ! D126  D(30,17,29,36)       -179.7404         estimate D2E/DX2                !
 ! D127  D(30,17,29,37)          0.3942         estimate D2E/DX2                !
 ! D128  D(9,17,30,18)          -0.2053         estimate D2E/DX2                !
 ! D129  D(29,17,30,18)        179.6725         estimate D2E/DX2                !
 ! D130  D(10,18,30,17)          0.1976         estimate D2E/DX2                !
 ! D131  D(31,18,30,17)       -179.8168         estimate D2E/DX2                !
 ! D132  D(11,22,35,38)       -172.8242         estimate D2E/DX2                !
 ! D133  D(11,22,35,39)        -53.7912         estimate D2E/DX2                !
 ! D134  D(11,22,35,40)         66.9145         estimate D2E/DX2                !
 ! D135  D(15,22,35,38)         60.3383         estimate D2E/DX2                !
 ! D136  D(15,22,35,39)        179.3714         estimate D2E/DX2                !
 ! D137  D(15,22,35,40)        -59.9229         estimate D2E/DX2                !
 ! D138  D(34,22,35,38)        -55.9028         estimate D2E/DX2                !
 ! D139  D(34,22,35,39)         63.1303         estimate D2E/DX2                !
 ! D140  D(34,22,35,40)       -176.164          estimate D2E/DX2                !
 ! D141  D(16,27,36,29)         -0.0903         estimate D2E/DX2                !
 ! D142  D(16,27,36,41)        179.7937         estimate D2E/DX2                !
 ! D143  D(44,27,36,29)       -179.8209         estimate D2E/DX2                !
 ! D144  D(44,27,36,41)          0.063          estimate D2E/DX2                !
 ! D145  D(17,29,36,27)          0.1395         estimate D2E/DX2                !
 ! D146  D(17,29,36,41)       -179.7443         estimate D2E/DX2                !
 ! D147  D(37,29,36,27)       -179.9969         estimate D2E/DX2                !
 ! D148  D(37,29,36,41)          0.1193         estimate D2E/DX2                !
 --------------------------------------------------------------------------------
 Trust Radius=1.00D-01 FncErr=1.00D-07 GrdErr=1.00D-06 EigMax=2.50D+02 EigMin=1.00D-04
 Number of steps in this run=     50 maximum allowed number of steps=    264.
 GradGradGradGradGradGradGradGradGradGradGradGradGradGradGradGradGradGrad

                          Input orientation:                          
 ---------------------------------------------------------------------
 Center     Atomic      Atomic             Coordinates (Angstroms)
 Number     Number       Type             X           Y           Z
 ---------------------------------------------------------------------
      1          8           0        1.514700    3.380500   -3.250200
      2          6           0        1.131000    2.266900   -2.465800
      3          6           0       -0.395400    2.293500   -2.126100
      4          1           0        1.705000    2.373800   -1.544400
      5          6           0        1.523900    0.939700   -3.126100
      6          1           0       -0.597500    1.381900   -1.556900
      7          6           0       -1.389800    2.348100   -3.329300
      8          7           0       -0.757500    3.443600   -1.125400
      9          6           0        1.801100   -0.222300   -2.327200
     10          6           0        1.595700    0.822700   -4.521300
     11          6           0       -2.521500    3.390000   -3.113200
     12          1           0       -1.794200    1.354900   -3.530600
     13          1           0       -0.845500    2.595000   -4.242800
     14          6           0       -0.818100    4.836700   -1.823800
     15          6           0       -2.182300    3.155100   -0.559500
     16          6           0        1.742900   -0.254400   -0.902300
     17          6           0        2.154300   -1.430100   -3.013700
     18          6           0        1.947700   -0.395300   -5.091600
     19          1           0        1.381000    1.664300   -5.166100
     20          6           0       -1.842600    4.779800   -2.990200
     21          1           0       -3.240700    3.374200   -3.937900
     22          6           0       -3.209200    3.092300   -1.742800
     23          1           0        0.183000    5.108400   -2.161300
     24          1           0       -1.107000    5.569900   -1.066400
     25          1           0       -2.128000    2.225400    0.013900
     26          1           0       -2.417000    3.957000    0.146200
     27          6           0        2.032800   -1.426300   -0.205600
     28          1           0        1.480400    0.623600   -0.336000
     29          6           0        2.441400   -2.602300   -2.275000
     30          7           0        2.225400   -1.503900   -4.370300
     31          1           0        2.015200   -0.506300   -6.165500
     32          1           0       -1.333000    5.027600   -3.924500
     33          1           0       -2.595000    5.561300   -2.863400
     34          1           0       -3.952600    3.875400   -1.568800
     35          6           0       -4.009400    1.771400   -1.751900
     36          6           0        2.379500   -2.588500   -0.884500
     37          1           0        2.711100   -3.506500   -2.803600
     38          1           0       -4.581500    1.646900   -0.830800
     39          1           0       -4.727600    1.745800   -2.573500
     40          1           0       -3.368600    0.894700   -1.851900
     41          1           0        2.604500   -3.487900   -0.326600
     42          1           0        2.442000    3.262000   -3.486000
     43          1           0       -0.076800    3.470600   -0.374700
     44          1           0        1.994100   -1.438800    0.875500
 ---------------------------------------------------------------------
                    Distance matrix (angstroms):
                    1          2          3          4          5
     1  O    0.000000
     2  C    1.415137   0.000000
     3  C    2.468532   1.563970   0.000000
     4  H    1.989827   1.090817   2.180941   0.000000
     5  C    2.443970   1.533567   2.552741   2.142712   0.000000
     6  H    3.364975   2.144070   1.093548   2.507096   2.675494
     7  C    3.083541   2.665832   1.561891   3.572718   3.242611
     8  N    3.111535   2.597639   1.566923   2.717340   3.934095
     9  C    3.730164   2.581542   3.345789   2.713254   1.437124
    10  C    2.857376   2.554749   3.444520   3.358540   1.401937
    11  C    4.038536   3.875724   2.587852   4.621374   4.729630
    12  H    3.889794   3.243815   2.193224   4.150608   3.368353
    13  H    2.678210   2.678046   2.184928   3.719589   3.098563
    14  C    3.097917   3.288621   2.595752   3.536944   4.729435
    15  C    4.578043   3.924390   2.527766   4.085530   5.023082
    16  C    4.333268   3.029176   3.544264   2.705765   2.533599
    17  C    4.858692   3.874938   4.599348   4.102483   2.454789
    18  C    4.223140   3.827419   4.638314   4.506600   2.413508
    19  H    2.575634   2.777993   3.576743   3.704737   2.169577
    20  C    3.646519   3.928353   3.003788   4.523786   5.108636
    21  H    4.804873   4.743939   3.542071   5.584764   5.411767
    22  C    4.966945   4.476757   2.949995   4.970409   5.380468
    23  H    2.438189   3.010905   2.873925   3.189841   4.484073
    24  H    4.054105   4.228093   3.516267   4.283793   5.709882
    25  H    5.025721   4.095328   2.754295   4.140315   4.984877
    26  H    5.227442   4.718823   3.466619   4.728164   5.944976
    27  C    5.713435   4.422835   4.839565   4.042351   3.792922
    28  H    4.011762   2.712667   3.084096   2.138662   2.808286
    29  C    6.132184   5.046054   5.660253   5.083073   3.756586
    30  N    5.061332   4.363916   5.130816   4.826291   2.830427
    31  H    4.884331   4.707465   5.474178   5.453968   3.401506
    32  H    3.358127   3.977508   3.404209   4.683692   5.050767
    33  H    4.668526   4.989412   4.007539   5.512705   6.196252
    34  H    5.741376   5.406928   3.932768   5.853532   6.405901
    35  C    5.945569   5.213337   3.670642   5.749810   5.761732
    36  C    6.478686   5.256821   5.751136   5.051222   4.266734
    37  H    7.004398   5.995246   6.614329   6.097192   4.613257
    38  H    6.783990   5.974134   4.429371   6.368492   6.560826
    39  H    6.488180   5.882715   4.389544   6.544599   6.327434
    40  H    5.655180   4.744071   3.297233   5.293743   5.055904
    41  H    7.543873   6.313882   6.757380   6.054062   5.348695
    42  H    0.964121   1.936428   3.292136   2.258734   2.522997
    43  H    3.287779   2.698217   2.134121   2.397077   4.066681
    44  H    6.362144   5.063738   5.352511   4.524977   4.678798
                    6          7          8          9         10
     6  H    0.000000
     7  C    2.168567   0.000000
     8  N    2.112439   2.541082   0.000000
     9  C    2.986654   4.218175   4.629209   0.000000
    10  C    3.729678   3.558219   4.892730   2.438911   0.000000
    11  C    3.186897   1.553383   2.658179   5.687827   5.052238
    12  H    2.308314   1.091104   3.349985   4.106326   3.571575
    13  H    2.957562   1.091652   3.232035   4.314069   3.029532
    14  C    3.472109   2.964203   1.559539   5.719012   5.405102
    15  C    2.578883   2.991838   1.559978   5.513535   5.950566
    16  C    2.929753   4.741007   4.469561   1.426449   3.778753
    17  C    4.195475   5.189898   5.983077   1.433462   2.767670
    18  C    4.704316   4.665924   6.147032   2.773685   1.390205
    19  H    4.125595   3.393928   4.905746   3.434399   1.081736
    20  C    3.892345   2.496634   2.537785   6.223915   5.461210
    21  H    4.077368   2.202069   3.752500   6.399134   5.499207
    22  C    3.127460   2.526071   2.552534   6.035827   5.996517
    23  H    3.855033   3.384846   2.174670   5.573341   5.092401
    24  H    4.247296   3.947238   2.155640   6.602745   6.463500
    25  H    2.349752   3.425928   2.158770   5.187467   6.033370
    26  H    3.583611   3.965199   2.152786   6.432466   6.907326
    27  C    4.078048   5.976436   5.687507   2.450406   4.886136
    28  H    2.526516   4.491302   3.685614   2.187069   4.191619
    29  C    5.062058   6.347921   6.935953   2.465179   4.182308
    30  N    4.920551   5.384353   6.626072   2.448834   2.415034
    31  H    5.624117   5.271210   6.977978   3.854743   2.155369
    32  H    4.408811   2.745398   3.267295   6.319446   5.158938
    33  H    4.812934   3.463268   3.298743   7.284452   6.539490
    34  H    4.180237   3.464094   3.254492   7.104321   6.987121
    35  C    3.439593   3.111764   3.709934   6.169904   6.323508
    36  C    5.007867   6.674930   6.803310   2.831048   5.047469
    37  H    6.033038   7.167293   7.946787   3.441079   4.789215
    38  H    4.058288   4.113530   4.235315   6.816942   7.242713
    39  H    4.268914   3.474897   4.554252   6.823343   6.680581
    40  H    2.829025   2.865437   3.720556   5.310310   5.636946
    41  H    5.956626   7.683068   7.745116   3.913054   6.098726
    42  H    4.061375   3.942393   3.980228   3.727454   2.781772
    43  H    2.455889   3.422519   1.013722   4.579986   5.196434
    44  H    4.537544   6.593310   5.950860   3.431386   5.865028
                   11         12         13         14         15
    11  C    0.000000
    12  H    2.201095   0.000000
    13  H    2.171865   1.716132   0.000000
    14  C    2.580129   3.998608   3.298110   0.000000
    15  C    2.586816   3.495537   3.958212   2.507444   0.000000
    16  C    6.029497   4.691363   5.096846   5.772970   5.210508
    17  C    6.716128   4.859430   5.168261   7.037315   6.771503
    18  C    6.181934   4.416077   4.179034   6.760325   7.085349
    19  H    4.735182   3.585036   2.583793   5.105990   6.011685
    20  C    1.551637   3.467609   2.708610   1.553489   2.943357
    21  H    1.094362   2.517107   2.537144   3.532324   3.547084
    22  C    1.561907   2.866533   3.476260   2.960887   1.568014
    23  H    3.342653   4.457922   3.421642   1.090838   3.460605
    24  H    3.307894   4.930593   4.359808   1.093023   2.691557
    25  H    3.360043   3.665061   4.461043   3.451357   1.093654
    26  H    3.310000   4.547270   4.856746   2.685378   1.093682
    27  C    7.238269   5.782441   6.383921   7.069043   6.235506
    28  H    5.601876   4.632847   4.955736   5.024626   4.458006
    29  C    7.825638   5.930959   6.456615   8.134288   7.580844
    30  N    6.932793   5.003501   5.123247   7.480024   7.460315
    31  H    6.714115   4.991822   4.636641   7.444837   7.902664
    32  H    2.180017   3.722444   2.501302   2.171291   3.943449
    33  H    2.186858   4.333617   3.709775   2.182473   3.356795
    34  H    2.160748   3.854902   4.294621   3.288497   2.161361
    35  C    2.585894   2.871299   4.110129   4.425565   2.583551
    36  C    8.045456   6.322343   6.967602   8.138828   7.341974
    37  H    8.662428   6.667793   7.207566   9.111764   8.564944
    38  H    3.534310   3.891430   5.147653   5.032301   2.846828
    39  H    2.803845   3.110254   4.310267   5.039832   3.538485
    40  H    2.921468   2.347031   3.869555   4.695232   2.861296
    41  H    9.019231   7.284702   8.015036   9.124405   8.191285
    42  H    4.979126   4.645902   3.438792   3.983822   5.473571
    43  H    3.671844   4.169575   4.039774   2.125005   2.137012
    44  H    7.721249   6.447456   7.108577   7.387597   6.372241
                   16         17         18         19         20
    16  C    0.000000
    17  C    2.451434   0.000000
    18  C    4.196669   2.330486   0.000000
    19  H    4.689603   3.847873   2.137440   0.000000
    20  C    6.523673   7.385027   6.750105   4.983220   0.000000
    21  H    6.871526   7.282957   6.516107   5.078616   2.197392
    22  C    6.035738   7.129826   7.069048   5.901534   2.504248
    23  H    5.725207   6.882194   6.480088   4.725024   2.213167
    24  H    6.486242   7.964173   7.817739   6.184771   2.205985
    25  H    4.687504   6.392741   7.038859   6.281745   3.953610
    26  H    6.011656   7.739677   8.088737   6.921113   3.293014
    27  C    1.393837   2.810730   4.994317   5.880749   7.828691
    28  H    1.077259   3.441207   4.885924   4.941943   5.946520
    29  C    2.807996   1.414976   3.612177   5.261823   8.565020
    30  N    3.717671   1.360465   1.351438   3.373989   7.611714
    31  H    5.276256   3.287339   1.081729   2.472350   7.273789
    32  H    6.818679   7.395452   6.444607   4.496571   1.092709
    33  H    7.515694   8.453290   7.815503   6.024750   1.092212
    34  H    7.066696   8.217682   8.090892   6.802707   2.700077
    35  C    6.157487   7.059245   7.164860   6.381586   3.908821
    36  C    2.419421   2.434358   4.764060   6.116814   8.749397
    37  H    3.889538   2.160001   3.936660   5.838471   9.456943
    38  H    6.604399   7.720362   8.059494   7.372010   4.688245
    39  H    6.975749   7.592145   7.448810   6.636506   4.207377
    40  H    5.324435   6.103843   6.357893   5.842509   4.326477
    41  H    3.395483   3.414341   5.718460   7.173763   9.758398
    42  H    4.419199   4.724578   4.024690   2.549726   4.572454
    43  H    4.179150   5.996581   6.425957   5.324041   3.416562
    44  H    2.150925   3.892508   6.057832   6.819535   8.266492
                   21         22         23         24         25
    21  H    0.000000
    22  C    2.213351   0.000000
    23  H    4.229123   3.968227   0.000000
    24  H    4.197533   3.318925   1.753821   0.000000
    25  H    4.263164   2.237522   4.287646   3.659941   0.000000
    26  H    4.206900   2.223423   3.662005   2.405815   1.760529
    27  C    8.048892   7.089379   7.067448   7.716614   5.540338
    28  H    6.544331   5.483239   5.012823   5.629743   3.963426
    29  C    8.412494   8.039962   8.035434   8.990924   7.030303
    30  N    7.339011   7.587074   7.264543   8.488774   7.216715
    31  H    6.902533   7.733340   7.135505   8.524621   7.925483
    32  H    2.524526   3.467755   2.326727   2.917859   4.898504
    33  H    2.520890   2.780098   2.900922   2.333115   4.430031
    34  H    2.524012   1.093693   4.355977   3.349802   2.925167
    35  C    2.817528   1.544403   5.373955   4.829331   2.619892
    36  C    8.744352   8.015094   8.105375   8.874022   6.655698
    37  H    9.168129   8.928573   9.001130   9.998839   8.013106
    38  H    3.799392   2.191833   6.037605   5.245721   2.658541
    39  H    2.593096   2.192866   5.965818   5.477576   3.698996
    40  H    3.242788   2.206073   5.519498   5.252556   2.605966
    41  H    9.710627   8.894030   9.117355   9.816633   7.426594
    42  H    5.701744   5.916385   3.204232   4.876091   5.848824
    43  H    4.766125   3.439003   2.437586   2.438611   2.430834
    44  H    8.587020   7.379749   7.440972   7.906306   5.582152
                   26         27         28         29         30
    26  H    0.000000
    27  C    6.993168   0.000000
    28  H    5.151097   2.127026   0.000000
    29  C    8.514146   2.415025   3.884543   0.000000
    30  N    8.471840   4.169873   4.621348   2.375588   0.000000
    31  H    8.910836   6.030516   5.962026   4.439691   2.064493
    32  H    4.346474   8.173839   6.339382   8.670774   7.451271
    33  H    3.415136   8.792439   6.883133   9.610198   8.684702
    34  H    2.303465   8.111187   6.450697   9.129214   8.657537
    35  C    3.303842   7.008888   5.784472   7.811255   7.513743
    36  C    8.179995   1.389897   3.380358   1.391946   3.653889
    37  H    9.523789   3.396605   4.966024   1.081542   2.588602
    38  H    3.313028   7.320136   6.167544   8.334419   8.293943
    39  H    4.198219   7.834040   6.693654   8.389853   7.882465
    40  H    3.778310   6.105118   5.087657   6.794418   6.586991
    41  H    8.992527   2.142820   4.262408   2.146428   4.520120
    42  H    6.106209   5.736604   4.219992   5.988033   4.852083
    43  H    2.446315   5.334664   3.245270   6.843434   6.783111
    44  H    7.007449   1.081865   2.446449   3.388135   5.251300
                   31         32         33         34         35
    31  H    0.000000
    32  H    6.845186   0.000000
    33  H    8.305033   1.733036   0.000000
    34  H    8.714562   3.706642   2.522167   0.000000
    35  C    7.807918   4.741956   4.195152   2.112716   0.000000
    36  C    5.688342   9.001624   9.750945   9.074456   7.783261
    37  H    4.559369   9.510101  10.506344  10.021082   8.609728
    38  H    8.752814   5.617194   4.837372   2.430303   1.091432
    39  H    7.964909   4.911081   4.380647   2.478960   1.091555
    40  H    7.039549   5.051752   4.837225   3.050537   1.090517
    41  H    6.582550  10.048011  10.740492   9.937646   8.569445
    42  H    4.643486   4.190495   5.571874   6.703941   6.844673
    43  H    7.329772   4.074723   4.111689   4.075729   4.499923
    44  H    7.102512   8.713434   9.167367   8.341377   7.297303
                   36         37         38         39         40
    36  C    0.000000
    37  H    2.153051   0.000000
    38  H    8.148437   9.145025   0.000000
    39  H    8.494101   9.108999   1.751608   0.000000
    40  H    6.790375   7.565649   1.754872   1.758397   0.000000
    41  H    1.082034   2.479363   8.846411   9.284388   7.563838
    42  H    6.403129   6.808133   7.680377   7.384760   6.483630
    43  H    6.557896   7.896320   4.881212   5.425827   4.433207
    44  H    2.137275   4.280800   7.461335   8.198691   6.453099
                   41         42         43         44
    41  H    0.000000
    42  H    7.454486   0.000000
    43  H    7.457373   4.008498   0.000000
    44  H    2.452844   6.428127   5.473010   0.000000
 Stoichiometry    C18H23N2O(1+)
 Framework group  C1[X(C18H23N2O)]
 Deg. of freedom   126
 Full point group                 C1      NOp   1
 Largest Abelian subgroup         C1      NOp   1
 Largest concise Abelian subgroup C1      NOp   1
                         Standard orientation:                         
 ---------------------------------------------------------------------
 Center     Atomic      Atomic             Coordinates (Angstroms)
 Number     Number       Type             X           Y           Z
 ---------------------------------------------------------------------
      1          8           0       -0.536244   -2.036203   -1.474521
      2          6           0       -0.004141   -0.787309   -1.074839
      3          6           0       -1.048063    0.060574   -0.276514
      4          1           0        0.228485   -0.279524   -2.011813
      5          6           0        1.296858   -0.948300   -0.279031
      6          1           0       -0.534057    0.979947    0.017421
      7          6           0       -1.658383   -0.588775    1.006201
      8          7           0       -2.219053    0.565193   -1.187222
      9          6           0        2.297602    0.083008   -0.294527
     10          6           0        1.527693   -2.090240    0.500787
     11          6           0       -3.198634   -0.403689    1.086015
     12          1           0       -1.162729   -0.201912    1.897925
     13          1           0       -1.424548   -1.654954    1.023152
     14          6           0       -3.258507   -0.557632   -1.488821
     15          6           0       -2.974933    1.690733   -0.415642
     16          6           0        2.185773    1.304912   -1.021990
     17          6           0        3.484581   -0.133166    0.479529
     18          6           0        2.713579   -2.205036    1.217143
     19          1           0        0.798295   -2.887059    0.557458
     20          6           0       -3.807231   -1.119841   -0.148616
     21          1           0       -3.601592   -0.813036    2.017513
     22          6           0       -3.519633    1.117740    0.938480
     23          1           0       -2.783419   -1.326315   -2.099843
     24          1           0       -4.051282   -0.114538   -2.096994
     25          1           0       -2.279525    2.524231   -0.282347
     26          1           0       -3.780295    2.042511   -1.066629
     27          6           0        3.209304    2.250304   -0.984539
     28          1           0        1.314526    1.520248   -1.617846
     29          6           0        4.503618    0.848389    0.495911
     30          7           0        3.679819   -1.260174    1.216143
     31          1           0        2.915026   -3.080136    1.820267
     32          1           0       -3.595392   -2.190624   -0.098012
     33          1           0       -4.896878   -1.046788   -0.132483
     34          1           0       -4.607823    1.226069    0.921981
     35          6           0       -3.050186    1.946630    2.154104
     36          6           0        4.357207    2.024454   -0.234123
     37          1           0        5.396701    0.672347    1.079989
     38          1           0       -3.394817    2.980080    2.087499
     39          1           0       -3.445332    1.543455    3.088343
     40          1           0       -1.963942    1.976528    2.245793
     41          1           0        5.142790    2.768396   -0.219760
     42          1           0        0.176932   -2.534388   -1.890119
     43          1           0       -1.844675    0.922884   -2.058733
     44          1           0        3.119119    3.170530   -1.546217
 ---------------------------------------------------------------------
 Rotational constants (GHZ):           0.5665791           0.1908339           0.1749094
 Standard basis: 6-31G(d) (6D, 7F)
 There are   361 symmetry adapted cartesian basis functions of A   symmetry.
 There are   361 symmetry adapted basis functions of A   symmetry.
   361 basis functions,   680 primitive gaussians,   361 cartesian basis functions
    76 alpha electrons       76 beta electrons
       nuclear repulsion energy      1714.7680663333 Hartrees.
 NAtoms=   44 NActive=   44 NUniq=   44 SFac= 1.00D+00 NAtFMM=   60 NAOKFM=F Big=F
 Integral buffers will be    131072 words long.
 Raffenetti 2 integral format.
 Two-electron integral symmetry is turned on.
 ------------------------------------------------------------------------------
 Polarizable Continuum Model (PCM)
 =================================
 Model                : PCM.
 Atomic radii         : UFF (Universal Force Field).
 Polarization charges : Total charges.
 Charge compensation  : None.
 Solution method      : On-the-fly selection.
 Cavity type          : Scaled VdW (van der Waals Surface) (Alpha=1.100).
 Cavity algorithm     : GePol (No added spheres)
                        Default sphere list used, NSphG=   44.
                        Lebedev-Laikov grids with approx.  5.0 points / Ang**2.
                        Smoothing algorithm: York/Karplus (Gamma=1.0000).
                        Polarization charges: spherical gaussians, with
                                              point-specific exponents (IZeta= 3).
                        Self-potential: point-specific (ISelfS= 7).
                        Self-field    : sphere-specific E.n sum rule (ISelfD= 2).
 1st derivatives      : Analytical E(r).r(x)/FMM algorithm (CHGder, D1EAlg=3).
                        Cavity 1st derivative terms included.
 Solvent              : Benzene, Eps=   2.270600 Eps(inf)=   2.253301
 ------------------------------------------------------------------------------
 One-electron integrals computed using PRISM.
 NBasis=   361 RedAO= T EigKep=  3.72D-04  NBF=   361
 NBsUse=   361 1.00D-06 EigRej= -1.00D+00 NBFU=   361
 ExpMin= 1.61D-01 ExpMax= 5.48D+03 ExpMxC= 8.25D+02 IAcc=3 IRadAn=         5 AccDes= 0.00D+00
 Harris functional with IExCor= 1009 and IRadAn=       5 diagonalized for initial guess.
 HarFok:  IExCor= 1009 AccDes= 0.00D+00 IRadAn=         5 IDoV= 1 UseB2=F ITyADJ=14
 ICtDFT=  3500011 ScaDFX=  1.000000  1.000000  1.000000  1.000000
 FoFCou: FMM=F IPFlag=           0 FMFlag=      100000 FMFlg1=           0
         NFxFlg=           0 DoJE=T BraDBF=F KetDBF=T FulRan=T
         wScrn=  0.000000 ICntrl=       500 IOpCl=  0 I1Cent=   200000004 NGrid=           0
         NMat0=    1 NMatS0=      1 NMatT0=    0 NMatD0=    1 NMtDS0=    0 NMtDT0=    0
 Petite list used in FoFCou.
 Requested convergence on RMS density matrix=1.00D-08 within 128 cycles.
 Requested convergence on MAX density matrix=1.00D-06.
 Requested convergence on             energy=1.00D-06.
 No special actions if energy rises.
 Inv3:  Mode=1 IEnd=    23101875.
 Iteration    1 A*A^-1 deviation from unit magnitude is 4.33D-15 for   1278.
 Iteration    1 A*A^-1 deviation from orthogonality  is 1.96D-15 for   2086    379.
 Iteration    1 A^-1*A deviation from unit magnitude is 4.33D-15 for   1278.
 Iteration    1 A^-1*A deviation from orthogonality  is 1.96D-15 for   2134    305.
 Error on total polarization charges =  0.02470
 SCF Done:  E(RM062X) =  -883.922759870     A.U. after   13 cycles
            NFock= 13  Conv=0.89D-08     -V/T= 2.0095

 **********************************************************************

            Population analysis using the SCF Density.

 **********************************************************************

 Orbital symmetries:
       Occupied  (A) (A) (A) (A) (A) (A) (A) (A) (A) (A) (A) (A)
                 (A) (A) (A) (A) (A) (A) (A) (A) (A) (A) (A) (A)
                 (A) (A) (A) (A) (A) (A) (A) (A) (A) (A) (A) (A)
                 (A) (A) (A) (A) (A) (A) (A) (A) (A) (A) (A) (A)
                 (A) (A) (A) (A) (A) (A) (A) (A) (A) (A) (A) (A)
                 (A) (A) (A) (A) (A) (A) (A) (A) (A) (A) (A) (A)
                 (A) (A) (A) (A)
       Virtual   (A) (A) (A) (A) (A) (A) (A) (A) (A) (A) (A) (A)
                 (A) (A) (A) (A) (A) (A) (A) (A) (A) (A) (A) (A)
                 (A) (A) (A) (A) (A) (A) (A) (A) (A) (A) (A) (A)
                 (A) (A) (A) (A) (A) (A) (A) (A) (A) (A) (A) (A)
                 (A) (A) (A) (A) (A) (A) (A) (A) (A) (A) (A) (A)
                 (A) (A) (A) (A) (A) (A) (A) (A) (A) (A) (A) (A)
                 (A) (A) (A) (A) (A) (A) (A) (A) (A) (A) (A) (A)
                 (A) (A) (A) (A) (A) (A) (A) (A) (A) (A) (A) (A)
                 (A) (A) (A) (A) (A) (A) (A) (A) (A) (A) (A) (A)
                 (A) (A) (A) (A) (A) (A) (A) (A) (A) (A) (A) (A)
                 (A) (A) (A) (A) (A) (A) (A) (A) (A) (A) (A) (A)
                 (A) (A) (A) (A) (A) (A) (A) (A) (A) (A) (A) (A)
                 (A) (A) (A) (A) (A) (A) (A) (A) (A) (A) (A) (A)
                 (A) (A) (A) (A) (A) (A) (A) (A) (A) (A) (A) (A)
                 (A) (A) (A) (A) (A) (A) (A) (A) (A) (A) (A) (A)
                 (A) (A) (A) (A) (A) (A) (A) (A) (A) (A) (A) (A)
                 (A) (A) (A) (A) (A) (A) (A) (A) (A) (A) (A) (A)
                 (A) (A) (A) (A) (A) (A) (A) (A) (A) (A) (A) (A)
                 (A) (A) (A) (A) (A) (A) (A) (A) (A) (A) (A) (A)
                 (A) (A) (A) (A) (A) (A) (A) (A) (A) (A) (A) (A)
                 (A) (A) (A) (A) (A) (A) (A) (A) (A) (A) (A) (A)
                 (A) (A) (A) (A) (A) (A) (A) (A) (A) (A) (A) (A)
                 (A) (A) (A) (A) (A) (A) (A) (A) (A) (A) (A) (A)
                 (A) (A) (A) (A) (A) (A) (A) (A) (A)
 The electronic state is 1-A.
 Alpha  occ. eigenvalues --  -19.71372 -14.95844 -14.80475 -10.69686 -10.69225
 Alpha  occ. eigenvalues --  -10.68315 -10.67609 -10.63695 -10.63321 -10.63221
 Alpha  occ. eigenvalues --  -10.63175 -10.63120 -10.62250 -10.62093 -10.61892
 Alpha  occ. eigenvalues --  -10.61163 -10.60930 -10.60224 -10.59735 -10.59579
 Alpha  occ. eigenvalues --  -10.59293  -1.22419  -1.17744  -1.09122  -0.99758
 Alpha  occ. eigenvalues --   -0.99515  -0.97871  -0.94686  -0.94275  -0.89716
 Alpha  occ. eigenvalues --   -0.87868  -0.86576  -0.84927  -0.81699  -0.79329
 Alpha  occ. eigenvalues --   -0.76980  -0.76106  -0.75589  -0.72535  -0.70978
 Alpha  occ. eigenvalues --   -0.68057  -0.66757  -0.65349  -0.64516  -0.63888
 Alpha  occ. eigenvalues --   -0.63485  -0.61480  -0.58793  -0.57442  -0.57161
 Alpha  occ. eigenvalues --   -0.56610  -0.56492  -0.55718  -0.54969  -0.54868
 Alpha  occ. eigenvalues --   -0.53751  -0.53428  -0.52997  -0.52414  -0.52202
 Alpha  occ. eigenvalues --   -0.51457  -0.50172  -0.48872  -0.47867  -0.46706
 Alpha  occ. eigenvalues --   -0.46358  -0.45485  -0.45027  -0.44840  -0.43585
 Alpha  occ. eigenvalues --   -0.43244  -0.42392  -0.39960  -0.36471  -0.34929
 Alpha  occ. eigenvalues --   -0.32085
 Alpha virt. eigenvalues --   -0.07956  -0.02791   0.00009   0.00551   0.05299
 Alpha virt. eigenvalues --    0.05561   0.06140   0.06953   0.07019   0.08780
 Alpha virt. eigenvalues --    0.09113   0.09727   0.10311   0.10706   0.11110
 Alpha virt. eigenvalues --    0.12014   0.12886   0.13537   0.14215   0.14479
 Alpha virt. eigenvalues --    0.15052   0.15960   0.16429   0.16820   0.17210
 Alpha virt. eigenvalues --    0.17630   0.17989   0.19219   0.19424   0.19983
 Alpha virt. eigenvalues --    0.20265   0.20660   0.21144   0.21940   0.22051
 Alpha virt. eigenvalues --    0.23270   0.24425   0.25669   0.26423   0.27395
 Alpha virt. eigenvalues --    0.28464   0.28734   0.29104   0.30205   0.31966
 Alpha virt. eigenvalues --    0.33392   0.34360   0.37487   0.43143   0.44741
 Alpha virt. eigenvalues --    0.45890   0.46645   0.47155   0.48241   0.49084
 Alpha virt. eigenvalues --    0.50431   0.51284   0.52076   0.52528   0.53854
 Alpha virt. eigenvalues --    0.54204   0.54717   0.55741   0.56903   0.57442
 Alpha virt. eigenvalues --    0.58311   0.58977   0.59385   0.60193   0.60351
 Alpha virt. eigenvalues --    0.60721   0.61231   0.61789   0.62189   0.62355
 Alpha virt. eigenvalues --    0.62579   0.64092   0.64527   0.65094   0.65986
 Alpha virt. eigenvalues --    0.66390   0.66974   0.68547   0.68732   0.70195
 Alpha virt. eigenvalues --    0.70551   0.72812   0.74488   0.74992   0.77550
 Alpha virt. eigenvalues --    0.78268   0.78835   0.79895   0.81328   0.81603
 Alpha virt. eigenvalues --    0.81960   0.82829   0.84236   0.85189   0.85193
 Alpha virt. eigenvalues --    0.85451   0.86092   0.86735   0.86959   0.87504
 Alpha virt. eigenvalues --    0.87980   0.88649   0.89581   0.89994   0.90883
 Alpha virt. eigenvalues --    0.91149   0.91507   0.91976   0.92645   0.93019
 Alpha virt. eigenvalues --    0.93312   0.94601   0.94949   0.95739   0.96389
 Alpha virt. eigenvalues --    0.96662   0.98890   0.99299   1.00304   1.01284
 Alpha virt. eigenvalues --    1.02456   1.03418   1.04438   1.05211   1.06124
 Alpha virt. eigenvalues --    1.08025   1.08582   1.11145   1.12244   1.13588
 Alpha virt. eigenvalues --    1.14504   1.18175   1.20232   1.20710   1.23465
 Alpha virt. eigenvalues --    1.24032   1.25860   1.26914   1.27265   1.28301
 Alpha virt. eigenvalues --    1.32469   1.34642   1.37059   1.38214   1.39716
 Alpha virt. eigenvalues --    1.41680   1.43772   1.44055   1.44690   1.46567
 Alpha virt. eigenvalues --    1.47521   1.48523   1.49077   1.50218   1.51845
 Alpha virt. eigenvalues --    1.52469   1.53266   1.54864   1.56698   1.58684
 Alpha virt. eigenvalues --    1.62224   1.62790   1.64567   1.65935   1.67600
 Alpha virt. eigenvalues --    1.67924   1.69973   1.71225   1.72426   1.73383
 Alpha virt. eigenvalues --    1.75838   1.76404   1.77489   1.78976   1.80648
 Alpha virt. eigenvalues --    1.81155   1.83216   1.84871   1.86007   1.87310
 Alpha virt. eigenvalues --    1.87858   1.88583   1.88904   1.90485   1.90730
 Alpha virt. eigenvalues --    1.93481   1.94307   1.95074   1.96742   1.97176
 Alpha virt. eigenvalues --    1.98321   1.99241   2.00163   2.00825   2.02206
 Alpha virt. eigenvalues --    2.02772   2.03767   2.05535   2.09535   2.10527
 Alpha virt. eigenvalues --    2.11270   2.11905   2.12391   2.12850   2.15647
 Alpha virt. eigenvalues --    2.17428   2.18500   2.19218   2.19738   2.20932
 Alpha virt. eigenvalues --    2.22758   2.24103   2.24388   2.26542   2.28514
 Alpha virt. eigenvalues --    2.29124   2.29891   2.30914   2.32239   2.33224
 Alpha virt. eigenvalues --    2.34849   2.35669   2.37813   2.39891   2.40001
 Alpha virt. eigenvalues --    2.40930   2.43088   2.43719   2.44618   2.46748
 Alpha virt. eigenvalues --    2.49962   2.52109   2.53371   2.55285   2.57431
 Alpha virt. eigenvalues --    2.59426   2.59718   2.60267   2.61732   2.62257
 Alpha virt. eigenvalues --    2.63981   2.65967   2.66665   2.67771   2.68580
 Alpha virt. eigenvalues --    2.71447   2.72226   2.74565   2.75202   2.77237
 Alpha virt. eigenvalues --    2.79832   2.82709   2.86932   2.90460   2.92125
 Alpha virt. eigenvalues --    2.98266   3.07439   3.34948   3.40234   3.86886
 Alpha virt. eigenvalues --    3.95403   4.04997   4.07623   4.09553   4.11207
 Alpha virt. eigenvalues --    4.15228   4.17912   4.22263   4.23817   4.26625
 Alpha virt. eigenvalues --    4.32543   4.34245   4.37501   4.40331   4.48677
 Alpha virt. eigenvalues --    4.52666   4.57260   4.63296   4.75609   4.76976
          Condensed to atoms (all electrons):
               1          2          3          4          5          6
     1  O    8.301328   0.231233  -0.054589  -0.044655  -0.048903   0.002159
     2  C    0.231233   4.895172   0.324568   0.389561   0.337178  -0.036572
     3  C   -0.054589   0.324568   5.168487  -0.053802  -0.034260   0.383214
     4  H   -0.044655   0.389561  -0.053802   0.572350  -0.050633  -0.001087
     5  C   -0.048903   0.337178  -0.034260  -0.050633   5.070531  -0.002957
     6  H    0.002159  -0.036572   0.383214  -0.001087  -0.002957   0.491568
     7  C   -0.000250  -0.024306   0.328102   0.004483  -0.006810  -0.028723
     8  N    0.001819  -0.035640   0.174367  -0.004548   0.002703  -0.040415
     9  C    0.003149  -0.047837  -0.002805  -0.005463   0.433125   0.001288
    10  C   -0.001970  -0.067096  -0.008161   0.005516   0.520766   0.000108
    11  C   -0.000567   0.001444  -0.033829  -0.000130   0.000323   0.000068
    12  H    0.000143   0.000760  -0.029032  -0.000061   0.001260  -0.007105
    13  H    0.004591  -0.003563  -0.046528   0.000446  -0.003336   0.003470
    14  C   -0.005515  -0.001650  -0.031301   0.000128  -0.000054   0.003137
    15  C   -0.000045   0.002755  -0.034643  -0.000079  -0.000070  -0.001249
    16  C    0.000036  -0.011875  -0.001944   0.003718  -0.096720   0.005252
    17  C   -0.000046   0.005417  -0.000073  -0.000146  -0.029714  -0.000063
    18  C    0.000546   0.004853  -0.000133  -0.000022  -0.025854   0.000001
    19  H    0.008744  -0.008412  -0.000414   0.000308  -0.038521   0.000016
    20  C    0.000154  -0.000380  -0.008923  -0.000009  -0.000007   0.000020
    21  H   -0.000006  -0.000041   0.003625   0.000001  -0.000001  -0.000100
    22  C    0.000001   0.000046  -0.010165   0.000000  -0.000006  -0.000418
    23  H    0.011227   0.001322  -0.003785  -0.000176   0.000177  -0.000044
    24  H    0.000210  -0.000070   0.002810  -0.000005   0.000003  -0.000103
    25  H    0.000000   0.000016  -0.002857  -0.000001  -0.000010   0.003934
    26  H    0.000001  -0.000116   0.003192  -0.000000   0.000001   0.000131
    27  C   -0.000001   0.000262   0.000012   0.000173   0.007153   0.000116
    28  H   -0.000029   0.005156  -0.001658   0.005013  -0.012738   0.001454
    29  C    0.000000  -0.000113   0.000005  -0.000017   0.008484  -0.000011
    30  N   -0.000003  -0.000243   0.000006   0.000004  -0.055469  -0.000000
    31  H    0.000001  -0.000131  -0.000001   0.000002   0.002250   0.000000
    32  H    0.000794  -0.000040  -0.000013   0.000009  -0.000006   0.000006
    33  H    0.000004   0.000013   0.000026   0.000000  -0.000000   0.000006
    34  H    0.000000   0.000003   0.000100  -0.000000   0.000000   0.000031
    35  C   -0.000000   0.000004  -0.000840   0.000000  -0.000001   0.000611
    36  C    0.000000   0.000004  -0.000001   0.000004  -0.000291  -0.000010
    37  H   -0.000000   0.000001  -0.000000   0.000000  -0.000076   0.000000
    38  H    0.000000  -0.000000   0.000003  -0.000000   0.000000  -0.000026
    39  H    0.000000  -0.000000   0.000062   0.000000   0.000000  -0.000017
    40  H   -0.000000   0.000018  -0.000490   0.000000  -0.000006   0.001177
    41  H   -0.000000  -0.000000   0.000000  -0.000000   0.000009  -0.000000
    42  H    0.251132  -0.026179   0.007304  -0.004392   0.002212  -0.000141
    43  H   -0.000356   0.000117  -0.022370   0.004784  -0.000144  -0.001051
    44  H   -0.000000   0.000000  -0.000001  -0.000001  -0.000146   0.000001
               7          8          9         10         11         12
     1  O   -0.000250   0.001819   0.003149  -0.001970  -0.000567   0.000143
     2  C   -0.024306  -0.035640  -0.047837  -0.067096   0.001444   0.000760
     3  C    0.328102   0.174367  -0.002805  -0.008161  -0.033829  -0.029032
     4  H    0.004483  -0.004548  -0.005463   0.005516  -0.000130  -0.000061
     5  C   -0.006810   0.002703   0.433125   0.520766   0.000323   0.001260
     6  H   -0.028723  -0.040415   0.001288   0.000108   0.000068  -0.007105
     7  C    5.151716  -0.040333   0.000028   0.002868   0.340945   0.382237
     8  N   -0.040333   7.029257   0.000124  -0.000054  -0.026494   0.002810
     9  C    0.000028   0.000124   4.886070  -0.018087   0.000002   0.000185
    10  C    0.002868  -0.000054  -0.018087   5.104522   0.000067  -0.000030
    11  C    0.340945  -0.026494   0.000002   0.000067   5.042153  -0.027371
    12  H    0.382237   0.002810   0.000185  -0.000030  -0.027371   0.490140
    13  H    0.389597   0.001176  -0.000072   0.003119  -0.030372  -0.028769
    14  C   -0.007643   0.195259  -0.000006   0.000013  -0.039704  -0.000010
    15  C   -0.011749   0.196350  -0.000006  -0.000000  -0.043685   0.000009
    16  C    0.000048  -0.000117   0.436749   0.010115  -0.000002   0.000001
    17  C   -0.000015   0.000002   0.442440  -0.043729  -0.000000  -0.000006
    18  C    0.000012   0.000000  -0.035494   0.441298   0.000000  -0.000003
    19  H   -0.000230  -0.000010   0.004495   0.358190  -0.000001   0.000032
    20  C   -0.063043  -0.034104   0.000001  -0.000008   0.361106   0.004707
    21  H   -0.032158  -0.000143   0.000000   0.000001   0.394061  -0.002308
    22  C   -0.060119  -0.029590  -0.000000  -0.000000   0.364518  -0.005438
    23  H    0.000486  -0.025398  -0.000006   0.000002   0.001559   0.000006
    24  H   -0.000117  -0.031431  -0.000000  -0.000000   0.001703   0.000004
    25  H    0.000303  -0.030469  -0.000002   0.000000   0.001804  -0.000079
    26  H   -0.000107  -0.030928  -0.000000   0.000000   0.002043   0.000001
    27  C    0.000000  -0.000002  -0.009145  -0.000247  -0.000000  -0.000000
    28  H    0.000058   0.000200  -0.042009  -0.000038   0.000000   0.000001
    29  C    0.000000  -0.000000  -0.060710   0.000475   0.000000  -0.000000
    30  N   -0.000005  -0.000000  -0.054926  -0.030049  -0.000000  -0.000000
    31  H    0.000000  -0.000000   0.000925  -0.055405   0.000000   0.000001
    32  H   -0.004227   0.001903  -0.000000  -0.000000  -0.030529   0.000005
    33  H    0.005205   0.002173  -0.000000   0.000000  -0.031590  -0.000114
    34  H    0.005666   0.002333   0.000000  -0.000000  -0.039510  -0.000014
    35  C   -0.002642   0.001732  -0.000000  -0.000000  -0.049266   0.002547
    36  C    0.000000   0.000000  -0.032010   0.000030   0.000000   0.000000
    37  H   -0.000000   0.000000   0.005779   0.000009  -0.000000  -0.000000
    38  H   -0.000011   0.000025  -0.000000  -0.000000   0.004043  -0.000045
    39  H   -0.000555  -0.000076   0.000000   0.000000  -0.002861   0.000203
    40  H    0.003418   0.000092   0.000000  -0.000001  -0.006239   0.001405
    41  H   -0.000000  -0.000000   0.000578   0.000000   0.000000   0.000000
    42  H   -0.000160  -0.000136   0.000680   0.001772   0.000010  -0.000002
    43  H    0.002753   0.307847   0.000014   0.000004   0.000540  -0.000067
    44  H   -0.000000  -0.000000   0.002667   0.000001  -0.000000  -0.000000
              13         14         15         16         17         18
     1  O    0.004591  -0.005515  -0.000045   0.000036  -0.000046   0.000546
     2  C   -0.003563  -0.001650   0.002755  -0.011875   0.005417   0.004853
     3  C   -0.046528  -0.031301  -0.034643  -0.001944  -0.000073  -0.000133
     4  H    0.000446   0.000128  -0.000079   0.003718  -0.000146  -0.000022
     5  C   -0.003336  -0.000054  -0.000070  -0.096720  -0.029714  -0.025854
     6  H    0.003470   0.003137  -0.001249   0.005252  -0.000063   0.000001
     7  C    0.389597  -0.007643  -0.011749   0.000048  -0.000015   0.000012
     8  N    0.001176   0.195259   0.196350  -0.000117   0.000002   0.000000
     9  C   -0.000072  -0.000006  -0.000006   0.436749   0.442440  -0.035494
    10  C    0.003119   0.000013  -0.000000   0.010115  -0.043729   0.441298
    11  C   -0.030372  -0.039704  -0.043685  -0.000002  -0.000000   0.000000
    12  H   -0.028769  -0.000010   0.000009   0.000001  -0.000006  -0.000003
    13  H    0.499365   0.000263   0.000024  -0.000002  -0.000001   0.000127
    14  C    0.000263   5.125260  -0.039797   0.000002  -0.000000   0.000000
    15  C    0.000024  -0.039797   5.150269  -0.000006  -0.000000  -0.000000
    16  C   -0.000002   0.000002  -0.000006   5.102335  -0.027886  -0.000439
    17  C   -0.000001  -0.000000  -0.000000  -0.027886   4.691333  -0.056273
    18  C    0.000127   0.000000  -0.000000  -0.000439  -0.056273   4.807513
    19  H    0.001747   0.000004   0.000000  -0.000044   0.000181  -0.026939
    20  C   -0.004882   0.335863  -0.006931  -0.000000  -0.000000  -0.000000
    21  H   -0.002174   0.003774   0.004045  -0.000000   0.000000  -0.000000
    22  C    0.005022  -0.010952   0.327628   0.000001   0.000000  -0.000000
    23  H   -0.000150   0.379723   0.002721   0.000001   0.000000  -0.000000
    24  H    0.000008   0.384113  -0.003187   0.000000   0.000000  -0.000000
    25  H    0.000009   0.003067   0.384130  -0.000004   0.000000   0.000000
    26  H    0.000009  -0.001613   0.384025  -0.000000   0.000000   0.000000
    27  C    0.000000   0.000000   0.000000   0.542813  -0.038097   0.000045
    28  H    0.000001  -0.000002  -0.000020   0.361836   0.003372   0.000005
    29  C   -0.000000   0.000000   0.000000  -0.047679   0.498498   0.004704
    30  N    0.000000   0.000000   0.000000   0.009597   0.381342   0.473687
    31  H   -0.000004  -0.000000   0.000000   0.000026   0.003686   0.388408
    32  H    0.003994  -0.035404  -0.000045   0.000000   0.000000   0.000000
    33  H    0.000042  -0.035086  -0.000097   0.000000  -0.000000   0.000000
    34  H   -0.000114  -0.000382  -0.041991  -0.000000   0.000000   0.000000
    35  C    0.000052   0.000154  -0.045840  -0.000000   0.000000   0.000000
    36  C    0.000000  -0.000000  -0.000000  -0.036954  -0.022735  -0.000191
    37  H   -0.000000   0.000000  -0.000000  -0.000017  -0.030516   0.000186
    38  H    0.000000  -0.000001  -0.003075   0.000000  -0.000000  -0.000000
    39  H   -0.000029   0.000004   0.004314  -0.000000  -0.000000   0.000000
    40  H   -0.000001   0.000002  -0.004410  -0.000002   0.000000   0.000000
    41  H    0.000000  -0.000000   0.000000   0.004228   0.002886   0.000002
    42  H   -0.000312   0.000119   0.000004  -0.000025  -0.000010  -0.000180
    43  H   -0.000071  -0.019986  -0.018926  -0.000018   0.000000  -0.000000
    44  H   -0.000000   0.000000   0.000000  -0.033394   0.000761  -0.000000
              19         20         21         22         23         24
     1  O    0.008744   0.000154  -0.000006   0.000001   0.011227   0.000210
     2  C   -0.008412  -0.000380  -0.000041   0.000046   0.001322  -0.000070
     3  C   -0.000414  -0.008923   0.003625  -0.010165  -0.003785   0.002810
     4  H    0.000308  -0.000009   0.000001   0.000000  -0.000176  -0.000005
     5  C   -0.038521  -0.000007  -0.000001  -0.000006   0.000177   0.000003
     6  H    0.000016   0.000020  -0.000100  -0.000418  -0.000044  -0.000103
     7  C   -0.000230  -0.063043  -0.032158  -0.060119   0.000486  -0.000117
     8  N   -0.000010  -0.034104  -0.000143  -0.029590  -0.025398  -0.031431
     9  C    0.004495   0.000001   0.000000  -0.000000  -0.000006  -0.000000
    10  C    0.358190  -0.000008   0.000001  -0.000000   0.000002  -0.000000
    11  C   -0.000001   0.361106   0.394061   0.364518   0.001559   0.001703
    12  H    0.000032   0.004707  -0.002308  -0.005438   0.000006   0.000004
    13  H    0.001747  -0.004882  -0.002174   0.005022  -0.000150   0.000008
    14  C    0.000004   0.335863   0.003774  -0.010952   0.379723   0.384113
    15  C    0.000000  -0.006931   0.004045   0.327628   0.002721  -0.003187
    16  C   -0.000044  -0.000000  -0.000000   0.000001   0.000001   0.000000
    17  C    0.000181  -0.000000   0.000000   0.000000   0.000000   0.000000
    18  C   -0.026939  -0.000000  -0.000000  -0.000000  -0.000000  -0.000000
    19  H    0.498544  -0.000002  -0.000000  -0.000000  -0.000002  -0.000000
    20  C   -0.000002   5.116860  -0.029439  -0.059744  -0.025338  -0.031319
    21  H   -0.000000  -0.029439   0.489104  -0.030602  -0.000058  -0.000076
    22  C   -0.000000  -0.059744  -0.030602   5.053173  -0.000066   0.000189
    23  H   -0.000002  -0.025338  -0.000058  -0.000066   0.429222  -0.023427
    24  H   -0.000000  -0.031319  -0.000076   0.000189  -0.023427   0.473826
    25  H   -0.000000  -0.000159  -0.000065  -0.032743  -0.000107   0.000075
    26  H   -0.000000  -0.000237  -0.000084  -0.026785   0.000053   0.003368
    27  C    0.000001  -0.000000  -0.000000   0.000000   0.000000  -0.000000
    28  H   -0.000005   0.000000  -0.000000   0.000000  -0.000000   0.000000
    29  C    0.000009  -0.000000  -0.000000  -0.000000   0.000000  -0.000000
    30  N    0.004019   0.000000  -0.000000   0.000000   0.000000   0.000000
    31  H   -0.001070   0.000000  -0.000000  -0.000000  -0.000000  -0.000000
    32  H    0.000002   0.386510  -0.002344   0.005003  -0.006665   0.003032
    33  H    0.000000   0.388626  -0.002602  -0.003925   0.002480  -0.006811
    34  H   -0.000000  -0.003738  -0.002797   0.396236  -0.000001  -0.000070
    35  C   -0.000000   0.004878  -0.002760   0.360289   0.000002  -0.000000
    36  C   -0.000000   0.000000  -0.000000  -0.000000  -0.000000  -0.000000
    37  H   -0.000001  -0.000000  -0.000000   0.000000   0.000000   0.000000
    38  H    0.000000  -0.000141   0.000003  -0.028522  -0.000000  -0.000000
    39  H    0.000000   0.000075   0.003022  -0.030622  -0.000000  -0.000000
    40  H   -0.000000   0.000016  -0.000258  -0.035541  -0.000000  -0.000000
    41  H    0.000000   0.000000  -0.000000  -0.000000  -0.000000  -0.000000
    42  H    0.000002  -0.000003   0.000000   0.000000  -0.000040  -0.000006
    43  H    0.000000   0.002541   0.000017   0.002305  -0.001319  -0.001640
    44  H   -0.000000  -0.000000   0.000000   0.000000   0.000000   0.000000
              25         26         27         28         29         30
     1  O    0.000000   0.000001  -0.000001  -0.000029   0.000000  -0.000003
     2  C    0.000016  -0.000116   0.000262   0.005156  -0.000113  -0.000243
     3  C   -0.002857   0.003192   0.000012  -0.001658   0.000005   0.000006
     4  H   -0.000001  -0.000000   0.000173   0.005013  -0.000017   0.000004
     5  C   -0.000010   0.000001   0.007153  -0.012738   0.008484  -0.055469
     6  H    0.003934   0.000131   0.000116   0.001454  -0.000011  -0.000000
     7  C    0.000303  -0.000107   0.000000   0.000058   0.000000  -0.000005
     8  N   -0.030469  -0.030928  -0.000002   0.000200  -0.000000  -0.000000
     9  C   -0.000002  -0.000000  -0.009145  -0.042009  -0.060710  -0.054926
    10  C    0.000000   0.000000  -0.000247  -0.000038   0.000475  -0.030049
    11  C    0.001804   0.002043  -0.000000   0.000000   0.000000  -0.000000
    12  H   -0.000079   0.000001  -0.000000   0.000001  -0.000000  -0.000000
    13  H    0.000009   0.000009   0.000000   0.000001  -0.000000   0.000000
    14  C    0.003067  -0.001613   0.000000  -0.000002   0.000000   0.000000
    15  C    0.384130   0.384025   0.000000  -0.000020   0.000000   0.000000
    16  C   -0.000004  -0.000000   0.542813   0.361836  -0.047679   0.009597
    17  C    0.000000   0.000000  -0.038097   0.003372   0.498498   0.381342
    18  C    0.000000   0.000000   0.000045   0.000005   0.004704   0.473687
    19  H   -0.000000  -0.000000   0.000001  -0.000005   0.000009   0.004019
    20  C   -0.000159  -0.000237  -0.000000   0.000000  -0.000000   0.000000
    21  H   -0.000065  -0.000084  -0.000000  -0.000000  -0.000000  -0.000000
    22  C   -0.032743  -0.026785   0.000000   0.000000  -0.000000   0.000000
    23  H   -0.000107   0.000053   0.000000  -0.000000   0.000000   0.000000
    24  H    0.000075   0.003368  -0.000000   0.000000  -0.000000   0.000000
    25  H    0.465542  -0.024425  -0.000000   0.000024  -0.000000  -0.000000
    26  H   -0.024425   0.460675  -0.000000  -0.000000  -0.000000  -0.000000
    27  C   -0.000000  -0.000000   4.878261  -0.035585  -0.033059  -0.000437
[...]
 0.00009783,0.00002148,0.00002034,0.00004028,-0.00003075,-0.00001096,-0
 .00002001,-0.00000017,-0.00003319,-0.00091625,-0.00012927,-0.00012351,
 0.00000565,-0.00001992,0.00001202,-0.00000122,0.00000586,0.00000188,-0
 .00000867,-0.00000853,0.00000495,-0.00044062,-0.00013885,0.00016197,0.
 00008000,0.00005703,0.00007246,-0.00000069,-0.00000331,-0.00000645,0.0
 0000100,-0.00000052,-0.00000222,-0.00000289,0.00000205,0.00000446,0.00
 000025,-0.00000009,-0.00000139,0.00000785,0.00000581,-0.00000482,0.004
 97881,0.00149626,0.00115774,0.00902256,0.00158736,0.00151071,-0.000908
 44,-0.00021718,-0.00006008,0.00015961,0.00002761,0.00001305,-0.0000001
 5,-0.00000032,0.00000293,-0.00000191,0.00000169,-0.00000062,0.00000600
 ,0.00000557,0.00000185,0.00000252,-0.00000272,0.00000007,0.00000049,-0
 .00000043,-0.00000046,0.00000409,0.00000082,0.00000166,-0.00000168,-0.
 00000147,0.00000060,0.00294915,0.00464674,-0.00319606,0.00003079,0.000
 26515,-0.00015439,0.00517966,-0.00273342,0.00182507,0.00047715,-0.0000
 7895,0.00007243,-0.00004440,-0.00002184,0.00000276,-0.00000085,-0.0000
 0122,0.00000054,-0.00000081,0.00000067,-0.00000060,-0.00000194,-0.0000
 0355,-0.00000017,-0.00000747,-0.00000243,-0.00000077,-0.04314557,0.025
 59529,-0.01176649,-0.00509026,-0.00088893,-0.00063187,-0.00000270,0.00
 000339,0.00000306,-0.00000087,0.00000011,-0.00000074,0.00000733,0.0000
 0417,-0.00000292,0.03036000,-0.00000187,-0.00009715,0.00008520,-0.0000
 1579,0.00008538,-0.00010732,-0.00002071,0.00005411,0.00000877,0.000038
 53,0.00003911,0.00003179,-0.00013877,-0.00008251,0.00014446,-0.0000648
 6,-0.00000788,-0.00000605,-0.00000350,-0.00002411,-0.00001483,0.000037
 59,-0.00002913,0.00000139,-0.00008637,0.00043629,-0.00081792,0.0000295
 7,-0.00003756,-0.00008073,-0.00000553,0.00001168,0.00001279,0.00000009
 ,-0.00000139,-0.00000047,-0.00000092,0.00000085,0.00000597,-0.00000022
 ,0.00002096,-0.00002244,-0.00002643,-0.00000716,0.00000741,0.00155545,
 -0.00262695,-0.00375362,0.00137623,0.00143967,-0.00094944,-0.00018229,
 0.00015108,0.00000984,0.00002550,-0.00000687,0.00002047,-0.00000132,0.
 00000092,-0.00000460,0.00000778,-0.00000433,0.,-0.00000627,-0.00000613
 ,-0.00000398,-0.00000344,0.00000847,0.00000161,0.00000335,-0.00000673,
 0.00000120,-0.00000639,0.00000062,0.00000535,0.00000685,-0.00000252,-0
 .00000020,0.00188894,-0.01708892,0.01508158,0.00015315,-0.00108174,0.0
 0071524,0.00018536,0.00484526,-0.00169945,0.00006791,0.00001508,0.0000
 8969,-0.00000735,-0.00000075,-0.00000105,0.00000070,0.00000219,0.00000
 232,0.00000311,-0.00000300,-0.00000086,0.00000437,-0.00000098,-0.00000
 082,-0.00000397,0.00000475,0.00000380,0.02549766,-0.27596636,0.1263400
 2,-0.00092773,0.00043094,0.00009905,0.00000290,-0.00000169,-0.00000366
 ,0.00000299,-0.00000059,0.00000209,-0.00000240,-0.00000742,0.00000003,
 -0.02880894,0.28864066,0.00000247,0.00007348,0.00004779,-0.00002559,-0
 .00005665,-0.00008205,0.00004728,0.00002057,-0.00001364,0.00001245,0.0
 0003516,0.00004030,-0.00009879,-0.00007888,0.00036431,-0.00001521,-0.0
 0001146,-0.00000160,-0.00000891,-0.00000326,0.00000133,-0.00003120,0.0
 0000613,0.00001068,0.00008569,-0.00021693,-0.00101211,0.00006023,-0.00
 020347,-0.00023505,0.00000603,-0.00000336,0.00000071,0.00000514,0.0000
 0310,-0.00000067,0.00000590,-0.00000649,0.00000556,0.00000148,-0.00000
 290,0.00000209,0.00000516,0.00000825,-0.00000008,0.00103036,-0.0031044
 3,-0.00123952,0.00164333,-0.00212131,-0.00430512,-0.00008342,0.0002465
 4,-0.00043678,0.00001050,0.00002923,0.00000916,-0.00000177,-0.00000006
 ,0.00000214,-0.00000190,0.00000100,-0.00000029,0.00000085,0.00000304,-
 0.00000089,0.00000268,-0.00000493,-0.00000136,-0.00000119,0.00000060,0
 .00000073,-0.00000251,0.00000065,0.00000113,-0.00000295,-0.00000130,0.
 00000158,0.00165415,-0.01544493,0.01234584,0.00012627,-0.00090114,0.00
 043134,-0.00316432,0.02915706,-0.01066550,-0.00011403,0.00142933,-0.00
 074190,-0.00001487,0.00013176,-0.00007797,0.00000065,-0.00000132,-0.00
 000032,-0.00000075,0.00000155,0.00000077,-0.00000108,-0.00000024,0.000
 00191,-0.00000042,-0.00000146,0.00000185,-0.01163148,0.12607469,-0.133
 52096,-0.00053403,-0.00036802,0.00106008,-0.00000048,0.00000007,0.0000
 0131,-0.00000051,0.00000084,-0.00000161,0.00000104,0.00000214,-0.00000
 115,0.01143434,-0.13512794,0.13733876,-0.48867912,-0.00164890,0.108067
 09,-0.00849319,0.00248095,-0.00069033,0.00055952,-0.00103966,0.0010535
 0,0.00124544,0.00127722,-0.00118785,0.00136319,0.00121996,-0.00165948,
 -0.00007647,0.00020298,-0.00009907,0.00038783,-0.00024921,0.00013722,0
 .00020032,-0.00009132,0.00006739,-0.00003481,0.00043334,0.00056194,-0.
 00086866,-0.00014675,0.00053643,-0.00000116,0.00008136,0.00009076,-0.0
 0001986,-0.00001810,0.00001546,-0.00003400,0.00005758,0.00010393,0.000
 31733,0.00023351,-0.00014162,-0.00012828,-0.00005771,0.00005821,0.0000
 5101,0.00008386,-0.00007878,-0.00006859,0.00009629,-0.00015712,0.00000
 262,-0.00021704,-0.00039320,-0.00011539,-0.00070201,-0.00081077,0.0000
 2466,-0.00000624,-0.00002110,0.00004465,-0.00002803,-0.00000641,-0.000
 02015,-0.00001735,-0.00000486,-0.00069321,0.00032191,0.00016655,-0.000
 01215,-0.00005815,0.00000958,0.00001431,-0.00000190,0.00000434,0.00003
 769,0.00000678,-0.00001509,-0.00000170,0.00004030,0.00000281,0.0000059
 8,-0.00002013,0.00009772,-0.00003169,0.00003539,0.00002004,-0.00007314
 ,0.00040721,0.00003569,0.00001666,0.00006990,0.00007674,-0.00000812,0.
 00000202,0.00000248,0.00001692,-0.00000802,-0.00000630,0.00001485,-0.0
 0000229,-0.00000783,-0.00000691,-0.00000261,0.00000431,-0.00000655,0.0
 0003284,-0.00003487,-0.00000323,0.00003901,-0.00001210,0.00000750,0.00
 000348,-0.00001038,0.00000361,0.00000114,0.00000749,-0.00001025,-0.000
 01277,0.00000873,-0.00000135,0.00002071,-0.00001084,0.49516923,0.04260
 929,-0.03205197,0.00989053,-0.03771332,-0.00466654,0.00989800,-0.00125
 460,-0.00506698,0.00361589,0.00052648,0.00069300,0.00013561,-0.0008626
 9,0.00101146,0.00038218,-0.00142310,0.00028788,0.00036715,0.00040525,-
 0.00011081,0.00041722,-0.00002829,-0.00021521,0.00029504,0.00011119,-0
 .00013821,0.00082478,0.00045024,0.00058629,0.00045496,-0.00004404,0.00
 002951,0.00002257,-0.00000499,0.00000591,-0.00002708,-0.00006603,0.000
 00369,-0.00023873,0.00011936,-0.00101792,-0.00023825,-0.00011578,0.000
 04306,0.00005047,-0.00004013,0.00036192,-0.00013807,-0.00004301,0.0000
 2662,0.00046062,0.00058006,-0.00097001,-0.00072805,-0.00076959,-0.0001
 1484,-0.00093283,-0.00009796,0.00000752,-0.00011924,0.00002367,0.00002
 086,-0.00000572,0.00005213,-0.00005004,0.00002103,0.00035488,0.0009746
 9,0.00005630,0.00040781,0.00010543,-0.00026520,0.00002270,0.00004411,-
 0.00003876,-0.00001542,0.00001755,0.00000762,0.00003204,-0.00017067,-0
 .00008239,-0.00000038,-0.00007633,-0.00005104,0.00001230,0.00002604,-0
 .00020886,-0.00022761,0.00094308,-0.00040559,-0.00005723,0.00007891,0.
 00010147,-0.00001465,0.00006278,0.00003717,0.00005731,-0.00000121,0.00
 002298,0.00000663,0.00000026,-0.00001753,-0.00001351,-0.00003396,-0.00
 001760,-0.00002616,0.00011240,0.00007748,-0.00000440,0.00003361,-0.000
 00103,-0.00000442,0.00000831,-0.00000649,-0.00001822,0.00000766,0.0000
 0718,-0.00000683,0.00002611,0.00001595,-0.00000021,0.00002165,-0.00002
 697,-0.00291793,0.03904427,0.07826717,0.01947149,-0.03597246,0.0279600
 6,0.00295816,-0.00948435,-0.00059625,0.00393493,-0.00340576,0.00059870
 ,-0.00066721,0.00019222,-0.00103080,-0.00016823,0.00149679,0.00114113,
 -0.00004989,0.00006786,-0.00062176,-0.00036273,-0.00001832,-0.00028384
 ,-0.00009811,0.00015597,-0.00002852,-0.00022523,-0.00024509,0.00045065
 ,-0.00032842,0.00103782,0.00003061,-0.00012338,-0.00006516,-0.00024949
 ,-0.00010271,0.00016712,0.00024775,0.00001019,0.00072568,0.00012043,-0
 .00014485,-0.00007705,0.00003676,-0.00000630,-0.00007774,-0.00013285,0
 .00009385,0.00015273,0.00004094,-0.00001517,0.00016932,0.00029544,0.00
 002903,-0.00032854,-0.00098093,-0.00049975,-0.00034796,0.00007857,-0.0
 0005656,0.00005189,-0.00005234,0.00001118,0.00000991,-0.00005644,0.000
 07985,-0.00000900,0.00046085,-0.00028080,-0.00018988,0.00001825,-0.000
 05017,0.00004059,-0.00000487,-0.00000657,0.00003561,0.00000860,-0.0000
 3212,0.00000441,-0.00004222,0.00002698,-0.00008974,0.00014476,-0.00004
 968,-0.00013695,0.00003373,-0.00005853,-0.00006541,-0.00016141,0.00033
 077,-0.00018180,-0.00001771,0.00000813,-0.00001060,0.00002205,-0.00001
 997,0.00000367,-0.00002460,0.00001029,0.00000526,-0.00002178,-0.000007
 47,0.00002775,-0.00001455,0.00004084,0.00002544,-0.00000362,0.00002087
 ,-0.00004825,0.00000722,-0.00000005,0.00000746,-0.00000046,-0.00000713
 ,0.00000779,0.00000604,-0.00001110,-0.00001056,0.00000194,-0.00001299,
 -0.00000742,0.00001119,-0.00000913,-0.00001098,-0.10588988,-0.02364603
 ,0.04643252,-0.00044430,0.00011067,-0.00085668,0.00282309,0.00087831,0
 .00357670,0.00898387,-0.00028097,0.00816207,-0.00288020,0.00127869,-0.
 00118450,-0.00060038,0.00008840,-0.00031551,-0.00010723,-0.00013918,-0
 .00038547,-0.00060590,0.00264790,0.00154738,-0.22318493,-0.02597226,-0
 .17656067,0.00007186,-0.00008081,-0.00006376,-0.00000730,-0.00019814,-
 0.00006015,0.00019378,0.00005391,0.00078370,0.00033624,0.00001221,0.00
 067068,0.00018407,-0.00003696,0.00026686,0.00020112,0.00085490,-0.0010
 7516,-0.02226151,-0.00423127,-0.02121697,-0.00011183,0.00008475,0.0000
 9026,0.00001633,0.00001437,0.00002096,0.00006214,0.00005705,0.00001474
 ,0.00001405,0.00001560,0.00000916,0.00058680,-0.00006025,0.00003226,-0
 .00001203,0.00004635,0.00008857,-0.00313967,-0.00019125,0.00422635,0.0
 0048567,-0.00025814,0.00045525,-0.00003293,0.00035940,-0.00011468,0.00
 030785,-0.00015634,0.00017312,0.00021959,0.00051574,-0.00017765,-0.000
 01777,-0.00004621,-0.00004304,0.00004932,0.00066837,0.00060444,-0.0000
 0294,-0.00000108,-0.00001101,-0.00001717,-0.00006119,-0.00005021,0.000
 00780,-0.00001964,-0.00001817,0.00005752,-0.00001372,0.00018012,0.0000
 0565,-0.00003126,0.00002683,-0.00064593,-0.00042463,-0.00075144,-0.000
 50867,0.00018664,-0.00049717,0.00000082,-0.00000219,0.00002331,0.00000
 400,-0.00000483,-0.00000026,0.00000041,0.00000440,-0.00001355,0.000010
 68,-0.00025677,0.00004248,0.00005910,-0.00009439,0.00002298,0.00000743
 ,-0.00000976,-0.00000088,-0.00010587,-0.00000116,0.00022274,0.23998695
 ,0.00008226,-0.00069958,0.00053187,-0.00124140,0.00179405,-0.00148486,
 -0.01806702,-0.00272025,-0.01991344,0.00312460,0.00098593,0.00138866,-
 0.00011489,-0.00032076,0.00047960,-0.00030197,-0.00048934,0.00024537,0
 .00167906,-0.00412130,-0.00127274,-0.02749524,-0.06191771,-0.03186070,
 -0.00002766,0.00013672,0.00003352,-0.00004980,0.00026619,0.00006125,0.
 00006447,-0.00081583,-0.00005182,-0.00059818,0.00022906,-0.00112356,-0
 .00014837,-0.00017350,-0.00027365,0.02355113,0.00240269,0.02271879,-0.
 00574114,-0.00084578,-0.00519523,0.00000070,-0.00028458,-0.00023694,0.
 00002774,-0.00002287,-0.00003178,0.00001578,-0.00005150,0.00001705,-0.
 00002277,-0.00002409,0.00001857,-0.00135790,-0.00552218,0.00275914,-0.
 00001103,-0.00001401,0.00001827,-0.00128908,0.00043717,0.00120389,-0.0
 0050861,0.00064580,-0.00009017,0.00072263,0.00021790,-0.00057351,0.000
 52367,-0.00001541,-0.00051983,0.00063400,-0.00003370,0.00013388,-0.000
 03092,0.00007642,0.00011698,0.00039721,-0.00134358,-0.00118935,-0.0000
 0877,0.00001976,0.00001800,-0.00002668,0.00005520,0.00009377,-0.000006
 31,0.00002585,0.00002715,0.00124663,-0.00000307,0.00073310,0.00049896,
 -0.00004594,0.00049107,-0.00018080,-0.00016708,-0.00017359,-0.00013364
 ,-0.00001228,-0.00015930,0.00000584,0.00000756,-0.00002080,-0.00000180
 ,0.00000694,0.00000370,-0.00002137,0.00003366,0.00000442,0.00000885,-0
 .00009446,0.00001073,0.00002391,-0.00001485,-0.00005620,-0.00000383,0.
 00002746,0.00000684,0.00007906,0.00007625,-0.00000353,0.02469563,0.072
 31983,-0.00003386,0.00028149,0.00017801,-0.00031196,0.00046895,0.00023
 918,-0.01226353,-0.00413955,-0.01639498,0.00035758,0.00074062,-0.00101
 772,-0.00026155,-0.00052159,0.00051037,0.00003743,0.00012886,0.0003279
 8,0.00107787,-0.00355468,-0.00051504,-0.17795657,-0.03087515,-0.240395
 13,-0.00001549,0.00004050,0.00015922,-0.00008337,0.00043972,0.00009341
 ,0.00086844,0.00015773,0.00006749,-0.00038952,0.00025508,-0.00074112,-
 0.00016219,-0.00003506,-0.00020594,-0.01155542,-0.00135475,-0.01159241
 ,0.01335603,0.00342858,0.01335321,-0.00003466,0.00013321,-0.00001592,0
 .00001507,-0.00005106,-0.00007458,0.00004916,-0.00011036,-0.00000083,-
 0.00002566,-0.00003596,-0.00004606,0.00072191,0.00236199,-0.00039774,0
 .00003040,0.00007470,0.00006756,0.00296720,0.00023937,-0.00254577,0.00
 013980,-0.00037008,-0.00040415,0.00017328,-0.00061796,0.00145151,-0.00
 015234,0.00021365,0.00127415,-0.00011270,-0.00040274,0.00027836,0.0000
 0703,-0.00001199,-0.00000602,0.00088837,-0.00065420,0.00142862,-0.0000
 0071,-0.00000198,-0.00000685,-0.00003298,0.00011579,0.00004960,-0.0000
 1021,0.00004453,0.00003133,-0.00051374,-0.00003014,-0.00018364,-0.0000
 5552,0.00007396,-0.00025343,0.00065648,0.00025104,0.00061789,0.0003599
 2,-0.00025820,0.00045294,0.00000092,0.00000938,-0.00001340,0.00000024,
 0.00001204,-0.00000438,0.00000393,-0.00000062,-0.00002411,0.00005050,0
 .00025311,0.00003904,-0.00007462,0.00006429,-0.00003727,-0.00000042,0.
 00000586,-0.00000592,0.00014001,0.00008053,-0.00001997,0.18214773,0.03
 312244,0.25429906,-0.00003054,-0.00001523,0.00000939,0.00023333,0.0000
 6484,0.00012479,-0.00004214,-0.00002793,-0.00003354,0.00001036,0.00006
 807,-0.00005566,0.00049897,0.00000153,-0.00024276,0.00001746,0.0000278
 9,-0.00000397,0.00000106,0.00000983,0.00000269,0.00000819,-0.00001981,
 0.00000421,0.00850000,0.00174663,0.00058379,-0.00071794,-0.00003244,0.
 00001667,0.00000349,-0.00000421,-0.00001139,-0.00000134,0.00000285,-0.
 00000567,-0.00000123,-0.00000221,0.00000103,-0.00000311,0.00001422,-0.
 00000371,0.00001019,0.00002204,-0.00002589,0.00409732,0.00048388,-0.00
 346483,-0.00029053,0.00014810,-0.00002140,0.00018128,-0.00009165,0.000
 01205,-0.00007936,-0.00002033,-0.00002606,-0.00000222,-0.00000125,0.00
 000429,-0.00000166,0.00000131,0.00000142,0.00000408,0.00000499,0.00000
 336,0.00000254,-0.00000338,0.00000248,0.00000198,-0.00000003,-0.000001
 28,0.00000690,0.00000007,0.00000400,-0.00000075,-0.00000499,0.00000491
 ,-0.04176621,0.00223357,0.02471171,-0.00498015,-0.00095849,-0.00037536
 ,0.00512376,0.00187289,0.00064950,-0.00093057,-0.00016259,-0.00018569,
 0.00008614,0.00000962,0.00001084,-0.00000137,-0.00000226,0.00000180,-0
 .00000018,0.00000151,-0.00000086,-0.00000212,-0.00000665,0.00000113,-0
 .00001154,0.00000540,0.00000197,0.00323426,-0.00031030,0.00569271,-0.0
 0003305,-0.00005516,0.00024722,-0.00001083,0.00000683,0.00000467,0.000
 00441,-0.00000630,0.00000475,0.00001161,0.00000368,-0.00001618,-0.0028
 1377,-0.00058392,-0.00038890,0.00001056,0.00000032,0.00000873,0.000010
 45,0.00000703,-0.00000224,0.02966227,-0.00000247,-0.00011022,-0.000030
 09,0.00002772,0.00018478,0.00008670,-0.00006413,-0.00000233,0.00002455
 ,-0.00000632,-0.00001110,-0.00003324,-0.00012642,0.00081965,0.00096767
 ,-0.00000752,0.00001915,0.00002186,0.00001292,-0.00000041,-0.00000489,
 0.00003356,-0.00000823,-0.00001759,0.00191421,-0.00472106,0.00191054,-
 0.00011122,-0.00027456,0.00042968,-0.00001058,0.00000281,0.00000150,-0
 .00000576,-0.00000176,-0.00000155,-0.00000554,0.00000537,-0.00000519,0
 .00000128,-0.00001210,0.00000015,-0.00000727,-0.00003190,0.00001659,-0
 .00232592,0.00370948,0.02863295,0.00012531,-0.00140941,0.00043070,0.00
 010379,-0.00041172,-0.00006030,-0.00003752,0.00002290,0.00014863,0.000
 00450,-0.00000064,-0.00000084,0.00000237,-0.00000139,-0.00000370,0.000
 01080,0.00000521,0.00000250,-0.00000410,0.00000908,0.00000279,0.000002
 77,-0.00000320,-0.00000033,0.00000872,0.00000658,0.00000282,0.00000638
 ,0.00000049,-0.00000446,0.00270436,-0.06027708,0.00519360,-0.00091865,
 0.00077870,-0.00030763,0.00180804,-0.00468835,-0.00216818,-0.00018543,
 0.00048556,-0.00040261,0.00000992,0.00002156,0.00000286,-0.00000125,0.
 00000143,-0.00000163,-0.00000031,-0.00000217,-0.00000062,-0.00000094,-
 0.00000022,-0.00000382,-0.00000409,-0.00000064,-0.00000472,0.00199453,
 0.00567946,-0.02777253,0.00012048,0.00023233,-0.00135801,0.00000484,-0
 .00000008,0.00000019,-0.00000286,0.00000095,-0.00000345,-0.00000038,0.
 00000043,0.00000662,-0.00065823,0.00085473,0.00045542,0.00001932,0.000
 02388,0.00001724,-0.00000090,-0.00001078,0.00002866,-0.00442800,0.0591
 1482,-0.00001033,0.00015668,0.00000612,0.00002881,-0.00014071,-0.00003
 679,0.00005079,-0.00001529,-0.00003739,-0.00001524,0.00000424,0.000003
 00,0.00016933,-0.00044925,-0.00047172,0.00004285,0.00000322,-0.0000114
 3,-0.00001382,0.00001408,0.00001399,-0.00005104,0.00001749,0.00001575,
 0.00021622,0.00262312,0.00090297,-0.00009884,0.00035531,-0.00015981,0.
 00001391,-0.00001296,-0.00001073,0.00000780,0.00000367,-0.00000234,0.0
 0000922,-0.00001136,0.00000438,-0.00000165,-0.00000366,0.00001159,0.00
 002374,0.00003063,-0.00002315,0.00145275,-0.00190444,-0.01029713,-0.00
 006631,-0.00024735,0.00080360,-0.00000968,0.00004417,0.00015534,0.0000
 0274,-0.00001115,-0.00007208,-0.00000393,-0.00000014,0.00000605,-0.000
 00651,0.00000370,0.00000198,0.00000143,0.00000708,0.00000218,0.0000061
 6,-0.00001377,-0.00000284,-0.00000346,0.00000532,0.00000024,0.00000308
 ,-0.00000103,0.00000116,-0.00000805,-0.00000233,0.00000549,0.02481986,
 0.00572818,-0.34966858,-0.00051801,-0.00009906,0.00104302,0.00084056,-
 0.00279461,0.00039295,-0.00005214,0.00000073,-0.00024919,0.00000896,0.
 00000656,-0.00003152,-0.00000006,-0.00000410,-0.00000023,-0.00000212,0
 .00000462,0.00000110,-0.00000393,-0.00000245,0.00000423,-0.00000148,0.
 00000123,0.00000256,0.00069165,0.00276881,-0.01018893,0.00002148,0.000
 25224,-0.00056591,-0.00001001,0.00000491,0.00000586,0.00000319,-0.0000
 0426,0.00000186,0.00000649,0.00000653,-0.00001484,-0.00027737,-0.00007
 142,0.00068614,-0.00003054,-0.00004729,-0.00001484,0.00000823,-0.00000
 705,-0.00001658,-0.02724474,-0.00619881,0.36780447\\-0.00001235,0.0000
 0677,0.00000247,0.00000034,0.00001010,-0.00001144,0.00000999,-0.000000
 08,-0.00000271,-0.00000128,-0.00000041,-0.00000392,0.00000225,-0.00001
 538,0.00001209,0.00000319,0.00000792,-0.00000241,-0.00000593,-0.000006
 17,-0.00000261,-0.00000227,0.00001095,-0.00000025,0.00000040,0.0000040
 1,-0.00000041,0.00000153,-0.00001251,-0.00001360,-0.00000442,-0.000002
 82,-0.00000114,-0.00000477,-0.00000542,0.00000338,-0.00000170,-0.00000
 370,0.00000063,-0.00000210,-0.00000223,-0.00000778,0.00000228,0.000004
 64,-0.00001215,0.00000028,-0.00000461,0.00000882,0.00000318,-0.0000004
 2,-0.00001045,-0.00001175,-0.00000231,-0.00000078,-0.00000186,-0.00000
 805,-0.00000228,0.00000672,-0.00000038,-0.00000985,-0.00000682,-0.0000
 0635,0.00000215,-0.00000337,0.00000042,-0.00000086,0.00000426,-0.00000
 101,-0.00000884,-0.00000055,0.00000208,-0.00000822,0.00000059,0.000008
 50,-0.00000210,0.00000275,0.00000352,-0.00000604,0.00000046,0.00001755
 ,0.00000882,0.00000304,0.00000763,0.00000059,-0.00000047,-0.00000344,0
 .00002251,-0.00000192,-0.00000485,0.00001802,-0.00000203,-0.00001065,0
 .00000236,-0.00000098,-0.00000784,-0.00000993,-0.00000038,-0.00000139,
 -0.00000538,0.00000121,0.00000505,-0.00000015,0.00000577,0.00000060,0.
 00000912,0.00000383,-0.00000259,0.00000045,-0.00000034,-0.00000124,0.0
 0001092,0.00000193,0.00000327,0.00000569,-0.00000125,0.00000058,0.0000
 0455,0.00000040,-0.00000650,0.00000646,0.00000371,0.00000606,0.0000133
 6,-0.00000239,-0.00000495,-0.00000943,0.00000629,0.00000734,-0.0000070
 1,0.00000454,0.00000833,0.00000731\\\@
 The archive entry for this job was punched.


 The impersonal hand of government can
 never replace the helping hand of a neighbor.
                        -- Hubert H. Humphrey
 Job cpu time:       0 days  1 hours 53 minutes 41.8 seconds.
 Elapsed time:       0 days  0 hours  9 minutes 36.2 seconds.
 File lengths (MBytes):  RWF=    799 Int=      0 D2E=      0 Chk=     25 Scr=      1
 Normal termination of Gaussian 16 at Mon Dec 11 13:37:40 2023.
