Unloading slurm/anatra/current
  ERROR: No such file or directory on
    '/cm/local/modulefiles/slurm/anatra/current'
environment: line 0: unalias: gv: not found
environment: line 0: unalias: sl: not found
 Entering Gaussian System, Link 0=g16
 Initial command:
 /apps/gaussian/g16/C.01/g16/l1.exe "/local/jobs/1176089/Gau-4185499.inp" -scrdir="/local/jobs/1176089/"
 Entering Link 1 = /apps/gaussian/g16/C.01/g16/l1.exe PID=   4185515.
  
 Copyright (c) 1988-2019, Gaussian, Inc.  All Rights Reserved.
  
 This is part of the Gaussian(R) 16 program.  It is based on
 the Gaussian(R) 09 system (copyright 2009, Gaussian, Inc.),
 the Gaussian(R) 03 system (copyright 2003, Gaussian, Inc.),
 the Gaussian(R) 98 system (copyright 1998, Gaussian, Inc.),
 the Gaussian(R) 94 system (copyright 1995, Gaussian, Inc.),
 the Gaussian 92(TM) system (copyright 1992, Gaussian, Inc.),
 the Gaussian 90(TM) system (copyright 1990, Gaussian, Inc.),
 the Gaussian 88(TM) system (copyright 1988, Gaussian, Inc.),
 the Gaussian 86(TM) system (copyright 1986, Carnegie Mellon
 University), and the Gaussian 82(TM) system (copyright 1983,
 Carnegie Mellon University). Gaussian is a federally registered
 trademark of Gaussian, Inc.
  
 This software contains proprietary and confidential information,
 including trade secrets, belonging to Gaussian, Inc.
  
 This software is provided under written license and may be
 used, copied, transmitted, or stored only in accord with that
 written license.
  
 The following legend is applicable only to US Government
 contracts under FAR:
  
                    RESTRICTED RIGHTS LEGEND
  
 Use, reproduction and disclosure by the US Government is
 subject to restrictions as set forth in subparagraphs (a)
 and (c) of the Commercial Computer Software - Restricted
 Rights clause in FAR 52.227-19.
  
 Gaussian, Inc.
 340 Quinnipiac St., Bldg. 40, Wallingford CT 06492
  
  
 ---------------------------------------------------------------
 Warning -- This program may not be used in any manner that
 competes with the business of Gaussian, Inc. or will provide
 assistance to any competitor of Gaussian, Inc.  The licensee
 of this program is prohibited from giving any competitor of
 Gaussian, Inc. access to this program.  By using this program,
 the user acknowledges that Gaussian, Inc. is engaged in the
 business of creating and licensing software in the field of
 computational chemistry and represents and warrants to the
 licensee that it is not a competitor of Gaussian, Inc. and that
 it will not use this program in any manner prohibited above.
 ---------------------------------------------------------------
  

 Cite this work as:
 Gaussian 16, Revision C.01,
 M. J. Frisch, G. W. Trucks, H. B. Schlegel, G. E. Scuseria, 
 M. A. Robb, J. R. Cheeseman, G. Scalmani, V. Barone, 
 G. A. Petersson, H. Nakatsuji, X. Li, M. Caricato, A. V. Marenich, 
 J. Bloino, B. G. Janesko, R. Gomperts, B. Mennucci, H. P. Hratchian, 
 J. V. Ortiz, A. F. Izmaylov, J. L. Sonnenberg, D. Williams-Young, 
 F. Ding, F. Lipparini, F. Egidi, J. Goings, B. Peng, A. Petrone, 
 T. Henderson, D. Ranasinghe, V. G. Zakrzewski, J. Gao, N. Rega, 
 G. Zheng, W. Liang, M. Hada, M. Ehara, K. Toyota, R. Fukuda, 
 J. Hasegawa, M. Ishida, T. Nakajima, Y. Honda, O. Kitao, H. Nakai, 
 T. Vreven, K. Throssell, J. A. Montgomery, Jr., J. E. Peralta, 
 F. Ogliaro, M. J. Bearpark, J. J. Heyd, E. N. Brothers, K. N. Kudin, 
 V. N. Staroverov, T. A. Keith, R. Kobayashi, J. Normand, 
 K. Raghavachari, A. P. Rendell, J. C. Burant, S. S. Iyengar, 
 J. Tomasi, M. Cossi, J. M. Millam, M. Klene, C. Adamo, R. Cammi, 
 J. W. Ochterski, R. L. Martin, K. Morokuma, O. Farkas, 
 J. B. Foresman, and D. J. Fox, Gaussian, Inc., Wallingford CT, 2019.
 
 ******************************************
 Gaussian 16:  ES64L-G16RevC.01  3-Jul-2019
                20-May-2024 
 ******************************************
 %nprocshared=12
 Will use up to   12 processors via shared memory.
 %mem=48GB
 ----------------------------------------------------------------------
 # external="~/scripts/MiMe -H 'am1' -EF 'wb97xd def2svp' -c 12 -m 48GB
 " opt=(calcall,ts,eigentest,maxcycles=50,maxstep=10,nomicro)
 ----------------------------------------------------------------------
 1/5=1,6=50,8=10,10=4,11=2,18=20,26=1,38=1/1,3;
 2/9=110,12=2,17=6,18=5,40=1/2;
 3/11=9,25=1,30=1,41=9900000,43=2,71=2,140=1/1;
 4/20=17,22=2,24=3,113=1,114=1/2;
 6/7=2,8=2,9=2,10=2,18=1/1;
 7/25=1,44=-1/16;
 1/5=1,6=50,8=10,10=4,11=2,18=20,26=1/3(3);
 2/9=110/2;
 7/8=1,9=1,25=1,44=-1/16;
 99//99;
 2/9=110/2;
 3/11=9,25=1,30=1,41=9900000,43=2,71=2,140=1/1;
 4/16=2,20=17,22=2,24=3,113=1,114=1/2;
 7/25=1,44=-1/16;
 1/5=1,6=50,8=10,10=4,11=2,18=20,26=1/3(-4);
 2/9=110/2;
 6/7=2,8=2,9=2,10=2,18=1/1;
 7/8=1,9=1,25=1,44=-1/16;
 99//99;
 -----
 *****
 -----
 Symbolic Z-matrix:
 Charge =  0 Multiplicity = 1
 C                     1.926     0.1722   -0.005 
 C                     0.7332   -1.561     0.2678 
 C                     0.4112    1.2555    1.075 
 C                    -0.531    -1.0586    0.8293 
 N                     1.7025    0.7364    1.2998 
 H                     0.6664   -1.9557   -0.7531 
 H                     1.3297   -2.1646    0.9585 
 H                    -0.2593    1.6608    1.8195 
 H                    -0.6848   -1.0875    1.9035 
 O                     1.2051    0.8334   -1.0306 
 C                     0.2136    1.5119   -0.3666 
 O                    -0.6834    2.1731   -0.8537 
 C                    -1.7411   -0.9446   -0.0186 
 O                    -1.7938   -1.287    -1.187 
 O                    -2.7058   -0.3299    0.7041 
 C                    -3.864    -0.0087   -0.0696 
 H                    -4.6046    0.4407    0.5972 
 H                    -4.2985   -0.9112   -0.5123 
 H                    -3.6099    0.72     -0.8471 
 C                     3.2267   -0.349    -0.3333 
 N                     4.2764   -0.7867   -0.567 
 H                     2.014     0.283     2.1522 
 
 Add virtual bond connecting atoms C2         and C1         Dist= 4.01D+00.

 GradGradGradGradGradGradGradGradGradGradGradGradGradGradGradGradGradGrad
 Berny optimization.
 Initialization pass.
                           ----------------------------
                           !    Initial Parameters    !
                           ! (Angstroms and Degrees)  !
 --------------------------                            --------------------------
 ! Name  Definition              Value          Derivative Info.                !
 --------------------------------------------------------------------------------
 ! R1    R(1,2)                  2.1216         calculate D2E/DX2 analytically  !
 ! R2    R(1,5)                  1.439          calculate D2E/DX2 analytically  !
 ! R3    R(1,10)                 1.4173         calculate D2E/DX2 analytically  !
 ! R4    R(1,20)                 1.4392         calculate D2E/DX2 analytically  !
 ! R5    R(2,4)                  1.4717         calculate D2E/DX2 analytically  !
 ! R6    R(2,6)                  1.0966         calculate D2E/DX2 analytically  !
 ! R7    R(2,7)                  1.0942         calculate D2E/DX2 analytically  !
 ! R8    R(3,5)                  1.4098         calculate D2E/DX2 analytically  !
 ! R9    R(3,8)                  1.0808         calculate D2E/DX2 analytically  !
 ! R10   R(3,11)                 1.4775         calculate D2E/DX2 analytically  !
 ! R11   R(4,9)                  1.0855         calculate D2E/DX2 analytically  !
 ! R12   R(4,13)                 1.482          calculate D2E/DX2 analytically  !
 ! R13   R(5,22)                 1.0145         calculate D2E/DX2 analytically  !
 ! R14   R(10,11)                1.3727         calculate D2E/DX2 analytically  !
 ! R15   R(11,12)                1.2162         calculate D2E/DX2 analytically  !
 ! R16   R(13,14)                1.2187         calculate D2E/DX2 analytically  !
 ! R17   R(13,15)                1.3531         calculate D2E/DX2 analytically  !
 ! R18   R(15,16)                1.4294         calculate D2E/DX2 analytically  !
 ! R19   R(16,17)                1.0932         calculate D2E/DX2 analytically  !
 ! R20   R(16,18)                1.0951         calculate D2E/DX2 analytically  !
 ! R21   R(16,19)                1.0955         calculate D2E/DX2 analytically  !
 ! R22   R(20,21)                1.1611         calculate D2E/DX2 analytically  !
 ! A1    A(2,1,5)               96.6836         calculate D2E/DX2 analytically  !
 ! A2    A(2,1,10)             100.8474         calculate D2E/DX2 analytically  !
 ! A3    A(2,1,20)             103.9809         calculate D2E/DX2 analytically  !
 ! A4    A(5,1,10)             113.2177         calculate D2E/DX2 analytically  !
 ! A5    A(5,1,20)             119.2878         calculate D2E/DX2 analytically  !
 ! A6    A(10,1,20)            117.6183         calculate D2E/DX2 analytically  !
 ! A7    A(1,2,4)              104.6627         calculate D2E/DX2 analytically  !
 ! A8    A(1,2,6)              102.0394         calculate D2E/DX2 analytically  !
 ! A9    A(1,2,7)              103.0222         calculate D2E/DX2 analytically  !
 ! A10   A(4,2,6)              115.1979         calculate D2E/DX2 analytically  !
 ! A11   A(4,2,7)              114.5681         calculate D2E/DX2 analytically  !
 ! A12   A(6,2,7)              114.9823         calculate D2E/DX2 analytically  !
 ! A13   A(5,3,8)              126.6183         calculate D2E/DX2 analytically  !
 ! A14   A(5,3,11)             109.9978         calculate D2E/DX2 analytically  !
 ! A15   A(8,3,11)             121.6052         calculate D2E/DX2 analytically  !
 ! A16   A(2,4,9)              119.3514         calculate D2E/DX2 analytically  !
 ! A17   A(2,4,13)             120.623          calculate D2E/DX2 analytically  !
 ! A18   A(9,4,13)             116.9056         calculate D2E/DX2 analytically  !
 ! A19   A(1,5,3)               98.1661         calculate D2E/DX2 analytically  !
 ! A20   A(1,5,22)             122.6115         calculate D2E/DX2 analytically  !
 ! A21   A(3,5,22)             125.436          calculate D2E/DX2 analytically  !
 ! A22   A(1,10,11)            104.3563         calculate D2E/DX2 analytically  !
 ! A23   A(3,11,10)            106.8333         calculate D2E/DX2 analytically  !
 ! A24   A(3,11,12)            125.7168         calculate D2E/DX2 analytically  !
 ! A25   A(10,11,12)           127.4253         calculate D2E/DX2 analytically  !
 ! A26   A(4,13,14)            124.2103         calculate D2E/DX2 analytically  !
 ! A27   A(4,13,15)            108.1513         calculate D2E/DX2 analytically  !
 ! A28   A(14,13,15)           127.5095         calculate D2E/DX2 analytically  !
 ! A29   A(13,15,16)           112.9966         calculate D2E/DX2 analytically  !
 ! A30   A(15,16,17)           108.1285         calculate D2E/DX2 analytically  !
 ! A31   A(15,16,18)           110.7999         calculate D2E/DX2 analytically  !
 ! A32   A(15,16,19)           110.2239         calculate D2E/DX2 analytically  !
 ! A33   A(17,16,18)           108.4554         calculate D2E/DX2 analytically  !
 ! A34   A(17,16,19)           108.4572         calculate D2E/DX2 analytically  !
 ! A35   A(18,16,19)           110.6899         calculate D2E/DX2 analytically  !
 ! A36   L(1,20,21,7,-1)       178.6613         calculate D2E/DX2 analytically  !
 ! A37   L(1,20,21,7,-2)       181.2752         calculate D2E/DX2 analytically  !
 ! D1    D(5,1,2,4)             48.0218         calculate D2E/DX2 analytically  !
 ! D2    D(5,1,2,6)            168.405          calculate D2E/DX2 analytically  !
 ! D3    D(5,1,2,7)            -72.0859         calculate D2E/DX2 analytically  !
 ! D4    D(10,1,2,4)           -67.2301         calculate D2E/DX2 analytically  !
 ! D5    D(10,1,2,6)            53.1531         calculate D2E/DX2 analytically  !
 ! D6    D(10,1,2,7)           172.6621         calculate D2E/DX2 analytically  !
 ! D7    D(20,1,2,4)           170.4849         calculate D2E/DX2 analytically  !
 ! D8    D(20,1,2,6)           -69.1319         calculate D2E/DX2 analytically  !
 ! D9    D(20,1,2,7)            50.3772         calculate D2E/DX2 analytically  !
 ! D10   D(2,1,5,3)            -77.6549         calculate D2E/DX2 analytically  !
 ! D11   D(2,1,5,22)            64.2671         calculate D2E/DX2 analytically  !
 ! D12   D(10,1,5,3)            27.2044         calculate D2E/DX2 analytically  !
 ! D13   D(10,1,5,22)          169.1264         calculate D2E/DX2 analytically  !
 ! D14   D(20,1,5,3)           172.1858         calculate D2E/DX2 analytically  !
 ! D15   D(20,1,5,22)          -45.8922         calculate D2E/DX2 analytically  !
 ! D16   D(2,1,10,11)           83.2911         calculate D2E/DX2 analytically  !
 ! D17   D(5,1,10,11)          -18.8984         calculate D2E/DX2 analytically  !
 ! D18   D(20,1,10,11)        -164.5064         calculate D2E/DX2 analytically  !
 ! D19   D(1,2,4,9)            -97.1235         calculate D2E/DX2 analytically  !
 ! D20   D(1,2,4,13)           103.4561         calculate D2E/DX2 analytically  !
 ! D21   D(6,2,4,9)            151.6908         calculate D2E/DX2 analytically  !
 ! D22   D(6,2,4,13)            -7.7296         calculate D2E/DX2 analytically  !
 ! D23   D(7,2,4,9)             14.9451         calculate D2E/DX2 analytically  !
 ! D24   D(7,2,4,13)          -144.4754         calculate D2E/DX2 analytically  !
 ! D25   D(8,3,5,1)            170.3514         calculate D2E/DX2 analytically  !
 ! D26   D(8,3,5,22)            29.9653         calculate D2E/DX2 analytically  !
 ! D27   D(11,3,5,1)           -24.7896         calculate D2E/DX2 analytically  !
 ! D28   D(11,3,5,22)         -165.1757         calculate D2E/DX2 analytically  !
 ! D29   D(5,3,11,10)           15.7905         calculate D2E/DX2 analytically  !
 ! D30   D(5,3,11,12)         -165.9069         calculate D2E/DX2 analytically  !
 ! D31   D(8,3,11,10)         -178.4594         calculate D2E/DX2 analytically  !
 ! D32   D(8,3,11,12)           -0.1568         calculate D2E/DX2 analytically  !
 ! D33   D(2,4,13,14)            2.5317         calculate D2E/DX2 analytically  !
 ! D34   D(2,4,13,15)         -173.6078         calculate D2E/DX2 analytically  !
 ! D35   D(9,4,13,14)         -157.3735         calculate D2E/DX2 analytically  !
 ! D36   D(9,4,13,15)           26.4871         calculate D2E/DX2 analytically  !
 ! D37   D(1,10,11,3)            1.736          calculate D2E/DX2 analytically  !
 ! D38   D(1,10,11,12)        -176.5286         calculate D2E/DX2 analytically  !
 ! D39   D(4,13,15,16)         172.3219         calculate D2E/DX2 analytically  !
 ! D40   D(14,13,15,16)         -3.6532         calculate D2E/DX2 analytically  !
 ! D41   D(13,15,16,17)        177.5006         calculate D2E/DX2 analytically  !
 ! D42   D(13,15,16,18)         58.77           calculate D2E/DX2 analytically  !
 ! D43   D(13,15,16,19)        -64.0987         calculate D2E/DX2 analytically  !
 --------------------------------------------------------------------------------
 Trust Radius=1.00D-01 FncErr=1.00D-07 GrdErr=1.00D-07 EigMax=2.50D+02 EigMin=1.00D-04
 Number of steps in this run=     50 maximum allowed number of steps=    132.
 Search for a saddle point of order  1.
 GradGradGradGradGradGradGradGradGradGradGradGradGradGradGradGradGradGrad

                          Input orientation:                          
 ---------------------------------------------------------------------
 Center     Atomic      Atomic             Coordinates (Angstroms)
 Number     Number       Type             X           Y           Z
 ---------------------------------------------------------------------
      1          6           0        1.926000    0.172200   -0.005000
      2          6           0        0.733200   -1.561000    0.267800
      3          6           0        0.411200    1.255500    1.075000
      4          6           0       -0.531000   -1.058600    0.829300
      5          7           0        1.702500    0.736400    1.299800
      6          1           0        0.666400   -1.955700   -0.753100
      7          1           0        1.329700   -2.164600    0.958500
      8          1           0       -0.259300    1.660800    1.819500
      9          1           0       -0.684800   -1.087500    1.903500
     10          8           0        1.205100    0.833400   -1.030600
     11          6           0        0.213600    1.511900   -0.366600
     12          8           0       -0.683400    2.173100   -0.853700
     13          6           0       -1.741100   -0.944600   -0.018600
     14          8           0       -1.793800   -1.287000   -1.187000
     15          8           0       -2.705800   -0.329900    0.704100
     16          6           0       -3.864000   -0.008700   -0.069600
     17          1           0       -4.604600    0.440700    0.597200
     18          1           0       -4.298500   -0.911200   -0.512300
     19          1           0       -3.609900    0.720000   -0.847100
     20          6           0        3.226700   -0.349000   -0.333300
     21          7           0        4.276400   -0.786700   -0.567000
     22          1           0        2.014000    0.283000    2.152200
 ---------------------------------------------------------------------
                    Distance matrix (angstroms):
                    1          2          3          4          5
     1  C    0.000000
     2  C    2.121597   0.000000
     3  C    2.152802   2.947529   0.000000
     4  C    2.871894   1.471696   2.510611   0.000000
     5  N    1.439019   2.698632   1.409771   2.903776   0.000000
     6  H    2.583448   1.096580   3.703901   2.177738   3.540523
     7  H    2.597025   1.094172   3.543205   2.168440   2.944701
     8  H    3.212517   3.711176   1.080795   2.906794   2.230081
     9  H    3.470662   2.215951   2.716114   1.085539   3.064354
    10  O    1.417299   2.764360   2.289541   3.170636   2.384865
    11  C    2.204056   3.180434   1.477497   2.931224   2.365399
    12  O    3.396007   4.148255   2.400005   3.646862   3.520538
    13  C    3.833412   2.565957   3.266312   1.481983   4.052446
    14  O    4.166929   2.928694   4.054994   2.390041   4.743673
    15  O    4.712589   3.678680   3.516639   2.297049   4.574381
    16  C    5.793185   4.863920   4.602787   3.608213   5.780688
    17  H    6.563800   5.710290   5.103963   4.346952   6.352999
    18  H    6.338415   5.133108   5.421751   4.001959   6.481535
    19  H    5.626314   5.030753   4.488928   3.931076   5.729838
    20  C    1.439184   2.836866   3.533379   3.996934   2.483605
    21  N    2.599945   3.721653   4.669745   5.013450   3.525583
    22  H    2.161835   2.931168   2.162194   3.166541   1.014490
                    6          7          8          9         10
     6  H    0.000000
     7  H    1.847480   0.000000
     8  H    4.533681   4.230831   0.000000
     9  H    3.104358   2.472120   2.782312   0.000000
    10  O    2.854169   3.600007   3.309400   3.983782   0.000000
    11  C    3.518332   4.064261   2.241615   3.566140   1.372709
    12  O    4.345005   5.113930   2.754689   4.270090   2.322180
    13  C    2.712539   3.445713   3.516028   2.197876   3.586854
    14  O    2.586119   3.889679   4.481435   3.289509   3.676134
    15  O    4.017262   4.440282   3.345499   2.469202   4.433688
    16  C    4.978203   5.716591   4.398840   3.894130   5.227660
    17  H    5.945543   6.491074   4.675927   4.405298   6.046202
    18  H    5.079291   5.950706   5.326125   4.350402   5.796713
    19  H    5.045290   5.998396   4.384334   4.403302   4.819830
    20  C    3.051697   2.926390   4.563556   4.566015   2.443596
    21  N    3.799118   3.592882   5.679631   5.550437   3.503217
    22  H    3.907502   2.807834   2.678976   3.037045   3.329786
                   11         12         13         14         15
    11  C    0.000000
    12  O    1.216166   0.000000
    13  C    3.158536   3.396494   0.000000
    14  O    3.540699   3.649160   1.218677   0.000000
    15  O    3.614073   3.575172   1.353070   2.307389   0.000000
    16  C    4.362024   3.935896   2.320606   2.677380   1.429408
    17  H    5.029059   4.525719   3.240046   3.750855   2.051997
    18  H    5.123640   4.764285   2.604832   2.621062   2.086680
    19  H    3.934099   3.267407   2.636232   2.727966   2.079882
    20  C    3.541586   4.681953   5.013264   5.178230   6.022551
    21  N    4.672266   5.782926   6.044500   6.122257   7.111644
    22  H    3.331064   4.459134   4.507788   5.302311   4.974852
                   16         17         18         19         20
    16  C    0.000000
    17  H    1.093193   0.000000
    18  H    1.095116   1.775478   0.000000
    19  H    1.095480   1.775793   1.801964   0.000000
    20  C    7.103757   7.925826   7.548294   6.938721   0.000000
    21  N    8.192607   9.040688   8.575978   8.033824   1.161063
    22  H    6.290657   6.800644   6.955094   6.388663   2.836860
                   21         22
    21  N    0.000000
    22  H    3.695505   0.000000
 Stoichiometry    C8H8N2O4
 Framework group  C1[X(C8H8N2O4)]
 Deg. of freedom    60
 Full point group                 C1      NOp   1
 Largest Abelian subgroup         C1      NOp   1
 Largest concise Abelian subgroup C1      NOp   1
                         Standard orientation:                         
 ---------------------------------------------------------------------
 Center     Atomic      Atomic             Coordinates (Angstroms)
 Number     Number       Type             X           Y           Z
 ---------------------------------------------------------------------
      1          6           0        1.901595    0.103954    0.015435
      2          6           0        0.662124   -1.607415    0.205441
      3          6           0        0.407708    1.179062    1.132128
      4          6           0       -0.592612   -1.096648    0.780457
      5          7           0        1.683388    0.616915    1.342097
      6          1           0        0.592488   -1.955723   -0.832018
      7          1           0        1.237674   -2.255800    0.872937
      8          1           0       -0.257403    1.569313    1.889393
      9          1           0       -0.754911   -1.167894    1.851428
     10          8           0        1.205623    0.827616   -0.984902
     11          6           0        0.227327    1.502648   -0.298170
     12          8           0       -0.648592    2.207669   -0.761604
     13          6           0       -1.793143   -0.914287   -0.069097
     14          8           0       -1.846252   -1.204357   -1.251558
     15          8           0       -2.746736   -0.306217    0.673673
     16          6           0       -3.890530    0.078505   -0.092442
     17          1           0       -4.624003    0.518004    0.588682
     18          1           0       -4.345153   -0.792264   -0.576548
     19          1           0       -3.611903    0.833189   -0.836012
     20          6           0        3.190634   -0.436629   -0.327198
     21          7           0        4.230253   -0.891301   -0.573236
     22          1           0        1.976778    0.119051    2.175910
 ---------------------------------------------------------------------
 Rotational constants (GHZ):           1.3537180           0.4678392           0.4214048
 Standard basis: STO-3G (5D, 7F)
 There are    78 symmetry adapted cartesian basis functions of A   symmetry.
 There are    78 symmetry adapted basis functions of A   symmetry.
    78 basis functions,   234 primitive gaussians,    78 cartesian basis functions
    51 alpha electrons       51 beta electrons
       nuclear repulsion energy       892.5014373949 Hartrees.
 NAtoms=   22 NActive=   22 NUniq=   22 SFac= 1.00D+00 NAtFMM=   60 NAOKFM=F Big=F
 Integral buffers will be    131072 words long.
 Raffenetti 1 integral format.
 Two-electron integral symmetry is turned on.
 External calculation of energy, first and second derivatives.
 Running external command "~/scripts/MiMe -H 'am1' -EF 'wb97xd def2svp' -c 12 -m 48GB R"
         input file       "/local/jobs/1176089/Gau-4185515.EIn"
         output file      "/local/jobs/1176089/Gau-4185515.EOu"
         message file     "/local/jobs/1176089/Gau-4185515.EMs"
         fchk file        "/local/jobs/1176089/Gau-4185515.EFC"
         mat. el file     "/local/jobs/1176089/Gau-4185515.EUF"
 Read checkpoint file Gau-4185515_H.chk type G16
 Write formatted file Gau-4185515_H.fchk

deriv: 2

spelevel: wb97xd def2svp
gradlevel: wb97xd def2svp
hesslevel: am1

runspe: False
runforce: True
runfreq: True

Running Gaussian ...

Parsing files ...
SPE file: Gau-4185515_F.out
FORCE file: Gau-4185515_F.out
HESS file: Gau-4185515_H.out

 ExternalExternalExternalExternalExternalExternalExternalExternalExternalExternal
 Output from external command:
 "~/scripts/MiMe -H 'am1' -EF 'wb97xd def2svp' -c 12 -m 48GB R /local/jobs/1176089/Gau-4185515.EIn /local/jobs/1176089/Gau-4185515.EOu /local/jobs/1176089/Gau-4185515.EMs /local/jobs/1176089/Gau-4185515.EFC /local/jobs/1176089/Gau-4185515.EUF"
  
 --------------------------------------------------
 Force calculation at wb97xd def2svp
 Hessian calculation at am1
 ExternalExternalExternalExternalExternalExternalExternalExternalExternalExternal

 Recovered energy= -719.169780601     dipole=     -0.727200000000     -0.282600000000      6.089500000000
 Energy=    -719.169781     NIter=   0.
 Dipole moment=      -0.727200      -0.282600       6.089500
 ***** Axes restored to original set *****
 -------------------------------------------------------------------
 Center     Atomic                   Forces (Hartrees/Bohr)
 Number     Number              X              Y              Z
 -------------------------------------------------------------------
      1        6          -0.007809128   -0.033880465    0.012001507
      2        6          -0.037738720    0.019364654    0.012982594
      3        6           0.021030036   -0.025659028    0.009116698
      4        6           0.052942876   -0.002016738   -0.024704305
      5        7          -0.053825496    0.022031473   -0.080129080
      6        1           0.001869437    0.003600916   -0.000072009
      7        1           0.006664384    0.004129268   -0.001545387
      8        1           0.003233376    0.004460791    0.006453284
      9        1          -0.001086389    0.001641267    0.004297616
     10        8           0.022565221   -0.008158445    0.048475282
     11        6          -0.036398399    0.019679857    0.014875119
     12        8           0.030671408   -0.023132674    0.001406252
     13        6           0.015579323    0.006459839   -0.005942299
     14        8          -0.009581802    0.010777451    0.027120315
     15        8          -0.006323560   -0.007241723   -0.024801972
     16        6          -0.002091419    0.001332276    0.006068176
     17        1           0.001420962    0.000504077    0.005021870
     18        1           0.000740954   -0.001497495   -0.003464945
     19        1           0.001600462   -0.000862124   -0.003344665
     20        6           0.006686364    0.007692508   -0.004444712
     21        7          -0.010283729    0.001597627    0.002580480
     22        1           0.000133837   -0.000823308   -0.001949818
 -------------------------------------------------------------------
 Cartesian Forces:  Max     0.080129080 RMS     0.020056788
 FormGI is forming the generalized inverse of G from B-inverse, IUseBI=4.

 GradGradGradGradGradGradGradGradGradGradGradGradGradGradGradGradGradGrad
 Berny optimization.
 Internal  Forces:  Max     0.056108454 RMS     0.014922348
 Search for a saddle point.
 Step number   1 out of a maximum of   50
 All quantities printed in internal units (Hartrees-Bohrs-Radians)
 Swapping is turned off.
 Second derivative matrix not updated -- analytic derivatives used.
 ITU=  0
     Eigenvalues ---   -0.25733  -0.14506  -0.09332  -0.06198  -0.02045
     Eigenvalues ---   -0.00133   0.00043   0.00621   0.01000   0.01165
     Eigenvalues ---    0.01705   0.01811   0.02153   0.02887   0.03314
     Eigenvalues ---    0.03595   0.04288   0.04567   0.04740   0.05910
     Eigenvalues ---    0.07156   0.07239   0.07733   0.08420   0.08807
     Eigenvalues ---    0.09052   0.09526   0.10393   0.10483   0.11983
     Eigenvalues ---    0.12278   0.12698   0.13531   0.15388   0.16446
     Eigenvalues ---    0.20370   0.21262   0.25960   0.28980   0.33458
     Eigenvalues ---    0.35066   0.36868   0.37245   0.37579   0.37623
     Eigenvalues ---    0.38100   0.38800   0.39668   0.40114   0.42192
     Eigenvalues ---    0.43672   0.46932   0.50871   0.53812   0.55868
     Eigenvalues ---    0.71317   0.80168   1.18774   1.21162   1.48543
 Eigenvectors required to have negative eigenvalues:
                          A7        R1        D16       D10       A3
   1                   -0.43756  -0.42696  -0.30109   0.27768   0.23846
                          R5        A1        A8        A9        D36
   1                    0.22692  -0.20670   0.19720   0.18708   0.14676
 RFO step:  Lambda0=7.416519107D-03 Lambda=-1.45066825D-01.
 Linear search not attempted -- option 19 set.
 Maximum step size (   0.100) exceeded in Quadratic search.
    -- Step size scaled by   0.243
 Iteration  1 RMS(Cart)=  0.07602952 RMS(Int)=  0.00153625
 Iteration  2 RMS(Cart)=  0.00225557 RMS(Int)=  0.00009134
 Iteration  3 RMS(Cart)=  0.00000171 RMS(Int)=  0.00009133
 Iteration  4 RMS(Cart)=  0.00000000 RMS(Int)=  0.00009133
 Variable       Old X    -DE/DX   Delta X   Delta X   Delta X     New X
                                 (Linear)    (Quad)   (Total)
    R1        4.00924  -0.04413   0.00000   0.02303   0.02303   4.03226
    R2        2.71935  -0.04058   0.00000  -0.02139  -0.02145   2.69790
    R3        2.67831  -0.04662   0.00000  -0.01980  -0.01982   2.65849
    R4        2.71966  -0.00619   0.00000  -0.00297  -0.00297   2.71670
    R5        2.78110  -0.05013   0.00000  -0.03585  -0.03585   2.74525
    R6        2.07224  -0.00134   0.00000   0.00117   0.00117   2.07341
    R7        2.06768   0.00036   0.00000  -0.00046  -0.00046   2.06722
    R8        2.66408  -0.03886   0.00000  -0.02073  -0.02068   2.64340
    R9        2.04241   0.00411   0.00000   0.00179   0.00179   2.04420
   R10        2.79206  -0.01716   0.00000  -0.01237  -0.01234   2.77972
   R11        2.05137   0.00436   0.00000   0.00106   0.00106   2.05243
   R12        2.80054  -0.00074   0.00000   0.00228   0.00228   2.80282
   R13        1.91711  -0.00123   0.00000   0.00241   0.00241   1.91951
   R14        2.59404   0.00473   0.00000   0.00877   0.00878   2.60283
   R15        2.29822  -0.03576   0.00000  -0.00609  -0.00609   2.29213
   R16        2.30297  -0.02862   0.00000  -0.00293  -0.00293   2.30003
   R17        2.55693  -0.01117   0.00000  -0.00526  -0.00526   2.55167
   R18        2.70119  -0.00379   0.00000   0.00025   0.00025   2.70144
   R19        2.06584   0.00231   0.00000   0.00080   0.00080   2.06663
   R20        2.06947   0.00234   0.00000   0.00076   0.00076   2.07023
   R21        2.07016   0.00217   0.00000   0.00183   0.00183   2.07198
   R22        2.19409  -0.01042   0.00000  -0.00149  -0.00149   2.19260
    A1        1.68745  -0.00818   0.00000   0.02585   0.02580   1.71324
    A2        1.76012  -0.00731   0.00000  -0.03068  -0.03053   1.72958
    A3        1.81481   0.01648   0.00000  -0.00276  -0.00281   1.81200
    A4        1.97602  -0.01403   0.00000  -0.01194  -0.01182   1.96420
    A5        2.08196   0.00871   0.00000   0.00113   0.00110   2.08306
    A6        2.05283   0.00354   0.00000   0.01468   0.01458   2.06740
    A7        1.82671  -0.05611   0.00000  -0.01193  -0.01200   1.81471
    A8        1.78092   0.01303   0.00000  -0.02132  -0.02144   1.75949
    A9        1.79808   0.01458   0.00000   0.00466   0.00473   1.80281
   A10        2.01058   0.01196   0.00000  -0.00200  -0.00235   2.00823
   A11        1.99959   0.01495   0.00000   0.02157   0.02153   2.02112
   A12        2.00682  -0.00586   0.00000   0.00140   0.00131   2.00813
   A13        2.20991   0.00335   0.00000  -0.00217  -0.00227   2.20763
   A14        1.91982  -0.01668   0.00000  -0.00408  -0.00415   1.91567
   A15        2.12241   0.01251   0.00000   0.01101   0.01102   2.13343
   A16        2.08307   0.00154   0.00000   0.01826   0.01823   2.10131
   A17        2.10527  -0.00194   0.00000  -0.02337  -0.02340   2.08187
   A18        2.04039   0.00136   0.00000   0.01118   0.01114   2.05153
   A19        1.71332   0.02895   0.00000   0.02357   0.02349   1.73681
   A20        2.13997  -0.01329   0.00000  -0.00559  -0.00545   2.13452
   A21        2.18927  -0.01672   0.00000  -0.00960  -0.00968   2.17960
   A22        1.82136   0.00994   0.00000   0.00958   0.00937   1.83073
   A23        1.86459  -0.00893   0.00000  -0.00616  -0.00626   1.85834
   A24        2.19417   0.02058   0.00000   0.01738   0.01743   2.21160
   A25        2.22399  -0.01156   0.00000  -0.01133  -0.01129   2.21270
   A26        2.16788   0.00471   0.00000  -0.00714  -0.00719   2.16068
   A27        1.88760   0.01642   0.00000   0.02349   0.02344   1.91104
   A28        2.22546  -0.02089   0.00000  -0.01752  -0.01756   2.20790
   A29        1.97216   0.01238   0.00000   0.00007   0.00007   1.97224
   A30        1.88720  -0.00596   0.00000  -0.00170  -0.00170   1.88550
   A31        1.93382   0.00087   0.00000   0.00314   0.00314   1.93697
   A32        1.92377  -0.00029   0.00000  -0.00600  -0.00601   1.91776
   A33        1.89290   0.00372   0.00000   0.00376   0.00376   1.89667
   A34        1.89293   0.00385   0.00000   0.00360   0.00360   1.89653
   A35        1.93190  -0.00213   0.00000  -0.00260  -0.00260   1.92931
   A36        3.11823  -0.00543   0.00000  -0.00440  -0.00440   3.11383
   A37        3.16385  -0.00107   0.00000  -0.00171  -0.00171   3.16214
    D1        0.83814  -0.00940   0.00000   0.01311   0.01288   0.85102
    D2        2.93922  -0.01304   0.00000  -0.00302  -0.00308   2.93614
    D3       -1.25814  -0.00892   0.00000  -0.00798  -0.00813  -1.26626
    D4       -1.17339   0.00901   0.00000   0.02539   0.02549  -1.14790
    D5        0.92770   0.00537   0.00000   0.00926   0.00953   0.93723
    D6        3.01352   0.00948   0.00000   0.00430   0.00449   3.01801
    D7        2.97552   0.00183   0.00000   0.02306   0.02293   2.99845
    D8       -1.20658  -0.00181   0.00000   0.00692   0.00697  -1.19961
    D9        0.87925   0.00230   0.00000   0.00196   0.00193   0.88117
   D10       -1.35533   0.01967   0.00000   0.00935   0.00941  -1.34592
   D11        1.12167   0.01457   0.00000   0.01704   0.01715   1.13883
   D12        0.47481   0.00435   0.00000  -0.01533  -0.01531   0.45950
   D13        2.95181  -0.00075   0.00000  -0.00765  -0.00757   2.94424
   D14        3.00521   0.00236   0.00000  -0.00428  -0.00434   3.00087
   D15       -0.80097  -0.00274   0.00000   0.00340   0.00340  -0.79757
   D16        1.45370  -0.01504   0.00000   0.01540   0.01561   1.46932
   D17       -0.32984   0.00173   0.00000   0.00447   0.00436  -0.32548
   D18       -2.87118   0.00160   0.00000  -0.00150  -0.00155  -2.87273
   D19       -1.69512  -0.00218   0.00000  -0.01753  -0.01749  -1.71261
   D20        1.80565  -0.00551   0.00000  -0.03924  -0.03922   1.76643
   D21        2.64750   0.01067   0.00000   0.01617   0.01621   2.66372
   D22       -0.13491   0.00734   0.00000  -0.00553  -0.00552  -0.14043
   D23        0.26084  -0.01140   0.00000  -0.00903  -0.00907   0.25177
   D24       -2.52157  -0.01473   0.00000  -0.03074  -0.03080  -2.55238
   D25        2.97319  -0.00104   0.00000  -0.00092  -0.00072   2.97247
   D26        0.52299   0.00155   0.00000  -0.01174  -0.01162   0.51137
   D27       -0.43266  -0.00296   0.00000   0.02061   0.02079  -0.41187
   D28       -2.88286  -0.00038   0.00000   0.00980   0.00989  -2.87297
   D29        0.27560  -0.00359   0.00000  -0.02665  -0.02653   0.24907
   D30       -2.89562  -0.00078   0.00000  -0.03073  -0.03074  -2.92636
   D31       -3.11470  -0.00672   0.00000  -0.00857  -0.00833  -3.12304
   D32       -0.00274  -0.00391   0.00000  -0.01265  -0.01254  -0.01528
   D33        0.04419   0.00199   0.00000  -0.00086  -0.00090   0.04329
   D34       -3.03003  -0.00084   0.00000   0.01725   0.01726  -3.01277
   D35       -2.74669  -0.00132   0.00000  -0.02369  -0.02370  -2.77038
   D36        0.46229  -0.00415   0.00000  -0.00558  -0.00554   0.45674
   D37        0.03030   0.00136   0.00000   0.01344   0.01349   0.04379
   D38       -3.08100  -0.00223   0.00000   0.01697   0.01707  -3.06394
   D39        3.00758   0.00274   0.00000  -0.01999  -0.01994   2.98764
   D40       -0.06376  -0.00156   0.00000  -0.00171  -0.00176  -0.06552
   D41        3.09797   0.00021   0.00000   0.00820   0.00820   3.10617
   D42        1.02573  -0.00117   0.00000   0.00283   0.00282   1.02856
   D43       -1.11873   0.00115   0.00000   0.00811   0.00812  -1.11062
         Item               Value     Threshold  Converged?
 Maximum Force            0.056108     0.000450     NO 
 RMS     Force            0.014922     0.000300     NO 
 Maximum Displacement     0.245084     0.001800     NO 
 RMS     Displacement     0.076342     0.001200     NO 
 Predicted change in Energy=-9.141673D-03
 Optimization stopped.
    -- Wrong number of Negative eigenvalues: Desired=  1 Actual=  6
    -- Flag reset to prevent archiving.
                           ----------------------------
                           ! Non-Optimized Parameters !
                           ! (Angstroms and Degrees)  !
 --------------------------                            --------------------------
 ! Name  Definition              Value          Derivative Info.                !
 --------------------------------------------------------------------------------
 ! R1    R(1,2)                  2.1338         -DE/DX =   -0.0441              !
 ! R2    R(1,5)                  1.4277         -DE/DX =   -0.0406              !
 ! R3    R(1,10)                 1.4068         -DE/DX =   -0.0466              !
 ! R4    R(1,20)                 1.4376         -DE/DX =   -0.0062              !
 ! R5    R(2,4)                  1.4527         -DE/DX =   -0.0501              !
 ! R6    R(2,6)                  1.0972         -DE/DX =   -0.0013              !
 ! R7    R(2,7)                  1.0939         -DE/DX =    0.0004              !
 ! R8    R(3,5)                  1.3988         -DE/DX =   -0.0389              !
 ! R9    R(3,8)                  1.0817         -DE/DX =    0.0041              !
 ! R10   R(3,11)                 1.471          -DE/DX =   -0.0172              !
 ! R11   R(4,9)                  1.0861         -DE/DX =    0.0044              !
 ! R12   R(4,13)                 1.4832         -DE/DX =   -0.0007              !
 ! R13   R(5,22)                 1.0158         -DE/DX =   -0.0012              !
 ! R14   R(10,11)                1.3774         -DE/DX =    0.0047              !
 ! R15   R(11,12)                1.2129         -DE/DX =   -0.0358              !
 ! R16   R(13,14)                1.2171         -DE/DX =   -0.0286              !
 ! R17   R(13,15)                1.3503         -DE/DX =   -0.0112              !
 ! R18   R(15,16)                1.4295         -DE/DX =   -0.0038              !
 ! R19   R(16,17)                1.0936         -DE/DX =    0.0023              !
 ! R20   R(16,18)                1.0955         -DE/DX =    0.0023              !
 ! R21   R(16,19)                1.0964         -DE/DX =    0.0022              !
 ! R22   R(20,21)                1.1603         -DE/DX =   -0.0104              !
 ! A1    A(2,1,5)               98.1616         -DE/DX =   -0.0082              !
 ! A2    A(2,1,10)              99.0979         -DE/DX =   -0.0073              !
 ! A3    A(2,1,20)             103.82           -DE/DX =    0.0165              !
 ! A4    A(5,1,10)             112.5406         -DE/DX =   -0.014               !
 ! A5    A(5,1,20)             119.3507         -DE/DX =    0.0087              !
 ! A6    A(10,1,20)            118.4534         -DE/DX =    0.0035              !
 ! A7    A(1,2,4)              103.9754         -DE/DX =   -0.0561              !
 ! A8    A(1,2,6)              100.8112         -DE/DX =    0.013               !
 ! A9    A(1,2,7)              103.2932         -DE/DX =    0.0146              !
 ! A10   A(4,2,6)              115.0631         -DE/DX =    0.012               !
 ! A11   A(4,2,7)              115.8019         -DE/DX =    0.0149              !
 ! A12   A(6,2,7)              115.0572         -DE/DX =   -0.0059              !
 ! A13   A(5,3,8)              126.4882         -DE/DX =    0.0034              !
 ! A14   A(5,3,11)             109.76           -DE/DX =   -0.0167              !
 ! A15   A(8,3,11)             122.2363         -DE/DX =    0.0125              !
 ! A16   A(2,4,9)              120.3961         -DE/DX =    0.0015              !
 ! A17   A(2,4,13)             119.2821         -DE/DX =   -0.0019              !
 ! A18   A(9,4,13)             117.5438         -DE/DX =    0.0014              !
 ! A19   A(1,5,3)               99.512          -DE/DX =    0.0289              !
 ! A20   A(1,5,22)             122.2992         -DE/DX =   -0.0133              !
 ! A21   A(3,5,22)             124.8816         -DE/DX =   -0.0167              !
 ! A22   A(1,10,11)            104.8931         -DE/DX =    0.0099              !
 ! A23   A(3,11,10)            106.4748         -DE/DX =   -0.0089              !
 ! A24   A(3,11,12)            126.7154         -DE/DX =    0.0206              !
 ! A25   A(10,11,12)           126.7784         -DE/DX =   -0.0116              !
 ! A26   A(4,13,14)            123.7981         -DE/DX =    0.0047              !
 ! A27   A(4,13,15)            109.4943         -DE/DX =    0.0164              !
 ! A28   A(14,13,15)           126.5032         -DE/DX =   -0.0209              !
 ! A29   A(13,15,16)           113.0008         -DE/DX =    0.0124              !
 ! A30   A(15,16,17)           108.031          -DE/DX =   -0.006               !
 ! A31   A(15,16,18)           110.98           -DE/DX =    0.0009              !
 ! A32   A(15,16,19)           109.8798         -DE/DX =   -0.0003              !
 ! A33   A(17,16,18)           108.671          -DE/DX =    0.0037              !
 ! A34   A(17,16,19)           108.6633         -DE/DX =    0.0038              !
 ! A35   A(18,16,19)           110.5411         -DE/DX =   -0.0021              !
 ! A36   L(1,20,21,7,-1)       178.4091         -DE/DX =   -0.0054              !
 ! A37   L(1,20,21,7,-2)       181.1773         -DE/DX =   -0.0011              !
 ! D1    D(5,1,2,4)             48.7596         -DE/DX =   -0.0094              !
 ! D2    D(5,1,2,6)            168.2285         -DE/DX =   -0.013               !
 ! D3    D(5,1,2,7)            -72.5515         -DE/DX =   -0.0089              !
 ! D4    D(10,1,2,4)           -65.7698         -DE/DX =    0.009               !
 ! D5    D(10,1,2,6)            53.6991         -DE/DX =    0.0054              !
 ! D6    D(10,1,2,7)           172.9191         -DE/DX =    0.0095              !
 ! D7    D(20,1,2,4)           171.7987         -DE/DX =    0.0018              !
 ! D8    D(20,1,2,6)           -68.7324         -DE/DX =   -0.0018              !
 ! D9    D(20,1,2,7)            50.4876         -DE/DX =    0.0023              !
 ! D10   D(2,1,5,3)            -77.1157         -DE/DX =    0.0197              !
 ! D11   D(2,1,5,22)            65.2499         -DE/DX =    0.0146              !
 ! D12   D(10,1,5,3)            26.3272         -DE/DX =    0.0044              !
 ! D13   D(10,1,5,22)          168.6928         -DE/DX =   -0.0007              !
 ! D14   D(20,1,5,3)           171.9373         -DE/DX =    0.0024              !
 ! D15   D(20,1,5,22)          -45.6971         -DE/DX =   -0.0027              !
 ! D16   D(2,1,10,11)           84.1857         -DE/DX =   -0.015               !
 ! D17   D(5,1,10,11)          -18.6484         -DE/DX =    0.0017              !
 ! D18   D(20,1,10,11)        -164.5955         -DE/DX =    0.0016              !
 ! D19   D(1,2,4,9)            -98.1255         -DE/DX =   -0.0022              !
 ! D20   D(1,2,4,13)           101.2087         -DE/DX =   -0.0055              !
 ! D21   D(6,2,4,9)            152.6196         -DE/DX =    0.0107              !
 ! D22   D(6,2,4,13)            -8.0461         -DE/DX =    0.0073              !
 ! D23   D(7,2,4,9)             14.4254         -DE/DX =   -0.0114              !
 ! D24   D(7,2,4,13)          -146.2404         -DE/DX =   -0.0147              !
 ! D25   D(8,3,5,1)            170.3099         -DE/DX =   -0.001               !
 ! D26   D(8,3,5,22)            29.2995         -DE/DX =    0.0015              !
 ! D27   D(11,3,5,1)           -23.5987         -DE/DX =   -0.003               !
 ! D28   D(11,3,5,22)         -164.609          -DE/DX =   -0.0004              !
 ! D29   D(5,3,11,10)           14.2705         -DE/DX =   -0.0036              !
 ! D30   D(5,3,11,12)         -167.6683         -DE/DX =   -0.0008              !
 ! D31   D(8,3,11,10)         -178.9367         -DE/DX =   -0.0067              !
 ! D32   D(8,3,11,12)           -0.8755         -DE/DX =   -0.0039              !
 ! D33   D(2,4,13,14)            2.4803         -DE/DX =    0.002               !
 ! D34   D(2,4,13,15)         -172.6191         -DE/DX =   -0.0008              !
 ! D35   D(9,4,13,14)         -158.7311         -DE/DX =   -0.0013              !
 ! D36   D(9,4,13,15)           26.1694         -DE/DX =   -0.0042              !
 ! D37   D(1,10,11,3)            2.509          -DE/DX =    0.0014              !
 ! D38   D(1,10,11,12)        -175.5507         -DE/DX =   -0.0022              !
 ! D39   D(4,13,15,16)         171.1794         -DE/DX =    0.0027              !
 ! D40   D(14,13,15,16)         -3.7539         -DE/DX =   -0.0016              !
 ! D41   D(13,15,16,17)        177.9702         -DE/DX =    0.0002              !
 ! D42   D(13,15,16,18)         58.9319         -DE/DX =   -0.0012              !
 ! D43   D(13,15,16,19)        -63.6336         -DE/DX =    0.0011              !
 --------------------------------------------------------------------------------
 GradGradGradGradGradGradGradGradGradGradGradGradGradGradGradGradGradGrad

                          Input orientation:                          
 ---------------------------------------------------------------------
 Center     Atomic      Atomic             Coordinates (Angstroms)
 Number     Number       Type             X           Y           Z
 ---------------------------------------------------------------------
      1          6           0        1.926000    0.172200   -0.005000
      2          6           0        0.733200   -1.561000    0.267800
      3          6           0        0.411200    1.255500    1.075000
      4          6           0       -0.531000   -1.058600    0.829300
      5          7           0        1.702500    0.736400    1.299800
      6          1           0        0.666400   -1.955700   -0.753100
      7          1           0        1.329700   -2.164600    0.958500
      8          1           0       -0.259300    1.660800    1.819500
      9          1           0       -0.684800   -1.087500    1.903500
     10          8           0        1.205100    0.833400   -1.030600
     11          6           0        0.213600    1.511900   -0.366600
     12          8           0       -0.683400    2.173100   -0.853700
     13          6           0       -1.741100   -0.944600   -0.018600
     14          8           0       -1.793800   -1.287000   -1.187000
     15          8           0       -2.705800   -0.329900    0.704100
     16          6           0       -3.864000   -0.008700   -0.069600
     17          1           0       -4.604600    0.440700    0.597200
     18          1           0       -4.298500   -0.911200   -0.512300
     19          1           0       -3.609900    0.720000   -0.847100
     20          6           0        3.226700   -0.349000   -0.333300
     21          7           0        4.276400   -0.786700   -0.567000
     22          1           0        2.014000    0.283000    2.152200
 ---------------------------------------------------------------------
                    Distance matrix (angstroms):
                    1          2          3          4          5
     1  C    0.000000
     2  C    2.121597   0.000000
     3  C    2.152802   2.947529   0.000000
     4  C    2.871894   1.471696   2.510611   0.000000
     5  N    1.439019   2.698632   1.409771   2.903776   0.000000
     6  H    2.583448   1.096580   3.703901   2.177738   3.540523
     7  H    2.597025   1.094172   3.543205   2.168440   2.944701
     8  H    3.212517   3.711176   1.080795   2.906794   2.230081
     9  H    3.470662   2.215951   2.716114   1.085539   3.064354
    10  O    1.417299   2.764360   2.289541   3.170636   2.384865
    11  C    2.204056   3.180434   1.477497   2.931224   2.365399
    12  O    3.396007   4.148255   2.400005   3.646862   3.520538
    13  C    3.833412   2.565957   3.266312   1.481983   4.052446
    14  O    4.166929   2.928694   4.054994   2.390041   4.743673
    15  O    4.712589   3.678680   3.516639   2.297049   4.574381
    16  C    5.793185   4.863920   4.602787   3.608213   5.780688
    17  H    6.563800   5.710290   5.103963   4.346952   6.352999
    18  H    6.338415   5.133108   5.421751   4.001959   6.481535
    19  H    5.626314   5.030753   4.488928   3.931076   5.729838
    20  C    1.439184   2.836866   3.533379   3.996934   2.483605
    21  N    2.599945   3.721653   4.669745   5.013450   3.525583
    22  H    2.161835   2.931168   2.162194   3.166541   1.014490
                    6          7          8          9         10
     6  H    0.000000
     7  H    1.847480   0.000000
     8  H    4.533681   4.230831   0.000000
     9  H    3.104358   2.472120   2.782312   0.000000
    10  O    2.854169   3.600007   3.309400   3.983782   0.000000
    11  C    3.518332   4.064261   2.241615   3.566140   1.372709
    12  O    4.345005   5.113930   2.754689   4.270090   2.322180
    13  C    2.712539   3.445713   3.516028   2.197876   3.586854
    14  O    2.586119   3.889679   4.481435   3.289509   3.676134
    15  O    4.017262   4.440282   3.345499   2.469202   4.433688
    16  C    4.978203   5.716591   4.398840   3.894130   5.227660
    17  H    5.945543   6.491074   4.675927   4.405298   6.046202
    18  H    5.079291   5.950706   5.326125   4.350402   5.796713
    19  H    5.045290   5.998396   4.384334   4.403302   4.819830
    20  C    3.051697   2.926390   4.563556   4.566015   2.443596
    21  N    3.799118   3.592882   5.679631   5.550437   3.503217
    22  H    3.907502   2.807834   2.678976   3.037045   3.329786
                   11         12         13         14         15
    11  C    0.000000
    12  O    1.216166   0.000000
    13  C    3.158536   3.396494   0.000000
    14  O    3.540699   3.649160   1.218677   0.000000
    15  O    3.614073   3.575172   1.353070   2.307389   0.000000
    16  C    4.362024   3.935896   2.320606   2.677380   1.429408
    17  H    5.029059   4.525719   3.240046   3.750855   2.051997
    18  H    5.123640   4.764285   2.604832   2.621062   2.086680
    19  H    3.934099   3.267407   2.636232   2.727966   2.079882
    20  C    3.541586   4.681953   5.013264   5.178230   6.022551
    21  N    4.672266   5.782926   6.044500   6.122257   7.111644
    22  H    3.331064   4.459134   4.507788   5.302311   4.974852
                   16         17         18         19         20
    16  C    0.000000
    17  H    1.093193   0.000000
    18  H    1.095116   1.775478   0.000000
    19  H    1.095480   1.775793   1.801964   0.000000
    20  C    7.103757   7.925826   7.548294   6.938721   0.000000
    21  N    8.192607   9.040688   8.575978   8.033824   1.161063
    22  H    6.290657   6.800644   6.955094   6.388663   2.836860
                   21         22
    21  N    0.000000
    22  H    3.695505   0.000000
 Stoichiometry    C8H8N2O4
 Framework group  C1[X(C8H8N2O4)]
 Deg. of freedom    60
 Full point group                 C1      NOp   1
 Largest Abelian subgroup         C1      NOp   1
 Largest concise Abelian subgroup C1      NOp   1
                         Standard orientation:                         
 ---------------------------------------------------------------------
 Center     Atomic      Atomic             Coordinates (Angstroms)
 Number     Number       Type             X           Y           Z
 ---------------------------------------------------------------------
      1          6           0        1.901595    0.103954    0.015435
      2          6           0        0.662124   -1.607415    0.205441
      3          6           0        0.407708    1.179062    1.132128
      4          6           0       -0.592612   -1.096648    0.780457
      5          7           0        1.683388    0.616915    1.342097
      6          1           0        0.592488   -1.955723   -0.832018
      7          1           0        1.237674   -2.255800    0.872937
      8          1           0       -0.257403    1.569313    1.889393
      9          1           0       -0.754911   -1.167894    1.851428
     10          8           0        1.205623    0.827616   -0.984902
     11          6           0        0.227327    1.502648   -0.298170
     12          8           0       -0.648592    2.207669   -0.761604
     13          6           0       -1.793143   -0.914287   -0.069097
     14          8           0       -1.846252   -1.204357   -1.251558
     15          8           0       -2.746736   -0.306217    0.673673
     16          6           0       -3.890530    0.078505   -0.092442
     17          1           0       -4.624003    0.518004    0.588682
     18          1           0       -4.345153   -0.792264   -0.576548
     19          1           0       -3.611903    0.833189   -0.836012
     20          6           0        3.190634   -0.436629   -0.327198
     21          7           0        4.230253   -0.891301   -0.573236
     22          1           0        1.976778    0.119051    2.175910
 ---------------------------------------------------------------------
 Rotational constants (GHZ):           1.3537180           0.4678392           0.4214048
 Rotating derivatives to standard orientation.
 Full mass-weighted force constant matrix:
 Low frequencies --- -630.7848 -479.0799  -88.6429  -84.5993  -66.6416  -55.0065
 Low frequencies ---   -0.0457    0.0209    0.0360
 ******    5 imaginary frequencies (negative Signs) ****** 
 Diagonal vibrational polarizability:
        0.0000000       0.0000000       0.0000000
 Harmonic frequencies (cm**-1), IR intensities (KM/Mole), Raman scattering
 activities (A**4/AMU), depolarization ratios for plane and unpolarized
 incident light, reduced masses (AMU), force constants (mDyne/A),
 and normal coordinates:
                      1                      2                      3
                      A                      A                      A
 Frequencies --   -630.7100              -477.2537               -78.0706
 Red. masses --      9.8900                 1.0163                 4.0500
 Frc consts  --      2.3180                 0.1364                 0.0145
 IR Inten    --      0.0000                 0.0000                 0.0000
  Atom  AN      X      Y      Z        X      Y      Z        X      Y      Z
     1   6     0.27   0.41  -0.00    -0.00   0.00   0.00     0.03   0.06  -0.01
     2   6    -0.36  -0.36   0.11     0.00  -0.00  -0.01     0.01  -0.04  -0.03
     3   6     0.18   0.29   0.01    -0.00  -0.01   0.01    -0.12  -0.15  -0.02
     4   6    -0.08  -0.40  -0.04     0.00  -0.00  -0.00     0.02  -0.05  -0.00
     5   7    -0.04  -0.03  -0.07    -0.00  -0.00   0.00    -0.06  -0.03   0.00
     6   1     0.08   0.03  -0.03     0.00   0.00  -0.01     0.01  -0.02  -0.03
     7   1     0.12   0.08   0.07     0.00  -0.00  -0.01     0.04  -0.03  -0.04
     8   1     0.05  -0.01   0.04    -0.00  -0.01   0.01    -0.16  -0.21  -0.02
     9   1    -0.01   0.25   0.02    -0.00  -0.01  -0.01     0.03  -0.09  -0.00
    10   8     0.01   0.01   0.03     0.00   0.00   0.00     0.02   0.05   0.00
    11   6    -0.00   0.03   0.05    -0.00   0.00   0.01    -0.08  -0.08  -0.01
    12   8    -0.02  -0.01  -0.01    -0.00   0.00   0.01    -0.08  -0.09  -0.01
    13   6    -0.03  -0.04  -0.02     0.00  -0.00  -0.00    -0.00  -0.06   0.02
    14   8    -0.02   0.02  -0.03     0.00   0.00  -0.01    -0.06  -0.15   0.05
    15   8     0.01   0.01  -0.00     0.00   0.01  -0.00     0.06   0.05   0.01
    16   6     0.00   0.01   0.00    -0.00  -0.01  -0.00     0.17   0.31  -0.02
    17   1     0.01   0.01   0.01     0.23   0.51  -0.08     0.22   0.40  -0.04
    18   1     0.00   0.01   0.00    -0.31  -0.12   0.48     0.01   0.44  -0.12
    19   1     0.00   0.01   0.00     0.07  -0.43  -0.40     0.38   0.30   0.05
    20   6     0.04   0.05   0.00     0.00   0.00  -0.00     0.04   0.08   0.00
    21   7     0.00  -0.04  -0.01     0.00   0.01  -0.00     0.04   0.08   0.01
    22   1     0.22   0.22  -0.02    -0.00  -0.01   0.00    -0.05  -0.05  -0.01
                      4                      5                      6
                      A                      A                      A
 Frequencies --    -63.7708               -48.1996                74.5864
 Red. masses --      4.9021                 8.5604                 8.1888
 Frc consts  --      0.0117                 0.0117                 0.0268
 IR Inten    --      0.0000                 0.0000                 0.0000
  Atom  AN      X      Y      Z        X      Y      Z        X      Y      Z
     1   6     0.09   0.08  -0.00    -0.04  -0.04   0.01    -0.11  -0.10  -0.00
     2   6    -0.02  -0.02  -0.10     0.03  -0.03   0.04     0.01  -0.02  -0.07
     3   6    -0.14  -0.16  -0.09    -0.04   0.02  -0.06     0.02   0.14  -0.05
     4   6     0.01  -0.01  -0.08     0.01  -0.06   0.04    -0.02  -0.10  -0.05
     5   7    -0.08  -0.03  -0.00    -0.04   0.03  -0.02    -0.07  -0.00  -0.01
     6   1     0.00   0.05  -0.13     0.03  -0.03   0.03    -0.00  -0.03  -0.06
     7   1    -0.02  -0.05  -0.13     0.02  -0.04   0.04     0.03  -0.02  -0.07
     8   1    -0.23  -0.25  -0.12    -0.03   0.08  -0.08    -0.00   0.16  -0.08
     9   1     0.02  -0.08  -0.08    -0.00  -0.12   0.03     0.04  -0.07  -0.04
    10   8     0.14   0.08  -0.02    -0.04  -0.10  -0.04    -0.03  -0.05  -0.04
    11   6     0.01  -0.05  -0.08    -0.06  -0.08  -0.08     0.10   0.16  -0.06
    12   8     0.08   0.01  -0.13    -0.11  -0.18  -0.13     0.26   0.35  -0.07
    13   6    -0.03   0.05  -0.03     0.04   0.03   0.02    -0.06  -0.18   0.01
    14   8    -0.13   0.07  -0.02     0.19   0.48  -0.10    -0.10  -0.13  -0.00
    15   8     0.04   0.06   0.07    -0.07  -0.27   0.13    -0.07  -0.29   0.09
    16   6    -0.12  -0.09   0.24     0.09   0.13   0.10     0.07   0.11   0.09
    17   1    -0.06  -0.20   0.37     0.18   0.27   0.10     0.18   0.25   0.12
    18   1    -0.08  -0.16   0.32    -0.14   0.32  -0.02    -0.19   0.31  -0.03
    19   1    -0.37  -0.05   0.19     0.37   0.12   0.19     0.34   0.11   0.20
    20   6     0.09   0.04   0.08    -0.01  -0.01   0.04    -0.05  -0.01   0.04
    21   7     0.08  -0.02   0.15     0.02   0.04   0.07     0.02   0.11   0.10
    22   1    -0.10  -0.05  -0.01    -0.05   0.06   0.00    -0.12   0.00   0.01
                      7                      8                      9
                      A                      A                      A
 Frequencies --    103.4135               115.3803               130.8317
 Red. masses --      7.1284                 8.7537                 8.1227
 Frc consts  --      0.0449                 0.0687                 0.0819
 IR Inten    --      0.0000                 0.0000                 0.0000
  Atom  AN      X      Y      Z        X      Y      Z        X      Y      Z
     1   6    -0.08  -0.16   0.03    -0.04  -0.16   0.00    -0.16  -0.02   0.01
     2   6     0.03   0.03  -0.14    -0.11  -0.16   0.15     0.13  -0.12  -0.01
     3   6     0.21   0.23   0.06    -0.05  -0.14  -0.02    -0.13   0.05  -0.01
     4   6    -0.01  -0.03  -0.16    -0.09  -0.10   0.14     0.10  -0.20  -0.01
     5   7     0.08   0.01   0.01    -0.06  -0.15  -0.00    -0.15   0.02  -0.00
     6   1     0.05   0.06  -0.16    -0.12  -0.18   0.16     0.15  -0.10  -0.02
     7   1    -0.04  -0.05  -0.15    -0.12  -0.14   0.17     0.16  -0.11  -0.02
     8   1     0.29   0.36   0.06    -0.07  -0.13  -0.04    -0.16   0.01  -0.03
     9   1     0.01  -0.03  -0.16    -0.13  -0.09   0.13     0.07  -0.26  -0.02
    10   8    -0.10  -0.19   0.01    -0.06  -0.20  -0.02    -0.17  -0.05  -0.01
    11   6     0.03  -0.02   0.03     0.02  -0.08  -0.03    -0.11   0.06  -0.02
    12   8    -0.11  -0.19   0.03     0.17   0.09  -0.04    -0.02   0.16  -0.02
    13   6    -0.03   0.01  -0.12    -0.03   0.05   0.08     0.17  -0.03  -0.04
    14   8    -0.17  -0.05  -0.09     0.05   0.12   0.06     0.16   0.04  -0.05
    15   8     0.09   0.12  -0.04    -0.00   0.21  -0.02     0.32   0.22  -0.04
    16   6    -0.04   0.06   0.14    -0.05  -0.04  -0.08     0.14  -0.04   0.11
    17   1     0.05  -0.01   0.28    -0.16  -0.12  -0.15     0.16  -0.17   0.22
    18   1    -0.07   0.05   0.19     0.13  -0.18  -0.02     0.25  -0.15   0.21
    19   1    -0.22   0.11   0.12    -0.17  -0.06  -0.14    -0.15   0.00   0.04
    20   6     0.01  -0.01   0.06     0.05   0.08  -0.04    -0.17  -0.04   0.02
    21   7     0.13   0.20   0.17     0.18   0.43  -0.15    -0.19  -0.11   0.07
    22   1     0.09   0.07   0.05    -0.07  -0.15   0.00    -0.16   0.04   0.01
                     10                     11                     12
                      A                      A                      A
 Frequencies --    185.3490               248.9766               308.8214
 Red. masses --      9.3475                 3.1353                 6.9683
 Frc consts  --      0.1892                 0.1145                 0.3916
 IR Inten    --      0.0000                 0.0000                 0.0000
  Atom  AN      X      Y      Z        X      Y      Z        X      Y      Z
     1   6    -0.01   0.01  -0.29     0.03   0.03  -0.03    -0.13  -0.14  -0.06
     2   6    -0.05  -0.04  -0.03    -0.02  -0.01   0.19    -0.13   0.01  -0.07
     3   6     0.07  -0.13  -0.06    -0.02  -0.07  -0.00     0.06   0.10  -0.02
     4   6     0.01   0.01   0.06    -0.04   0.10  -0.00    -0.09  -0.07   0.12
     5   7     0.10  -0.08  -0.23     0.03   0.01  -0.03    -0.06  -0.14  -0.02
     6   1    -0.16  -0.08  -0.02     0.09  -0.24   0.26    -0.33   0.10  -0.10
     7   1     0.04   0.00  -0.08    -0.06   0.14   0.38    -0.06  -0.10  -0.25
     8   1     0.14  -0.19   0.03    -0.00  -0.08   0.02     0.09   0.15  -0.02
     9   1     0.08   0.03   0.07    -0.16   0.27  -0.01    -0.04  -0.12   0.12
    10   8    -0.14   0.04  -0.19    -0.04  -0.03  -0.02     0.19   0.26  -0.01
    11   6    -0.06   0.00  -0.02    -0.03  -0.03   0.01     0.10   0.14  -0.02
    12   8    -0.10   0.13   0.23     0.01   0.04   0.06    -0.08  -0.10  -0.06
    13   6     0.00   0.03   0.10     0.00   0.01  -0.14    -0.03  -0.05   0.04
    14   8     0.04   0.05   0.08     0.11  -0.08  -0.12     0.31  -0.11   0.04
    15   8    -0.04   0.02   0.04     0.01  -0.05  -0.09    -0.01   0.04  -0.04
    16   6     0.01  -0.04  -0.10    -0.09   0.08   0.16    -0.08   0.05   0.10
    17   1    -0.09  -0.02  -0.22     0.11   0.06   0.39     0.02   0.02   0.24
    18   1     0.11  -0.08  -0.11    -0.28   0.18   0.16    -0.17   0.08   0.14
    19   1     0.09  -0.07  -0.11    -0.22   0.16   0.18    -0.21   0.10   0.10
    20   6     0.03   0.01  -0.12     0.02   0.02  -0.04    -0.10  -0.11  -0.03
    21   7     0.15  -0.04   0.49     0.02  -0.00   0.00     0.01   0.10   0.04
    22   1     0.20  -0.12  -0.29     0.06   0.00  -0.04    -0.20  -0.26  -0.04
                     13                     14                     15
                      A                      A                      A
 Frequencies --    337.6379               407.0218               433.1083
 Red. masses --      3.8150                 3.4622                 7.6633
 Frc consts  --      0.2562                 0.3379                 0.8469
 IR Inten    --      0.0000                 0.0000                 0.0000
  Atom  AN      X      Y      Z        X      Y      Z        X      Y      Z
     1   6     0.08   0.08   0.05    -0.01   0.02  -0.01     0.03  -0.06   0.10
     2   6    -0.10   0.06  -0.22    -0.09  -0.15  -0.05    -0.07  -0.09  -0.04
     3   6    -0.03  -0.02   0.02    -0.01   0.03   0.03    -0.04   0.09  -0.20
     4   6     0.01   0.04   0.02     0.11   0.24  -0.07     0.03   0.08  -0.03
     5   7     0.01   0.05   0.02    -0.07  -0.15   0.01    -0.16   0.03   0.01
     6   1    -0.25   0.46  -0.34    -0.18  -0.30   0.01    -0.11  -0.10  -0.04
     7   1    -0.06  -0.19  -0.51    -0.09  -0.10  -0.01    -0.08  -0.11  -0.06
     8   1    -0.01  -0.00   0.02     0.09   0.10   0.07    -0.19   0.23  -0.40
     9   1     0.09  -0.11   0.02     0.21   0.69  -0.03     0.10   0.30  -0.01
    10   8    -0.11  -0.17   0.01    -0.05  -0.00   0.04     0.15  -0.09  -0.13
    11   6    -0.05  -0.08   0.02    -0.01   0.05   0.06     0.09  -0.03  -0.28
    12   8     0.06   0.03  -0.02     0.00  -0.03  -0.09    -0.18   0.09   0.37
    13   6    -0.01   0.05   0.03     0.09   0.15  -0.03     0.03   0.05  -0.00
    14   8     0.21  -0.08   0.05     0.00  -0.04   0.02     0.02  -0.02   0.01
    15   8    -0.05   0.00  -0.01     0.03  -0.06   0.06     0.01  -0.01   0.03
    16   6    -0.07   0.04   0.03     0.08  -0.04  -0.00     0.03  -0.02   0.01
    17   1    -0.02   0.05   0.08     0.03  -0.01  -0.08     0.01  -0.00  -0.02
    18   1    -0.12   0.07   0.04     0.11  -0.05  -0.02     0.04  -0.02   0.00
    19   1    -0.08   0.06   0.04     0.15  -0.07  -0.00     0.05  -0.02   0.01
    20   6     0.06   0.07   0.04    -0.04   0.00  -0.01     0.08  -0.04   0.24
    21   7    -0.00  -0.05  -0.01    -0.02   0.04   0.02     0.02  -0.00  -0.13
    22   1     0.09   0.13   0.03    -0.11  -0.21  -0.01    -0.20   0.16   0.10
                     16                     17                     18
                      A                      A                      A
 Frequencies --    502.4393               519.1003               580.8226
 Red. masses --      5.1452                 4.6892                 3.1030
 Frc consts  --      0.7653                 0.7445                 0.6168
 IR Inten    --      0.0000                 0.0000                 0.0000
  Atom  AN      X      Y      Z        X      Y      Z        X      Y      Z
     1   6     0.02  -0.00  -0.03     0.01   0.01  -0.02    -0.06  -0.03   0.02
     2   6     0.19   0.02   0.03    -0.19   0.25   0.06    -0.06  -0.11   0.02
     3   6     0.03   0.07  -0.02     0.02   0.01  -0.00     0.02  -0.06  -0.01
     4   6     0.06  -0.06  -0.04    -0.17   0.07   0.14    -0.02  -0.00   0.02
     5   7    -0.13  -0.22   0.05    -0.06  -0.12   0.02     0.08   0.12   0.04
     6   1     0.31  -0.14   0.08    -0.34   0.43  -0.00    -0.04   0.08  -0.04
     7   1     0.15   0.14   0.19    -0.09   0.15  -0.13    -0.21  -0.33  -0.06
     8   1     0.05   0.15  -0.04     0.02   0.05  -0.02    -0.37  -0.59  -0.09
     9   1     0.10  -0.17  -0.04    -0.30   0.08   0.12    -0.17  -0.35  -0.02
    10   8    -0.07  -0.07  -0.03    -0.03  -0.05  -0.04     0.01  -0.04  -0.05
    11   6     0.11   0.16  -0.02     0.05   0.03  -0.01     0.19   0.14  -0.02
    12   8    -0.05  -0.03  -0.02     0.00  -0.02   0.00     0.01  -0.08   0.02
    13   6    -0.03   0.00   0.06    -0.01  -0.13  -0.07     0.06   0.13  -0.05
    14   8     0.03   0.00   0.06    -0.05   0.02  -0.11    -0.02  -0.03  -0.00
    15   8    -0.09   0.03  -0.03     0.16  -0.01   0.04    -0.00  -0.04   0.01
    16   6    -0.12   0.05  -0.01     0.19  -0.08   0.04     0.02  -0.01   0.00
    17   1    -0.07   0.04   0.05     0.11  -0.08  -0.05     0.01   0.01  -0.01
    18   1    -0.17   0.07  -0.00     0.27  -0.12   0.03     0.01   0.00  -0.01
    19   1    -0.16   0.07  -0.00     0.21  -0.11   0.01     0.04  -0.01   0.01
    20   6     0.17   0.30  -0.02     0.08   0.14  -0.02    -0.05   0.15  -0.06
    21   7    -0.02  -0.14  -0.01    -0.00  -0.07  -0.00    -0.11   0.01   0.04
    22   1    -0.33  -0.45  -0.01    -0.13  -0.22  -0.01     0.03   0.04   0.02
                     19                     20                     21
                      A                      A                      A
 Frequencies --    582.0343               595.5613               616.4355
 Red. masses --      2.9012                 2.9373                 4.4667
 Frc consts  --      0.5791                 0.6138                 1.0000
 IR Inten    --      0.0000                 0.0000                 0.0000
  Atom  AN      X      Y      Z        X      Y      Z        X      Y      Z
     1   6     0.07   0.04  -0.00     0.05   0.00   0.01    -0.05  -0.21   0.00
     2   6     0.03   0.06   0.09    -0.00   0.03  -0.03    -0.06  -0.17  -0.00
     3   6    -0.04   0.02  -0.03    -0.04  -0.03  -0.02    -0.04   0.03   0.01
     4   6    -0.01  -0.03   0.03     0.00   0.02  -0.02    -0.00   0.02   0.11
     5   7    -0.05  -0.07  -0.03     0.01   0.05  -0.01     0.04   0.11  -0.05
     6   1     0.24   0.45  -0.05    -0.07  -0.11   0.01    -0.35  -0.12  -0.01
     7   1    -0.14  -0.18   0.01     0.09   0.15  -0.00    -0.22  -0.49  -0.17
     8   1     0.05   0.07   0.02    -0.40  -0.70   0.01     0.21   0.29   0.10
     9   1    -0.28  -0.64  -0.04     0.14   0.34   0.02    -0.07  -0.13   0.08
    10   8    -0.04  -0.01   0.03    -0.08  -0.06   0.06    -0.01   0.09   0.13
    11   6    -0.03   0.09   0.00     0.07   0.24   0.04    -0.12   0.06   0.02
    12   8    -0.07   0.04  -0.02    -0.09  -0.00  -0.04    -0.08   0.08  -0.06
    13   6     0.09   0.22  -0.06    -0.06  -0.13   0.03     0.05  -0.02  -0.01
    14   8    -0.03  -0.06   0.02     0.02   0.03  -0.01    -0.06   0.02  -0.01
    15   8    -0.01  -0.05   0.02     0.01   0.03  -0.00     0.02  -0.03  -0.07
    16   6     0.01  -0.01   0.00    -0.01   0.00  -0.00     0.00   0.00  -0.00
    17   1     0.01   0.01  -0.01    -0.02  -0.01  -0.00     0.09  -0.02   0.11
    18   1     0.00   0.00  -0.01     0.01  -0.01   0.01    -0.08   0.04  -0.00
    19   1     0.05  -0.02   0.01    -0.02   0.00  -0.01    -0.06   0.03   0.01
    20   6     0.02  -0.18  -0.01     0.06  -0.16   0.03     0.23   0.13   0.01
    21   7     0.11   0.01  -0.03     0.11  -0.01  -0.04     0.13  -0.14  -0.05
    22   1    -0.09  -0.10  -0.04    -0.05   0.00  -0.01     0.03   0.24   0.03
                     22                     23                     24
                      A                      A                      A
 Frequencies --    632.1782               660.5081               685.6848
 Red. masses --      3.4772                 7.0018                 1.9119
 Frc consts  --      0.8188                 1.7998                 0.5296
 IR Inten    --      0.0000                 0.0000                 0.0000
  Atom  AN      X      Y      Z        X      Y      Z        X      Y      Z
     1   6    -0.04  -0.10  -0.00    -0.08   0.01  -0.14     0.04   0.07   0.02
     2   6    -0.01   0.01  -0.01    -0.01   0.00   0.00    -0.01  -0.06  -0.01
     3   6     0.01   0.04   0.01     0.08  -0.11   0.06    -0.08  -0.12  -0.03
     4   6    -0.11  -0.02  -0.19    -0.02  -0.02   0.01    -0.02   0.00  -0.02
     5   7    -0.01   0.03  -0.02     0.09  -0.06  -0.15     0.09   0.06   0.03
     6   1     0.28  -0.25   0.06    -0.04  -0.16   0.06     0.01  -0.10   0.01
     7   1    -0.19   0.16   0.32     0.06   0.13   0.07    -0.12  -0.12   0.04
     8   1    -0.10  -0.17   0.03     0.26  -0.14   0.22     0.44   0.75  -0.02
     9   1    -0.14  -0.18  -0.19    -0.10  -0.24  -0.01    -0.04  -0.12  -0.03
    10   8     0.01   0.03   0.04    -0.10   0.08  -0.14    -0.01  -0.03  -0.00
    11   6    -0.06  -0.04   0.01     0.01   0.06   0.08     0.07   0.11   0.00
    12   8    -0.00   0.02  -0.01     0.03  -0.03  -0.06    -0.03  -0.01  -0.00
    13   6    -0.14   0.08  -0.05     0.01   0.05  -0.02    -0.07  -0.05  -0.01
    14   8     0.14  -0.07  -0.04    -0.00  -0.01  -0.00     0.02  -0.00  -0.03
    15   8    -0.02   0.06   0.21    -0.00  -0.01   0.01     0.00   0.03   0.04
    16   6     0.06  -0.02   0.03     0.01  -0.00   0.00     0.01  -0.00   0.01
    17   1    -0.21   0.03  -0.32    -0.00   0.00  -0.02    -0.05   0.00  -0.07
    18   1     0.29  -0.14   0.01     0.02  -0.01  -0.00     0.07  -0.04   0.01
    19   1     0.26  -0.13  -0.01     0.02  -0.01   0.00     0.05  -0.03  -0.01
    20   6     0.08   0.06  -0.02     0.06   0.02   0.58    -0.02  -0.02   0.00
    21   7     0.04  -0.05  -0.01    -0.11   0.03  -0.13    -0.01   0.02   0.01
    22   1     0.04   0.16   0.04     0.42   0.04  -0.21    -0.16  -0.26  -0.07
                     25                     26                     27
                      A                      A                      A
 Frequencies --    743.2248               771.7585               799.3777
 Red. masses --      2.6082                 1.4929                 2.3338
 Frc consts  --      0.8488                 0.5239                 0.8786
 IR Inten    --      0.0000                 0.0000                 0.0000
  Atom  AN      X      Y      Z        X      Y      Z        X      Y      Z
     1   6    -0.01  -0.02  -0.04    -0.01  -0.01  -0.00     0.02  -0.03   0.10
     2   6    -0.01   0.02  -0.03    -0.04   0.03  -0.06    -0.01   0.05  -0.02
     3   6    -0.15  -0.00   0.08    -0.01  -0.00  -0.00     0.06  -0.12  -0.08
     4   6    -0.01  -0.02   0.01    -0.03  -0.08   0.04    -0.01  -0.04   0.01
     5   7    -0.17   0.03  -0.10     0.04   0.06   0.04     0.05  -0.11   0.01
     6   1    -0.10  -0.19   0.05    -0.33  -0.45   0.11    -0.07  -0.11   0.03
     7   1     0.18   0.25   0.03     0.41   0.50  -0.01     0.21   0.28   0.01
     8   1     0.03   0.36   0.06    -0.03   0.03  -0.04     0.24   0.03  -0.01
     9   1    -0.00  -0.05   0.01    -0.02  -0.03   0.04     0.01   0.06   0.02
    10   8     0.00  -0.01  -0.02    -0.00  -0.01   0.00     0.03  -0.03   0.09
    11   6     0.14   0.05   0.09    -0.01  -0.02  -0.00    -0.02   0.08  -0.10
    12   8     0.08  -0.10   0.06    -0.00   0.01  -0.00    -0.09   0.06  -0.05
    13   6     0.03   0.04  -0.01     0.05   0.11  -0.03     0.02   0.04  -0.01
    14   8    -0.01  -0.01   0.01    -0.01  -0.02   0.01    -0.00  -0.01   0.00
    15   8    -0.00  -0.01  -0.01    -0.00  -0.02  -0.00    -0.00  -0.01  -0.00
    16   6     0.00   0.00  -0.00     0.00  -0.00  -0.00     0.00  -0.00  -0.00
    17   1     0.01   0.00   0.01     0.02   0.00   0.02     0.00   0.00   0.00
    18   1    -0.01   0.01  -0.00    -0.01   0.00  -0.00    -0.00   0.00  -0.00
    19   1    -0.00   0.00   0.00     0.00   0.00   0.00     0.00   0.00   0.00
    20   6     0.02  -0.01  -0.06     0.02  -0.00  -0.00    -0.05   0.04  -0.03
    21   7     0.04  -0.02   0.00     0.02  -0.01  -0.01    -0.06   0.02   0.03
    22   1     0.42   0.64   0.02    -0.33  -0.31  -0.03     0.61   0.53   0.18
                     28                     29                     30
                      A                      A                      A
 Frequencies --    841.0015               926.5961               957.5237
 Red. masses --      1.5642                 1.7755                 4.3583
 Frc consts  --      0.6518                 0.8982                 2.3543
 IR Inten    --      0.0000                 0.0000                 0.0000
  Atom  AN      X      Y      Z        X      Y      Z        X      Y      Z
     1   6    -0.03  -0.05  -0.01    -0.02  -0.04  -0.01    -0.05   0.03   0.04
     2   6     0.06   0.04   0.05    -0.12   0.06  -0.06    -0.02  -0.00  -0.04
     3   6    -0.04  -0.04  -0.01    -0.02  -0.03  -0.01     0.06  -0.07   0.09
     4   6    -0.03  -0.15   0.01    -0.04  -0.03  -0.06    -0.06  -0.06  -0.01
     5   7     0.02   0.03  -0.03     0.02   0.03  -0.04    -0.00  -0.01   0.30
     6   1     0.07   0.38  -0.08     0.56   0.01  -0.06     0.13  -0.12  -0.00
     7   1     0.04  -0.20  -0.17    -0.46   0.20   0.41    -0.31  -0.12   0.14
     8   1     0.05   0.07   0.01     0.06   0.04   0.02    -0.16   0.24  -0.24
     9   1     0.12   0.82   0.08     0.16   0.09  -0.02     0.07   0.26   0.03
    10   8     0.01   0.00   0.01     0.02  -0.02   0.04    -0.15   0.13  -0.23
    11   6     0.01   0.01   0.02     0.00   0.01   0.01     0.01  -0.00  -0.05
    12   8     0.00  -0.01   0.00    -0.00  -0.00   0.01    -0.00   0.01  -0.05
    13   6     0.01   0.08  -0.04     0.06   0.01   0.07     0.03   0.03   0.01
    14   8    -0.00  -0.02  -0.01     0.00   0.02   0.09    -0.00   0.00   0.03
    15   8    -0.02   0.00   0.03     0.03  -0.03  -0.07     0.00  -0.01  -0.02
    16   6    -0.01   0.01   0.00     0.05  -0.03  -0.02     0.02  -0.01  -0.00
    17   1    -0.06   0.02  -0.06     0.24  -0.07   0.23     0.07  -0.02   0.07
    18   1     0.02  -0.01  -0.00    -0.11   0.05  -0.00    -0.03   0.02   0.00
    19   1     0.03  -0.01  -0.00    -0.09   0.05   0.01    -0.03   0.01   0.00
    20   6     0.01   0.02   0.01     0.00   0.02   0.01     0.06  -0.07  -0.04
    21   7    -0.01  -0.01  -0.00    -0.01  -0.00   0.00     0.12  -0.04  -0.03
    22   1    -0.07  -0.07  -0.05    -0.10  -0.10  -0.07     0.29   0.34   0.40
                     31                     32                     33
                      A                      A                      A
 Frequencies --   1027.7216              1094.5556              1104.2267
 Red. masses --      1.3967                 1.3779                 1.6549
 Frc consts  --      0.8692                 0.9726                 1.1889
 IR Inten    --      0.0000                 0.0000                 0.0000
  Atom  AN      X      Y      Z        X      Y      Z        X      Y      Z
     1   6    -0.04  -0.06  -0.00    -0.01   0.00   0.04    -0.00  -0.00   0.00
     2   6    -0.09  -0.08   0.05    -0.00  -0.01   0.00    -0.04  -0.00  -0.07
     3   6     0.00  -0.04   0.01    -0.03   0.01   0.09    -0.00   0.00   0.01
     4   6     0.05   0.06  -0.03    -0.01  -0.00  -0.01     0.04   0.00   0.14
     5   7     0.01   0.02   0.03    -0.04   0.03   0.02    -0.00   0.00  -0.00
     6   1     0.35   0.52  -0.16     0.01   0.01  -0.01     0.38  -0.06  -0.06
     7   1     0.58   0.42  -0.10     0.04   0.02  -0.02    -0.18   0.12   0.20
     8   1     0.00   0.10  -0.06     0.54  -0.34   0.74     0.01  -0.02   0.03
     9   1    -0.03  -0.06  -0.05    -0.02   0.03  -0.01     0.38  -0.05   0.18
    10   8    -0.02   0.02  -0.01     0.05  -0.03  -0.08     0.01  -0.00  -0.00
    11   6     0.01   0.00  -0.01     0.00   0.01  -0.06    -0.00  -0.00  -0.01
    12   8    -0.00  -0.00  -0.00    -0.03   0.02  -0.01    -0.00   0.00  -0.00
    13   6    -0.01  -0.02   0.00    -0.00   0.00   0.00     0.06  -0.02  -0.04
    14   8     0.00   0.00   0.00     0.00   0.00   0.00    -0.02  -0.01  -0.06
    15   8     0.00   0.00   0.00    -0.00   0.00  -0.00     0.02  -0.01  -0.01
    16   6    -0.01   0.00  -0.00     0.01  -0.00  -0.00    -0.10   0.05   0.07
    17   1    -0.01   0.00  -0.01     0.02  -0.01   0.02    -0.46   0.15  -0.43
    18   1    -0.00   0.00  -0.00    -0.01   0.00   0.00     0.19  -0.06  -0.01
    19   1    -0.00   0.00  -0.00    -0.01   0.00  -0.00     0.21  -0.10   0.01
[...]
    14   8    -0.00  -0.01  -0.03    -0.00  -0.00  -0.01    -0.01  -0.02  -0.09
    15   8    -0.08   0.03  -0.04    -0.02   0.01   0.01    -0.22   0.13   0.11
    16   6    -0.02   0.01  -0.01    -0.01   0.00  -0.01    -0.06   0.02  -0.03
    17   1     0.31  -0.06   0.38     0.04  -0.01   0.05     0.30  -0.06   0.44
    18   1     0.42  -0.34   0.21     0.03  -0.03   0.02     0.25  -0.21   0.11
    19   1     0.53  -0.03   0.17     0.05  -0.00   0.01     0.37  -0.03   0.10
    20   6     0.00  -0.00   0.00    -0.00   0.00  -0.04    -0.01   0.00   0.00
    21   7     0.01  -0.00  -0.00     0.01  -0.01   0.00    -0.02   0.01   0.00
    22   1     0.03  -0.03  -0.03     0.35  -0.45  -0.58     0.04   0.01   0.05
                     49                     50                     51
                      A                      A                      A
 Frequencies --   1558.8247              2136.6595              2156.7801
 Red. masses --      6.3901                12.6187                12.9039
 Frc consts  --      9.1485                33.9419                35.3658
 IR Inten    --      0.0000                 0.0000                 0.0000
  Atom  AN      X      Y      Z        X      Y      Z        X      Y      Z
     1   6     0.44  -0.31  -0.21     0.02  -0.01   0.01    -0.07   0.05  -0.01
     2   6    -0.04   0.02   0.01    -0.00   0.00   0.01     0.01   0.00  -0.00
     3   6    -0.11   0.09  -0.08    -0.01  -0.00   0.01    -0.00   0.00  -0.05
     4   6     0.06  -0.03   0.01    -0.03   0.00  -0.05    -0.02   0.01  -0.01
     5   7    -0.06   0.07   0.21     0.01  -0.00   0.00    -0.02   0.01  -0.02
     6   1     0.05  -0.01   0.01     0.02  -0.02   0.00     0.00  -0.01  -0.01
     7   1    -0.00   0.01  -0.02     0.03  -0.01  -0.02    -0.00  -0.01  -0.01
     8   1     0.06  -0.01   0.15    -0.02   0.01  -0.01     0.07  -0.05   0.02
     9   1    -0.05   0.02  -0.00    -0.15   0.04  -0.02    -0.04  -0.00   0.00
    10   8    -0.04   0.04  -0.04     0.01  -0.01  -0.01    -0.05   0.03   0.04
    11   6    -0.01  -0.00   0.08    -0.13   0.11  -0.05     0.60  -0.48   0.29
    12   8    -0.03   0.03  -0.02     0.08  -0.06   0.04    -0.35   0.29  -0.20
    13   6    -0.07   0.03  -0.01    -0.02   0.21   0.77     0.01   0.04   0.18
    14   8     0.00   0.00   0.01    -0.03  -0.12  -0.49    -0.01  -0.03  -0.11
    15   8     0.02  -0.01  -0.02     0.07  -0.05  -0.07     0.01  -0.01  -0.02
    16   6     0.01  -0.00   0.01     0.01   0.00   0.02     0.00  -0.00   0.01
    17   1    -0.03   0.01  -0.04    -0.07   0.02  -0.08    -0.02   0.00  -0.02
    18   1    -0.02   0.02  -0.01    -0.02   0.03   0.01    -0.01   0.01  -0.00
    19   1    -0.03   0.00  -0.01    -0.04   0.00   0.01    -0.01  -0.00  -0.00
    20   6    -0.05   0.01   0.02     0.00  -0.00  -0.00    -0.01   0.01   0.00
    21   7    -0.15   0.07   0.03    -0.00   0.00   0.00     0.02  -0.01  -0.01
    22   1     0.59  -0.30  -0.24     0.01  -0.01   0.01    -0.05   0.01  -0.02
                     52                     53                     54
                      A                      A                      A
 Frequencies --   2549.2047              3183.3336              3211.9400
 Red. masses --     12.6617                 1.1036                 1.0490
 Frc consts  --     48.4787                 6.5889                 6.3764
 IR Inten    --      0.0000                 0.0000                 0.0000
  Atom  AN      X      Y      Z        X      Y      Z        X      Y      Z
     1   6    -0.11   0.06   0.03    -0.00  -0.00  -0.00     0.00   0.00  -0.00
     2   6    -0.00  -0.00   0.00    -0.02   0.00  -0.09    -0.04   0.05  -0.01
     3   6     0.01  -0.00   0.00     0.00  -0.00  -0.00    -0.00  -0.00   0.00
     4   6     0.00  -0.00  -0.00    -0.00  -0.00   0.01    -0.00   0.00  -0.00
     5   7    -0.01   0.00   0.00     0.00   0.00  -0.00     0.00  -0.00   0.00
     6   1     0.00   0.01  -0.00     0.02   0.27   0.83    -0.03  -0.13  -0.47
     7   1     0.00   0.00   0.00     0.27  -0.29   0.27     0.48  -0.49   0.54
     8   1     0.02  -0.01  -0.01    -0.00   0.00   0.00     0.00  -0.00  -0.00
     9   1     0.00   0.00  -0.00     0.01   0.01  -0.10    -0.00  -0.00   0.02
    10   8    -0.01   0.00   0.00     0.00  -0.00   0.00     0.00  -0.00   0.00
    11   6     0.01  -0.01  -0.00     0.00  -0.00   0.00    -0.00   0.00  -0.00
    12   8    -0.00   0.00  -0.00    -0.00   0.00  -0.00     0.00  -0.00   0.00
    13   6     0.00  -0.00  -0.00     0.00   0.00   0.00     0.00  -0.00  -0.00
    14   8    -0.00   0.00   0.00     0.00  -0.00  -0.00    -0.00   0.00   0.00
    15   8    -0.00   0.00   0.00     0.00  -0.00  -0.00     0.00   0.00   0.00
    16   6    -0.00   0.00  -0.00     0.00   0.00  -0.00    -0.00   0.00  -0.00
    17   1    -0.00   0.00  -0.00    -0.00   0.00   0.00     0.00   0.00   0.00
    18   1    -0.00   0.00  -0.00     0.00   0.00  -0.00     0.00   0.00   0.00
    19   1     0.00  -0.00  -0.00    -0.00  -0.00   0.00    -0.00  -0.00   0.00
    20   6     0.72  -0.32  -0.17    -0.00   0.00   0.00     0.00  -0.00  -0.00
    21   7    -0.52   0.23   0.12     0.00  -0.00   0.00    -0.00  -0.00   0.00
    22   1     0.00   0.01  -0.00     0.00  -0.00   0.00    -0.01   0.01  -0.02
                     55                     56                     57
                      A                      A                      A
 Frequencies --   3232.9806              3238.8439              3272.1886
 Red. masses --      1.0912                 1.0882                 1.0792
 Frc consts  --      6.7196                 6.7255                 6.8083
 IR Inten    --      0.0000                 0.0000                 0.0000
  Atom  AN      X      Y      Z        X      Y      Z        X      Y      Z
     1   6     0.00  -0.00   0.00    -0.00  -0.00  -0.00     0.00  -0.00  -0.00
     2   6    -0.00  -0.00   0.00    -0.00   0.00  -0.00    -0.00  -0.00  -0.01
     3   6    -0.00   0.00   0.00     0.00  -0.00   0.00    -0.00   0.00   0.01
     4   6     0.00   0.00   0.00    -0.00   0.00  -0.00     0.01   0.00  -0.08
     5   7     0.00   0.00  -0.00    -0.00   0.00  -0.00     0.00  -0.00   0.01
     6   1    -0.00  -0.00  -0.00    -0.00   0.00   0.00    -0.00   0.03   0.09
     7   1    -0.00   0.00  -0.00     0.00  -0.00   0.00     0.02  -0.02   0.01
     8   1     0.00  -0.00  -0.00    -0.00   0.00   0.00     0.05  -0.03  -0.06
     9   1     0.00   0.00  -0.00    -0.00  -0.00   0.00    -0.14  -0.05   0.97
    10   8    -0.00  -0.00  -0.00     0.00   0.00  -0.00    -0.00   0.00  -0.00
    11   6     0.00  -0.00   0.00    -0.00   0.00  -0.00    -0.00   0.00  -0.00
    12   8    -0.00   0.00  -0.00     0.00  -0.00   0.00     0.00  -0.00   0.00
    13   6    -0.00   0.00   0.00     0.00  -0.00   0.00    -0.00  -0.00  -0.00
    14   8     0.00   0.00  -0.00     0.00  -0.00  -0.00     0.00   0.00   0.00
    15   8     0.00   0.00  -0.00    -0.00   0.00   0.00    -0.00   0.00  -0.00
    16   6     0.04   0.07  -0.02    -0.03   0.04   0.07     0.00  -0.00  -0.00
    17   1    -0.05   0.08   0.05     0.48  -0.28  -0.42    -0.00   0.00   0.00
    18   1    -0.25  -0.48  -0.30    -0.27  -0.47  -0.24    -0.00  -0.00  -0.00
    19   1    -0.18  -0.52   0.54     0.09   0.30  -0.24     0.00   0.00  -0.00
    20   6    -0.00  -0.00   0.00    -0.00  -0.00  -0.00    -0.00   0.00   0.00
    21   7    -0.00  -0.00   0.00    -0.00  -0.00  -0.00     0.00  -0.00  -0.00
    22   1     0.00  -0.00   0.00     0.00  -0.00   0.00    -0.04   0.07  -0.12
                     58                     59                     60
                      A                      A                      A
 Frequencies --   3281.9182              3290.7091              3329.4070
 Red. masses --      1.0749                 1.0878                 1.0274
 Frc consts  --      6.8214                 6.9406                 6.7098
 IR Inten    --      0.0000                 0.0000                 0.0000
  Atom  AN      X      Y      Z        X      Y      Z        X      Y      Z
     1   6     0.00  -0.00  -0.00    -0.00   0.00   0.00     0.00   0.00   0.00
     2   6     0.00   0.00  -0.00    -0.00   0.00  -0.00     0.00  -0.00  -0.00
     3   6    -0.02   0.01   0.02     0.05  -0.03  -0.06    -0.00   0.00   0.00
     4   6     0.00   0.00  -0.01     0.00   0.00  -0.01     0.00  -0.00  -0.00
     5   7    -0.02   0.03  -0.06    -0.01   0.01  -0.02     0.00  -0.00   0.00
     6   1    -0.00   0.00   0.00    -0.00   0.00   0.00    -0.00   0.00   0.00
     7   1     0.01  -0.01   0.01     0.01  -0.01   0.01    -0.00   0.00  -0.00
     8   1     0.17  -0.10  -0.20    -0.58   0.33   0.68     0.00  -0.00  -0.00
     9   1    -0.02  -0.01   0.12    -0.02  -0.01   0.12    -0.00  -0.00   0.00
    10   8     0.00  -0.00   0.00    -0.00  -0.00   0.00    -0.00   0.00  -0.00
    11   6     0.00   0.00   0.00     0.00  -0.00  -0.00     0.00  -0.00   0.00
    12   8    -0.00  -0.00   0.00     0.00  -0.00  -0.00    -0.00   0.00  -0.00
    13   6    -0.00  -0.00  -0.00    -0.00   0.00  -0.00     0.00  -0.00  -0.00
    14   8     0.00   0.00   0.00     0.00   0.00   0.00     0.00  -0.00  -0.00
    15   8     0.00   0.00  -0.00     0.00  -0.00  -0.00    -0.01   0.00  -0.00
    16   6    -0.00   0.00  -0.00    -0.00   0.00  -0.00    -0.04   0.02  -0.01
    17   1     0.00  -0.00  -0.00     0.00  -0.00  -0.00     0.46  -0.28  -0.44
    18   1     0.00   0.00   0.00     0.00   0.00   0.00     0.20   0.41   0.23
    19   1    -0.00  -0.00   0.00    -0.00  -0.00   0.00    -0.14  -0.34   0.34
    20   6     0.00   0.00  -0.00     0.00  -0.00  -0.00    -0.00   0.00  -0.00
    21   7    -0.00   0.00  -0.00    -0.00   0.00   0.00     0.00  -0.00  -0.00
    22   1     0.29  -0.45   0.79     0.08  -0.13   0.22    -0.00   0.00  -0.00

 -------------------
 - Thermochemistry -
 -------------------
 Temperature   298.150 Kelvin.  Pressure   1.00000 Atm.
 Atom     1 has atomic number  6 and mass  12.00000
 Atom     2 has atomic number  6 and mass  12.00000
 Atom     3 has atomic number  6 and mass  12.00000
 Atom     4 has atomic number  6 and mass  12.00000
 Atom     5 has atomic number  7 and mass  14.00307
 Atom     6 has atomic number  1 and mass   1.00783
 Atom     7 has atomic number  1 and mass   1.00783
 Atom     8 has atomic number  1 and mass   1.00783
 Atom     9 has atomic number  1 and mass   1.00783
 Atom    10 has atomic number  8 and mass  15.99491
 Atom    11 has atomic number  6 and mass  12.00000
 Atom    12 has atomic number  8 and mass  15.99491
 Atom    13 has atomic number  6 and mass  12.00000
 Atom    14 has atomic number  8 and mass  15.99491
 Atom    15 has atomic number  8 and mass  15.99491
 Atom    16 has atomic number  6 and mass  12.00000
 Atom    17 has atomic number  1 and mass   1.00783
 Atom    18 has atomic number  1 and mass   1.00783
 Atom    19 has atomic number  1 and mass   1.00783
 Atom    20 has atomic number  6 and mass  12.00000
 Atom    21 has atomic number  7 and mass  14.00307
 Atom    22 has atomic number  1 and mass   1.00783
 Molecular mass:   196.04841 amu.
 Principal axes and moments of inertia in atomic units:
                           1         2         3
     Eigenvalues --  1333.173663857.610114282.67783
           X            0.99995  -0.00709   0.00664
           Y            0.00706   0.99996   0.00550
           Z           -0.00668  -0.00546   0.99996
 This molecule is an asymmetric top.
 Rotational symmetry number  1.
 Warning -- assumption of classical behavior for rotation
           may cause significant error
 Rotational temperatures (Kelvin)      0.06497     0.02245     0.02022
 Rotational constants (GHZ):           1.35372     0.46784     0.42140
    5 imaginary frequencies ignored.
 Zero-point vibrational energy     421224.1 (Joules/Mol)
                                  100.67497 (Kcal/Mol)
 Warning -- explicit consideration of  16 degrees of freedom as
           vibrations may cause significant error
 Vibrational temperatures:    107.31   148.79   166.01   188.24   266.68
          (Kelvin)            358.22   444.33   485.79   585.61   623.15
                              722.90   746.87   835.67   837.42   856.88
                              886.91   909.56   950.32   986.55  1069.33
                             1110.39  1150.13  1210.01  1333.17  1377.66
                             1478.66  1574.82  1588.74  1626.39  1709.86
                             1716.23  1750.32  1857.53  1877.65  1913.72
                             1923.36  1967.95  1992.17  2006.98  2031.81
                             2054.70  2149.84  2189.11  2242.80  3074.18
                             3103.13  3667.74  4580.11  4621.27  4651.54
                             4659.97  4707.95  4721.95  4734.60  4790.27
 
 Zero-point correction=                           0.160436 (Hartree/Particle)
 Thermal correction to Energy=                    0.170751
 Thermal correction to Enthalpy=                  0.171695
 Thermal correction to Gibbs Free Energy=         0.123697
 Sum of electronic and zero-point Energies=           -719.009345
 Sum of electronic and thermal Energies=              -718.999030
 Sum of electronic and thermal Enthalpies=            -718.998086
 Sum of electronic and thermal Free Energies=         -719.046084
 
                     E (Thermal)             CV                S
                      KCal/Mol        Cal/Mol-Kelvin    Cal/Mol-Kelvin
 Total                  107.148             39.505            101.021
 Electronic               0.000              0.000              0.000
 Translational            0.889              2.981             41.725
 Rotational               0.889              2.981             31.466
 Vibrational            105.370             33.543             27.830
 Vibration     1          0.599              1.966              4.029
 Vibration     2          0.605              1.946              3.389
 Vibration     3          0.608              1.937              3.176
 Vibration     4          0.612              1.922              2.934
 Vibration     5          0.631              1.860              2.274
 Vibration     6          0.662              1.764              1.738
 Vibration     7          0.698              1.657              1.369
 Vibration     8          0.718              1.600              1.223
 Vibration     9          0.772              1.455              0.937
 Vibration    10          0.794              1.398              0.849
 Vibration    11          0.858              1.245              0.652
 Vibration    12          0.874              1.208              0.612
 Vibration    13          0.938              1.073              0.484
 Vibration    14          0.939              1.070              0.482
 Vibration    15          0.953              1.041              0.457
 Vibration    16          0.976              0.997              0.422
                       Q            Log10(Q)             Ln(Q)
 Total Bot       0.126927D-56        -56.896445       -131.008906
 Total V=0       0.792174D+17         16.898821         38.910973
 Vib (Bot)       0.700245D-71        -71.154750       -163.839866
 Vib (Bot)    1  0.276338D+01          0.441440          1.016453
 Vib (Bot)    2  0.198320D+01          0.297367          0.684713
 Vib (Bot)    3  0.177302D+01          0.248714          0.572686
 Vib (Bot)    4  0.155790D+01          0.192539          0.443338
 Vib (Bot)    5  0.108161D+01          0.034070          0.078448
 Vib (Bot)    6  0.784274D+00         -0.105532         -0.242996
 Vib (Bot)    7  0.612722D+00         -0.212736         -0.489843
 Vib (Bot)    8  0.550771D+00         -0.259029         -0.596435
 Vib (Bot)    9  0.435641D+00         -0.360871         -0.830937
 Vib (Bot)   10  0.401320D+00         -0.396509         -0.912995
 Vib (Bot)   11  0.326401D+00         -0.486249         -1.119629
 Vib (Bot)   12  0.311205D+00         -0.506953         -1.167303
 Vib (Bot)   13  0.262139D+00         -0.581468         -1.338880
 Vib (Bot)   14  0.261275D+00         -0.582901         -1.342180
 Vib (Bot)   15  0.251865D+00         -0.598833         -1.378864
 Vib (Bot)   16  0.238127D+00         -0.623191         -1.434949
 Vib (V=0)       0.437035D+03          2.640516          6.080013
 Vib (V=0)    1  0.330825D+01          0.519598          1.196418
 Vib (V=0)    2  0.254526D+01          0.405732          0.934233
 Vib (V=0)    3  0.234218D+01          0.369619          0.851080
 Vib (V=0)    4  0.213617D+01          0.329635          0.759014
 Vib (V=0)    5  0.169158D+01          0.228294          0.525666
 Vib (V=0)    6  0.143010D+01          0.155366          0.357744
 Vib (V=0)    7  0.129084D+01          0.110873          0.255294
 Vib (V=0)    8  0.124387D+01          0.094777          0.218231
 Vib (V=0)    9  0.116316D+01          0.065640          0.151142
 Vib (V=0)   10  0.114114D+01          0.057338          0.132026
 Vib (V=0)   11  0.109711D+01          0.040249          0.092677
 Vib (V=0)   12  0.108894D+01          0.037003          0.085203
 Vib (V=0)   13  0.106455D+01          0.027166          0.062552
 Vib (V=0)   14  0.106415D+01          0.027003          0.062176
 Vib (V=0)   15  0.105985D+01          0.025246          0.058131
 Vib (V=0)   16  0.105381D+01          0.022762          0.052411
 Electronic      0.100000D+01          0.000000          0.000000
 Translational   0.107894D+09          8.032999         18.496663
 Rotational      0.167999D+07          6.225306         14.334296
 ***** Axes restored to original set *****
 -------------------------------------------------------------------
 Center     Atomic                   Forces (Hartrees/Bohr)
 Number     Number              X              Y              Z
 -------------------------------------------------------------------
      1        6          -0.007809128   -0.033880465    0.012001507
      2        6          -0.037738720    0.019364654    0.012982594
      3        6           0.021030036   -0.025659028    0.009116698
      4        6           0.052942876   -0.002016738   -0.024704305
      5        7          -0.053825496    0.022031473   -0.080129080
      6        1           0.001869437    0.003600916   -0.000072009
      7        1           0.006664384    0.004129268   -0.001545387
      8        1           0.003233376    0.004460791    0.006453284
      9        1          -0.001086389    0.001641267    0.004297616
     10        8           0.022565221   -0.008158445    0.048475282
     11        6          -0.036398399    0.019679857    0.014875119
     12        8           0.030671408   -0.023132674    0.001406252
     13        6           0.015579323    0.006459839   -0.005942299
     14        8          -0.009581802    0.010777451    0.027120315
     15        8          -0.006323560   -0.007241723   -0.024801972
     16        6          -0.002091419    0.001332276    0.006068176
     17        1           0.001420962    0.000504077    0.005021870
     18        1           0.000740954   -0.001497495   -0.003464945
     19        1           0.001600462   -0.000862124   -0.003344665
     20        6           0.006686364    0.007692508   -0.004444712
     21        7          -0.010283729    0.001597627    0.002580480
     22        1           0.000133837   -0.000823308   -0.001949818
 -------------------------------------------------------------------
 Cartesian Forces:  Max     0.080129080 RMS     0.020056788


 WOE UNTO THEM THAT CALL EVIL GOOD, AND GOOD EVIL      
 Error termination request processed by link 9999.
 Error termination via Lnk1e in /apps/gaussian/g16/C.01/g16/l9999.exe at Mon May 20 12:32:42 2024.
 Job cpu time:       0 days  0 hours  7 minutes  6.9 seconds.
 Elapsed time:       0 days  0 hours  1 minutes  8.9 seconds.
 File lengths (MBytes):  RWF=      6 Int=      0 D2E=      0 Chk=      2 Scr=      1
