Unloading slurm/anatra/current
  ERROR: No such file or directory on
    '/cm/local/modulefiles/slurm/anatra/current'
environment: line 0: unalias: gv: not found
environment: line 0: unalias: sl: not found
 Entering Gaussian System, Link 0=g16
 Initial command:
 /apps/gaussian/g16/C.01/g16/l1.exe "/local/jobs/1176090/Gau-4185490.inp" -scrdir="/local/jobs/1176090/"
 Entering Link 1 = /apps/gaussian/g16/C.01/g16/l1.exe PID=   4185493.
  
 Copyright (c) 1988-2019, Gaussian, Inc.  All Rights Reserved.
  
 This is part of the Gaussian(R) 16 program.  It is based on
 the Gaussian(R) 09 system (copyright 2009, Gaussian, Inc.),
 the Gaussian(R) 03 system (copyright 2003, Gaussian, Inc.),
 the Gaussian(R) 98 system (copyright 1998, Gaussian, Inc.),
 the Gaussian(R) 94 system (copyright 1995, Gaussian, Inc.),
 the Gaussian 92(TM) system (copyright 1992, Gaussian, Inc.),
 the Gaussian 90(TM) system (copyright 1990, Gaussian, Inc.),
 the Gaussian 88(TM) system (copyright 1988, Gaussian, Inc.),
 the Gaussian 86(TM) system (copyright 1986, Carnegie Mellon
 University), and the Gaussian 82(TM) system (copyright 1983,
 Carnegie Mellon University). Gaussian is a federally registered
 trademark of Gaussian, Inc.
  
 This software contains proprietary and confidential information,
 including trade secrets, belonging to Gaussian, Inc.
  
 This software is provided under written license and may be
 used, copied, transmitted, or stored only in accord with that
 written license.
  
 The following legend is applicable only to US Government
 contracts under FAR:
  
                    RESTRICTED RIGHTS LEGEND
  
 Use, reproduction and disclosure by the US Government is
 subject to restrictions as set forth in subparagraphs (a)
 and (c) of the Commercial Computer Software - Restricted
 Rights clause in FAR 52.227-19.
  
 Gaussian, Inc.
 340 Quinnipiac St., Bldg. 40, Wallingford CT 06492
  
  
 ---------------------------------------------------------------
 Warning -- This program may not be used in any manner that
 competes with the business of Gaussian, Inc. or will provide
 assistance to any competitor of Gaussian, Inc.  The licensee
 of this program is prohibited from giving any competitor of
 Gaussian, Inc. access to this program.  By using this program,
 the user acknowledges that Gaussian, Inc. is engaged in the
 business of creating and licensing software in the field of
 computational chemistry and represents and warrants to the
 licensee that it is not a competitor of Gaussian, Inc. and that
 it will not use this program in any manner prohibited above.
 ---------------------------------------------------------------
  

 Cite this work as:
 Gaussian 16, Revision C.01,
 M. J. Frisch, G. W. Trucks, H. B. Schlegel, G. E. Scuseria, 
 M. A. Robb, J. R. Cheeseman, G. Scalmani, V. Barone, 
 G. A. Petersson, H. Nakatsuji, X. Li, M. Caricato, A. V. Marenich, 
 J. Bloino, B. G. Janesko, R. Gomperts, B. Mennucci, H. P. Hratchian, 
 J. V. Ortiz, A. F. Izmaylov, J. L. Sonnenberg, D. Williams-Young, 
 F. Ding, F. Lipparini, F. Egidi, J. Goings, B. Peng, A. Petrone, 
 T. Henderson, D. Ranasinghe, V. G. Zakrzewski, J. Gao, N. Rega, 
 G. Zheng, W. Liang, M. Hada, M. Ehara, K. Toyota, R. Fukuda, 
 J. Hasegawa, M. Ishida, T. Nakajima, Y. Honda, O. Kitao, H. Nakai, 
 T. Vreven, K. Throssell, J. A. Montgomery, Jr., J. E. Peralta, 
 F. Ogliaro, M. J. Bearpark, J. J. Heyd, E. N. Brothers, K. N. Kudin, 
 V. N. Staroverov, T. A. Keith, R. Kobayashi, J. Normand, 
 K. Raghavachari, A. P. Rendell, J. C. Burant, S. S. Iyengar, 
 J. Tomasi, M. Cossi, J. M. Millam, M. Klene, C. Adamo, R. Cammi, 
 J. W. Ochterski, R. L. Martin, K. Morokuma, O. Farkas, 
 J. B. Foresman, and D. J. Fox, Gaussian, Inc., Wallingford CT, 2019.
 
 ******************************************
 Gaussian 16:  ES64L-G16RevC.01  3-Jul-2019
                20-May-2024 
 ******************************************
 %nprocshared=12
 Will use up to   12 processors via shared memory.
 %mem=48GB
 ----------------------------------------------------------------------
 # external="~/scripts/MiMe -H 'am1' -EF 'wb97xd def2svp' -c 12 -m 48GB
 " opt=(calcall,ts,eigentest,maxcycles=50,maxstep=10,nomicro)
 ----------------------------------------------------------------------
 1/5=1,6=50,8=10,10=4,11=2,18=20,26=1,38=1/1,3;
 2/9=110,12=2,17=6,18=5,40=1/2;
 3/11=9,25=1,30=1,41=9900000,43=2,71=2,140=1/1;
 4/20=17,22=2,24=3,113=1,114=1/2;
 6/7=2,8=2,9=2,10=2,18=1/1;
 7/25=1,44=-1/16;
 1/5=1,6=50,8=10,10=4,11=2,18=20,26=1/3(3);
 2/9=110/2;
 7/8=1,9=1,25=1,44=-1/16;
 99//99;
 2/9=110/2;
 3/11=9,25=1,30=1,41=9900000,43=2,71=2,140=1/1;
 4/16=2,20=17,22=2,24=3,113=1,114=1/2;
 7/25=1,44=-1/16;
 1/5=1,6=50,8=10,10=4,11=2,18=20,26=1/3(-4);
 2/9=110/2;
 6/7=2,8=2,9=2,10=2,18=1/1;
 7/8=1,9=1,25=1,44=-1/16;
 99//99;
 -----
 *****
 -----
 Symbolic Z-matrix:
 Charge =  0 Multiplicity = 1
 O                     1.4571    1.0277   -0.4703 
 C                    -0.2447    1.596     0.2715 
 C                     0.5243   -1.1064    1.1767 
 C                    -0.9704    0.443     0.8253 
 C                     1.7089   -0.117    -0.8424 
 C                     1.2547   -1.2973   -0.0698 
 H                     2.2458   -0.3433   -1.7784 
 H                     1.0475   -0.4791    1.9054 
 H                     1.2246   -2.2497   -0.583 
 H                     0.1869    2.2996    0.9795 
 H                    -0.5702    1.9784   -0.6958 
 H                    -1.207     0.503     1.8865 
 C                    -2.0063   -0.2391   -0.0068 
 O                    -1.9637   -0.3005   -1.2288 
 H                     0.0393   -1.9945    1.5795 
 H                    -2.818    -0.7085    0.5735 
 
 Add virtual bond connecting atoms C2         and O1         Dist= 3.67D+00.

 GradGradGradGradGradGradGradGradGradGradGradGradGradGradGradGradGradGrad
 Berny optimization.
 Initialization pass.
                           ----------------------------
                           !    Initial Parameters    !
                           ! (Angstroms and Degrees)  !
 --------------------------                            --------------------------
 ! Name  Definition              Value          Derivative Info.                !
 --------------------------------------------------------------------------------
 ! R1    R(1,2)                  1.9415         calculate D2E/DX2 analytically  !
 ! R2    R(1,5)                  1.2297         calculate D2E/DX2 analytically  !
 ! R3    R(2,4)                  1.4706         calculate D2E/DX2 analytically  !
 ! R4    R(2,10)                 1.0875         calculate D2E/DX2 analytically  !
 ! R5    R(2,11)                 1.0899         calculate D2E/DX2 analytically  !
 ! R6    R(3,6)                  1.4573         calculate D2E/DX2 analytically  !
 ! R7    R(3,8)                  1.0946         calculate D2E/DX2 analytically  !
 ! R8    R(3,15)                 1.0891         calculate D2E/DX2 analytically  !
 ! R9    R(4,12)                 1.0889         calculate D2E/DX2 analytically  !
 ! R10   R(4,13)                 1.4936         calculate D2E/DX2 analytically  !
 ! R11   R(5,6)                  1.482          calculate D2E/DX2 analytically  !
 ! R12   R(5,7)                  1.1025         calculate D2E/DX2 analytically  !
 ! R13   R(6,9)                  1.0823         calculate D2E/DX2 analytically  !
 ! R14   R(13,14)                1.2243         calculate D2E/DX2 analytically  !
 ! R15   R(13,16)                1.1027         calculate D2E/DX2 analytically  !
 ! A1    A(2,1,5)              124.5813         calculate D2E/DX2 analytically  !
 ! A2    A(1,2,4)              110.2997         calculate D2E/DX2 analytically  !
 ! A3    A(1,2,10)              95.1782         calculate D2E/DX2 analytically  !
 ! A4    A(1,2,11)              91.4545         calculate D2E/DX2 analytically  !
 ! A5    A(4,2,10)             117.2544         calculate D2E/DX2 analytically  !
 ! A6    A(4,2,11)             117.5115         calculate D2E/DX2 analytically  !
 ! A7    A(10,2,11)            117.9918         calculate D2E/DX2 analytically  !
 ! A8    A(6,3,8)              113.886          calculate D2E/DX2 analytically  !
 ! A9    A(6,3,15)             115.6401         calculate D2E/DX2 analytically  !
 ! A10   A(8,3,15)             115.7174         calculate D2E/DX2 analytically  !
 ! A11   A(2,4,12)             115.5318         calculate D2E/DX2 analytically  !
 ! A12   A(2,4,13)             119.3742         calculate D2E/DX2 analytically  !
 ! A13   A(12,4,13)            114.6711         calculate D2E/DX2 analytically  !
 ! A14   A(1,5,6)              121.3901         calculate D2E/DX2 analytically  !
 ! A15   A(1,5,7)              123.207          calculate D2E/DX2 analytically  !
 ! A16   A(6,5,7)              115.3633         calculate D2E/DX2 analytically  !
 ! A17   A(3,6,5)              119.6827         calculate D2E/DX2 analytically  !
 ! A18   A(3,6,9)              120.4595         calculate D2E/DX2 analytically  !
 ! A19   A(5,6,9)              117.527          calculate D2E/DX2 analytically  !
 ! A20   A(4,13,14)            123.7007         calculate D2E/DX2 analytically  !
 ! A21   A(4,13,16)            114.3155         calculate D2E/DX2 analytically  !
 ! A22   A(14,13,16)           121.9743         calculate D2E/DX2 analytically  !
 ! D1    D(5,1,2,4)             22.8218         calculate D2E/DX2 analytically  !
 ! D2    D(5,1,2,10)           144.4087         calculate D2E/DX2 analytically  !
 ! D3    D(5,1,2,11)           -97.3151         calculate D2E/DX2 analytically  !
 ! D4    D(2,1,5,6)            -41.0115         calculate D2E/DX2 analytically  !
 ! D5    D(2,1,5,7)            136.5934         calculate D2E/DX2 analytically  !
 ! D6    D(1,2,4,12)           120.4906         calculate D2E/DX2 analytically  !
 ! D7    D(1,2,4,13)           -96.409          calculate D2E/DX2 analytically  !
 ! D8    D(10,2,4,12)           13.1052         calculate D2E/DX2 analytically  !
 ! D9    D(10,2,4,13)          156.2056         calculate D2E/DX2 analytically  !
 ! D10   D(11,2,4,12)         -136.6141         calculate D2E/DX2 analytically  !
 ! D11   D(11,2,4,13)            6.4863         calculate D2E/DX2 analytically  !
 ! D12   D(8,3,6,5)            -54.9362         calculate D2E/DX2 analytically  !
 ! D13   D(8,3,6,9)            142.822          calculate D2E/DX2 analytically  !
 ! D14   D(15,3,6,5)           167.4198         calculate D2E/DX2 analytically  !
 ! D15   D(15,3,6,9)             5.1779         calculate D2E/DX2 analytically  !
 ! D16   D(2,4,13,14)           30.3105         calculate D2E/DX2 analytically  !
 ! D17   D(2,4,13,16)         -150.7955         calculate D2E/DX2 analytically  !
 ! D18   D(12,4,13,14)         173.712          calculate D2E/DX2 analytically  !
 ! D19   D(12,4,13,16)          -7.394          calculate D2E/DX2 analytically  !
 ! D20   D(1,5,6,3)             -1.6488         calculate D2E/DX2 analytically  !
 ! D21   D(1,5,6,9)            161.1057         calculate D2E/DX2 analytically  !
 ! D22   D(7,5,6,3)           -179.4312         calculate D2E/DX2 analytically  !
 ! D23   D(7,5,6,9)            -16.6767         calculate D2E/DX2 analytically  !
 --------------------------------------------------------------------------------
 Trust Radius=1.00D-01 FncErr=1.00D-07 GrdErr=1.00D-07 EigMax=2.50D+02 EigMin=1.00D-04
 Number of steps in this run=     50 maximum allowed number of steps=    100.
 Search for a saddle point of order  1.
 GradGradGradGradGradGradGradGradGradGradGradGradGradGradGradGradGradGrad

                          Input orientation:                          
 ---------------------------------------------------------------------
 Center     Atomic      Atomic             Coordinates (Angstroms)
 Number     Number       Type             X           Y           Z
 ---------------------------------------------------------------------
      1          8           0        1.457100    1.027700   -0.470300
      2          6           0       -0.244700    1.596000    0.271500
      3          6           0        0.524300   -1.106400    1.176700
      4          6           0       -0.970400    0.443000    0.825300
      5          6           0        1.708900   -0.117000   -0.842400
      6          6           0        1.254700   -1.297300   -0.069800
      7          1           0        2.245800   -0.343300   -1.778400
      8          1           0        1.047500   -0.479100    1.905400
      9          1           0        1.224600   -2.249700   -0.583000
     10          1           0        0.186900    2.299600    0.979500
     11          1           0       -0.570200    1.978400   -0.695800
     12          1           0       -1.207000    0.503000    1.886500
     13          6           0       -2.006300   -0.239100   -0.006800
     14          8           0       -1.963700   -0.300500   -1.228800
     15          1           0        0.039300   -1.994500    1.579500
     16          1           0       -2.818000   -0.708500    0.573500
 ---------------------------------------------------------------------
                    Distance matrix (angstroms):
                    1          2          3          4          5
     1  O    0.000000
     2  C    1.941483   0.000000
     3  C    2.852562   2.951900   0.000000
     4  C    2.813043   1.470627   2.181341   0.000000
     5  C    1.229715   2.826959   2.541447   3.205226   0.000000
     6  C    2.367909   3.276564   1.457288   2.963261   1.481997
     7  H    2.052514   3.763717   3.504069   4.212062   1.102529
     8  H    2.842916   2.940315   1.094645   2.467550   2.849381
     9  H    3.287569   4.204571   2.212261   3.748595   2.202327
    10  H    2.309341   1.087472   3.428347   2.193190   3.387589
    11  H    2.250472   1.089885   3.770965   2.198035   3.099434
    12  H    3.595448   2.174602   2.468073   1.088910   4.041506
    13  C    3.716820   2.558960   2.925204   1.493566   3.809967
    14  O    3.747174   2.966913   3.553315   2.399742   3.697427
    15  H    3.917337   3.831868   1.089126   2.744033   3.489723
    16  H    4.730792   3.467535   3.419524   2.191570   4.779903
                    6          7          8          9         10
     6  C    0.000000
     7  H    2.193561   0.000000
     8  H    2.147975   3.876177   0.000000
     9  H    1.082287   2.471071   3.059170   0.000000
    10  H    3.896013   4.339355   3.052720   4.920809   0.000000
    11  H    3.801624   3.806858   3.927149   4.594656   1.866280
    12  H    3.623280   5.105834   2.459197   4.425886   2.448138
    13  C    3.428976   4.607578   3.611067   3.848796   3.496843
    14  O    3.563003   4.245443   4.349992   3.792321   4.032640
    15  H    2.164134   4.344030   1.849085   2.479207   4.338327
    16  H    4.165022   5.595255   4.094957   4.478326   4.271174
                   11         12         13         14         15
    11  H    0.000000
    12  H    3.041479   0.000000
    13  C    2.730277   2.184989   0.000000
    14  O    2.723842   3.305042   1.224283   0.000000
    15  H    4.618703   2.808028   3.127660   3.842941   0.000000
    16  H    3.726011   2.405623   1.102697   2.035824   3.290896
                   16
    16  H    0.000000
 Stoichiometry    C6H8O2
 Framework group  C1[X(C6H8O2)]
 Deg. of freedom    42
 Full point group                 C1      NOp   1
 Largest Abelian subgroup         C1      NOp   1
 Largest concise Abelian subgroup C1      NOp   1
                         Standard orientation:                         
 ---------------------------------------------------------------------
 Center     Atomic      Atomic             Coordinates (Angstroms)
 Number     Number       Type             X           Y           Z
 ---------------------------------------------------------------------
      1          8           0        1.456663    1.150187   -0.166589
      2          6           0       -0.295156    1.484708    0.600602
      3          6           0        0.577324   -1.309812    0.978956
      4          6           0       -0.980385    0.214072    0.881122
      5          6           0        1.777583    0.115798   -0.749039
      6          6           0        1.357444   -1.214233   -0.248222
      7          1           0        2.355984    0.105909   -1.687615
      8          1           0        1.043980   -0.820927    1.840043
      9          1           0        1.392065   -2.043889   -0.942352
     10          1           0        0.076943    2.048562    1.452780
     11          1           0       -0.606967    2.040330   -0.283653
     12          1           0       -1.254887    0.048655    1.921800
     13          6           0       -1.952636   -0.329229   -0.114011
     14          8           0       -1.866360   -0.140930   -1.320646
     15          1           0        0.124155   -2.280601    1.174920
     16          1           0       -2.758742   -0.939929    0.325510
 ---------------------------------------------------------------------
 Rotational constants (GHZ):           2.7622736           1.6518644           1.4942764
 Standard basis: STO-3G (5D, 7F)
 There are    48 symmetry adapted cartesian basis functions of A   symmetry.
 There are    48 symmetry adapted basis functions of A   symmetry.
    48 basis functions,   144 primitive gaussians,    48 cartesian basis functions
    30 alpha electrons       30 beta electrons
       nuclear repulsion energy       354.7323196843 Hartrees.
 NAtoms=   16 NActive=   16 NUniq=   16 SFac= 1.00D+00 NAtFMM=   60 NAOKFM=F Big=F
 Integral buffers will be    131072 words long.
 Raffenetti 1 integral format.
 Two-electron integral symmetry is turned on.
 External calculation of energy, first and second derivatives.
 Running external command "~/scripts/MiMe -H 'am1' -EF 'wb97xd def2svp' -c 12 -m 48GB R"
         input file       "/local/jobs/1176090/Gau-4185493.EIn"
         output file      "/local/jobs/1176090/Gau-4185493.EOu"
         message file     "/local/jobs/1176090/Gau-4185493.EMs"
         fchk file        "/local/jobs/1176090/Gau-4185493.EFC"
         mat. el file     "/local/jobs/1176090/Gau-4185493.EUF"
 Read checkpoint file Gau-4185493_H.chk type G16
 Write formatted file Gau-4185493_H.fchk

deriv: 2

spelevel: wb97xd def2svp
gradlevel: wb97xd def2svp
hesslevel: am1

runspe: False
runforce: True
runfreq: True

Running Gaussian ...

Parsing files ...
SPE file: Gau-4185493_F.out
FORCE file: Gau-4185493_F.out
HESS file: Gau-4185493_H.out

 ExternalExternalExternalExternalExternalExternalExternalExternalExternalExternal
 Output from external command:
 "~/scripts/MiMe -H 'am1' -EF 'wb97xd def2svp' -c 12 -m 48GB R /local/jobs/1176090/Gau-4185493.EIn /local/jobs/1176090/Gau-4185493.EOu /local/jobs/1176090/Gau-4185493.EMs /local/jobs/1176090/Gau-4185493.EFC /local/jobs/1176090/Gau-4185493.EUF"
  
 --------------------------------------------------
 Force calculation at wb97xd def2svp
 Hessian calculation at am1
 ExternalExternalExternalExternalExternalExternalExternalExternalExternalExternal

 Recovered energy= -383.350862788     dipole=      0.111200000000     -0.472700000000      2.721500000000
 Energy=    -383.350863     NIter=   0.
 Dipole moment=       0.111200      -0.472700       2.721500
 ***** Axes restored to original set *****
 -------------------------------------------------------------------
 Center     Atomic                   Forces (Hartrees/Bohr)
 Number     Number              X              Y              Z
 -------------------------------------------------------------------
      1        8          -0.000889665    0.042989829    0.009589756
      2        6          -0.017691260   -0.051241754    0.008575791
      3        6           0.032606798    0.006862943   -0.046765389
      4        6           0.013935932    0.018567655   -0.016312770
      5        6          -0.020384530   -0.081331990    0.036937832
      6        6          -0.011134781    0.049725083    0.007985470
      7        1          -0.002144649    0.007664424   -0.006353060
      8        1          -0.008803803    0.005326047    0.000881817
      9        1          -0.001567510   -0.006457468   -0.004267550
     10        1           0.003000679    0.001492007   -0.000928861
     11        1           0.002526325   -0.000292793   -0.001800962
     12        1           0.001019634    0.000014916    0.004672313
     13        6           0.024748504    0.010477005   -0.024056200
     14        8          -0.001929395    0.001653691    0.025999212
     15        1          -0.006487349    0.000170303    0.003095855
     16        1          -0.006804931   -0.005619897    0.002746746
 -------------------------------------------------------------------
 Cartesian Forces:  Max     0.081331990 RMS     0.021673989
 FormGI is forming the generalized inverse of G from B-inverse, IUseBI=4.

 GradGradGradGradGradGradGradGradGradGradGradGradGradGradGradGradGradGrad
 Berny optimization.
 Internal  Forces:  Max     0.092349869 RMS     0.021336701
 Search for a saddle point.
 Step number   1 out of a maximum of   50
 All quantities printed in internal units (Hartrees-Bohrs-Radians)
 Swapping is turned off.
 Second derivative matrix not updated -- analytic derivatives used.
 ITU=  0
     Eigenvalues ---   -0.68980  -0.03169   0.00398   0.00830   0.00929
     Eigenvalues ---    0.01378   0.02376   0.02474   0.03093   0.03836
     Eigenvalues ---    0.04304   0.04740   0.05624   0.06376   0.07902
     Eigenvalues ---    0.08044   0.08747   0.09837   0.10745   0.11045
     Eigenvalues ---    0.12404   0.12864   0.13188   0.17203   0.18165
     Eigenvalues ---    0.23186   0.26948   0.35702   0.35831   0.36256
     Eigenvalues ---    0.36313   0.37279   0.37677   0.38180   0.39328
     Eigenvalues ---    0.40494   0.44662   0.47278   0.57887   0.70259
     Eigenvalues ---    1.19032   1.27690
 Eigenvectors required to have negative eigenvalues:
                          A1        R1        R3        R6        R11
   1                   -0.51794  -0.42651   0.29435   0.27082  -0.25317
                          D4        A14       D12       A17       R2
   1                    0.21916  -0.19759  -0.16850  -0.15698   0.14410
 RFO step:  Lambda0=1.161297617D-02 Lambda=-4.30579789D-02.
 Linear search not attempted -- option 19 set.
 Maximum step size (   0.100) exceeded in Quadratic search.
    -- Step size scaled by   0.269
 Iteration  1 RMS(Cart)=  0.03631119 RMS(Int)=  0.00057639
 Iteration  2 RMS(Cart)=  0.00075145 RMS(Int)=  0.00012983
 Iteration  3 RMS(Cart)=  0.00000021 RMS(Int)=  0.00012983
 Variable       Old X    -DE/DX   Delta X   Delta X   Delta X     New X
                                 (Linear)    (Quad)   (Total)
    R1        3.66887  -0.02421   0.00000   0.03452   0.03452   3.70339
    R2        2.32383   0.01569   0.00000   0.00586   0.00586   2.32969
    R3        2.77908  -0.03757   0.00000  -0.03585  -0.03585   2.74323
    R4        2.05502   0.00155   0.00000   0.00225   0.00225   2.05728
    R5        2.05958   0.00074   0.00000   0.00131   0.00131   2.06089
    R6        2.75388  -0.04366   0.00000  -0.03503  -0.03503   2.71884
    R7        2.06858  -0.00057   0.00000  -0.00028  -0.00028   2.06830
    R8        2.05815   0.00389   0.00000   0.00347   0.00347   2.06162
    R9        2.05774   0.00433   0.00000   0.00329   0.00329   2.06104
   R10        2.82243  -0.01669   0.00000  -0.00732  -0.00732   2.81511
   R11        2.80057  -0.06609   0.00000  -0.02794  -0.02794   2.77263
   R12        2.08348   0.00278   0.00000   0.00578   0.00578   2.08926
   R13        2.04523   0.00775   0.00000   0.00812   0.00812   2.05335
   R14        2.31356  -0.02610   0.00000  -0.00524  -0.00524   2.30832
   R15        2.08380   0.00885   0.00000   0.00710   0.00710   2.09089
    A1        2.17435  -0.09235   0.00000  -0.04357  -0.04357   2.13078
    A2        1.92509  -0.02602   0.00000   0.01790   0.01787   1.94296
    A3        1.66117   0.00893   0.00000  -0.00668  -0.00676   1.65441
    A4        1.59618   0.00518   0.00000  -0.02925  -0.02924   1.56694
    A5        2.04648   0.00056   0.00000   0.00717   0.00711   2.05358
    A6        2.05096   0.00829   0.00000   0.00862   0.00865   2.05962
    A7        2.05935  -0.00260   0.00000  -0.00759  -0.00775   2.05159
    A8        1.98769   0.01064   0.00000   0.02448   0.02403   2.01172
    A9        2.01830   0.00656   0.00000   0.01491   0.01447   2.03277
   A10        2.01965  -0.00426   0.00000  -0.00415  -0.00473   2.01492
   A11        2.01641   0.00307   0.00000   0.00643   0.00632   2.02273
   A12        2.08347  -0.00815   0.00000  -0.00114  -0.00123   2.08224
   A13        2.00139   0.00574   0.00000   0.00940   0.00931   2.01070
   A14        2.11866  -0.04313   0.00000   0.01527   0.01525   2.13391
   A15        2.15037   0.01302   0.00000  -0.02276  -0.02278   2.12759
   A16        2.01347   0.02956   0.00000   0.00707   0.00704   2.02051
   A17        2.08886  -0.03981   0.00000   0.00049   0.00049   2.08935
   A18        2.10242   0.01640   0.00000   0.00170   0.00170   2.10412
   A19        2.05123   0.01990   0.00000  -0.00140  -0.00141   2.04983
   A20        2.15898  -0.00054   0.00000  -0.00303  -0.00309   2.15590
   A21        1.99518   0.00268   0.00000   0.00515   0.00509   2.00027
   A22        2.12885  -0.00215   0.00000  -0.00246  -0.00251   2.12634
    D1        0.39832   0.01079   0.00000   0.00920   0.00914   0.40746
    D2        2.52041   0.00710   0.00000   0.01991   0.01978   2.54019
    D3       -1.69847   0.00578   0.00000   0.00834   0.00853  -1.68994
    D4       -0.71579   0.03512   0.00000  -0.00899  -0.00906  -0.72484
    D5        2.38401   0.01913   0.00000  -0.02150  -0.02143   2.36257
    D6        2.10296  -0.00009   0.00000   0.00643   0.00646   2.10942
    D7       -1.68265   0.00321   0.00000   0.03289   0.03292  -1.64973
    D8        0.22873   0.00549   0.00000  -0.00089  -0.00092   0.22781
    D9        2.72630   0.00878   0.00000   0.02557   0.02555   2.75185
   D10       -2.38437  -0.00568   0.00000  -0.01425  -0.01426  -2.39862
   D11        0.11321  -0.00238   0.00000   0.01221   0.01221   0.12541
   D12       -0.95882   0.00397   0.00000   0.03990   0.04007  -0.91875
   D13        2.49271   0.01354   0.00000   0.03723   0.03739   2.53011
   D14        2.92203  -0.00962   0.00000  -0.00035  -0.00052   2.92151
   D15        0.09037  -0.00005   0.00000  -0.00303  -0.00320   0.08717
   D16        0.52902  -0.00201   0.00000   0.02166   0.02164   0.55065
   D17       -2.63188  -0.00245   0.00000   0.00195   0.00193  -2.62995
   D18        3.03185   0.00038   0.00000   0.04689   0.04691   3.07876
   D19       -0.12905  -0.00006   0.00000   0.02719   0.02721  -0.10184
   D20       -0.02878   0.00508   0.00000  -0.00142  -0.00145  -0.03023
   D21        2.81182  -0.00443   0.00000   0.00171   0.00167   2.81350
   D22       -3.13166   0.02009   0.00000   0.01088   0.01091  -3.12075
   D23       -0.29106   0.01059   0.00000   0.01401   0.01404  -0.27702
         Item               Value     Threshold  Converged?
 Maximum Force            0.092350     0.000450     NO 
 RMS     Force            0.021337     0.000300     NO 
 Maximum Displacement     0.157431     0.001800     NO 
 RMS     Displacement     0.036591     0.001200     NO 
 Predicted change in Energy=-7.722530D-03
 Optimization stopped.
    -- Wrong number of Negative eigenvalues: Desired=  1 Actual=  2
    -- Flag reset to prevent archiving.
                           ----------------------------
                           ! Non-Optimized Parameters !
                           ! (Angstroms and Degrees)  !
 --------------------------                            --------------------------
 ! Name  Definition              Value          Derivative Info.                !
 --------------------------------------------------------------------------------
 ! R1    R(1,2)                  1.9597         -DE/DX =   -0.0242              !
 ! R2    R(1,5)                  1.2328         -DE/DX =    0.0157              !
 ! R3    R(2,4)                  1.4517         -DE/DX =   -0.0376              !
 ! R4    R(2,10)                 1.0887         -DE/DX =    0.0016              !
 ! R5    R(2,11)                 1.0906         -DE/DX =    0.0007              !
 ! R6    R(3,6)                  1.4387         -DE/DX =   -0.0437              !
 ! R7    R(3,8)                  1.0945         -DE/DX =   -0.0006              !
 ! R8    R(3,15)                 1.091          -DE/DX =    0.0039              !
 ! R9    R(4,12)                 1.0907         -DE/DX =    0.0043              !
 ! R10   R(4,13)                 1.4897         -DE/DX =   -0.0167              !
 ! R11   R(5,6)                  1.4672         -DE/DX =   -0.0661              !
 ! R12   R(5,7)                  1.1056         -DE/DX =    0.0028              !
 ! R13   R(6,9)                  1.0866         -DE/DX =    0.0077              !
 ! R14   R(13,14)                1.2215         -DE/DX =   -0.0261              !
 ! R15   R(13,16)                1.1065         -DE/DX =    0.0088              !
 ! A1    A(2,1,5)              122.0847         -DE/DX =   -0.0923              !
 ! A2    A(1,2,4)              111.3235         -DE/DX =   -0.026               !
 ! A3    A(1,2,10)              94.7906         -DE/DX =    0.0089              !
 ! A4    A(1,2,11)              89.779          -DE/DX =    0.0052              !
 ! A5    A(4,2,10)             117.6615         -DE/DX =    0.0006              !
 ! A6    A(4,2,11)             118.0073         -DE/DX =    0.0083              !
 ! A7    A(10,2,11)            117.5476         -DE/DX =   -0.0026              !
 ! A8    A(6,3,8)              115.2631         -DE/DX =    0.0106              !
 ! A9    A(6,3,15)             116.4691         -DE/DX =    0.0066              !
 ! A10   A(8,3,15)             115.4462         -DE/DX =   -0.0043              !
 ! A11   A(2,4,12)             115.8939         -DE/DX =    0.0031              !
 ! A12   A(2,4,13)             119.3038         -DE/DX =   -0.0082              !
 ! A13   A(12,4,13)            115.2044         -DE/DX =    0.0057              !
 ! A14   A(1,5,6)              122.264          -DE/DX =   -0.0431              !
 ! A15   A(1,5,7)              121.902          -DE/DX =    0.013               !
 ! A16   A(6,5,7)              115.767          -DE/DX =    0.0296              !
 ! A17   A(3,6,5)              119.7107         -DE/DX =   -0.0398              !
 ! A18   A(3,6,9)              120.5571         -DE/DX =    0.0164              !
 ! A19   A(5,6,9)              117.4465         -DE/DX =    0.0199              !
 ! A20   A(4,13,14)            123.5237         -DE/DX =   -0.0005              !
 ! A21   A(4,13,16)            114.6071         -DE/DX =    0.0027              !
 ! A22   A(14,13,16)           121.8302         -DE/DX =   -0.0022              !
 ! D1    D(5,1,2,4)             23.3455         -DE/DX =    0.0108              !
 ! D2    D(5,1,2,10)           145.5421         -DE/DX =    0.0071              !
 ! D3    D(5,1,2,11)           -96.8262         -DE/DX =    0.0058              !
 ! D4    D(2,1,5,6)            -41.5304         -DE/DX =    0.0351              !
 ! D5    D(2,1,5,7)            135.3653         -DE/DX =    0.0191              !
 ! D6    D(1,2,4,12)           120.8606         -DE/DX =   -0.0001              !
 ! D7    D(1,2,4,13)           -94.5227         -DE/DX =    0.0032              !
 ! D8    D(10,2,4,12)           13.0526         -DE/DX =    0.0055              !
 ! D9    D(10,2,4,13)          157.6693         -DE/DX =    0.0088              !
 ! D10   D(11,2,4,12)         -137.431          -DE/DX =   -0.0057              !
 ! D11   D(11,2,4,13)            7.1857         -DE/DX =   -0.0024              !
 ! D12   D(8,3,6,5)            -52.6403         -DE/DX =    0.004               !
 ! D13   D(8,3,6,9)            144.9644         -DE/DX =    0.0135              !
 ! D14   D(15,3,6,5)           167.39           -DE/DX =   -0.0096              !
 ! D15   D(15,3,6,9)             4.9946         -DE/DX =   -0.0001              !
 ! D16   D(2,4,13,14)           31.5501         -DE/DX =   -0.002               !
 ! D17   D(2,4,13,16)         -150.685          -DE/DX =   -0.0024              !
 ! D18   D(12,4,13,14)         176.3999         -DE/DX =    0.0004              !
 ! D19   D(12,4,13,16)          -5.8352         -DE/DX =   -0.0001              !
 ! D20   D(1,5,6,3)             -1.7321         -DE/DX =    0.0051              !
 ! D21   D(1,5,6,9)            161.2016         -DE/DX =   -0.0044              !
 ! D22   D(7,5,6,3)           -178.8059         -DE/DX =    0.0201              !
 ! D23   D(7,5,6,9)            -15.8722         -DE/DX =    0.0106              !
 --------------------------------------------------------------------------------
 GradGradGradGradGradGradGradGradGradGradGradGradGradGradGradGradGradGrad

                          Input orientation:                          
 ---------------------------------------------------------------------
 Center     Atomic      Atomic             Coordinates (Angstroms)
 Number     Number       Type             X           Y           Z
 ---------------------------------------------------------------------
      1          8           0        1.457100    1.027700   -0.470300
      2          6           0       -0.244700    1.596000    0.271500
      3          6           0        0.524300   -1.106400    1.176700
      4          6           0       -0.970400    0.443000    0.825300
      5          6           0        1.708900   -0.117000   -0.842400
      6          6           0        1.254700   -1.297300   -0.069800
      7          1           0        2.245800   -0.343300   -1.778400
      8          1           0        1.047500   -0.479100    1.905400
      9          1           0        1.224600   -2.249700   -0.583000
     10          1           0        0.186900    2.299600    0.979500
     11          1           0       -0.570200    1.978400   -0.695800
     12          1           0       -1.207000    0.503000    1.886500
     13          6           0       -2.006300   -0.239100   -0.006800
     14          8           0       -1.963700   -0.300500   -1.228800
     15          1           0        0.039300   -1.994500    1.579500
     16          1           0       -2.818000   -0.708500    0.573500
 ---------------------------------------------------------------------
                    Distance matrix (angstroms):
                    1          2          3          4          5
     1  O    0.000000
     2  C    1.941483   0.000000
     3  C    2.852562   2.951900   0.000000
     4  C    2.813043   1.470627   2.181341   0.000000
     5  C    1.229715   2.826959   2.541447   3.205226   0.000000
     6  C    2.367909   3.276564   1.457288   2.963261   1.481997
     7  H    2.052514   3.763717   3.504069   4.212062   1.102529
     8  H    2.842916   2.940315   1.094645   2.467550   2.849381
     9  H    3.287569   4.204571   2.212261   3.748595   2.202327
    10  H    2.309341   1.087472   3.428347   2.193190   3.387589
    11  H    2.250472   1.089885   3.770965   2.198035   3.099434
    12  H    3.595448   2.174602   2.468073   1.088910   4.041506
    13  C    3.716820   2.558960   2.925204   1.493566   3.809967
    14  O    3.747174   2.966913   3.553315   2.399742   3.697427
    15  H    3.917337   3.831868   1.089126   2.744033   3.489723
    16  H    4.730792   3.467535   3.419524   2.191570   4.779903
                    6          7          8          9         10
     6  C    0.000000
     7  H    2.193561   0.000000
     8  H    2.147975   3.876177   0.000000
     9  H    1.082287   2.471071   3.059170   0.000000
    10  H    3.896013   4.339355   3.052720   4.920809   0.000000
    11  H    3.801624   3.806858   3.927149   4.594656   1.866280
    12  H    3.623280   5.105834   2.459197   4.425886   2.448138
    13  C    3.428976   4.607578   3.611067   3.848796   3.496843
    14  O    3.563003   4.245443   4.349992   3.792321   4.032640
    15  H    2.164134   4.344030   1.849085   2.479207   4.338327
    16  H    4.165022   5.595255   4.094957   4.478326   4.271174
                   11         12         13         14         15
    11  H    0.000000
    12  H    3.041479   0.000000
    13  C    2.730277   2.184989   0.000000
    14  O    2.723842   3.305042   1.224283   0.000000
    15  H    4.618703   2.808028   3.127660   3.842941   0.000000
    16  H    3.726011   2.405623   1.102697   2.035824   3.290896
                   16
    16  H    0.000000
 Stoichiometry    C6H8O2
 Framework group  C1[X(C6H8O2)]
 Deg. of freedom    42
 Full point group                 C1      NOp   1
 Largest Abelian subgroup         C1      NOp   1
 Largest concise Abelian subgroup C1      NOp   1
                         Standard orientation:                         
 ---------------------------------------------------------------------
 Center     Atomic      Atomic             Coordinates (Angstroms)
 Number     Number       Type             X           Y           Z
 ---------------------------------------------------------------------
      1          8           0        1.456663    1.150187   -0.166589
      2          6           0       -0.295156    1.484708    0.600602
      3          6           0        0.577324   -1.309812    0.978956
      4          6           0       -0.980385    0.214072    0.881122
      5          6           0        1.777583    0.115798   -0.749039
      6          6           0        1.357444   -1.214233   -0.248222
      7          1           0        2.355984    0.105909   -1.687615
      8          1           0        1.043980   -0.820927    1.840043
      9          1           0        1.392065   -2.043889   -0.942352
     10          1           0        0.076943    2.048562    1.452780
     11          1           0       -0.606967    2.040330   -0.283653
     12          1           0       -1.254887    0.048655    1.921800
     13          6           0       -1.952636   -0.329229   -0.114011
     14          8           0       -1.866360   -0.140930   -1.320646
     15          1           0        0.124155   -2.280601    1.174920
     16          1           0       -2.758742   -0.939929    0.325510
 ---------------------------------------------------------------------
 Rotational constants (GHZ):           2.7622736           1.6518644           1.4942764
 Rotating derivatives to standard orientation.
 Full mass-weighted force constant matrix:
 Low frequencies --- -891.9918 -161.0518 -146.8102   -0.0363   -0.0250    0.0199
 Low frequencies ---   50.2840   64.2133  109.7322
 ******    3 imaginary frequencies (negative Signs) ****** 
 Diagonal vibrational polarizability:
        0.0000000       0.0000000       0.0000000
 Harmonic frequencies (cm**-1), IR intensities (KM/Mole), Raman scattering
 activities (A**4/AMU), depolarization ratios for plane and unpolarized
 incident light, reduced masses (AMU), force constants (mDyne/A),
 and normal coordinates:
                      1                      2                      3
                      A                      A                      A
 Frequencies --   -891.9546              -152.9953               -81.8125
 Red. masses --      6.3736                 4.1972                 3.2751
 Frc consts  --      2.9876                 0.0579                 0.0129
 IR Inten    --      0.0000                 0.0000                 0.0000
  Atom  AN      X      Y      Z        X      Y      Z        X      Y      Z
     1   8    -0.18   0.06   0.10    -0.12   0.02  -0.17     0.19  -0.04   0.19
     2   6     0.35  -0.05  -0.16    -0.02  -0.04  -0.03    -0.03   0.05  -0.10
     3   6    -0.26   0.21   0.04     0.04  -0.03   0.07    -0.02   0.06   0.01
     4   6     0.21  -0.28  -0.00     0.00  -0.05  -0.02     0.03   0.04  -0.04
     5   6    -0.12  -0.08   0.03     0.11  -0.05   0.09    -0.07   0.02  -0.04
     6   6     0.05   0.10  -0.07     0.10  -0.04   0.12    -0.08   0.02  -0.04
     7   1    -0.05   0.18   0.08     0.31  -0.13   0.20    -0.27   0.05  -0.16
     8   1     0.24  -0.24   0.06    -0.03  -0.00   0.09     0.05   0.09  -0.04
     9   1     0.24  -0.08   0.17     0.19  -0.06   0.15    -0.17   0.01  -0.04
    10   1     0.02  -0.00  -0.03     0.02  -0.05  -0.04    -0.16   0.17  -0.13
    11   1    -0.19   0.03   0.06    -0.08  -0.03  -0.00     0.09  -0.09  -0.23
    12   1    -0.25   0.35  -0.01    -0.00  -0.05  -0.02    -0.00   0.12  -0.03
    13   6     0.01  -0.02   0.00     0.07  -0.12  -0.04     0.11  -0.17  -0.01
    14   8    -0.00   0.01   0.01    -0.16   0.29   0.01    -0.14   0.04   0.01
    15   1    -0.16   0.13  -0.08     0.04  -0.04   0.05    -0.01   0.07   0.08
    16   1    -0.02   0.04   0.01     0.39  -0.60  -0.12     0.43  -0.58   0.01
                      4                      5                      6
                      A                      A                      A
 Frequencies --    110.5273               204.9870               209.5262
 Red. masses --      4.7479                 2.7370                 5.2405
 Frc consts  --      0.0342                 0.0678                 0.1355
 IR Inten    --      0.0000                 0.0000                 0.0000
  Atom  AN      X      Y      Z        X      Y      Z        X      Y      Z
     1   8    -0.04   0.01  -0.13    -0.04  -0.06   0.09     0.28   0.06  -0.13
     2   6    -0.05   0.01   0.14     0.03  -0.06  -0.01    -0.04  -0.17   0.17
     3   6    -0.06   0.05   0.09     0.21   0.02   0.12    -0.08   0.26   0.07
     4   6    -0.01  -0.02   0.09    -0.01  -0.05  -0.05    -0.04  -0.21   0.01
     5   6    -0.21  -0.04  -0.12    -0.14  -0.01  -0.07     0.12  -0.01  -0.07
     6   6    -0.16  -0.01   0.02     0.08  -0.04   0.04    -0.03   0.09   0.05
     7   1    -0.41  -0.13  -0.24    -0.43   0.06  -0.24     0.05  -0.19  -0.11
     8   1     0.04   0.07   0.03     0.17   0.30  -0.01     0.09   0.19   0.03
     9   1    -0.25  -0.04   0.06     0.15  -0.11   0.14    -0.15   0.02   0.13
    10   1     0.01  -0.04   0.14     0.00  -0.09   0.03     0.07  -0.34   0.23
    11   1    -0.05   0.04   0.16     0.01   0.00   0.03     0.07  -0.06   0.21
    12   1    -0.11  -0.04   0.07     0.01  -0.12  -0.06    -0.18  -0.23  -0.02
    13   6     0.18  -0.10  -0.05    -0.07   0.08  -0.07    -0.14  -0.03  -0.05
    14   8     0.31   0.10  -0.01    -0.04   0.08  -0.07    -0.10  -0.00  -0.04
    15   1    -0.03   0.06   0.19     0.42  -0.02   0.37    -0.11   0.28   0.14
    16   1     0.28  -0.37  -0.24    -0.19   0.23  -0.07    -0.28   0.15  -0.06
                      7                      8                      9
                      A                      A                      A
 Frequencies --    286.8782               339.3757               407.1565
 Red. masses --      3.4477                 3.0184                 1.7999
 Frc consts  --      0.1672                 0.2048                 0.1758
 IR Inten    --      0.0000                 0.0000                 0.0000
  Atom  AN      X      Y      Z        X      Y      Z        X      Y      Z
     1   8    -0.00  -0.09   0.06    -0.12  -0.16   0.05     0.05  -0.02  -0.01
     2   6    -0.16  -0.08  -0.16     0.02   0.08   0.15    -0.04   0.04   0.03
     3   6     0.01   0.11  -0.06     0.01   0.21  -0.08    -0.10  -0.00  -0.08
     4   6    -0.07  -0.08   0.10    -0.06   0.09   0.01    -0.03   0.03   0.02
     5   6     0.09  -0.02  -0.03     0.09  -0.06  -0.03    -0.04  -0.01  -0.07
     6   6     0.04  -0.01  -0.08     0.04  -0.06  -0.10     0.18  -0.01   0.06
     7   1     0.21   0.06   0.04     0.31   0.09   0.11    -0.36  -0.01  -0.27
     8   1     0.10   0.17  -0.13     0.10   0.42  -0.24    -0.29  -0.05   0.04
     9   1     0.03  -0.05  -0.03     0.09  -0.14   0.02     0.65  -0.18   0.30
    10   1    -0.24   0.23  -0.34     0.13  -0.13   0.24    -0.04   0.03   0.03
    11   1    -0.17  -0.42  -0.38     0.06   0.28   0.26     0.01   0.03   0.01
    12   1    -0.05   0.05   0.12    -0.13   0.06  -0.01    -0.06   0.05   0.02
    13   6    -0.09  -0.00   0.07     0.04  -0.02  -0.02    -0.01  -0.00   0.02
    14   8     0.16   0.14   0.11    -0.03  -0.06  -0.03     0.00   0.01   0.02
    15   1     0.02   0.14   0.06    -0.02   0.28   0.18    -0.11  -0.04  -0.26
    16   1    -0.23   0.09  -0.09     0.18  -0.21  -0.00     0.01  -0.05   0.01
                     10                     11                     12
                      A                      A                      A
 Frequencies --    490.5932               619.4756               654.5950
 Red. masses --      2.9739                 1.4761                 1.9019
 Frc consts  --      0.4217                 0.3338                 0.4802
 IR Inten    --      0.0000                 0.0000                 0.0000
  Atom  AN      X      Y      Z        X      Y      Z        X      Y      Z
     1   8    -0.01  -0.05  -0.00     0.04   0.07  -0.01    -0.01   0.02  -0.03
     2   6    -0.23   0.15   0.06    -0.02   0.02  -0.01     0.02  -0.06   0.07
     3   6    -0.02   0.04   0.02    -0.05  -0.02  -0.06    -0.01  -0.02  -0.02
     4   6     0.24  -0.11  -0.03     0.05  -0.03  -0.04    -0.01  -0.01   0.16
     5   6     0.01  -0.05   0.01    -0.05  -0.01   0.08    -0.01   0.00  -0.00
     6   6     0.01  -0.04   0.01    -0.08  -0.05  -0.04    -0.02  -0.00  -0.02
     7   1    -0.02  -0.06  -0.01     0.13  -0.07   0.18     0.08   0.00   0.05
     8   1     0.23  -0.20   0.04    -0.18   0.49  -0.27    -0.06   0.13  -0.07
     9   1    -0.07  -0.05   0.01     0.41  -0.15   0.11     0.16  -0.05   0.04
    10   1    -0.32   0.28  -0.00     0.01  -0.04   0.02    -0.30   0.37  -0.08
    11   1    -0.34   0.05   0.04    -0.10   0.09   0.06     0.20  -0.50  -0.28
    12   1     0.33  -0.30  -0.03     0.15  -0.09  -0.02    -0.38   0.15   0.09
    13   6     0.10   0.07  -0.02    -0.00  -0.01   0.02     0.13   0.09  -0.04
    14   8    -0.05   0.00  -0.04     0.02   0.01   0.03    -0.07  -0.04  -0.08
    15   1    -0.22   0.12  -0.04     0.38  -0.14   0.36     0.18  -0.09   0.09
    16   1    -0.06   0.36   0.11    -0.03   0.03   0.03     0.10   0.15   0.03
                     13                     14                     15
                      A                      A                      A
 Frequencies --    709.0735               755.8090               800.9675
 Red. masses --      2.1804                 1.3538                 1.4082
 Frc consts  --      0.6459                 0.4556                 0.5323
 IR Inten    --      0.0000                 0.0000                 0.0000
  Atom  AN      X      Y      Z        X      Y      Z        X      Y      Z
     1   8     0.03   0.11  -0.04    -0.00   0.02   0.02    -0.06  -0.01  -0.00
     2   6     0.01   0.02   0.02     0.01  -0.08  -0.03     0.04  -0.08   0.01
     3   6     0.07   0.03  -0.06    -0.02   0.03  -0.03    -0.05   0.04  -0.05
     4   6    -0.04   0.01  -0.00    -0.03   0.03   0.07     0.04   0.02  -0.07
     5   6    -0.08  -0.05   0.17    -0.01   0.01   0.04     0.02   0.04   0.01
     6   6     0.09  -0.16  -0.05     0.01  -0.03   0.02     0.01  -0.01   0.07
     7   1    -0.33  -0.08  -0.01    -0.17  -0.01  -0.05    -0.20   0.02  -0.12
     8   1     0.44  -0.03  -0.21    -0.01   0.10  -0.08    -0.33   0.29  -0.05
     9   1    -0.06  -0.00  -0.24    -0.01   0.02  -0.03    -0.24   0.11  -0.09
    10   1    -0.24   0.08   0.09     0.52  -0.05  -0.29    -0.30  -0.01   0.12
    11   1     0.18  -0.02  -0.07    -0.42  -0.15   0.05     0.47  -0.15  -0.18
    12   1    -0.17   0.15  -0.01     0.31  -0.38   0.08     0.32  -0.32  -0.06
    13   6    -0.05  -0.03  -0.00     0.05   0.07  -0.01     0.04  -0.01   0.02
    14   8     0.01   0.00   0.01    -0.02  -0.02  -0.04     0.01   0.01   0.03
    15   1    -0.45   0.33   0.10    -0.22   0.15   0.02    -0.11   0.09   0.02
    16   1    -0.05  -0.04  -0.03     0.17  -0.10  -0.01    -0.02   0.11   0.09
                     16                     17                     18
                      A                      A                      A
 Frequencies --    856.2898               914.9291               945.5173
 Red. masses --      1.2280                 1.6098                 1.8440
 Frc consts  --      0.5305                 0.7940                 0.9713
 IR Inten    --      0.0000                 0.0000                 0.0000
  Atom  AN      X      Y      Z        X      Y      Z        X      Y      Z
     1   8    -0.00   0.00   0.01    -0.01   0.00   0.01    -0.05  -0.02  -0.02
     2   6     0.02  -0.03   0.01    -0.08  -0.08  -0.08     0.01   0.03   0.01
     3   6     0.05   0.00   0.03     0.02  -0.03   0.00    -0.01  -0.03   0.02
     4   6    -0.02   0.04  -0.02    -0.01   0.01   0.00     0.01   0.00   0.00
     5   6    -0.04   0.01  -0.03     0.01   0.04  -0.01     0.20  -0.00   0.08
     6   6    -0.09   0.03  -0.03    -0.04  -0.00  -0.00    -0.12   0.07  -0.04
     7   1     0.25  -0.00   0.15    -0.04   0.03  -0.04    -0.70   0.01  -0.47
     8   1     0.25  -0.20   0.04    -0.00   0.07  -0.04     0.25  -0.05  -0.10
     9   1     0.49  -0.20   0.29     0.19  -0.04   0.07     0.30   0.00   0.06
    10   1    -0.14   0.04   0.04     0.15  -0.47   0.10     0.04   0.09  -0.04
    11   1     0.24  -0.10  -0.11     0.09   0.24   0.08     0.01  -0.03  -0.02
    12   1     0.27  -0.30  -0.01    -0.21   0.32   0.01    -0.01   0.03  -0.00
    13   6    -0.02   0.00  -0.00     0.17  -0.03   0.02    -0.04  -0.02  -0.01
    14   8     0.01  -0.00   0.00    -0.03   0.02   0.01     0.00  -0.00  -0.00
    15   1    -0.35   0.18  -0.07    -0.33   0.16   0.04     0.07  -0.04   0.16
    16   1     0.04  -0.07  -0.01    -0.17   0.48   0.15    -0.02  -0.05  -0.04
                     19                     20                     21
                      A                      A                      A
 Frequencies --    965.8884               971.6299              1022.3464
 Red. masses --      1.8387                 1.9132                 1.4999
 Frc consts  --      1.0107                 1.0642                 0.9237
 IR Inten    --      0.0000                 0.0000                 0.0000
  Atom  AN      X      Y      Z        X      Y      Z        X      Y      Z
     1   8     0.01   0.00  -0.00    -0.00   0.01   0.01     0.01   0.00  -0.01
     2   6    -0.08  -0.07  -0.08     0.02   0.01   0.02     0.02   0.00  -0.07
     3   6    -0.01   0.00   0.01    -0.12  -0.14   0.06    -0.10   0.02  -0.00
     4   6     0.01  -0.05  -0.01     0.03  -0.01  -0.01    -0.10   0.05   0.08
     5   6     0.02  -0.01   0.01     0.04   0.11  -0.14     0.00  -0.02  -0.01
     6   6     0.00   0.00  -0.01     0.06  -0.04   0.05     0.05   0.00   0.01
     7   1    -0.07  -0.01  -0.04     0.19   0.22  -0.03     0.01   0.00  -0.01
     8   1     0.07  -0.04  -0.01     0.29   0.14  -0.29     0.45  -0.27  -0.09
     9   1     0.00   0.00  -0.01    -0.00   0.10  -0.12    -0.04   0.05  -0.05
    10   1    -0.33  -0.36   0.25     0.02   0.08  -0.03    -0.29  -0.11   0.16
    11   1     0.13   0.24   0.07    -0.03  -0.05  -0.01     0.05   0.24   0.08
    12   1    -0.03   0.11   0.01    -0.05   0.08  -0.01     0.35  -0.27   0.13
    13   6    -0.00   0.22   0.05    -0.04   0.01  -0.00     0.06  -0.04  -0.01
    14   8     0.02  -0.04   0.01     0.01  -0.00  -0.00    -0.02   0.01  -0.02
    15   1     0.08  -0.04   0.02    -0.35   0.13   0.66     0.38  -0.19   0.14
    16   1     0.52  -0.49   0.05     0.04  -0.11  -0.03    -0.13   0.19  -0.03
                     22                     23                     24
                      A                      A                      A
 Frequencies --   1060.7909              1126.8355              1130.8470
 Red. masses --      1.2067                 1.6522                 1.6504
 Frc consts  --      0.8000                 1.2360                 1.2435
 IR Inten    --      0.0000                 0.0000                 0.0000
  Atom  AN      X      Y      Z        X      Y      Z        X      Y      Z
     1   8    -0.02  -0.01   0.00    -0.01   0.02   0.00     0.01  -0.07  -0.00
     2   6    -0.08   0.02   0.02    -0.01   0.06  -0.05     0.01   0.01  -0.01
     3   6    -0.05   0.03  -0.02     0.03  -0.01   0.02     0.04  -0.04  -0.05
     4   6     0.05  -0.01  -0.01     0.04  -0.06   0.17     0.02  -0.02   0.05
     5   6    -0.04   0.00   0.02     0.03   0.03  -0.01    -0.06  -0.07   0.02
     6   6     0.02   0.01   0.02    -0.01  -0.05  -0.03    -0.00   0.16   0.07
     7   1     0.03  -0.04   0.06    -0.02   0.17  -0.03     0.05  -0.44   0.09
     8   1     0.27  -0.17  -0.05    -0.33   0.14   0.11     0.04   0.22  -0.20
     9   1     0.04   0.07  -0.05    -0.10  -0.16   0.10     0.28   0.54  -0.38
    10   1     0.56  -0.19  -0.14     0.04  -0.10   0.05    -0.08   0.01   0.03
    11   1     0.57  -0.14  -0.29     0.34   0.23  -0.04     0.01   0.09   0.04
    12   1    -0.02   0.02  -0.02     0.48   0.25   0.32     0.14   0.15   0.11
    13   6    -0.02   0.00  -0.00    -0.06  -0.02  -0.04    -0.02  -0.01  -0.01
    14   8     0.00  -0.00   0.00    -0.02  -0.01  -0.06    -0.01  -0.00  -0.02
    15   1     0.22  -0.10   0.03    -0.13   0.06  -0.04    -0.18   0.11   0.04
    16   1     0.02  -0.03   0.01    -0.13  -0.12  -0.31    -0.04  -0.04  -0.10
                     25                     26                     27
                      A                      A                      A
 Frequencies --   1192.0166              1224.1617              1314.3615
 Red. masses --      1.3695                 1.3737                 1.7132
 Frc consts  --      1.1465                 1.2129                 1.7437
 IR Inten    --      0.0000                 0.0000                 0.0000
  Atom  AN      X      Y      Z        X      Y      Z        X      Y      Z
     1   8    -0.01   0.00   0.01    -0.01   0.01   0.01     0.03  -0.02  -0.05
     2   6    -0.01  -0.10   0.06     0.02   0.04  -0.03    -0.01   0.03   0.03
     3   6    -0.01   0.02  -0.06     0.03  -0.06  -0.11    -0.00  -0.06   0.02
     4   6     0.04   0.06  -0.05     0.00  -0.03   0.03    -0.08  -0.04  -0.04
     5   6    -0.01   0.03  -0.00     0.00   0.01  -0.00    -0.04  -0.13   0.06
     6   6    -0.01  -0.00   0.05     0.00   0.08   0.06     0.04   0.13  -0.03
     7   1     0.01  -0.13   0.02    -0.01  -0.27   0.01    -0.01   0.82   0.04
     8   1     0.22  -0.09  -0.11     0.19   0.12  -0.28     0.05   0.20  -0.15
     9   1    -0.12  -0.15   0.23    -0.43  -0.36   0.56    -0.16  -0.04   0.16
    10   1    -0.08   0.02   0.01     0.01   0.01  -0.01     0.07   0.02  -0.01
    11   1    -0.20  -0.19   0.06     0.06   0.12  -0.00     0.03  -0.10  -0.07
    12   1     0.45   0.67   0.17    -0.24  -0.20  -0.06     0.23   0.13   0.06
    13   6    -0.03  -0.02  -0.02     0.00   0.01   0.01     0.03   0.01   0.00
    14   8     0.00   0.01  -0.02    -0.00  -0.00   0.01     0.00   0.00   0.00
    15   1     0.11  -0.04  -0.04    -0.07   0.02  -0.01    -0.10   0.00  -0.01
    16   1     0.02   0.01   0.07    -0.03  -0.03  -0.09     0.09   0.07   0.20
                     28                     29                     30
                      A                      A                      A
 Frequencies --   1336.4376              1341.4368              1353.8842
 Red. masses --      1.2559                 1.2845                 1.5163
 Frc consts  --      1.3216                 1.3618                 1.6376
 IR Inten    --      0.0000                 0.0000                 0.0000
  Atom  AN      X      Y      Z        X      Y      Z        X      Y      Z
     1   8    -0.01   0.01   0.02     0.00  -0.00  -0.01     0.00  -0.00  -0.00
     2   6    -0.01   0.01   0.01    -0.01  -0.07  -0.02     0.01   0.04  -0.04
     3   6    -0.00  -0.01   0.01     0.01   0.01  -0.01     0.00  -0.01  -0.00
     4   6    -0.07  -0.05  -0.00     0.03   0.00   0.04     0.09   0.08   0.09
     5   6     0.01   0.00   0.00    -0.00   0.02  -0.01    -0.00  -0.01   0.00
     6   6     0.05   0.04  -0.09    -0.05  -0.05   0.08    -0.00   0.01   0.00
     7   1    -0.02  -0.42  -0.01     0.02   0.27   0.00     0.01   0.08   0.01
     8   1    -0.20  -0.13   0.19     0.17   0.14  -0.17    -0.01   0.05  -0.03
     9   1    -0.08  -0.08   0.05     0.08   0.07  -0.06    -0.02   0.00   0.01
    10   1     0.07   0.19  -0.14    -0.01   0.36  -0.28    -0.10  -0.49   0.36
    11   1     0.15   0.15   0.04     0.19   0.45   0.23    -0.22  -0.33  -0.17
    12   1     0.15   0.04   0.07    -0.12  -0.06  -0.00    -0.15  -0.15  -0.01
    13   6    -0.02  -0.01  -0.03    -0.05  -0.03  -0.03    -0.10  -0.06  -0.06
    14   8     0.02   0.01  -0.02     0.02   0.01  -0.02     0.02   0.02  -0.04
    15   1    -0.05   0.07   0.34     0.04  -0.07  -0.34    -0.01  -0.00  -0.02
    16   1     0.25   0.12   0.59     0.16   0.04   0.39     0.18   0.06   0.55
                     31                     32                     33
                      A                      A                      A
 Frequencies --   1367.8238              1406.2240              1969.1730
 Red. masses --      1.4935                 3.9562                10.3527
 Frc consts  --      1.6464                 4.6093                23.6523
 IR Inten    --      0.0000                 0.0000                 0.0000
  Atom  AN      X      Y      Z        X      Y      Z        X      Y      Z
     1   8     0.01  -0.02  -0.02     0.01  -0.01  -0.00     0.11  -0.43  -0.23
     2   6    -0.02  -0.08  -0.01     0.09   0.18  -0.02     0.09   0.04  -0.05
     3   6     0.03   0.02  -0.11     0.10   0.07  -0.21    -0.05   0.02   0.05
     4   6     0.09   0.08   0.03    -0.16  -0.21  -0.02    -0.01  -0.08   0.01
     5   6    -0.03  -0.04   0.03     0.02   0.05  -0.05    -0.19   0.57   0.33
     6   6    -0.00   0.05   0.02    -0.15  -0.12   0.23     0.05   0.01  -0.09
     7   1    -0.00   0.34   0.03     0.02   0.30  -0.04    -0.21   0.06   0.33
     8   1    -0.22  -0.41   0.29    -0.03  -0.41   0.17     0.07  -0.03   0.02
     9   1    -0.01   0.01   0.06     0.18   0.16  -0.09    -0.02  -0.13   0.15
    10   1    -0.06   0.09  -0.09     0.05  -0.10   0.16    -0.09   0.02   0.03
    11   1     0.03   0.18   0.13    -0.10  -0.19  -0.17    -0.13   0.04   0.05
    12   1    -0.17  -0.07  -0.06     0.14   0.13   0.10    -0.07   0.05   0.02
    13   6    -0.03  -0.02  -0.01     0.04   0.03   0.01     0.00   0.01  -0.00
    14   8    -0.00  -0.00  -0.00     0.01   0.00  -0.00    -0.00  -0.00   0.00
    15   1     0.02   0.15   0.61     0.09   0.14   0.25    -0.01  -0.01  -0.02
    16   1    -0.08  -0.04  -0.14     0.17   0.06   0.31     0.02  -0.01   0.01
                     34                     35                     36
                      A                      A                      A
 Frequencies --   2073.7201              3167.1706              3168.2509
 Red. masses --     11.2877                 1.0737                 1.0759
 Frc consts  --     28.5993                 6.3457                 6.3630
 IR Inten    --      0.0000                 0.0000                 0.0000
  Atom  AN      X      Y      Z        X      Y      Z        X      Y      Z
     1   8     0.00  -0.00  -0.00     0.00  -0.00  -0.00     0.00   0.00  -0.00
     2   6    -0.01  -0.01   0.01     0.00   0.00   0.00    -0.00  -0.00   0.00
     3   6    -0.01   0.01   0.00     0.00   0.00   0.00     0.00  -0.00  -0.00
     4   6     0.00   0.00  -0.04    -0.00  -0.00  -0.00    -0.00   0.00  -0.00
     5   6    -0.00   0.00   0.00     0.00  -0.00  -0.00     0.04  -0.00  -0.07
     6   6     0.00   0.00  -0.01    -0.00  -0.00  -0.00     0.00   0.00  -0.00
     7   1    -0.01  -0.00  -0.00    -0.01   0.00   0.02    -0.52   0.02   0.85
     8   1     0.02  -0.01   0.00    -0.00  -0.00  -0.01     0.00   0.00   0.01
     9   1     0.01  -0.01   0.00     0.00   0.00   0.00     0.00  -0.02  -0.02
    10   1     0.00   0.03  -0.02     0.00   0.00   0.00     0.00   0.00   0.00
    11   1     0.01   0.01   0.00    -0.00   0.00  -0.00     0.00  -0.00   0.00
    12   1    -0.14  -0.08  -0.04    -0.02  -0.01   0.05     0.00  -0.00   0.00
    13   6    -0.02  -0.09   0.73    -0.05  -0.04   0.04     0.00   0.00  -0.00
    14   8     0.04   0.09  -0.53    -0.00  -0.00  -0.00     0.00   0.00  -0.00
    15   1     0.00  -0.00   0.00    -0.00  -0.00   0.00    -0.00  -0.01   0.00
    16   1    -0.25  -0.18   0.22     0.72   0.55  -0.42    -0.02  -0.01   0.01
                     37                     38                     39
                      A                      A                      A
 Frequencies --   3196.2031              3232.9458              3244.3438
 Red. masses --      1.0894                 1.0851                 1.0624
 Frc consts  --      6.5572                 6.6821                 6.5887
 IR Inten    --      0.0000                 0.0000                 0.0000
  Atom  AN      X      Y      Z        X      Y      Z        X      Y      Z
     1   8     0.00  -0.00  -0.00    -0.00   0.00   0.00     0.00   0.00   0.00
     2   6    -0.00   0.00  -0.00    -0.02   0.03  -0.07    -0.00   0.00  -0.00
     3   6    -0.04  -0.05  -0.06     0.00   0.00   0.00    -0.03  -0.06   0.03
     4   6    -0.00   0.00   0.00    -0.01  -0.01   0.04     0.00  -0.00  -0.00
     5   6    -0.00   0.00   0.00    -0.00  -0.00   0.00     0.00   0.00  -0.00
     6   6    -0.00   0.00   0.00     0.00   0.00   0.00    -0.00   0.00   0.00
     7   1     0.00  -0.00  -0.01     0.00   0.00  -0.00    -0.00   0.00   0.01
     8   1     0.38   0.45   0.77    -0.01  -0.01  -0.01    -0.10  -0.13  -0.17
     9   1     0.00  -0.07  -0.06     0.00  -0.01  -0.01     0.00  -0.02  -0.02
    10   1    -0.00  -0.00  -0.00     0.06   0.11   0.12     0.01   0.01   0.01
    11   1     0.00  -0.01   0.01     0.23  -0.44   0.69     0.01  -0.02   0.03
    12   1     0.01   0.01  -0.03     0.11   0.08  -0.46    -0.00  -0.00   0.01
    13   6    -0.00  -0.00   0.00    -0.00  -0.00   0.00     0.00   0.00  -0.00
    14   8    -0.00   0.00   0.00    -0.00   0.00  -0.00     0.00   0.00  -0.00
    15   1     0.09   0.18  -0.07    -0.01  -0.03   0.01     0.43   0.85  -0.17
    16   1     0.01   0.00  -0.00     0.02   0.01  -0.01    -0.00  -0.00   0.00
                     40                     41                     42
                      A                      A                      A
 Frequencies --   3251.4952              3259.5510              3294.7366
 Red. masses --      1.0733                 1.0719                 1.0798
 Frc consts  --      6.6856                 6.7099                 6.9064
 IR Inten    --      0.0000                 0.0000                 0.0000
  Atom  AN      X      Y      Z        X      Y      Z        X      Y      Z
     1   8    -0.00   0.00   0.00     0.00  -0.00  -0.00    -0.00   0.00   0.00
     2   6    -0.00   0.03  -0.02    -0.03  -0.04  -0.05    -0.00   0.00   0.00
     3   6     0.00  -0.00  -0.00     0.00   0.00  -0.00    -0.00  -0.01  -0.01
     4   6     0.01   0.01  -0.06     0.00   0.00  -0.02    -0.00   0.00   0.00
     5   6    -0.00  -0.00   0.00    -0.00   0.00   0.00     0.00  -0.00  -0.00
     6   6    -0.00   0.00   0.00    -0.00  -0.00  -0.00     0.00  -0.06  -0.05
     7   1     0.00   0.00  -0.00    -0.00   0.00  -0.00    -0.02  -0.00   0.02
     8   1     0.01   0.01   0.02     0.01   0.01   0.01     0.03   0.03   0.06
     9   1     0.00  -0.01  -0.01    -0.00   0.01   0.01    -0.04   0.76   0.63
    10   1    -0.07  -0.08  -0.15     0.34   0.50   0.75    -0.01  -0.01  -0.01
    11   1     0.14  -0.26   0.42    -0.03   0.02  -0.09     0.00  -0.01   0.01
    12   1    -0.20  -0.14   0.80    -0.06  -0.04   0.23     0.00  -0.00  -0.00
    13   6     0.00   0.00  -0.00     0.00   0.00  -0.00     0.00   0.00   0.00
    14   8     0.00   0.00   0.00     0.00  -0.00   0.00    -0.00  -0.00  -0.00
    15   1    -0.01  -0.02   0.00    -0.00  -0.01   0.00     0.02   0.04  -0.01
    16   1    -0.03  -0.02   0.01    -0.01  -0.01   0.00    -0.00  -0.00   0.00

 -------------------
 - Thermochemistry -
 -------------------
 Temperature   298.150 Kelvin.  Pressure   1.00000 Atm.
 Atom     1 has atomic number  8 and mass  15.99491
 Atom     2 has atomic number  6 and mass  12.00000
 Atom     3 has atomic number  6 and mass  12.00000
 Atom     4 has atomic number  6 and mass  12.00000
 Atom     5 has atomic number  6 and mass  12.00000
 Atom     6 has atomic number  6 and mass  12.00000
 Atom     7 has atomic number  1 and mass   1.00783
 Atom     8 has atomic number  1 and mass   1.00783
 Atom     9 has atomic number  1 and mass   1.00783
 Atom    10 has atomic number  1 and mass   1.00783
 Atom    11 has atomic number  1 and mass   1.00783
 Atom    12 has atomic number  1 and mass   1.00783
 Atom    13 has atomic number  6 and mass  12.00000
 Atom    14 has atomic number  8 and mass  15.99491
 Atom    15 has atomic number  1 and mass   1.00783
 Atom    16 has atomic number  1 and mass   1.00783
 Molecular mass:   112.05243 amu.
 Principal axes and moments of inertia in atomic units:
                           1         2         3
     Eigenvalues --   653.353521092.548031207.76931
           X            0.99904  -0.01876  -0.03971
           Y            0.01849   0.99980  -0.00702
           Z            0.03983   0.00628   0.99919
 This molecule is an asymmetric top.
 Rotational symmetry number  1.
 Warning -- assumption of classical behavior for rotation
           may cause significant error
 Rotational temperatures (Kelvin)      0.13257     0.07928     0.07171
 Rotational constants (GHZ):           2.76227     1.65186     1.49428
    3 imaginary frequencies ignored.
 Zero-point vibrational energy     328841.3 (Joules/Mol)
                                   78.59496 (Kcal/Mol)
 Warning -- explicit consideration of   8 degrees of freedom as
           vibrations may cause significant error
 Vibrational temperatures:    159.02   294.93   301.46   412.75   488.29
          (Kelvin)            585.81   705.85   891.29   941.82  1020.20
                             1087.44  1152.41  1232.01  1316.38  1360.39
                             1389.70  1397.96  1470.93  1526.24  1621.26
                             1627.04  1715.05  1761.30  1891.07  1922.84
                             1930.03  1947.94  1967.99  2023.24  2833.20
                             2983.62  4556.85  4558.41  4598.62  4651.49
                             4667.89  4678.18  4689.77  4740.39
 
 Zero-point correction=                           0.125249 (Hartree/Particle)
 Thermal correction to Energy=                    0.132239
 Thermal correction to Enthalpy=                  0.133183
 Thermal correction to Gibbs Free Energy=         0.093906
 Sum of electronic and zero-point Energies=           -383.225614
 Sum of electronic and thermal Energies=              -383.218624
 Sum of electronic and thermal Enthalpies=            -383.217680
 Sum of electronic and thermal Free Energies=         -383.256957
 
                     E (Thermal)             CV                S
                      KCal/Mol        Cal/Mol-Kelvin    Cal/Mol-Kelvin
 Total                   82.981             26.338             82.666
 Electronic               0.000              0.000              0.000
 Translational            0.889              2.981             40.057
 Rotational               0.889              2.981             28.246
 Vibrational             81.203             20.376             14.362
 Vibration     1          0.606              1.941              3.260
 Vibration     2          0.640              1.833              2.088
 Vibration     3          0.642              1.826              2.048
 Vibration     4          0.684              1.698              1.492
 Vibration     5          0.719              1.597              1.215
 Vibration     6          0.772              1.455              0.937
 Vibration     7          0.846              1.271              0.682
 Vibration     8          0.979              0.991              0.417
                       Q            Log10(Q)             Ln(Q)
 Total Bot       0.640446D-43        -43.193518        -99.456750
 Total V=0       0.261212D+15         14.416992         33.196352
 Vib (Bot)       0.413299D-56        -56.383735       -129.828348
 Vib (Bot)    1  0.185283D+01          0.267836          0.616715
 Vib (Bot)    2  0.970846D+00         -0.012850         -0.029588
 Vib (Bot)    3  0.948109D+00         -0.023142         -0.053286
 Vib (Bot)    4  0.667730D+00         -0.175399         -0.403872
 Vib (Bot)    5  0.547352D+00         -0.261733         -0.602663
 Vib (Bot)    6  0.435453D+00         -0.361059         -0.831368
 Vib (Bot)    7  0.337795D+00         -0.471347         -1.085317
 Vib (Bot)    8  0.236202D+00         -0.626716         -1.443068
 Vib (V=0)       0.168568D+02          1.226775          2.824753
 Vib (V=0)    1  0.241911D+01          0.383656          0.883400
 Vib (V=0)    2  0.159204D+01          0.201953          0.465013
 Vib (V=0)    3  0.157187D+01          0.196417          0.452268
 Vib (V=0)    4  0.133418D+01          0.125216          0.288320
 Vib (V=0)    5  0.124135D+01          0.093893          0.216196
 Vib (V=0)    6  0.116304D+01          0.065594          0.151036
 Vib (V=0)    7  0.110341D+01          0.042737          0.098407
 Vib (V=0)    8  0.105298D+01          0.022422          0.051628
 Electronic      0.100000D+01          0.000000          0.000000
 Translational   0.466215D+08          7.668586         17.657571
 Rotational      0.332378D+06          5.521632         12.714027
 ***** Axes restored to original set *****
 -------------------------------------------------------------------
 Center     Atomic                   Forces (Hartrees/Bohr)
 Number     Number              X              Y              Z
 -------------------------------------------------------------------
      1        8          -0.000889665    0.042989829    0.009589756
      2        6          -0.017691260   -0.051241754    0.008575791
      3        6           0.032606798    0.006862943   -0.046765389
      4        6           0.013935932    0.018567655   -0.016312770
      5        6          -0.020384530   -0.081331990    0.036937832
      6        6          -0.011134781    0.049725083    0.007985470
      7        1          -0.002144649    0.007664424   -0.006353060
      8        1          -0.008803803    0.005326047    0.000881817
      9        1          -0.001567510   -0.006457468   -0.004267550
     10        1           0.003000679    0.001492007   -0.000928861
     11        1           0.002526325   -0.000292793   -0.001800962
     12        1           0.001019634    0.000014916    0.004672313
     13        6           0.024748504    0.010477005   -0.024056200
     14        8          -0.001929395    0.001653691    0.025999212
     15        1          -0.006487349    0.000170303    0.003095855
     16        1          -0.006804931   -0.005619897    0.002746746
 -------------------------------------------------------------------
 Cartesian Forces:  Max     0.081331990 RMS     0.021673989


 THE MORE ACCURATE THE CALCULATIONS BECOME, THE MORE THE CONCEPTS
 TEND TO VANISH INTO THIN AIR.
     -- R.S. MULLIKEN, J.C.P. 43,S2(1965)
 Error termination request processed by link 9999.
 Error termination via Lnk1e in /apps/gaussian/g16/C.01/g16/l9999.exe at Mon May 20 12:32:15 2024.
 Job cpu time:       0 days  0 hours  4 minutes 33.2 seconds.
 Elapsed time:       0 days  0 hours  0 minutes 42.2 seconds.
 File lengths (MBytes):  RWF=      6 Int=      0 D2E=      0 Chk=      1 Scr=      1
