Unloading slurm/anatra/current
  ERROR: No such file or directory on
    '/cm/local/modulefiles/slurm/anatra/current'
environment: line 0: unalias: gv: not found
environment: line 0: unalias: sl: not found
 Entering Gaussian System, Link 0=g16
 Initial command:
 /apps/gaussian/g16/C.01/g16/l1.exe "/local/jobs/1176092/Gau-3196825.inp" -scrdir="/local/jobs/1176092/"
 Entering Link 1 = /apps/gaussian/g16/C.01/g16/l1.exe PID=   3196829.
  
 Copyright (c) 1988-2019, Gaussian, Inc.  All Rights Reserved.
  
 This is part of the Gaussian(R) 16 program.  It is based on
 the Gaussian(R) 09 system (copyright 2009, Gaussian, Inc.),
 the Gaussian(R) 03 system (copyright 2003, Gaussian, Inc.),
 the Gaussian(R) 98 system (copyright 1998, Gaussian, Inc.),
 the Gaussian(R) 94 system (copyright 1995, Gaussian, Inc.),
 the Gaussian 92(TM) system (copyright 1992, Gaussian, Inc.),
 the Gaussian 90(TM) system (copyright 1990, Gaussian, Inc.),
 the Gaussian 88(TM) system (copyright 1988, Gaussian, Inc.),
 the Gaussian 86(TM) system (copyright 1986, Carnegie Mellon
 University), and the Gaussian 82(TM) system (copyright 1983,
 Carnegie Mellon University). Gaussian is a federally registered
 trademark of Gaussian, Inc.
  
 This software contains proprietary and confidential information,
 including trade secrets, belonging to Gaussian, Inc.
  
 This software is provided under written license and may be
 used, copied, transmitted, or stored only in accord with that
 written license.
  
 The following legend is applicable only to US Government
 contracts under FAR:
  
                    RESTRICTED RIGHTS LEGEND
  
 Use, reproduction and disclosure by the US Government is
 subject to restrictions as set forth in subparagraphs (a)
 and (c) of the Commercial Computer Software - Restricted
 Rights clause in FAR 52.227-19.
  
 Gaussian, Inc.
 340 Quinnipiac St., Bldg. 40, Wallingford CT 06492
  
  
 ---------------------------------------------------------------
 Warning -- This program may not be used in any manner that
 competes with the business of Gaussian, Inc. or will provide
 assistance to any competitor of Gaussian, Inc.  The licensee
 of this program is prohibited from giving any competitor of
 Gaussian, Inc. access to this program.  By using this program,
 the user acknowledges that Gaussian, Inc. is engaged in the
 business of creating and licensing software in the field of
 computational chemistry and represents and warrants to the
 licensee that it is not a competitor of Gaussian, Inc. and that
 it will not use this program in any manner prohibited above.
 ---------------------------------------------------------------
  

 Cite this work as:
 Gaussian 16, Revision C.01,
 M. J. Frisch, G. W. Trucks, H. B. Schlegel, G. E. Scuseria, 
 M. A. Robb, J. R. Cheeseman, G. Scalmani, V. Barone, 
 G. A. Petersson, H. Nakatsuji, X. Li, M. Caricato, A. V. Marenich, 
 J. Bloino, B. G. Janesko, R. Gomperts, B. Mennucci, H. P. Hratchian, 
 J. V. Ortiz, A. F. Izmaylov, J. L. Sonnenberg, D. Williams-Young, 
 F. Ding, F. Lipparini, F. Egidi, J. Goings, B. Peng, A. Petrone, 
 T. Henderson, D. Ranasinghe, V. G. Zakrzewski, J. Gao, N. Rega, 
 G. Zheng, W. Liang, M. Hada, M. Ehara, K. Toyota, R. Fukuda, 
 J. Hasegawa, M. Ishida, T. Nakajima, Y. Honda, O. Kitao, H. Nakai, 
 T. Vreven, K. Throssell, J. A. Montgomery, Jr., J. E. Peralta, 
 F. Ogliaro, M. J. Bearpark, J. J. Heyd, E. N. Brothers, K. N. Kudin, 
 V. N. Staroverov, T. A. Keith, R. Kobayashi, J. Normand, 
 K. Raghavachari, A. P. Rendell, J. C. Burant, S. S. Iyengar, 
 J. Tomasi, M. Cossi, J. M. Millam, M. Klene, C. Adamo, R. Cammi, 
 J. W. Ochterski, R. L. Martin, K. Morokuma, O. Farkas, 
 J. B. Foresman, and D. J. Fox, Gaussian, Inc., Wallingford CT, 2019.
 
 ******************************************
 Gaussian 16:  ES64L-G16RevC.01  3-Jul-2019
                20-May-2024 
 ******************************************
 %nprocshared=12
 Will use up to   12 processors via shared memory.
 %mem=48GB
 ----------------------------------------------------------------------
 # external="~/scripts/MiMe -H 'am1' -EF 'wb97xd def2svp' -c 12 -m 48GB
 " opt=(calcall,ts,eigentest,maxcycles=50,maxstep=10,nomicro)
 ----------------------------------------------------------------------
 1/5=1,6=50,8=10,10=4,11=2,18=20,26=1,38=1/1,3;
 2/9=110,12=2,17=6,18=5,40=1/2;
 3/11=9,25=1,30=1,41=9900000,43=2,71=2,140=1/1;
 4/20=17,22=2,24=3,113=1,114=1/2;
 6/7=2,8=2,9=2,10=2,18=1/1;
 7/25=1,44=-1/16;
 1/5=1,6=50,8=10,10=4,11=2,18=20,26=1/3(3);
 2/9=110/2;
 7/8=1,9=1,25=1,44=-1/16;
 99//99;
 2/9=110/2;
 3/11=9,25=1,30=1,41=9900000,43=2,71=2,140=1/1;
 4/16=2,20=17,22=2,24=3,113=1,114=1/2;
 7/25=1,44=-1/16;
 1/5=1,6=50,8=10,10=4,11=2,18=20,26=1/3(-4);
 2/9=110/2;
 6/7=2,8=2,9=2,10=2,18=1/1;
 7/8=1,9=1,25=1,44=-1/16;
 99//99;
 -----
 *****
 -----
 Symbolic Z-matrix:
 Charge =  0 Multiplicity = 1
 C                    -1.3702   -1.1403    0.2064 
 C                    -0.7558    1.0745    0.4479 
 C                     0.8224   -1.0488   -0.4901 
 C                     0.4828    1.0089   -0.3265 
 C                    -0.5147   -1.684     1.261 
 C                     0.7603   -1.6448    0.8547 
 H                     1.6214   -1.9327    1.4402 
 C                     2.1344   -0.8467   -1.1832 
 H                     2.732    -1.7637   -1.2043 
 H                     1.9589   -0.5494   -2.2243 
 C                     2.8795    0.2805   -0.4393 
 H                     3.5219   -0.1491    0.3372 
 H                     3.493     0.8687   -1.1278 
 C                     1.8545    1.1796    0.2336 
 O                     2.1015    1.9406    1.1586 
 H                    -0.8674   -2.0171    2.2257 
 H                     0.4116    1.3562   -1.3585 
 H                    -0.7091    1.1299    1.5312 
 C                    -0.5513   -1.3121   -1.0671 
 H                    -0.6272   -2.3346   -1.4563 
 H                    -0.8476   -0.617    -1.8576 
 Cl                   -2.0176    2.097    -0.1611 
 C                    -2.8412   -1.3691    0.2271 
 H                    -3.3446   -0.7133   -0.4888 
 H                    -3.0749   -2.4056   -0.0352 
 H                    -3.253    -1.1641    1.2206 
 

 GradGradGradGradGradGradGradGradGradGradGradGradGradGradGradGradGradGrad
 Berny optimization.
 Initialization pass.
                           ----------------------------
                           !    Initial Parameters    !
                           ! (Angstroms and Degrees)  !
 --------------------------                            --------------------------
 ! Name  Definition              Value          Derivative Info.                !
 --------------------------------------------------------------------------------
 ! R1    R(1,5)                  1.4628         calculate D2E/DX2 analytically  !
 ! R2    R(1,19)                 1.5238         calculate D2E/DX2 analytically  !
 ! R3    R(1,23)                 1.4888         calculate D2E/DX2 analytically  !
 ! R4    R(2,4)                  1.4622         calculate D2E/DX2 analytically  !
 ! R5    R(2,18)                 1.0857         calculate D2E/DX2 analytically  !
 ! R6    R(2,22)                 1.7345         calculate D2E/DX2 analytically  !
 ! R7    R(3,6)                  1.4723         calculate D2E/DX2 analytically  !
 ! R8    R(3,8)                  1.4975         calculate D2E/DX2 analytically  !
 ! R9    R(3,19)                 1.513          calculate D2E/DX2 analytically  !
 ! R10   R(4,14)                 1.4914         calculate D2E/DX2 analytically  !
 ! R11   R(4,17)                 1.0912         calculate D2E/DX2 analytically  !
 ! R12   R(5,6)                  1.3387         calculate D2E/DX2 analytically  !
 ! R13   R(5,16)                 1.0798         calculate D2E/DX2 analytically  !
 ! R14   R(6,7)                  1.0804         calculate D2E/DX2 analytically  !
 ! R15   R(8,9)                  1.0947         calculate D2E/DX2 analytically  !
 ! R16   R(8,10)                 1.0968         calculate D2E/DX2 analytically  !
 ! R17   R(8,11)                 1.5424         calculate D2E/DX2 analytically  !
 ! R18   R(11,12)                1.0955         calculate D2E/DX2 analytically  !
 ! R19   R(11,13)                1.0938         calculate D2E/DX2 analytically  !
 ! R20   R(11,14)                1.5205         calculate D2E/DX2 analytically  !
 ! R21   R(14,15)                1.223          calculate D2E/DX2 analytically  !
 ! R22   R(19,20)                1.0967         calculate D2E/DX2 analytically  !
 ! R23   R(19,21)                1.0935         calculate D2E/DX2 analytically  !
 ! R24   R(23,24)                1.0936         calculate D2E/DX2 analytically  !
 ! R25   R(23,25)                1.0944         calculate D2E/DX2 analytically  !
 ! R26   R(23,26)                1.0948         calculate D2E/DX2 analytically  !
 ! A1    A(5,1,19)             104.2605         calculate D2E/DX2 analytically  !
 ! A2    A(5,1,23)             120.7107         calculate D2E/DX2 analytically  !
 ! A3    A(19,1,23)            121.6864         calculate D2E/DX2 analytically  !
 ! A4    A(4,2,18)             119.6219         calculate D2E/DX2 analytically  !
 ! A5    A(4,2,22)             117.1749         calculate D2E/DX2 analytically  !
 ! A6    A(18,2,22)            110.5813         calculate D2E/DX2 analytically  !
 ! A7    A(6,3,8)              120.9539         calculate D2E/DX2 analytically  !
 ! A8    A(6,3,19)             103.8625         calculate D2E/DX2 analytically  !
 ! A9    A(8,3,19)             129.9718         calculate D2E/DX2 analytically  !
 ! A10   A(2,4,14)             125.1017         calculate D2E/DX2 analytically  !
 ! A11   A(2,4,17)             115.5514         calculate D2E/DX2 analytically  !
 ! A12   A(14,4,17)            112.2564         calculate D2E/DX2 analytically  !
 ! A13   A(1,5,6)              109.1057         calculate D2E/DX2 analytically  !
 ! A14   A(1,5,16)             124.5925         calculate D2E/DX2 analytically  !
 ! A15   A(6,5,16)             126.2457         calculate D2E/DX2 analytically  !
 ! A16   A(3,6,5)              109.2228         calculate D2E/DX2 analytically  !
 ! A17   A(3,6,7)              124.7004         calculate D2E/DX2 analytically  !
 ! A18   A(5,6,7)              125.9312         calculate D2E/DX2 analytically  !
 ! A19   A(3,8,9)              111.9706         calculate D2E/DX2 analytically  !
 ! A20   A(3,8,10)             109.6154         calculate D2E/DX2 analytically  !
 ! A21   A(3,8,11)             107.3751         calculate D2E/DX2 analytically  !
 ! A22   A(9,8,10)             107.223          calculate D2E/DX2 analytically  !
 ! A23   A(9,8,11)             110.9612         calculate D2E/DX2 analytically  !
 ! A24   A(10,8,11)            109.6933         calculate D2E/DX2 analytically  !
 ! A25   A(8,11,12)            109.7873         calculate D2E/DX2 analytically  !
 ! A26   A(8,11,13)            111.122          calculate D2E/DX2 analytically  !
 ! A27   A(8,11,14)            108.6587         calculate D2E/DX2 analytically  !
 ! A28   A(12,11,13)           109.1555         calculate D2E/DX2 analytically  !
 ! A29   A(12,11,14)           108.2705         calculate D2E/DX2 analytically  !
 ! A30   A(13,11,14)           109.7975         calculate D2E/DX2 analytically  !
 ! A31   A(4,14,11)            112.714          calculate D2E/DX2 analytically  !
 ! A32   A(4,14,15)            122.7514         calculate D2E/DX2 analytically  !
 ! A33   A(11,14,15)           124.5081         calculate D2E/DX2 analytically  !
 ! A34   A(1,19,3)              98.6029         calculate D2E/DX2 analytically  !
 ! A35   A(1,19,20)            111.378          calculate D2E/DX2 analytically  !
 ! A36   A(1,19,21)            112.7595         calculate D2E/DX2 analytically  !
 ! A37   A(3,19,20)            111.1257         calculate D2E/DX2 analytically  !
 ! A38   A(3,19,21)            114.2711         calculate D2E/DX2 analytically  !
 ! A39   A(20,19,21)           108.5024         calculate D2E/DX2 analytically  !
 ! A40   A(1,23,24)            110.7039         calculate D2E/DX2 analytically  !
 ! A41   A(1,23,25)            110.6828         calculate D2E/DX2 analytically  !
 ! A42   A(1,23,26)            110.8222         calculate D2E/DX2 analytically  !
 ! A43   A(24,23,25)           108.2245         calculate D2E/DX2 analytically  !
 ! A44   A(24,23,26)           107.9756         calculate D2E/DX2 analytically  !
 ! A45   A(25,23,26)           108.331          calculate D2E/DX2 analytically  !
 ! D1    D(19,1,5,6)            23.0327         calculate D2E/DX2 analytically  !
 ! D2    D(19,1,5,16)         -159.5491         calculate D2E/DX2 analytically  !
 ! D3    D(23,1,5,6)           164.4171         calculate D2E/DX2 analytically  !
 ! D4    D(23,1,5,16)          -18.1646         calculate D2E/DX2 analytically  !
 ! D5    D(5,1,19,3)           -35.7111         calculate D2E/DX2 analytically  !
 ! D6    D(5,1,19,20)           81.0757         calculate D2E/DX2 analytically  !
 ! D7    D(5,1,19,21)         -156.6622         calculate D2E/DX2 analytically  !
 ! D8    D(23,1,19,3)         -176.6196         calculate D2E/DX2 analytically  !
 ! D9    D(23,1,19,20)         -59.8327         calculate D2E/DX2 analytically  !
 ! D10   D(23,1,19,21)          62.4294         calculate D2E/DX2 analytically  !
 ! D11   D(5,1,23,24)          166.9633         calculate D2E/DX2 analytically  !
 ! D12   D(5,1,23,25)          -73.0335         calculate D2E/DX2 analytically  !
 ! D13   D(5,1,23,26)           47.1809         calculate D2E/DX2 analytically  !
 ! D14   D(19,1,23,24)         -58.3383         calculate D2E/DX2 analytically  !
 ! D15   D(19,1,23,25)          61.6649         calculate D2E/DX2 analytically  !
 ! D16   D(19,1,23,26)        -178.1206         calculate D2E/DX2 analytically  !
 ! D17   D(18,2,4,14)           -7.977          calculate D2E/DX2 analytically  !
 ! D18   D(18,2,4,17)         -156.0965         calculate D2E/DX2 analytically  !
 ! D19   D(22,2,4,14)          130.3078         calculate D2E/DX2 analytically  !
 ! D20   D(22,2,4,17)          -17.8117         calculate D2E/DX2 analytically  !
 ! D21   D(8,3,6,5)            178.4424         calculate D2E/DX2 analytically  !
 ! D22   D(8,3,6,7)              2.6139         calculate D2E/DX2 analytically  !
 ! D23   D(19,3,6,5)           -24.693          calculate D2E/DX2 analytically  !
 ! D24   D(19,3,6,7)           159.4785         calculate D2E/DX2 analytically  !
 ! D25   D(6,3,8,9)             51.8848         calculate D2E/DX2 analytically  !
 ! D26   D(6,3,8,10)           170.7483         calculate D2E/DX2 analytically  !
 ! D27   D(6,3,8,11)           -70.1496         calculate D2E/DX2 analytically  !
 ! D28   D(19,3,8,9)           -98.2635         calculate D2E/DX2 analytically  !
 ! D29   D(19,3,8,10)           20.6            calculate D2E/DX2 analytically  !
 ! D30   D(19,3,8,11)          139.702          calculate D2E/DX2 analytically  !
 ! D31   D(6,3,19,1)            36.0362         calculate D2E/DX2 analytically  !
 ! D32   D(6,3,19,20)          -80.9441         calculate D2E/DX2 analytically  !
 ! D33   D(6,3,19,21)          155.8657         calculate D2E/DX2 analytically  !
 ! D34   D(8,3,19,1)          -170.0468         calculate D2E/DX2 analytically  !
 ! D35   D(8,3,19,20)           72.9729         calculate D2E/DX2 analytically  !
 ! D36   D(8,3,19,21)          -50.2173         calculate D2E/DX2 analytically  !
 ! D37   D(2,4,14,11)          143.9173         calculate D2E/DX2 analytically  !
 ! D38   D(2,4,14,15)          -34.2897         calculate D2E/DX2 analytically  !
 ! D39   D(17,4,14,11)         -67.0704         calculate D2E/DX2 analytically  !
 ! D40   D(17,4,14,15)         114.7226         calculate D2E/DX2 analytically  !
 ! D41   D(1,5,6,3)              0.9437         calculate D2E/DX2 analytically  !
 ! D42   D(1,5,6,7)            176.7081         calculate D2E/DX2 analytically  !
 ! D43   D(16,5,6,3)          -176.4209         calculate D2E/DX2 analytically  !
 ! D44   D(16,5,6,7)            -0.6565         calculate D2E/DX2 analytically  !
 ! D45   D(3,8,11,12)           92.0212         calculate D2E/DX2 analytically  !
 ! D46   D(3,8,11,13)         -147.1267         calculate D2E/DX2 analytically  !
 ! D47   D(3,8,11,14)          -26.2174         calculate D2E/DX2 analytically  !
 ! D48   D(9,8,11,12)          -30.6399         calculate D2E/DX2 analytically  !
 ! D49   D(9,8,11,13)           90.2121         calculate D2E/DX2 analytically  !
 ! D50   D(9,8,11,14)         -148.8786         calculate D2E/DX2 analytically  !
 ! D51   D(10,8,11,12)        -148.9268         calculate D2E/DX2 analytically  !
 ! D52   D(10,8,11,13)         -28.0748         calculate D2E/DX2 analytically  !
 ! D53   D(10,8,11,14)          92.8345         calculate D2E/DX2 analytically  !
 ! D54   D(8,11,14,4)          -17.7035         calculate D2E/DX2 analytically  !
 ! D55   D(8,11,14,15)         160.4666         calculate D2E/DX2 analytically  !
 ! D56   D(12,11,14,4)        -136.897          calculate D2E/DX2 analytically  !
 ! D57   D(12,11,14,15)         41.273          calculate D2E/DX2 analytically  !
 ! D58   D(13,11,14,4)         104.0181         calculate D2E/DX2 analytically  !
 ! D59   D(13,11,14,15)        -77.8119         calculate D2E/DX2 analytically  !
 --------------------------------------------------------------------------------
 Trust Radius=1.00D-01 FncErr=1.00D-07 GrdErr=1.00D-07 EigMax=2.50D+02 EigMin=1.00D-04
 Number of steps in this run=     50 maximum allowed number of steps=    156.
 Search for a saddle point of order  1.
 GradGradGradGradGradGradGradGradGradGradGradGradGradGradGradGradGradGrad

                          Input orientation:                          
 ---------------------------------------------------------------------
 Center     Atomic      Atomic             Coordinates (Angstroms)
 Number     Number       Type             X           Y           Z
 ---------------------------------------------------------------------
      1          6           0       -1.370200   -1.140300    0.206400
      2          6           0       -0.755800    1.074500    0.447900
      3          6           0        0.822400   -1.048800   -0.490100
      4          6           0        0.482800    1.008900   -0.326500
      5          6           0       -0.514700   -1.684000    1.261000
      6          6           0        0.760300   -1.644800    0.854700
      7          1           0        1.621400   -1.932700    1.440200
      8          6           0        2.134400   -0.846700   -1.183200
      9          1           0        2.732000   -1.763700   -1.204300
     10          1           0        1.958900   -0.549400   -2.224300
     11          6           0        2.879500    0.280500   -0.439300
     12          1           0        3.521900   -0.149100    0.337200
     13          1           0        3.493000    0.868700   -1.127800
     14          6           0        1.854500    1.179600    0.233600
     15          8           0        2.101500    1.940600    1.158600
     16          1           0       -0.867400   -2.017100    2.225700
     17          1           0        0.411600    1.356200   -1.358500
     18          1           0       -0.709100    1.129900    1.531200
     19          6           0       -0.551300   -1.312100   -1.067100
     20          1           0       -0.627200   -2.334600   -1.456300
     21          1           0       -0.847600   -0.617000   -1.857600
     22         17           0       -2.017600    2.097000   -0.161100
     23          6           0       -2.841200   -1.369100    0.227100
     24          1           0       -3.344600   -0.713300   -0.488800
     25          1           0       -3.074900   -2.405600   -0.035200
     26          1           0       -3.253000   -1.164100    1.220600
 ---------------------------------------------------------------------
                    Distance matrix (angstroms):
                    1          2          3          4          5
     1  C    0.000000
     2  C    2.311093   0.000000
     3  C    2.302386   2.806949   0.000000
     4  C    2.887326   1.462234   2.091942   0.000000
     5  C    1.462761   2.885928   2.292960   3.281291   0.000000
     6  C    2.283384   3.139847   1.472263   2.917938   1.338746
     7  H    3.331641   3.959671   2.268422   3.615335   2.157982
     8  C    3.781456   3.834678   1.497523   2.627731   3.700394
     9  H    4.382550   4.790605   2.160494   3.676513   4.077391
    10  H    4.164177   4.140930   2.132717   2.865103   4.421915
    11  C    4.527201   3.825306   2.449751   2.507481   4.274444
    12  H    4.993218   4.450637   2.963307   3.319276   4.416273
    13  H    5.428341   4.536241   3.348966   3.118179   5.318299
    14  C    3.972577   2.621190   2.560222   1.491446   3.856017
    15  O    4.738284   3.069102   3.645658   2.386164   4.471321
    16  H    2.258132   3.568055   3.341945   4.182516   1.079814
    17  H    3.443288   2.169161   2.589768   1.091197   4.118571
    18  H    2.710342   1.085720   3.343334   2.210501   2.833519
    19  C    1.523783   2.834238   1.513046   2.646676   2.357901
    20  H    2.177837   3.906978   2.165217   3.699668   2.796365
    21  H    2.192498   2.860932   2.201229   2.599573   3.312850
    22  Cl   3.321791   1.734510   4.250870   2.731908   4.310109
    23  C    1.488831   3.220066   3.746856   4.124358   2.565290
    24  H    2.136326   3.282609   4.180485   4.200155   3.465890
    25  H    2.136670   4.209834   4.151721   4.939726   2.958964
    26  H    2.138715   3.441570   4.421388   4.590387   2.787511
                    6          7          8          9         10
     6  C    0.000000
     7  H    1.080366   0.000000
     8  C    2.584212   2.885272   0.000000
     9  H    2.853282   2.873217   1.094742   0.000000
    10  H    3.480917   3.931410   1.096849   1.764259   0.000000
    11  C    3.142010   3.164426   1.542446   2.187632   2.173123
    12  H    3.182980   2.830148   2.173343   2.367931   3.027291
    13  H    4.208995   4.236196   2.188940   2.741259   2.359403
    14  C    3.091969   3.346137   2.488284   3.391250   3.006927
    15  O    3.840087   3.913087   3.640625   4.438768   4.202909
    16  H    2.160476   2.611180   4.690548   4.978433   5.472167
    17  H    3.745110   4.484774   2.802060   3.891248   2.602894
    18  H    3.211814   3.849549   4.400046   5.262799   4.903270
    19  C    2.350383   3.375252   2.728197   3.317051   2.867390
    20  H    2.782391   3.688826   3.148788   3.416673   3.234915
    21  H    3.316366   4.324640   3.065926   3.815135   2.831162
    22  Cl   4.769659   5.660827   5.191258   6.209023   5.203151
    23  C    3.666155   4.658761   5.197927   5.767597   5.451810
    24  H    4.418471   5.465266   5.524439   6.208087   5.582646
    25  H    4.009925   4.945268   5.557417   5.958097   5.794547
    26  H    4.058514   4.939509   5.907883   6.485359   6.277666
                   11         12         13         14         15
    11  C    0.000000
    12  H    1.095530   0.000000
    13  H    1.093798   1.784090   0.000000
    14  C    1.520461   2.134572   2.152847   0.000000
    15  O    2.431975   2.656893   2.883204   1.223011   0.000000
    16  H    5.140083   5.130479   6.211835   4.647160   5.061270
    17  H    2.844748   3.849064   3.128243   2.155906   3.087568
    18  H    4.181196   4.578519   4.979573   2.873722   2.948820
    19  C    3.834175   4.462688   4.595208   3.699765   4.750910
    20  H    4.491100   5.020765   5.229253   4.622142   5.706211
    21  H    4.087586   4.912088   4.645505   3.860341   4.933150
    22  Cl   5.230550   5.998277   5.727996   3.998821   4.328170
    23  C    5.990966   6.479935   6.853145   5.342800   6.020971
    24  H    6.303135   6.938978   7.047256   5.579926   6.278305
    25  H    6.544716   6.981994   7.419712   6.101221   6.863653
    26  H    6.515343   6.907235   7.426693   5.705581   6.189804
                   16         17         18         19         20
    16  H    0.000000
    17  H    5.085419   0.000000
    18  H    3.226608   3.107659   0.000000
    19  C    3.382229   2.851651   3.569233   0.000000
    20  H    3.703461   3.835450   4.575437   1.096697   0.000000
    21  H    4.316713   2.393367   3.815076   1.093548   1.777574
    22  Cl   4.893423   2.807769   2.347623   3.820057   4.821808
    23  C    2.882740   4.530132   3.534336   2.630940   2.944116
    24  H    3.899349   4.375871   3.797848   2.914707   3.308917
    25  H    3.183655   5.296975   4.533253   2.937536   2.831219
    26  H    2.725605   5.141300   3.439525   3.543255   3.928192
                   21         22         23         24         25
    21  H    0.000000
    22  Cl   3.407757   0.000000
    23  C    2.980951   3.583694   0.000000
    24  H    2.849192   3.125076   1.093617   0.000000
    25  H    3.388377   4.626785   1.094417   1.772673   0.000000
    26  H    3.944690   3.751011   1.094827   1.770215   1.774845
                   26
    26  H    0.000000
 Stoichiometry    C11H13ClO
 Framework group  C1[X(C11H13ClO)]
 Deg. of freedom    72
 Full point group                 C1      NOp   1
 Largest Abelian subgroup         C1      NOp   1
 Largest concise Abelian subgroup C1      NOp   1
                         Standard orientation:                         
 ---------------------------------------------------------------------
 Center     Atomic      Atomic             Coordinates (Angstroms)
 Number     Number       Type             X           Y           Z
 ---------------------------------------------------------------------
      1          6           0       -1.441238   -1.145665    0.162447
      2          6           0       -0.738135    1.047558    0.353671
      3          6           0        0.784761   -1.178142   -0.424794
      4          6           0        0.532613    0.897341   -0.353975
      5          6           0       -0.664408   -1.685256    1.278265
      6          6           0        0.629432   -1.718174    0.936013
      7          1           0        1.446623   -2.020862    1.574581
      8          6           0        2.137078   -1.061207   -1.057363
      9          1           0        2.692155   -2.003820   -1.014576
     10          1           0        2.026706   -0.797082   -2.116198
     11          6           0        2.895894    0.060027   -0.318327
     12          1           0        3.478994   -0.367049    0.504951
     13          1           0        3.568836    0.593406   -0.995859
     14          6           0        1.881601    1.028935    0.268381
     15          8           0        2.117711    1.813619    1.176279
     16          1           0       -1.078943   -1.964768    2.235361
     17          1           0        0.528161    1.207128   -1.400265
     18          1           0       -0.742108    1.142847    1.435195
     19          6           0       -0.569655   -1.402744   -1.060733
     20          1           0       -0.673360   -2.435232   -1.415638
     21          1           0       -0.794532   -0.726448   -1.890131
     22         17           0       -1.920157    2.100352   -0.355537
     23          6           0       -2.920453   -1.308333    0.116841
     24          1           0       -3.357428   -0.659232   -0.647174
     25          1           0       -3.188467   -2.342906   -0.118907
     26          1           0       -3.370600   -1.046949    1.080009
 ---------------------------------------------------------------------
 Rotational constants (GHZ):           0.9244285           0.6743049           0.4755489
 Standard basis: STO-3G (5D, 7F)
 There are    82 symmetry adapted cartesian basis functions of A   symmetry.
 There are    82 symmetry adapted basis functions of A   symmetry.
    82 basis functions,   246 primitive gaussians,    82 cartesian basis functions
    52 alpha electrons       52 beta electrons
       nuclear repulsion energy       908.0129164764 Hartrees.
 NAtoms=   26 NActive=   26 NUniq=   26 SFac= 1.00D+00 NAtFMM=   60 NAOKFM=F Big=F
 Integral buffers will be    131072 words long.
 Raffenetti 1 integral format.
 Two-electron integral symmetry is turned on.
 External calculation of energy, first and second derivatives.
 Running external command "~/scripts/MiMe -H 'am1' -EF 'wb97xd def2svp' -c 12 -m 48GB R"
         input file       "/local/jobs/1176092/Gau-3196829.EIn"
         output file      "/local/jobs/1176092/Gau-3196829.EOu"
         message file     "/local/jobs/1176092/Gau-3196829.EMs"
         fchk file        "/local/jobs/1176092/Gau-3196829.EFC"
         mat. el file     "/local/jobs/1176092/Gau-3196829.EUF"
 Read checkpoint file Gau-3196829_H.chk type G16
 Write formatted file Gau-3196829_H.fchk

deriv: 2

spelevel: wb97xd def2svp
gradlevel: wb97xd def2svp
hesslevel: am1

runspe: False
runforce: True
runfreq: True

Running Gaussian ...

Parsing files ...
SPE file: Gau-3196829_F.out
FORCE file: Gau-3196829_F.out
HESS file: Gau-3196829_H.out

 ExternalExternalExternalExternalExternalExternalExternalExternalExternalExternal
 Output from external command:
 "~/scripts/MiMe -H 'am1' -EF 'wb97xd def2svp' -c 12 -m 48GB R /local/jobs/1176092/Gau-3196829.EIn /local/jobs/1176092/Gau-3196829.EOu /local/jobs/1176092/Gau-3196829.EMs /local/jobs/1176092/Gau-3196829.EFC /local/jobs/1176092/Gau-3196829.EUF"
  
 --------------------------------------------------
 Force calculation at wb97xd def2svp
 Hessian calculation at am1
 ExternalExternalExternalExternalExternalExternalExternalExternalExternalExternal

 Recovered energy= -961.646326437     dipole=     -0.013600000000     -3.841900000000     -1.684100000000
 Energy=    -961.646326     NIter=   0.
 Dipole moment=      -0.013600      -3.841900      -1.684100
 ***** Axes restored to original set *****
 -------------------------------------------------------------------
 Center     Atomic                   Forces (Hartrees/Bohr)
 Number     Number              X              Y              Z
 -------------------------------------------------------------------
      1        6           0.015534276   -0.002419620    0.014527655
      2        6           0.025165460   -0.022585668   -0.018047436
      3        6          -0.004429335    0.012610082    0.015743331
      4        6          -0.021236225   -0.032971712    0.026292277
      5        6          -0.037879607    0.012672307   -0.016281519
      6        6           0.027636103    0.016673924   -0.030992173
      7        1           0.007459484    0.000724715    0.004393524
      8        6           0.002409326    0.002146362   -0.006570415
      9        1           0.003197174   -0.003573800   -0.001107518
     10        1          -0.001042977   -0.000650928   -0.002835174
     11        6          -0.004833236   -0.008862506   -0.001695690
     12        1           0.004303113    0.003908736    0.002499569
     13        1           0.005662964    0.003040961    0.000434486
     14        6          -0.002934437    0.023313384    0.025673252
     15        8           0.000713731   -0.019685487   -0.018114633
     16        1          -0.003500551   -0.000526457    0.007940079
     17        1          -0.002224943   -0.004554298   -0.006165094
     18        1           0.003099557   -0.001799130    0.003737807
     19        6           0.002900822    0.019773422    0.009087448
     20        1          -0.001481477   -0.006229005    0.002473783
     21        1          -0.000650856    0.000848145   -0.004001381
     22       17          -0.010341671    0.000337161   -0.005595914
     23        6          -0.000933156    0.009902642   -0.000069257
     24        1          -0.003325322    0.002729021   -0.002740165
     25        1          -0.001444547   -0.004850756   -0.001392684
     26        1          -0.001823672    0.000028504    0.002805842
 -------------------------------------------------------------------
 Cartesian Forces:  Max     0.037879607 RMS     0.012266822
 FormGI is forming the generalized inverse of G from B-inverse, IUseBI=4.

 GradGradGradGradGradGradGradGradGradGradGradGradGradGradGradGradGradGrad
 Berny optimization.
 Internal  Forces:  Max     0.200674620 RMS     0.033152262
 Search for a saddle point.
 Step number   1 out of a maximum of   50
 All quantities printed in internal units (Hartrees-Bohrs-Radians)
 Swapping is turned off.
 Second derivative matrix not updated -- analytic derivatives used.
 ITU=  0
     Eigenvalues ---   -2.09498  -0.02084  -0.01193  -0.00450  -0.00041
     Eigenvalues ---    0.00135   0.01032   0.01231   0.01364   0.01978
     Eigenvalues ---    0.02090   0.02282   0.02700   0.02984   0.03027
     Eigenvalues ---    0.03331   0.04678   0.04755   0.05122   0.05286
     Eigenvalues ---    0.05849   0.06147   0.06322   0.07039   0.07412
     Eigenvalues ---    0.08110   0.08246   0.08852   0.09273   0.09908
     Eigenvalues ---    0.10087   0.10172   0.11227   0.11771   0.12040
     Eigenvalues ---    0.12428   0.13353   0.13929   0.15891   0.19784
     Eigenvalues ---    0.21513   0.22123   0.24029   0.26588   0.28207
     Eigenvalues ---    0.29838   0.31284   0.33393   0.35927   0.36080
     Eigenvalues ---    0.36155   0.36487   0.36640   0.36709   0.36974
     Eigenvalues ---    0.37336   0.37533   0.38775   0.39336   0.39682
     Eigenvalues ---    0.39956   0.41091   0.41274   0.43672   0.47000
     Eigenvalues ---    0.47444   0.50508   0.70103   0.77103   0.90941
     Eigenvalues ---    1.19422   1.48357
 Eigenvectors required to have negative eigenvalues:
                          A27       A21       R4        A31       A30
   1                   -0.44237  -0.35413   0.27286  -0.25084   0.23960
                          A19       D47       A25       D56       D46
   1                    0.21194   0.21040   0.18280   0.17433   0.17256
 RFO step:  Lambda0=4.393984750D-02 Lambda=-6.27399817D-02.
 Linear search not attempted -- option 19 set.
 Maximum step size (   0.100) exceeded in Quadratic search.
    -- Step size scaled by   0.354
 Iteration  1 RMS(Cart)=  0.02602110 RMS(Int)=  0.00047690
 Iteration  2 RMS(Cart)=  0.00063810 RMS(Int)=  0.00009273
 Iteration  3 RMS(Cart)=  0.00000011 RMS(Int)=  0.00009273
 Variable       Old X    -DE/DX   Delta X   Delta X   Delta X     New X
                                 (Linear)    (Quad)   (Total)
    R1        2.76422  -0.02123   0.00000  -0.03827  -0.03825   2.72597
    R2        2.87953  -0.00114   0.00000  -0.00046  -0.00046   2.87907
    R3        2.81348   0.00622   0.00000   0.00345   0.00345   2.81693
    R4        2.76322  -0.02681   0.00000  -0.04989  -0.04989   2.71334
    R5        2.05171   0.00377   0.00000   0.00299   0.00299   2.05471
    R6        3.27775   0.00969   0.00000   0.01042   0.01042   3.28817
    R7        2.78217  -0.02556   0.00000  -0.03893  -0.03893   2.74325
    R8        2.82991  -0.00596   0.00000   0.00563   0.00563   2.83554
    R9        2.85924  -0.00364   0.00000  -0.00161  -0.00163   2.85761
   R10        2.81842   0.01206   0.00000  -0.00254  -0.00254   2.81588
   R11        2.06206   0.00453   0.00000   0.00503   0.00503   2.06709
   R12        2.52986   0.03177   0.00000   0.03080   0.03081   2.56068
   R13        2.04055   0.00840   0.00000   0.00690   0.00690   2.04746
   R14        2.04160   0.00813   0.00000   0.00644   0.00644   2.04804
   R15        2.06876   0.00476   0.00000   0.00362   0.00362   2.07238
   R16        2.07274   0.00268   0.00000   0.00008   0.00008   2.07283
   R17        2.91480  -0.04067   0.00000   0.00022   0.00022   2.91502
   R18        2.07025   0.00276   0.00000   0.00196   0.00196   2.07221
   R19        2.06698   0.00454   0.00000   0.00406   0.00406   2.07104
   R20        2.87325  -0.02560   0.00000   0.00761   0.00761   2.88086
   R21        2.31116  -0.02581   0.00000  -0.00681  -0.00681   2.30435
   R22        2.07246   0.00503   0.00000   0.00567   0.00567   2.07813
   R23        2.06651   0.00361   0.00000   0.00163   0.00163   2.06814
   R24        2.06664   0.00496   0.00000   0.00355   0.00355   2.07018
   R25        2.06815   0.00523   0.00000   0.00399   0.00399   2.07214
   R26        2.06892   0.00324   0.00000   0.00223   0.00223   2.07116
    A1        1.81969  -0.00313   0.00000   0.00301   0.00282   1.82251
    A2        2.10680   0.00450   0.00000   0.01796   0.01791   2.12471
    A3        2.12383   0.00048   0.00000  -0.00098  -0.00121   2.12262
    A4        2.08780  -0.00400   0.00000   0.01018   0.00984   2.09763
    A5        2.04509   0.00724   0.00000   0.01416   0.01381   2.05890
    A6        1.93001   0.00273   0.00000   0.00597   0.00554   1.93554
    A7        2.11104   0.00232   0.00000   0.00239   0.00230   2.11335
    A8        1.81274   0.00230   0.00000   0.00631   0.00616   1.81890
    A9        2.26844   0.00229   0.00000   0.00204   0.00194   2.27038
   A10        2.18344   0.02135   0.00000   0.00199   0.00186   2.18529
   A11        2.01675  -0.00529   0.00000   0.00276   0.00260   2.01935
   A12        1.95924  -0.00464   0.00000   0.00966   0.00952   1.96877
   A13        1.90425   0.00007   0.00000   0.00378   0.00377   1.90802
   A14        2.17455  -0.00122   0.00000   0.00464   0.00463   2.17917
   A15        2.20340   0.00095   0.00000  -0.00881  -0.00882   2.19459
   A16        1.90630  -0.00557   0.00000  -0.00035  -0.00038   1.90592
   A17        2.17643   0.00157   0.00000   0.00707   0.00707   2.18350
   A18        2.19791   0.00356   0.00000  -0.00725  -0.00725   2.19066
   A19        1.95426   0.07941   0.00000   0.00134   0.00124   1.95549
   A20        1.91315   0.01788   0.00000   0.00405   0.00410   1.91725
   A21        1.87405  -0.16146   0.00000  -0.01401  -0.01404   1.86001
   A22        1.87139  -0.02294   0.00000   0.00194   0.00194   1.87333
   A23        1.93664   0.04897   0.00000  -0.00543  -0.00548   1.93116
   A24        1.91451   0.04095   0.00000   0.01277   0.01280   1.92731
   A25        1.91615   0.07493   0.00000   0.00599   0.00599   1.92214
   A26        1.93944   0.03552   0.00000   0.00591   0.00591   1.94536
   A27        1.89645  -0.20067   0.00000   0.00530   0.00529   1.90174
   A28        1.90512  -0.02997   0.00000  -0.00957  -0.00960   1.89552
   A29        1.88968   0.02869   0.00000  -0.00335  -0.00338   1.88629
   A30        1.91633   0.09176   0.00000  -0.00444  -0.00447   1.91186
   A31        1.96723  -0.10886   0.00000   0.00973   0.00953   1.97676
   A32        2.14242   0.06131   0.00000   0.00666   0.00644   2.14886
   A33        2.17308   0.04648   0.00000  -0.01743  -0.01762   2.15546
   A34        1.72095   0.00297   0.00000   0.00852   0.00843   1.72937
   A35        1.94391   0.00510   0.00000  -0.01819  -0.01819   1.92573
   A36        1.96802  -0.00804   0.00000   0.00906   0.00902   1.97705
   A37        1.93951   0.00207   0.00000  -0.00783  -0.00783   1.93167
   A38        1.99441  -0.00294   0.00000   0.00384   0.00377   1.99818
   A39        1.89372   0.00111   0.00000   0.00369   0.00373   1.89745
   A40        1.93215   0.00152   0.00000   0.00187   0.00187   1.93401
   A41        1.93178  -0.00004   0.00000  -0.00043  -0.00043   1.93135
   A42        1.93421   0.00070   0.00000   0.00166   0.00166   1.93587
   A43        1.88887  -0.00072   0.00000  -0.00094  -0.00094   1.88794
   A44        1.88453  -0.00091   0.00000  -0.00111  -0.00111   1.88342
   A45        1.89073  -0.00065   0.00000  -0.00119  -0.00119   1.88954
    D1        0.40200   0.00213   0.00000  -0.01495  -0.01498   0.38702
    D2       -2.78466  -0.00224   0.00000  -0.02407  -0.02415  -2.80881
    D3        2.86962   0.00411   0.00000   0.00793   0.00807   2.87769
    D4       -0.31703  -0.00025   0.00000  -0.00118  -0.00111  -0.31814
    D5       -0.62328  -0.00403   0.00000   0.02404   0.02405  -0.59923
    D6        1.41504   0.00173   0.00000   0.01286   0.01282   1.42786
    D7       -2.73427   0.00112   0.00000   0.01075   0.01066  -2.72361
    D8       -3.08259  -0.00798   0.00000  -0.00840  -0.00828  -3.09088
    D9       -1.04428  -0.00222   0.00000  -0.01958  -0.01951  -1.06379
   D10        1.08960  -0.00283   0.00000  -0.02169  -0.02167   1.06793
   D11        2.91406  -0.00091   0.00000  -0.03751  -0.03754   2.87652
   D12       -1.27468  -0.00084   0.00000  -0.03775  -0.03778  -1.31245
   D13        0.82346  -0.00122   0.00000  -0.03843  -0.03846   0.78500
   D14       -1.01819   0.00050   0.00000  -0.00717  -0.00715  -1.02534
   D15        1.07626   0.00056   0.00000  -0.00741  -0.00738   1.06888
   D16       -3.10879   0.00019   0.00000  -0.00809  -0.00807  -3.11686
   D17       -0.13922   0.00969   0.00000   0.01230   0.01218  -0.12705
   D18       -2.72440  -0.01162   0.00000  -0.02049  -0.02059  -2.74499
   D19        2.27430   0.01937   0.00000   0.05776   0.05786   2.33216
   D20       -0.31087  -0.00195   0.00000   0.02497   0.02509  -0.28578
   D21        3.11441  -0.01644   0.00000  -0.00479  -0.00485   3.10956
   D22        0.04562  -0.01021   0.00000   0.00318   0.00318   0.04880
   D23       -0.43097  -0.00154   0.00000   0.01811   0.01809  -0.41288
   D24        2.78343   0.00469   0.00000   0.02608   0.02612   2.80954
   D25        0.90556  -0.00158   0.00000   0.01260   0.01259   0.91815
   D26        2.98012   0.03149   0.00000   0.01852   0.01851   2.99864
   D27       -1.22434  -0.00345   0.00000   0.02793   0.02792  -1.19643
   D28       -1.71502  -0.02082   0.00000  -0.01807  -0.01806  -1.73308
   D29        0.35954   0.01226   0.00000  -0.01215  -0.01214   0.34740
   D30        2.43826  -0.02269   0.00000  -0.00274  -0.00273   2.43553
   D31        0.62895   0.00591   0.00000  -0.02366  -0.02371   0.60524
   D32       -1.41274  -0.00215   0.00000  -0.00453  -0.00455  -1.41729
   D33        2.72037  -0.00304   0.00000  -0.00615  -0.00615   2.71422
   D34       -2.96788   0.02272   0.00000   0.00244   0.00242  -2.96545
   D35        1.27362   0.01466   0.00000   0.02158   0.02158   1.29520
   D36       -0.87646   0.01377   0.00000   0.01995   0.01998  -0.85647
   D37        2.51183  -0.03791   0.00000   0.01216   0.01195   2.52378
   D38       -0.59847  -0.00181   0.00000   0.04812   0.04825  -0.55022
   D39       -1.17060  -0.01771   0.00000   0.04224   0.04211  -1.12849
   D40        2.00229   0.01840   0.00000   0.07819   0.07840   2.08069
   D41        0.01647  -0.00090   0.00000  -0.00205  -0.00204   0.01443
   D42        3.08414  -0.00733   0.00000  -0.00939  -0.00936   3.07478
   D43       -3.07913   0.00363   0.00000   0.00681   0.00680  -3.07233
   D44       -0.01146  -0.00280   0.00000  -0.00053  -0.00052  -0.01198
   D45        1.60607   0.02033   0.00000   0.01022   0.01027   1.61635
   D46       -2.56785   0.05566   0.00000   0.00605   0.00608  -2.56176
   D47       -0.45758   0.06079   0.00000   0.00769   0.00773  -0.44985
   D48       -0.53477  -0.00221   0.00000   0.02110   0.02108  -0.51369
   D49        1.57450   0.03313   0.00000   0.01692   0.01689   1.59139
   D50       -2.59842   0.03826   0.00000   0.01857   0.01854  -2.57988
   D51       -2.59926  -0.02960   0.00000   0.01402   0.01401  -2.58525
   D52       -0.49000   0.00573   0.00000   0.00984   0.00982  -0.48018
   D53        1.62027   0.01086   0.00000   0.01149   0.01147   1.63174
   D54       -0.30898   0.04619   0.00000  -0.01950  -0.01962  -0.32860
   D55        2.80067   0.00958   0.00000  -0.05567  -0.05556   2.74511
   D56       -2.38930   0.05379   0.00000  -0.02777  -0.02787  -2.41717
   D57        0.72035   0.01718   0.00000  -0.06394  -0.06381   0.65654
   D58        1.81546   0.01993   0.00000  -0.01163  -0.01177   1.80369
   D59       -1.35807  -0.01669   0.00000  -0.04781  -0.04771  -1.40578
         Item               Value     Threshold  Converged?
 Maximum Force            0.200675     0.000450     NO 
 RMS     Force            0.033152     0.000300     NO 
 Maximum Displacement     0.154686     0.001800     NO 
 RMS     Displacement     0.026114     0.001200     NO 
 Predicted change in Energy=-6.440996D-03
 Optimization stopped.
    -- Wrong number of Negative eigenvalues: Desired=  1 Actual=  5
    -- Flag reset to prevent archiving.
                           ----------------------------
                           ! Non-Optimized Parameters !
                           ! (Angstroms and Degrees)  !
 --------------------------                            --------------------------
 ! Name  Definition              Value          Derivative Info.                !
 --------------------------------------------------------------------------------
 ! R1    R(1,5)                  1.4425         -DE/DX =   -0.0212              !
 ! R2    R(1,19)                 1.5235         -DE/DX =   -0.0011              !
 ! R3    R(1,23)                 1.4907         -DE/DX =    0.0062              !
 ! R4    R(2,4)                  1.4358         -DE/DX =   -0.0268              !
 ! R5    R(2,18)                 1.0873         -DE/DX =    0.0038              !
 ! R6    R(2,22)                 1.74           -DE/DX =    0.0097              !
 ! R7    R(3,6)                  1.4517         -DE/DX =   -0.0256              !
 ! R8    R(3,8)                  1.5005         -DE/DX =   -0.006               !
 ! R9    R(3,19)                 1.5122         -DE/DX =   -0.0036              !
 ! R10   R(4,14)                 1.4901         -DE/DX =    0.0121              !
 ! R11   R(4,17)                 1.0939         -DE/DX =    0.0045              !
 ! R12   R(5,6)                  1.3551         -DE/DX =    0.0318              !
 ! R13   R(5,16)                 1.0835         -DE/DX =    0.0084              !
 ! R14   R(6,7)                  1.0838         -DE/DX =    0.0081              !
 ! R15   R(8,9)                  1.0967         -DE/DX =    0.0048              !
 ! R16   R(8,10)                 1.0969         -DE/DX =    0.0027              !
 ! R17   R(8,11)                 1.5426         -DE/DX =   -0.0407              !
 ! R18   R(11,12)                1.0966         -DE/DX =    0.0028              !
 ! R19   R(11,13)                1.0959         -DE/DX =    0.0045              !
 ! R20   R(11,14)                1.5245         -DE/DX =   -0.0256              !
 ! R21   R(14,15)                1.2194         -DE/DX =   -0.0258              !
 ! R22   R(19,20)                1.0997         -DE/DX =    0.005               !
 ! R23   R(19,21)                1.0944         -DE/DX =    0.0036              !
 ! R24   R(23,24)                1.0955         -DE/DX =    0.005               !
 ! R25   R(23,25)                1.0965         -DE/DX =    0.0052              !
 ! R26   R(23,26)                1.096          -DE/DX =    0.0032              !
 ! A1    A(5,1,19)             104.4218         -DE/DX =   -0.0031              !
 ! A2    A(5,1,23)             121.7369         -DE/DX =    0.0045              !
 ! A3    A(19,1,23)            121.6171         -DE/DX =    0.0005              !
 ! A4    A(4,2,18)             120.1854         -DE/DX =   -0.004               !
 ! A5    A(4,2,22)             117.9661         -DE/DX =    0.0072              !
 ! A6    A(18,2,22)            110.8984         -DE/DX =    0.0027              !
 ! A7    A(6,3,8)              121.0858         -DE/DX =    0.0023              !
 ! A8    A(6,3,19)             104.2155         -DE/DX =    0.0023              !
 ! A9    A(8,3,19)             130.0829         -DE/DX =    0.0023              !
 ! A10   A(2,4,14)             125.2081         -DE/DX =    0.0213              !
 ! A11   A(2,4,17)             115.7005         -DE/DX =   -0.0053              !
 ! A12   A(14,4,17)            112.8021         -DE/DX =   -0.0046              !
 ! A13   A(1,5,6)              109.3215         -DE/DX =    0.0001              !
 ! A14   A(1,5,16)             124.8575         -DE/DX =   -0.0012              !
 ! A15   A(6,5,16)             125.7406         -DE/DX =    0.001               !
 ! A16   A(3,6,5)              109.2009         -DE/DX =   -0.0056              !
 ! A17   A(3,6,7)              125.1056         -DE/DX =    0.0016              !
 ! A18   A(5,6,7)              125.5157         -DE/DX =    0.0036              !
 ! A19   A(3,8,9)              112.0414         -DE/DX =    0.0794              !
 ! A20   A(3,8,10)             109.8502         -DE/DX =    0.0179              !
 ! A21   A(3,8,11)             106.5708         -DE/DX =   -0.1615              !
 ! A22   A(9,8,10)             107.3341         -DE/DX =   -0.0229              !
 ! A23   A(9,8,11)             110.6474         -DE/DX =    0.049               !
 ! A24   A(10,8,11)            110.4269         -DE/DX =    0.0409              !
 ! A25   A(8,11,12)            110.1306         -DE/DX =    0.0749              !
 ! A26   A(8,11,13)            111.4607         -DE/DX =    0.0355              !
 ! A27   A(8,11,14)            108.9618         -DE/DX =   -0.2007              !
 ! A28   A(12,11,13)           108.6053         -DE/DX =   -0.03                !
 ! A29   A(12,11,14)           108.0767         -DE/DX =    0.0287              !
 ! A30   A(13,11,14)           109.5415         -DE/DX =    0.0918              !
 ! A31   A(4,14,11)            113.2598         -DE/DX =   -0.1089              !
 ! A32   A(4,14,15)            123.1207         -DE/DX =    0.0613              !
 ! A33   A(11,14,15)           123.4987         -DE/DX =    0.0465              !
 ! A34   A(1,19,3)              99.0858         -DE/DX =    0.003               !
 ! A35   A(1,19,20)            110.336          -DE/DX =    0.0051              !
 ! A36   A(1,19,21)            113.2764         -DE/DX =   -0.008               !
 ! A37   A(3,19,20)            110.6768         -DE/DX =    0.0021              !
 ! A38   A(3,19,21)            114.4871         -DE/DX =   -0.0029              !
 ! A39   A(20,19,21)           108.7161         -DE/DX =    0.0011              !
 ! A40   A(1,23,24)            110.8108         -DE/DX =    0.0015              !
 ! A41   A(1,23,25)            110.6581         -DE/DX =    0.0                 !
 ! A42   A(1,23,26)            110.9173         -DE/DX =    0.0007              !
 ! A43   A(24,23,25)           108.1708         -DE/DX =   -0.0007              !
 ! A44   A(24,23,26)           107.912          -DE/DX =   -0.0009              !
 ! A45   A(25,23,26)           108.2628         -DE/DX =   -0.0006              !
 ! D1    D(19,1,5,6)            22.1746         -DE/DX =    0.0021              !
 ! D2    D(19,1,5,16)         -160.933          -DE/DX =   -0.0022              !
 ! D3    D(23,1,5,6)           164.8793         -DE/DX =    0.0041              !
 ! D4    D(23,1,5,16)          -18.2282         -DE/DX =   -0.0003              !
 ! D5    D(5,1,19,3)           -34.3332         -DE/DX =   -0.004               !
 ! D6    D(5,1,19,20)           81.8104         -DE/DX =    0.0017              !
 ! D7    D(5,1,19,21)         -156.0513         -DE/DX =    0.0011              !
 ! D8    D(23,1,19,3)         -177.0942         -DE/DX =   -0.008               !
 ! D9    D(23,1,19,20)         -60.9506         -DE/DX =   -0.0022              !
 ! D10   D(23,1,19,21)          61.1877         -DE/DX =   -0.0028              !
 ! D11   D(5,1,23,24)          164.8124         -DE/DX =   -0.0009              !
 ! D12   D(5,1,23,25)          -75.1979         -DE/DX =   -0.0008              !
 ! D13   D(5,1,23,26)           44.9772         -DE/DX =   -0.0012              !
 ! D14   D(19,1,23,24)         -58.7476         -DE/DX =    0.0005              !
 ! D15   D(19,1,23,25)          61.2421         -DE/DX =    0.0006              !
 ! D16   D(19,1,23,26)        -178.5828         -DE/DX =    0.0002              !
 ! D17   D(18,2,4,14)           -7.2792         -DE/DX =    0.0097              !
 ! D18   D(18,2,4,17)         -157.2763         -DE/DX =   -0.0116              !
 ! D19   D(22,2,4,14)          133.6229         -DE/DX =    0.0194              !
 ! D20   D(22,2,4,17)          -16.3742         -DE/DX =   -0.0019              !
 ! D21   D(8,3,6,5)            178.1646         -DE/DX =   -0.0164              !
 ! D22   D(8,3,6,7)              2.7959         -DE/DX =   -0.0102              !
 ! D23   D(19,3,6,5)           -23.6564         -DE/DX =   -0.0015              !
 ! D24   D(19,3,6,7)           160.9749         -DE/DX =    0.0047              !
 ! D25   D(6,3,8,9)             52.6062         -DE/DX =   -0.0016              !
 ! D26   D(6,3,8,10)           171.8091         -DE/DX =    0.0315              !
 ! D27   D(6,3,8,11)           -68.5501         -DE/DX =   -0.0034              !
 ! D28   D(19,3,8,9)           -99.2982         -DE/DX =   -0.0208              !
 ! D29   D(19,3,8,10)           19.9047         -DE/DX =    0.0123              !
 ! D30   D(19,3,8,11)          139.5455         -DE/DX =   -0.0227              !
 ! D31   D(6,3,19,1)            34.6777         -DE/DX =    0.0059              !
 ! D32   D(6,3,19,20)          -81.2047         -DE/DX =   -0.0021              !
 ! D33   D(6,3,19,21)          155.5134         -DE/DX =   -0.003               !
 ! D34   D(8,3,19,1)          -169.908          -DE/DX =    0.0227              !
 ! D35   D(8,3,19,20)           74.2096         -DE/DX =    0.0147              !
 ! D36   D(8,3,19,21)          -49.0723         -DE/DX =    0.0138              !
 ! D37   D(2,4,14,11)          144.6022         -DE/DX =   -0.0379              !
 ! D38   D(2,4,14,15)          -31.5254         -DE/DX =   -0.0018              !
 ! D39   D(17,4,14,11)         -64.6579         -DE/DX =   -0.0177              !
 ! D40   D(17,4,14,15)         119.2145         -DE/DX =    0.0184              !
 ! D41   D(1,5,6,3)              0.8268         -DE/DX =   -0.0009              !
 ! D42   D(1,5,6,7)            176.1719         -DE/DX =   -0.0073              !
 ! D43   D(16,5,6,3)          -176.0315         -DE/DX =    0.0036              !
 ! D44   D(16,5,6,7)            -0.6865         -DE/DX =   -0.0028              !
 ! D45   D(3,8,11,12)           92.6098         -DE/DX =    0.0203              !
 ! D46   D(3,8,11,13)         -146.7783         -DE/DX =    0.0557              !
 ! D47   D(3,8,11,14)          -25.7743         -DE/DX =    0.0608              !
 ! D48   D(9,8,11,12)          -29.4321         -DE/DX =   -0.0022              !
 ! D49   D(9,8,11,13)           91.1798         -DE/DX =    0.0331              !
 ! D50   D(9,8,11,14)         -147.8162         -DE/DX =    0.0383              !
 ! D51   D(10,8,11,12)        -148.1239         -DE/DX =   -0.0296              !
 ! D52   D(10,8,11,13)         -27.512          -DE/DX =    0.0057              !
 ! D53   D(10,8,11,14)          93.4919         -DE/DX =    0.0109              !
 ! D54   D(8,11,14,4)          -18.8273         -DE/DX =    0.0462              !
 ! D55   D(8,11,14,15)         157.2834         -DE/DX =    0.0096              !
 ! D56   D(12,11,14,4)        -138.4936         -DE/DX =    0.0538              !
 ! D57   D(12,11,14,15)         37.6171         -DE/DX =    0.0172              !
 ! D58   D(13,11,14,4)         103.3438         -DE/DX =    0.0199              !
 ! D59   D(13,11,14,15)        -80.5455         -DE/DX =   -0.0167              !
 --------------------------------------------------------------------------------
 GradGradGradGradGradGradGradGradGradGradGradGradGradGradGradGradGradGrad

                          Input orientation:                          
 ---------------------------------------------------------------------
 Center     Atomic      Atomic             Coordinates (Angstroms)
 Number     Number       Type             X           Y           Z
 ---------------------------------------------------------------------
      1          6           0       -1.370200   -1.140300    0.206400
      2          6           0       -0.755800    1.074500    0.447900
      3          6           0        0.822400   -1.048800   -0.490100
      4          6           0        0.482800    1.008900   -0.326500
      5          6           0       -0.514700   -1.684000    1.261000
      6          6           0        0.760300   -1.644800    0.854700
      7          1           0        1.621400   -1.932700    1.440200
      8          6           0        2.134400   -0.846700   -1.183200
      9          1           0        2.732000   -1.763700   -1.204300
     10          1           0        1.958900   -0.549400   -2.224300
     11          6           0        2.879500    0.280500   -0.439300
     12          1           0        3.521900   -0.149100    0.337200
     13          1           0        3.493000    0.868700   -1.127800
     14          6           0        1.854500    1.179600    0.233600
     15          8           0        2.101500    1.940600    1.158600
     16          1           0       -0.867400   -2.017100    2.225700
     17          1           0        0.411600    1.356200   -1.358500
     18          1           0       -0.709100    1.129900    1.531200
     19          6           0       -0.551300   -1.312100   -1.067100
     20          1           0       -0.627200   -2.334600   -1.456300
     21          1           0       -0.847600   -0.617000   -1.857600
     22         17           0       -2.017600    2.097000   -0.161100
     23          6           0       -2.841200   -1.369100    0.227100
     24          1           0       -3.344600   -0.713300   -0.488800
     25          1           0       -3.074900   -2.405600   -0.035200
     26          1           0       -3.253000   -1.164100    1.220600
 ---------------------------------------------------------------------
                    Distance matrix (angstroms):
                    1          2          3          4          5
     1  C    0.000000
     2  C    2.311093   0.000000
     3  C    2.302386   2.806949   0.000000
     4  C    2.887326   1.462234   2.091942   0.000000
     5  C    1.462761   2.885928   2.292960   3.281291   0.000000
     6  C    2.283384   3.139847   1.472263   2.917938   1.338746
     7  H    3.331641   3.959671   2.268422   3.615335   2.157982
     8  C    3.781456   3.834678   1.497523   2.627731   3.700394
     9  H    4.382550   4.790605   2.160494   3.676513   4.077391
    10  H    4.164177   4.140930   2.132717   2.865103   4.421915
    11  C    4.527201   3.825306   2.449751   2.507481   4.274444
    12  H    4.993218   4.450637   2.963307   3.319276   4.416273
    13  H    5.428341   4.536241   3.348966   3.118179   5.318299
    14  C    3.972577   2.621190   2.560222   1.491446   3.856017
    15  O    4.738284   3.069102   3.645658   2.386164   4.471321
    16  H    2.258132   3.568055   3.341945   4.182516   1.079814
    17  H    3.443288   2.169161   2.589768   1.091197   4.118571
    18  H    2.710342   1.085720   3.343334   2.210501   2.833519
    19  C    1.523783   2.834238   1.513046   2.646676   2.357901
    20  H    2.177837   3.906978   2.165217   3.699668   2.796365
    21  H    2.192498   2.860932   2.201229   2.599573   3.312850
    22  Cl   3.321791   1.734510   4.250870   2.731908   4.310109
    23  C    1.488831   3.220066   3.746856   4.124358   2.565290
    24  H    2.136326   3.282609   4.180485   4.200155   3.465890
    25  H    2.136670   4.209834   4.151721   4.939726   2.958964
    26  H    2.138715   3.441570   4.421388   4.590387   2.787511
                    6          7          8          9         10
     6  C    0.000000
     7  H    1.080366   0.000000
     8  C    2.584212   2.885272   0.000000
     9  H    2.853282   2.873217   1.094742   0.000000
    10  H    3.480917   3.931410   1.096849   1.764259   0.000000
    11  C    3.142010   3.164426   1.542446   2.187632   2.173123
    12  H    3.182980   2.830148   2.173343   2.367931   3.027291
    13  H    4.208995   4.236196   2.188940   2.741259   2.359403
    14  C    3.091969   3.346137   2.488284   3.391250   3.006927
    15  O    3.840087   3.913087   3.640625   4.438768   4.202909
    16  H    2.160476   2.611180   4.690548   4.978433   5.472167
    17  H    3.745110   4.484774   2.802060   3.891248   2.602894
    18  H    3.211814   3.849549   4.400046   5.262799   4.903270
    19  C    2.350383   3.375252   2.728197   3.317051   2.867390
    20  H    2.782391   3.688826   3.148788   3.416673   3.234915
    21  H    3.316366   4.324640   3.065926   3.815135   2.831162
    22  Cl   4.769659   5.660827   5.191258   6.209023   5.203151
    23  C    3.666155   4.658761   5.197927   5.767597   5.451810
    24  H    4.418471   5.465266   5.524439   6.208087   5.582646
    25  H    4.009925   4.945268   5.557417   5.958097   5.794547
    26  H    4.058514   4.939509   5.907883   6.485359   6.277666
                   11         12         13         14         15
    11  C    0.000000
    12  H    1.095530   0.000000
    13  H    1.093798   1.784090   0.000000
    14  C    1.520461   2.134572   2.152847   0.000000
    15  O    2.431975   2.656893   2.883204   1.223011   0.000000
    16  H    5.140083   5.130479   6.211835   4.647160   5.061270
    17  H    2.844748   3.849064   3.128243   2.155906   3.087568
    18  H    4.181196   4.578519   4.979573   2.873722   2.948820
    19  C    3.834175   4.462688   4.595208   3.699765   4.750910
    20  H    4.491100   5.020765   5.229253   4.622142   5.706211
    21  H    4.087586   4.912088   4.645505   3.860341   4.933150
    22  Cl   5.230550   5.998277   5.727996   3.998821   4.328170
    23  C    5.990966   6.479935   6.853145   5.342800   6.020971
    24  H    6.303135   6.938978   7.047256   5.579926   6.278305
    25  H    6.544716   6.981994   7.419712   6.101221   6.863653
    26  H    6.515343   6.907235   7.426693   5.705581   6.189804
                   16         17         18         19         20
    16  H    0.000000
    17  H    5.085419   0.000000
    18  H    3.226608   3.107659   0.000000
    19  C    3.382229   2.851651   3.569233   0.000000
    20  H    3.703461   3.835450   4.575437   1.096697   0.000000
    21  H    4.316713   2.393367   3.815076   1.093548   1.777574
    22  Cl   4.893423   2.807769   2.347623   3.820057   4.821808
    23  C    2.882740   4.530132   3.534336   2.630940   2.944116
    24  H    3.899349   4.375871   3.797848   2.914707   3.308917
    25  H    3.183655   5.296975   4.533253   2.937536   2.831219
    26  H    2.725605   5.141300   3.439525   3.543255   3.928192
                   21         22         23         24         25
    21  H    0.000000
    22  Cl   3.407757   0.000000
    23  C    2.980951   3.583694   0.000000
    24  H    2.849192   3.125076   1.093617   0.000000
    25  H    3.388377   4.626785   1.094417   1.772673   0.000000
    26  H    3.944690   3.751011   1.094827   1.770215   1.774845
                   26
    26  H    0.000000
 Stoichiometry    C11H13ClO
 Framework group  C1[X(C11H13ClO)]
 Deg. of freedom    72
 Full point group                 C1      NOp   1
 Largest Abelian subgroup         C1      NOp   1
 Largest concise Abelian subgroup C1      NOp   1
                         Standard orientation:                         
 ---------------------------------------------------------------------
 Center     Atomic      Atomic             Coordinates (Angstroms)
 Number     Number       Type             X           Y           Z
 ---------------------------------------------------------------------
      1          6           0       -1.441238   -1.145665    0.162447
      2          6           0       -0.738135    1.047558    0.353671
      3          6           0        0.784761   -1.178142   -0.424794
      4          6           0        0.532613    0.897341   -0.353975
      5          6           0       -0.664408   -1.685256    1.278265
      6          6           0        0.629432   -1.718174    0.936013
      7          1           0        1.446623   -2.020862    1.574581
      8          6           0        2.137078   -1.061207   -1.057363
      9          1           0        2.692155   -2.003820   -1.014576
     10          1           0        2.026706   -0.797082   -2.116198
     11          6           0        2.895894    0.060027   -0.318327
     12          1           0        3.478994   -0.367049    0.504951
     13          1           0        3.568836    0.593406   -0.995859
     14          6           0        1.881601    1.028935    0.268381
     15          8           0        2.117711    1.813619    1.176279
     16          1           0       -1.078943   -1.964768    2.235361
     17          1           0        0.528161    1.207128   -1.400265
     18          1           0       -0.742108    1.142847    1.435195
     19          6           0       -0.569655   -1.402744   -1.060733
     20          1           0       -0.673360   -2.435232   -1.415638
     21          1           0       -0.794532   -0.726448   -1.890131
     22         17           0       -1.920157    2.100352   -0.355537
     23          6           0       -2.920453   -1.308333    0.116841
     24          1           0       -3.357428   -0.659232   -0.647174
     25          1           0       -3.188467   -2.342906   -0.118907
     26          1           0       -3.370600   -1.046949    1.080009
 ---------------------------------------------------------------------
 Rotational constants (GHZ):           0.9244285           0.6743049           0.4755489
 Rotating derivatives to standard orientation.
 Full mass-weighted force constant matrix:
 Low frequencies --- -798.8033 -477.4754 -195.3258 -123.8458  -79.9348  -43.3184
 Low frequencies ---   -0.0151    0.0199    0.0312
 ******    4 imaginary frequencies (negative Signs) ****** 
 Diagonal vibrational polarizability:
        0.0000000       0.0000000       0.0000000
 Harmonic frequencies (cm**-1), IR intensities (KM/Mole), Raman scattering
 activities (A**4/AMU), depolarization ratios for plane and unpolarized
 incident light, reduced masses (AMU), force constants (mDyne/A),
 and normal coordinates:
                      1                      2                      3
                      A                      A                      A
 Frequencies --   -798.7957              -476.0460              -193.4023
 Red. masses --      8.7240                 1.0128                 1.6520
 Frc consts  --      3.2797                 0.1352                 0.0364
 IR Inten    --      0.0000                 0.0000                 0.0000
  Atom  AN      X      Y      Z        X      Y      Z        X      Y      Z
     1   6    -0.03  -0.36   0.03     0.00   0.00  -0.00     0.01   0.01   0.01
     2   6     0.22   0.36  -0.03     0.00  -0.00   0.00     0.00  -0.01  -0.00
     3   6     0.06  -0.42   0.06     0.00   0.00  -0.00    -0.00  -0.01  -0.03
     4   6    -0.09   0.42   0.04    -0.00   0.00   0.00     0.01  -0.00  -0.01
     5   6    -0.09   0.01  -0.05     0.00  -0.00  -0.01     0.03   0.01   0.00
     6   6     0.06  -0.01  -0.07     0.00  -0.00  -0.01     0.02  -0.01  -0.03
     7   1    -0.04   0.18   0.14    -0.00  -0.01  -0.01     0.03  -0.02  -0.05
     8   6    -0.02  -0.00   0.00    -0.00   0.00  -0.00    -0.03   0.06  -0.07
     9   1     0.10   0.05  -0.10     0.00   0.00  -0.01    -0.05   0.05  -0.37
    10   1    -0.10   0.05   0.03    -0.00   0.01  -0.00    -0.10   0.36   0.00
    11   6    -0.04  -0.00  -0.00    -0.00   0.00  -0.00    -0.01  -0.10   0.15
    12   1    -0.02   0.00  -0.01    -0.00  -0.00  -0.00    -0.37  -0.30   0.32
    13   1    -0.03  -0.00  -0.00    -0.00   0.00   0.00     0.33  -0.21   0.41
    14   6    -0.02  -0.03   0.00    -0.00  -0.00   0.00     0.00   0.01   0.00
    15   8     0.01  -0.01  -0.00     0.00  -0.00   0.01     0.00   0.07  -0.05
    16   1     0.07   0.19   0.08     0.00  -0.01  -0.01     0.05   0.02   0.01
    17   1     0.01   0.00  -0.07    -0.00   0.01   0.00     0.01   0.01  -0.00
    18   1    -0.11  -0.20   0.01    -0.00  -0.01   0.00     0.01   0.00  -0.01
    19   6     0.02   0.03   0.03     0.00   0.00  -0.00    -0.02  -0.00  -0.00
    20   1    -0.03   0.07  -0.14    -0.00   0.01  -0.01    -0.04  -0.00   0.00
    21   1     0.07   0.15   0.12    -0.00   0.01  -0.00    -0.03  -0.00  -0.00
    22  17    -0.02  -0.00  -0.00    -0.00   0.00   0.01    -0.00  -0.01  -0.01
    23   6    -0.02  -0.03  -0.00     0.00  -0.00  -0.01     0.01  -0.00   0.03
    24   1     0.08   0.04  -0.00     0.05  -0.43  -0.39    -0.01  -0.01   0.04
    25   1    -0.18   0.01  -0.02     0.00  -0.13   0.57     0.02  -0.01   0.04
    26   1     0.00   0.02  -0.00    -0.05   0.54  -0.17     0.02  -0.01   0.04
                      4                      5                      6
                      A                      A                      A
 Frequencies --   -105.4982                16.1463               116.2015
 Red. masses --      5.2126                 5.7062                 3.8389
 Frc consts  --      0.0342                 0.0009                 0.0305
 IR Inten    --      0.0000                 0.0000                 0.0000
  Atom  AN      X      Y      Z        X      Y      Z        X      Y      Z
     1   6     0.10   0.28   0.04     0.02   0.10  -0.08     0.01   0.03  -0.03
     2   6    -0.03  -0.02  -0.03     0.01  -0.05   0.03    -0.01   0.01  -0.06
     3   6     0.07  -0.21  -0.03     0.05  -0.14   0.04     0.02  -0.05  -0.01
     4   6    -0.02   0.06  -0.03    -0.02  -0.01  -0.02    -0.03  -0.01  -0.10
     5   6     0.07   0.21   0.05    -0.07   0.04  -0.03     0.02   0.16   0.04
     6   6     0.04  -0.18  -0.04    -0.06  -0.14   0.03     0.01   0.07   0.04
     7   1    -0.00  -0.39  -0.09    -0.13  -0.25   0.06     0.01   0.13   0.07
     8   6     0.03   0.00  -0.06     0.08  -0.12   0.13     0.01  -0.04  -0.01
     9   1     0.16   0.07  -0.21     0.13  -0.08   0.30     0.03  -0.03  -0.03
    10   1    -0.08   0.11  -0.02     0.15  -0.27   0.08     0.00  -0.02  -0.01
    11   6    -0.03   0.02  -0.03     0.00  -0.02   0.05    -0.02  -0.03   0.01
    12   1     0.03   0.03  -0.07    -0.04   0.08   0.14    -0.09  -0.03   0.07
    13   1    -0.09   0.09  -0.04     0.04  -0.10   0.03     0.05  -0.06   0.06
    14   6    -0.06  -0.03   0.02    -0.00   0.05  -0.08    -0.05  -0.03  -0.06
    15   8    -0.09  -0.15   0.14     0.03   0.22  -0.24    -0.11  -0.07   0.00
    16   1     0.06   0.40   0.10    -0.15   0.11  -0.05     0.01   0.30   0.08
    17   1    -0.00  -0.00  -0.04    -0.07  -0.07  -0.03    -0.04  -0.04  -0.10
    18   1     0.01   0.08  -0.04     0.08  -0.08   0.04     0.05  -0.05  -0.05
    19   6     0.04   0.02   0.01     0.07  -0.02  -0.03     0.03  -0.11   0.01
    20   1    -0.23   0.00   0.13    -0.04  -0.01  -0.00     0.02  -0.18   0.18
    21   1     0.17  -0.02  -0.05     0.21  -0.02  -0.07     0.05  -0.25  -0.10
    22  17    -0.08  -0.06  -0.04    -0.05  -0.03   0.17     0.03   0.15   0.09
    23   6     0.10   0.16   0.04     0.02   0.12  -0.19     0.04  -0.24  -0.08
    24   1     0.02   0.11   0.05     0.11   0.14  -0.22    -0.10  -0.36  -0.10
    25   1     0.22   0.13   0.05     0.02   0.13  -0.22     0.33  -0.31  -0.10
    26   1     0.08   0.11   0.05    -0.07   0.13  -0.23    -0.08  -0.37  -0.10
                      7                      8                      9
                      A                      A                      A
 Frequencies --    147.8684               151.9841               177.4821
 Red. masses --      2.9059                 3.8305                 2.8683
 Frc consts  --      0.0374                 0.0521                 0.0532
 IR Inten    --      0.0000                 0.0000                 0.0000
  Atom  AN      X      Y      Z        X      Y      Z        X      Y      Z
     1   6     0.03  -0.11  -0.03    -0.02   0.01  -0.02     0.01  -0.04   0.03
     2   6     0.02  -0.01  -0.07     0.04   0.01   0.02    -0.06  -0.06   0.05
     3   6     0.02   0.03  -0.03    -0.01   0.07   0.05     0.02  -0.09   0.07
     4   6    -0.01  -0.03  -0.11     0.04   0.03   0.02    -0.05  -0.06   0.08
     5   6     0.04  -0.05  -0.02    -0.04   0.14   0.04    -0.01  -0.07   0.04
     6   6     0.05   0.09   0.01    -0.02   0.21   0.10     0.00  -0.10   0.06
     7   1     0.08   0.24   0.04    -0.03   0.37   0.19    -0.02  -0.12   0.08
     8   6     0.05  -0.00   0.00    -0.07   0.05  -0.08    -0.07   0.10  -0.09
     9   1     0.03  -0.01   0.06    -0.10   0.02  -0.31     0.04   0.16  -0.45
    10   1     0.10  -0.03  -0.01    -0.22   0.20  -0.03    -0.36   0.34  -0.01
    11   6     0.01   0.00   0.03     0.03  -0.04  -0.06    -0.04   0.07  -0.07
    12   1    -0.07   0.00   0.10     0.01  -0.12  -0.08     0.08   0.06  -0.18
    13   1     0.09  -0.02   0.09     0.06  -0.06  -0.04    -0.15   0.16  -0.13
    14   6    -0.04  -0.01  -0.04     0.07  -0.02  -0.01    -0.04   0.01   0.03
    15   8    -0.16  -0.06   0.03     0.14  -0.09   0.03    -0.02   0.07  -0.02
    16   1     0.05  -0.08  -0.02    -0.06   0.21   0.06    -0.03  -0.06   0.03
    17   1    -0.01  -0.05  -0.11     0.03   0.05   0.03    -0.06  -0.09   0.07
    18   1     0.09  -0.05  -0.06     0.05  -0.00   0.02    -0.13  -0.06   0.05
    19   6     0.03  -0.14  -0.01     0.02  -0.06   0.03     0.04  -0.12   0.06
    20   1     0.15  -0.19   0.12     0.11  -0.11   0.16     0.04  -0.16   0.15
    21   1    -0.04  -0.26  -0.09     0.02  -0.18  -0.06     0.06  -0.20  -0.01
    22  17    -0.01   0.02   0.05    -0.07  -0.12   0.04     0.08   0.06  -0.03
    23   6     0.00   0.21   0.04    -0.02   0.04  -0.18     0.01   0.05  -0.09
    24   1     0.16   0.36   0.07     0.13   0.07  -0.25     0.17   0.11  -0.13
    25   1    -0.36   0.30   0.06    -0.02   0.06  -0.25    -0.07   0.09  -0.14
    26   1     0.14   0.37   0.07    -0.17   0.04  -0.26    -0.08   0.09  -0.14
                     10                     11                     12
                      A                      A                      A
 Frequencies --    276.2851               279.7221               301.9791
 Red. masses --      2.8165                 6.8539                 2.8819
 Frc consts  --      0.1267                 0.3160                 0.1548
 IR Inten    --      0.0000                 0.0000                 0.0000
  Atom  AN      X      Y      Z        X      Y      Z        X      Y      Z
     1   6     0.04  -0.00   0.16     0.07  -0.04  -0.04    -0.00   0.06  -0.08
     2   6     0.01   0.07  -0.02    -0.21   0.04  -0.01     0.02   0.01  -0.11
     3   6     0.00   0.06   0.05     0.04  -0.00  -0.04     0.05   0.01   0.14
     4   6    -0.01   0.00  -0.07    -0.08   0.03   0.16     0.05   0.03  -0.10
     5   6     0.07  -0.15   0.08     0.09  -0.06  -0.04    -0.12  -0.12  -0.06
     6   6     0.05  -0.06   0.03     0.08  -0.00  -0.02    -0.08  -0.06   0.12
     7   1     0.09  -0.13  -0.06     0.11   0.04  -0.04    -0.16  -0.13   0.20
     8   6    -0.01  -0.03   0.00     0.06  -0.08   0.01    -0.02   0.06   0.01
     9   1    -0.06  -0.05   0.02     0.02  -0.10   0.15     0.02   0.07  -0.27
    10   1    -0.03  -0.05  -0.00     0.18  -0.17  -0.02    -0.25   0.23   0.07
    11   6     0.01  -0.04  -0.01    -0.02  -0.08   0.04     0.06   0.02  -0.03
    12   1    -0.11  -0.05   0.07    -0.02  -0.08   0.04    -0.00   0.01   0.02
    13   1     0.12  -0.12   0.04    -0.02  -0.02   0.09     0.12  -0.06  -0.02
    14   6    -0.00  -0.00  -0.08    -0.01  -0.07   0.09     0.05   0.04  -0.08
    15   8    -0.04  -0.07  -0.01     0.31  -0.04  -0.02     0.03  -0.06   0.02
    16   1     0.10  -0.34   0.04     0.08  -0.11  -0.05    -0.28  -0.31  -0.19
    17   1    -0.04  -0.06  -0.09    -0.01   0.11   0.18     0.05  -0.04  -0.11
    18   1     0.10   0.20  -0.03    -0.40   0.02  -0.01     0.08   0.01  -0.10
    19   6    -0.01   0.12   0.10     0.07  -0.15  -0.03     0.10   0.02   0.01
    20   1    -0.04   0.17  -0.05     0.15  -0.23   0.19     0.12   0.01   0.03
    21   1    -0.08   0.23   0.21     0.04  -0.32  -0.16     0.24  -0.01  -0.05
    22  17    -0.06   0.04  -0.01    -0.20   0.17  -0.05    -0.06   0.03   0.02
    23   6     0.06   0.01  -0.14     0.07   0.03   0.03    -0.01  -0.03   0.09
    24   1     0.33   0.04  -0.28     0.07   0.07   0.06    -0.24  -0.09   0.19
    25   1     0.12   0.02  -0.28    -0.04   0.06   0.06     0.04  -0.06   0.19
    26   1    -0.27  -0.02  -0.29     0.17   0.08   0.06     0.19  -0.05   0.20
                     13                     14                     15
                      A                      A                      A
 Frequencies --    357.6614               413.2602               432.3801
 Red. masses --      2.3924                 3.2441                 3.1560
 Frc consts  --      0.1803                 0.3264                 0.3476
 IR Inten    --      0.0000                 0.0000                 0.0000
  Atom  AN      X      Y      Z        X      Y      Z        X      Y      Z
     1   6     0.04  -0.03  -0.05     0.02   0.07   0.02     0.03   0.09  -0.05
     2   6    -0.09  -0.09   0.04    -0.08  -0.14   0.04     0.04   0.21   0.26
     3   6     0.06  -0.05   0.05    -0.01  -0.02  -0.00     0.02   0.05   0.01
     4   6    -0.07  -0.05   0.05    -0.08   0.21  -0.03    -0.08  -0.04   0.10
     5   6     0.01   0.03  -0.01     0.00  -0.07  -0.01    -0.02  -0.04  -0.08
     6   6     0.04   0.12   0.09     0.01   0.04   0.02    -0.00   0.03   0.01
     7   1     0.02   0.33   0.21     0.03   0.12   0.03    -0.02   0.04   0.04
     8   6     0.01  -0.05  -0.03    -0.02  -0.02   0.03     0.01  -0.03  -0.03
     9   1     0.04  -0.03  -0.15     0.02   0.01   0.25    -0.03  -0.05   0.04
    10   1    -0.09   0.02  -0.01     0.06  -0.21  -0.03     0.02  -0.10  -0.04
    11   6    -0.02  -0.05  -0.02    -0.11   0.04  -0.01    -0.01  -0.03  -0.03
    12   1    -0.02  -0.05  -0.01    -0.42   0.04   0.23    -0.14  -0.05   0.05
    13   1    -0.02  -0.01   0.01     0.18  -0.16   0.14     0.11  -0.09   0.04
    14   6    -0.05  -0.08  -0.01    -0.07   0.15  -0.12    -0.03  -0.02  -0.07
    15   8    -0.05  -0.03  -0.06     0.09  -0.08   0.03    -0.09  -0.04  -0.04
    16   1    -0.04   0.06  -0.02    -0.03  -0.24  -0.07    -0.10  -0.20  -0.16
    17   1    -0.10  -0.00   0.06    -0.21   0.31   0.00    -0.25  -0.19   0.06
    18   1    -0.16  -0.14   0.04    -0.15  -0.33   0.05     0.12   0.48   0.23
    19   6     0.08   0.15  -0.04    -0.00  -0.02   0.02     0.06  -0.02  -0.02
    20   1    -0.02   0.31  -0.44    -0.05  -0.06   0.14     0.08  -0.13   0.25
    21   1     0.20   0.47   0.18     0.02  -0.11  -0.06     0.10  -0.25  -0.20
    22  17     0.01   0.01  -0.00     0.09  -0.03  -0.01     0.02  -0.03  -0.03
    23   6     0.04   0.02   0.02     0.02   0.02  -0.00     0.05   0.00   0.01
    24   1     0.01   0.04   0.06    -0.00  -0.01  -0.01    -0.11  -0.07   0.04
    25   1    -0.04   0.03   0.05     0.09  -0.00  -0.01     0.16  -0.04   0.05
    26   1     0.14   0.05   0.06    -0.02  -0.02  -0.02     0.10  -0.05   0.05
                     16                     17                     18
                      A                      A                      A
 Frequencies --    467.9506               545.6048               566.2491
 Red. masses --      2.5533                 2.9268                 2.4596
 Frc consts  --      0.3294                 0.5133                 0.4646
 IR Inten    --      0.0000                 0.0000                 0.0000
  Atom  AN      X      Y      Z        X      Y      Z        X      Y      Z
     1   6     0.04   0.14   0.03    -0.08   0.08   0.08    -0.04   0.02   0.03
     2   6     0.04  -0.00  -0.07    -0.01  -0.02   0.02    -0.05  -0.05   0.04
     3   6    -0.02  -0.06  -0.03     0.05  -0.15  -0.08     0.03   0.08   0.01
     4   6     0.05   0.07  -0.03    -0.03  -0.08   0.00    -0.01   0.15   0.05
[...]
     8   6     0.00  -0.00   0.00     0.00  -0.00   0.00    -0.01   0.03  -0.03
     9   1    -0.00   0.01   0.00    -0.02   0.03  -0.00     0.16  -0.27   0.00
    10   1    -0.00   0.00  -0.01    -0.00   0.01  -0.03     0.03  -0.06   0.30
    11   6    -0.00   0.00  -0.00     0.00  -0.00   0.01    -0.00   0.04  -0.07
    12   1     0.01  -0.00   0.01    -0.04   0.03  -0.05     0.38  -0.25   0.49
    13   1    -0.00  -0.00   0.00     0.04   0.03  -0.04    -0.37  -0.27   0.34
    14   6    -0.00   0.00  -0.00     0.00  -0.00   0.00    -0.00   0.00  -0.00
    15   8     0.00   0.00  -0.00     0.00  -0.00  -0.00    -0.00   0.00   0.00
    16   1     0.00   0.00  -0.00     0.00  -0.00  -0.00     0.00   0.00  -0.00
    17   1     0.00  -0.00   0.01     0.00  -0.00   0.01    -0.00   0.01  -0.03
    18   1     0.00  -0.00  -0.00     0.00  -0.00  -0.01    -0.00   0.00   0.02
    19   6     0.00  -0.09   0.01    -0.00  -0.00   0.00     0.00   0.00   0.00
    20   1     0.09   0.77   0.29     0.00   0.02   0.01    -0.00  -0.00  -0.00
    21   1    -0.12   0.31  -0.44    -0.00   0.01  -0.01     0.00  -0.00   0.00
    22  17     0.00   0.00   0.00     0.00   0.00   0.00    -0.00   0.00  -0.00
    23   6    -0.00   0.00   0.00     0.01  -0.08  -0.04     0.00  -0.01  -0.00
    24   1     0.00  -0.01   0.01    -0.09   0.10  -0.18    -0.01   0.01  -0.02
    25   1    -0.01  -0.02  -0.00     0.21   0.77   0.16     0.02   0.09   0.02
    26   1     0.00  -0.00  -0.01    -0.22   0.09   0.46    -0.02   0.01   0.05
                     64                     65                     66
                      A                      A                      A
 Frequencies --   3225.3499              3225.9332              3242.3058
 Red. masses --      1.0912                 1.0747                 1.0808
 Frc consts  --      6.6885                 6.5896                 6.6941
 IR Inten    --      0.0000                 0.0000                 0.0000
  Atom  AN      X      Y      Z        X      Y      Z        X      Y      Z
     1   6     0.00   0.00  -0.00    -0.00  -0.00   0.00    -0.00  -0.00   0.00
     2   6     0.00  -0.00  -0.00     0.00  -0.00  -0.06     0.00  -0.00  -0.06
     3   6     0.00  -0.00   0.00     0.00  -0.00  -0.00    -0.00   0.00  -0.00
     4   6    -0.00  -0.00   0.00     0.00  -0.01   0.05    -0.00   0.01  -0.06
     5   6     0.00  -0.00   0.00    -0.00  -0.00   0.00     0.00  -0.00   0.00
     6   6     0.00   0.00   0.00     0.00  -0.00   0.00     0.00  -0.00   0.00
     7   1    -0.00  -0.00  -0.00    -0.00   0.00  -0.00    -0.00   0.00  -0.00
     8   6     0.00  -0.00   0.00     0.00  -0.00   0.00    -0.00   0.00  -0.00
     9   1    -0.00   0.00  -0.00    -0.01   0.01  -0.00     0.00  -0.00  -0.00
    10   1    -0.00   0.00  -0.00    -0.00   0.00  -0.01     0.00  -0.00   0.00
    11   6     0.00  -0.00   0.00     0.00  -0.00   0.00    -0.00   0.00  -0.00
    12   1    -0.00   0.00  -0.00    -0.02   0.01  -0.02     0.00  -0.00   0.01
    13   1     0.00   0.00  -0.00     0.01   0.01  -0.01    -0.00  -0.00   0.00
    14   6     0.00   0.00   0.00     0.00   0.00   0.00    -0.00  -0.00  -0.00
    15   8    -0.00  -0.00  -0.00    -0.00  -0.00  -0.00     0.00   0.00   0.00
    16   1     0.00   0.00  -0.00     0.00   0.00  -0.00    -0.00  -0.00   0.00
    17   1    -0.00   0.01  -0.05    -0.01   0.19  -0.67    -0.00  -0.19   0.69
    18   1    -0.00   0.00   0.06    -0.02   0.05   0.71    -0.02   0.05   0.70
    19   6    -0.00   0.00   0.00    -0.00  -0.00  -0.00    -0.00   0.00  -0.00
    20   1    -0.00  -0.01  -0.00     0.00   0.01   0.00    -0.00  -0.00  -0.00
    21   1     0.00  -0.00   0.00     0.00  -0.00   0.00     0.00  -0.00   0.00
    22  17    -0.00   0.00  -0.00    -0.00   0.00  -0.00    -0.00   0.00  -0.00
    23   6     0.00   0.04  -0.08    -0.00  -0.00   0.01    -0.00  -0.00  -0.00
    24   1     0.31  -0.45   0.51    -0.02   0.03  -0.04     0.00  -0.00   0.00
    25   1    -0.05  -0.18  -0.08     0.01   0.03   0.01     0.00   0.00   0.00
    26   1    -0.27   0.17   0.54     0.02  -0.01  -0.04     0.00  -0.00  -0.00
                     67                     68                     69
                      A                      A                      A
 Frequencies --   3274.0469              3278.2066              3278.3987
 Red. masses --      1.0477                 1.0508                 1.0509
 Frc consts  --      6.6169                 6.6534                 6.6548
 IR Inten    --      0.0000                 0.0000                 0.0000
  Atom  AN      X      Y      Z        X      Y      Z        X      Y      Z
     1   6    -0.00   0.00   0.00     0.00  -0.00  -0.00     0.00  -0.00  -0.00
     2   6     0.00  -0.00  -0.00     0.00   0.00   0.00     0.00   0.00   0.00
     3   6     0.00  -0.00  -0.00     0.00  -0.00  -0.00    -0.00  -0.00  -0.00
     4   6    -0.00   0.00  -0.00     0.00   0.00   0.00    -0.00   0.00  -0.00
     5   6     0.00   0.00  -0.00     0.00   0.00  -0.00     0.00   0.00  -0.00
     6   6    -0.00  -0.00   0.00    -0.00   0.00  -0.00    -0.00   0.00  -0.00
     7   1     0.00  -0.00   0.00     0.01  -0.01   0.01     0.02  -0.01   0.01
     8   6     0.02  -0.03  -0.04     0.01  -0.01  -0.02    -0.01   0.01   0.02
     9   1    -0.33   0.57  -0.05    -0.14   0.23  -0.02     0.12  -0.20   0.02
    10   1     0.07  -0.15   0.54     0.03  -0.07   0.25    -0.03   0.06  -0.21
    11   6     0.03   0.00  -0.00    -0.04  -0.01  -0.00     0.04   0.01   0.00
    12   1    -0.15   0.12  -0.23     0.21  -0.17   0.32    -0.20   0.16  -0.30
    13   1    -0.24  -0.20   0.25     0.28   0.23  -0.30    -0.26  -0.22   0.28
    14   6     0.00  -0.00  -0.00    -0.00   0.00   0.00     0.00  -0.00  -0.00
    15   8     0.00   0.00   0.00    -0.00  -0.00  -0.00     0.00   0.00   0.00
    16   1    -0.00  -0.00   0.00    -0.01  -0.00   0.01    -0.01  -0.00   0.02
    17   1    -0.00  -0.00   0.00     0.00  -0.00   0.00    -0.00  -0.00   0.00
    18   1    -0.00  -0.00  -0.00     0.00  -0.00  -0.00     0.00  -0.00  -0.01
    19   6     0.00  -0.00   0.00    -0.01   0.00  -0.04    -0.01   0.00  -0.04
    20   1    -0.00  -0.01  -0.00     0.03   0.36   0.11     0.04   0.39   0.12
    21   1    -0.00   0.01  -0.01     0.11  -0.35   0.42     0.12  -0.39   0.45
    22  17    -0.00   0.00  -0.00     0.00  -0.00  -0.00    -0.00   0.00  -0.00
    23   6     0.00  -0.00   0.00     0.00  -0.00  -0.00     0.00  -0.00  -0.00
    24   1    -0.00   0.00  -0.00     0.00   0.00  -0.00    -0.00   0.00  -0.00
    25   1    -0.00  -0.00  -0.00     0.00   0.00  -0.00     0.00  -0.00  -0.00
    26   1    -0.00   0.00   0.00    -0.00   0.00   0.00    -0.00   0.00   0.00
                     70                     71                     72
                      A                      A                      A
 Frequencies --   3321.3658              3322.6623              3334.8333
 Red. masses --      1.0798                 1.0281                 1.0940
 Frc consts  --      7.0182                 6.6876                 7.1686
 IR Inten    --      0.0000                 0.0000                 0.0000
  Atom  AN      X      Y      Z        X      Y      Z        X      Y      Z
     1   6     0.00  -0.00   0.00    -0.01  -0.00  -0.00     0.00  -0.00  -0.00
     2   6     0.00   0.00  -0.00     0.00   0.00   0.00     0.00   0.00  -0.00
     3   6    -0.00   0.00  -0.00     0.00   0.00  -0.00    -0.00  -0.00   0.00
     4   6     0.00  -0.00  -0.00    -0.00   0.00  -0.00    -0.00  -0.00   0.00
     5   6    -0.02  -0.01   0.04     0.00   0.00  -0.00     0.03   0.02  -0.06
     6   6    -0.05   0.02  -0.04    -0.00  -0.00   0.00    -0.04   0.01  -0.03
     7   1     0.64  -0.23   0.49    -0.00   0.00  -0.00     0.41  -0.15   0.32
     8   6    -0.00   0.00  -0.00     0.00  -0.00  -0.00     0.00   0.00  -0.00
     9   1     0.00  -0.00   0.00    -0.00   0.00  -0.00     0.00  -0.00   0.00
    10   1     0.00   0.00  -0.00     0.00  -0.00   0.00     0.00   0.00  -0.00
    11   6    -0.00   0.00  -0.00     0.00   0.00   0.00    -0.00   0.00  -0.00
    12   1     0.00  -0.00   0.00    -0.00   0.00  -0.00     0.00  -0.00   0.00
    13   1     0.00   0.00  -0.00    -0.00  -0.00   0.00     0.00   0.00  -0.00
    14   6    -0.00   0.00   0.00    -0.00  -0.00  -0.00     0.00   0.00   0.00
    15   8    -0.00  -0.00  -0.00     0.00   0.00   0.00    -0.00  -0.00  -0.00
    16   1     0.21   0.14  -0.48    -0.01  -0.01   0.02    -0.33  -0.21   0.74
    17   1    -0.00  -0.00   0.00     0.00  -0.00   0.00    -0.00   0.00  -0.00
    18   1    -0.00  -0.00   0.00     0.00  -0.00  -0.00    -0.00   0.00   0.00
    19   6     0.00  -0.00   0.00     0.00  -0.00  -0.00     0.00  -0.00   0.00
    20   1     0.00  -0.00  -0.00     0.00   0.00   0.00    -0.00  -0.01  -0.00
    21   1    -0.00   0.01  -0.01     0.00  -0.00   0.00    -0.01   0.02  -0.02
    22  17    -0.00  -0.00   0.00    -0.00  -0.00  -0.00     0.00  -0.00   0.00
    23   6    -0.00  -0.00   0.00    -0.04   0.00  -0.00     0.00   0.00  -0.00
    24   1     0.00  -0.01   0.01     0.23  -0.37   0.44    -0.01   0.01  -0.01
    25   1     0.00   0.01   0.00     0.11   0.51   0.12    -0.00  -0.01  -0.00
    26   1     0.00  -0.00  -0.01     0.22  -0.14  -0.51    -0.01   0.00   0.01

 -------------------
 - Thermochemistry -
 -------------------
 Temperature   298.150 Kelvin.  Pressure   1.00000 Atm.
 Atom     1 has atomic number  6 and mass  12.00000
 Atom     2 has atomic number  6 and mass  12.00000
 Atom     3 has atomic number  6 and mass  12.00000
 Atom     4 has atomic number  6 and mass  12.00000
 Atom     5 has atomic number  6 and mass  12.00000
 Atom     6 has atomic number  6 and mass  12.00000
 Atom     7 has atomic number  1 and mass   1.00783
 Atom     8 has atomic number  6 and mass  12.00000
 Atom     9 has atomic number  1 and mass   1.00783
 Atom    10 has atomic number  1 and mass   1.00783
 Atom    11 has atomic number  6 and mass  12.00000
 Atom    12 has atomic number  1 and mass   1.00783
 Atom    13 has atomic number  1 and mass   1.00783
 Atom    14 has atomic number  6 and mass  12.00000
 Atom    15 has atomic number  8 and mass  15.99491
 Atom    16 has atomic number  1 and mass   1.00783
 Atom    17 has atomic number  1 and mass   1.00783
 Atom    18 has atomic number  1 and mass   1.00783
 Atom    19 has atomic number  6 and mass  12.00000
 Atom    20 has atomic number  1 and mass   1.00783
 Atom    21 has atomic number  1 and mass   1.00783
 Atom    22 has atomic number 17 and mass  34.96885
 Atom    23 has atomic number  6 and mass  12.00000
 Atom    24 has atomic number  1 and mass   1.00783
 Atom    25 has atomic number  1 and mass   1.00783
 Atom    26 has atomic number  1 and mass   1.00783
 Molecular mass:   196.06549 amu.
 Principal axes and moments of inertia in atomic units:
                           1         2         3
     Eigenvalues --  1952.277792676.446873795.06997
           X            0.99807   0.05907  -0.01937
           Y           -0.05905   0.99825   0.00122
           Z            0.01941  -0.00007   0.99981
 This molecule is an asymmetric top.
 Rotational symmetry number  1.
 Warning -- assumption of classical behavior for rotation
           may cause significant error
 Rotational temperatures (Kelvin)      0.04437     0.03236     0.02282
 Rotational constants (GHZ):           0.92443     0.67430     0.47555
    4 imaginary frequencies ignored.
 Zero-point vibrational energy     560214.8 (Joules/Mol)
                                  133.89456 (Kcal/Mol)
 Warning -- explicit consideration of  15 degrees of freedom as
           vibrations may cause significant error
 Vibrational temperatures:     23.23   167.19   212.75   218.67   255.36
          (Kelvin)            397.51   402.46   434.48   514.60   594.59
                              622.10   673.28   785.00   814.71   862.41
                              947.73  1054.94  1092.61  1154.80  1173.95
                             1250.04  1267.76  1286.17  1325.10  1330.94
                             1339.40  1361.40  1442.43  1464.83  1468.83
                             1493.62  1504.97  1556.43  1580.43  1652.13
                             1655.50  1689.19  1765.53  1774.25  1778.05
                             1821.61  1881.65  1913.75  1924.05  1926.42
                             1934.40  1959.76  1963.39  1970.01  1997.72
                             2060.15  2202.71  2283.28  2573.86  3035.47
                             4598.41  4609.70  4631.33  4631.35  4640.56
                             4641.40  4664.95  4710.62  4716.61  4716.88
                             4778.70  4780.57  4798.08
 
 Zero-point correction=                           0.213375 (Hartree/Particle)
 Thermal correction to Energy=                    0.224001
 Thermal correction to Enthalpy=                  0.224945
 Thermal correction to Gibbs Free Energy=         0.175549
 Sum of electronic and zero-point Energies=           -961.432952
 Sum of electronic and thermal Energies=              -961.422325
 Sum of electronic and thermal Enthalpies=            -961.421381
 Sum of electronic and thermal Free Energies=         -961.470777
 
                     E (Thermal)             CV                S
                      KCal/Mol        Cal/Mol-Kelvin    Cal/Mol-Kelvin
 Total                  140.563             41.892            103.962
 Electronic               0.000              0.000              0.000
 Translational            0.889              2.981             41.725
 Rotational               0.889              2.981             31.362
 Vibrational            138.785             35.930             30.876
 Vibration     1          0.593              1.986              7.059
 Vibration     2          0.608              1.936              3.163
 Vibration     3          0.617              1.905              2.699
 Vibration     4          0.619              1.900              2.647
 Vibration     5          0.628              1.870              2.355
 Vibration     6          0.678              1.717              1.557
 Vibration     7          0.680              1.711              1.535
 Vibration     8          0.694              1.670              1.406
 Vibration     9          0.733              1.560              1.132
 Vibration    10          0.777              1.441              0.915
 Vibration    11          0.793              1.400              0.851
 Vibration    12          0.825              1.321              0.743
 Vibration    13          0.901              1.149              0.553
 Vibration    14          0.922              1.104              0.512
 Vibration    15          0.957              1.033              0.451
                       Q            Log10(Q)             Ln(Q)
 Total Bot       0.179023D-80        -80.747091       -185.927049
 Total V=0       0.250211D+18         17.398306         40.061079
 Vib (Bot)       0.104075D-94        -94.982652       -218.705640
 Vib (Bot)    1  0.128309D+02          1.108258          2.551859
 Vib (Bot)    2  0.176017D+01          0.245554          0.565410
 Vib (Bot)    3  0.137212D+01          0.137391          0.316354
 Vib (Bot)    4  0.133338D+01          0.124952          0.287714
 Vib (Bot)    5  0.113264D+01          0.054093          0.124554
 Vib (Bot)    6  0.697238D+00         -0.156619         -0.360629
 Vib (Bot)    7  0.687431D+00         -0.162771         -0.374793
 Vib (Bot)    8  0.629064D+00         -0.201305         -0.463522
 Vib (Bot)    9  0.513265D+00         -0.289658         -0.666963
 Vib (Bot)   10  0.427066D+00         -0.369505         -0.850817
 Vib (Bot)   11  0.402226D+00         -0.395530         -0.910741
 Vib (Bot)   12  0.361074D+00         -0.442404         -1.018672
 Vib (Bot)   13  0.288842D+00         -0.539340         -1.241876
 Vib (Bot)   14  0.272804D+00         -0.564150         -1.299003
 Vib (Bot)   15  0.249265D+00         -0.603339         -1.389239
 Vib (V=0)       0.145460D+04          3.162744          7.282488
 Vib (V=0)    1  0.133407D+02          1.125178          2.590817
 Vib (V=0)    2  0.232981D+01          0.367320          0.845786
 Vib (V=0)    3  0.196038D+01          0.292340          0.673137
 Vib (V=0)    4  0.192404D+01          0.284214          0.654427
 Vib (V=0)    5  0.173810D+01          0.240074          0.552790
 Vib (V=0)    6  0.135799D+01          0.132895          0.306003
 Vib (V=0)    7  0.135004D+01          0.130345          0.300132
 Vib (V=0)    8  0.130357D+01          0.115134          0.265105
 Vib (V=0)    9  0.121655D+01          0.085129          0.196017
 Vib (V=0)   10  0.115756D+01          0.063544          0.146314
 Vib (V=0)   11  0.114171D+01          0.057554          0.132523
 Vib (V=0)   12  0.111675D+01          0.047954          0.110418
 Vib (V=0)   13  0.107743D+01          0.032391          0.074582
 Vib (V=0)   14  0.106958D+01          0.029213          0.067266
 Vib (V=0)   15  0.105869D+01          0.024768          0.057031
 Electronic      0.100000D+01          0.000000          0.000000
 Translational   0.107908D+09          8.033056         18.496794
 Rotational      0.159406D+07          6.202506         14.281797
 ***** Axes restored to original set *****
 -------------------------------------------------------------------
 Center     Atomic                   Forces (Hartrees/Bohr)
 Number     Number              X              Y              Z
 -------------------------------------------------------------------
      1        6           0.015534276   -0.002419620    0.014527655
      2        6           0.025165460   -0.022585668   -0.018047436
      3        6          -0.004429335    0.012610082    0.015743331
      4        6          -0.021236225   -0.032971712    0.026292277
      5        6          -0.037879607    0.012672307   -0.016281519
      6        6           0.027636103    0.016673924   -0.030992173
      7        1           0.007459484    0.000724715    0.004393524
      8        6           0.002409326    0.002146362   -0.006570415
      9        1           0.003197174   -0.003573800   -0.001107518
     10        1          -0.001042977   -0.000650928   -0.002835174
     11        6          -0.004833236   -0.008862506   -0.001695690
     12        1           0.004303113    0.003908736    0.002499569
     13        1           0.005662964    0.003040961    0.000434486
     14        6          -0.002934437    0.023313384    0.025673252
     15        8           0.000713731   -0.019685487   -0.018114633
     16        1          -0.003500551   -0.000526457    0.007940079
     17        1          -0.002224943   -0.004554298   -0.006165094
     18        1           0.003099557   -0.001799130    0.003737807
     19        6           0.002900822    0.019773422    0.009087448
     20        1          -0.001481477   -0.006229005    0.002473783
     21        1          -0.000650856    0.000848145   -0.004001381
     22       17          -0.010341671    0.000337161   -0.005595914
     23        6          -0.000933156    0.009902642   -0.000069257
     24        1          -0.003325322    0.002729021   -0.002740165
     25        1          -0.001444547   -0.004850756   -0.001392684
     26        1          -0.001823672    0.000028504    0.002805842
 -------------------------------------------------------------------
 Cartesian Forces:  Max     0.037879607 RMS     0.012266822


 SCIENCE AT ITS BEST PROVIDES US WITH BETTER QUESTIONS, 
 NOT ABSOLUTE ANSWERS

                                    -- NORMAN COUSINS, 1976
 Error termination request processed by link 9999.
 Error termination via Lnk1e in /apps/gaussian/g16/C.01/g16/l9999.exe at Mon May 20 12:33:04 2024.
 Job cpu time:       0 days  0 hours  9 minutes 49.8 seconds.
 Elapsed time:       0 days  0 hours  1 minutes 30.7 seconds.
 File lengths (MBytes):  RWF=      6 Int=      0 D2E=      0 Chk=      2 Scr=      1
