Unloading slurm/anatra/current
  ERROR: No such file or directory on
    '/cm/local/modulefiles/slurm/anatra/current'
environment: line 0: unalias: gv: not found
environment: line 0: unalias: sl: not found
 Entering Gaussian System, Link 0=g16
 Initial command:
 /apps/gaussian/g16/C.01/g16/l1.exe "/local/jobs/1176094/Gau-3196785.inp" -scrdir="/local/jobs/1176094/"
 Entering Link 1 = /apps/gaussian/g16/C.01/g16/l1.exe PID=   3196791.
  
 Copyright (c) 1988-2019, Gaussian, Inc.  All Rights Reserved.
  
 This is part of the Gaussian(R) 16 program.  It is based on
 the Gaussian(R) 09 system (copyright 2009, Gaussian, Inc.),
 the Gaussian(R) 03 system (copyright 2003, Gaussian, Inc.),
 the Gaussian(R) 98 system (copyright 1998, Gaussian, Inc.),
 the Gaussian(R) 94 system (copyright 1995, Gaussian, Inc.),
 the Gaussian 92(TM) system (copyright 1992, Gaussian, Inc.),
 the Gaussian 90(TM) system (copyright 1990, Gaussian, Inc.),
 the Gaussian 88(TM) system (copyright 1988, Gaussian, Inc.),
 the Gaussian 86(TM) system (copyright 1986, Carnegie Mellon
 University), and the Gaussian 82(TM) system (copyright 1983,
 Carnegie Mellon University). Gaussian is a federally registered
 trademark of Gaussian, Inc.
  
 This software contains proprietary and confidential information,
 including trade secrets, belonging to Gaussian, Inc.
  
 This software is provided under written license and may be
 used, copied, transmitted, or stored only in accord with that
 written license.
  
 The following legend is applicable only to US Government
 contracts under FAR:
  
                    RESTRICTED RIGHTS LEGEND
  
 Use, reproduction and disclosure by the US Government is
 subject to restrictions as set forth in subparagraphs (a)
 and (c) of the Commercial Computer Software - Restricted
 Rights clause in FAR 52.227-19.
  
 Gaussian, Inc.
 340 Quinnipiac St., Bldg. 40, Wallingford CT 06492
  
  
 ---------------------------------------------------------------
 Warning -- This program may not be used in any manner that
 competes with the business of Gaussian, Inc. or will provide
 assistance to any competitor of Gaussian, Inc.  The licensee
 of this program is prohibited from giving any competitor of
 Gaussian, Inc. access to this program.  By using this program,
 the user acknowledges that Gaussian, Inc. is engaged in the
 business of creating and licensing software in the field of
 computational chemistry and represents and warrants to the
 licensee that it is not a competitor of Gaussian, Inc. and that
 it will not use this program in any manner prohibited above.
 ---------------------------------------------------------------
  

 Cite this work as:
 Gaussian 16, Revision C.01,
 M. J. Frisch, G. W. Trucks, H. B. Schlegel, G. E. Scuseria, 
 M. A. Robb, J. R. Cheeseman, G. Scalmani, V. Barone, 
 G. A. Petersson, H. Nakatsuji, X. Li, M. Caricato, A. V. Marenich, 
 J. Bloino, B. G. Janesko, R. Gomperts, B. Mennucci, H. P. Hratchian, 
 J. V. Ortiz, A. F. Izmaylov, J. L. Sonnenberg, D. Williams-Young, 
 F. Ding, F. Lipparini, F. Egidi, J. Goings, B. Peng, A. Petrone, 
 T. Henderson, D. Ranasinghe, V. G. Zakrzewski, J. Gao, N. Rega, 
 G. Zheng, W. Liang, M. Hada, M. Ehara, K. Toyota, R. Fukuda, 
 J. Hasegawa, M. Ishida, T. Nakajima, Y. Honda, O. Kitao, H. Nakai, 
 T. Vreven, K. Throssell, J. A. Montgomery, Jr., J. E. Peralta, 
 F. Ogliaro, M. J. Bearpark, J. J. Heyd, E. N. Brothers, K. N. Kudin, 
 V. N. Staroverov, T. A. Keith, R. Kobayashi, J. Normand, 
 K. Raghavachari, A. P. Rendell, J. C. Burant, S. S. Iyengar, 
 J. Tomasi, M. Cossi, J. M. Millam, M. Klene, C. Adamo, R. Cammi, 
 J. W. Ochterski, R. L. Martin, K. Morokuma, O. Farkas, 
 J. B. Foresman, and D. J. Fox, Gaussian, Inc., Wallingford CT, 2019.
 
 ******************************************
 Gaussian 16:  ES64L-G16RevC.01  3-Jul-2019
                20-May-2024 
 ******************************************
 %nprocshared=12
 Will use up to   12 processors via shared memory.
 %mem=48GB
 ----------------------------------------------------------------------
 # external="~/scripts/MiMe -H 'am1' -EF 'wb97xd def2svp' -c 12 -m 48GB
 " opt=(calcall,ts,eigentest,maxcycles=50,maxstep=10,nomicro)
 ----------------------------------------------------------------------
 1/5=1,6=50,8=10,10=4,11=2,18=20,26=1,38=1/1,3;
 2/9=110,12=2,17=6,18=5,40=1/2;
 3/11=9,25=1,30=1,41=9900000,43=2,71=2,140=1/1;
 4/20=17,22=2,24=3,113=1,114=1/2;
 6/7=2,8=2,9=2,10=2,18=1/1;
 7/25=1,44=-1/16;
 1/5=1,6=50,8=10,10=4,11=2,18=20,26=1/3(3);
 2/9=110/2;
 7/8=1,9=1,25=1,44=-1/16;
 99//99;
 2/9=110/2;
 3/11=9,25=1,30=1,41=9900000,43=2,71=2,140=1/1;
 4/16=2,20=17,22=2,24=3,113=1,114=1/2;
 7/25=1,44=-1/16;
 1/5=1,6=50,8=10,10=4,11=2,18=20,26=1/3(-4);
 2/9=110/2;
 6/7=2,8=2,9=2,10=2,18=1/1;
 7/8=1,9=1,25=1,44=-1/16;
 99//99;
 ----------
 TS-249.out
 ----------
 Symbolic Z-matrix:
 Charge =  0 Multiplicity = 1
 C                    -0.98025   0.69195  -0.20894 
 C                    -1.92168  -0.31      0.32291 
 O                    -3.01226  -0.50219  -0.2006 
 C                     0.22829   0.86754   0.36619 
 C                     2.98171  -0.36432   0.09422 
 H                     3.0227   -0.73989   1.12039 
 H                     3.50996  -1.0641   -0.55969 
 H                     3.48667   0.6048    0.05611 
 N                     1.58522  -0.22082  -0.33301 
 H                     1.18839  -1.16551  -0.35932 
 H                     1.60848   0.04987  -1.32227 
 H                     0.80126   1.75285   0.06792 
 H                     0.42254   0.43147   1.35258 
 H                    -1.29964   1.25724  -1.0751 
 H                    -1.5872   -0.87442   1.20893 
 
 Add virtual bond connecting atoms N9         and C4         Dist= 3.54D+00.

 GradGradGradGradGradGradGradGradGradGradGradGradGradGradGradGradGradGrad
 Berny optimization.
 Initialization pass.
                           ----------------------------
                           !    Initial Parameters    !
                           ! (Angstroms and Degrees)  !
 --------------------------                            --------------------------
 ! Name  Definition              Value          Derivative Info.                !
 --------------------------------------------------------------------------------
 ! R1    R(1,2)                  1.4741         calculate D2E/DX2 analytically  !
 ! R2    R(1,4)                  1.3499         calculate D2E/DX2 analytically  !
 ! R3    R(1,14)                 1.0825         calculate D2E/DX2 analytically  !
 ! R4    R(2,3)                  1.2249         calculate D2E/DX2 analytically  !
 ! R5    R(2,15)                 1.1025         calculate D2E/DX2 analytically  !
 ! R6    R(4,9)                  1.8747         calculate D2E/DX2 analytically  !
 ! R7    R(4,12)                 1.0959         calculate D2E/DX2 analytically  !
 ! R8    R(4,13)                 1.0958         calculate D2E/DX2 analytically  !
 ! R9    R(5,6)                  1.0935         calculate D2E/DX2 analytically  !
 ! R10   R(5,7)                  1.0938         calculate D2E/DX2 analytically  !
 ! R11   R(5,8)                  1.0934         calculate D2E/DX2 analytically  !
 ! R12   R(5,9)                  1.4674         calculate D2E/DX2 analytically  !
 ! R13   R(9,10)                 1.025          calculate D2E/DX2 analytically  !
 ! R14   R(9,11)                 1.0259         calculate D2E/DX2 analytically  !
 ! A1    A(2,1,4)              120.4284         calculate D2E/DX2 analytically  !
 ! A2    A(2,1,14)             117.0776         calculate D2E/DX2 analytically  !
 ! A3    A(4,1,14)             122.4892         calculate D2E/DX2 analytically  !
 ! A4    A(1,2,3)              121.4029         calculate D2E/DX2 analytically  !
 ! A5    A(1,2,15)             116.3699         calculate D2E/DX2 analytically  !
 ! A6    A(3,2,15)             122.2266         calculate D2E/DX2 analytically  !
 ! A7    A(1,4,9)              114.4307         calculate D2E/DX2 analytically  !
 ! A8    A(1,4,12)             117.2067         calculate D2E/DX2 analytically  !
 ! A9    A(1,4,13)             119.37           calculate D2E/DX2 analytically  !
 ! A10   A(9,4,12)              89.3727         calculate D2E/DX2 analytically  !
 ! A11   A(9,4,13)              88.6472         calculate D2E/DX2 analytically  !
 ! A12   A(12,4,13)            118.2791         calculate D2E/DX2 analytically  !
 ! A13   A(6,5,7)              108.8561         calculate D2E/DX2 analytically  !
 ! A14   A(6,5,8)              108.6508         calculate D2E/DX2 analytically  !
 ! A15   A(6,5,9)              110.0278         calculate D2E/DX2 analytically  !
 ! A16   A(7,5,8)              108.8547         calculate D2E/DX2 analytically  !
 ! A17   A(7,5,9)              110.3726         calculate D2E/DX2 analytically  !
 ! A18   A(8,5,9)              110.0394         calculate D2E/DX2 analytically  !
 ! A19   A(4,9,5)              129.5684         calculate D2E/DX2 analytically  !
 ! A20   A(4,9,10)             105.3319         calculate D2E/DX2 analytically  !
 ! A21   A(4,9,11)             102.8777         calculate D2E/DX2 analytically  !
 ! A22   A(5,9,10)             106.6058         calculate D2E/DX2 analytically  !
 ! A23   A(5,9,11)             106.5574         calculate D2E/DX2 analytically  !
 ! A24   A(10,9,11)            103.1331         calculate D2E/DX2 analytically  !
 ! D1    D(4,1,2,3)           -178.5729         calculate D2E/DX2 analytically  !
 ! D2    D(4,1,2,15)             1.151          calculate D2E/DX2 analytically  !
 ! D3    D(14,1,2,3)             0.6526         calculate D2E/DX2 analytically  !
 ! D4    D(14,1,2,15)         -179.6235         calculate D2E/DX2 analytically  !
 ! D5    D(2,1,4,9)             89.4706         calculate D2E/DX2 analytically  !
 ! D6    D(2,1,4,12)          -167.82           calculate D2E/DX2 analytically  !
 ! D7    D(2,1,4,13)           -13.5851         calculate D2E/DX2 analytically  !
 ! D8    D(14,1,4,9)           -89.7119         calculate D2E/DX2 analytically  !
 ! D9    D(14,1,4,12)           12.9975         calculate D2E/DX2 analytically  !
 ! D10   D(14,1,4,13)          167.2324         calculate D2E/DX2 analytically  !
 ! D11   D(1,4,9,5)           -175.7245         calculate D2E/DX2 analytically  !
 ! D12   D(1,4,9,10)           -48.0647         calculate D2E/DX2 analytically  !
 ! D13   D(1,4,9,11)            59.6548         calculate D2E/DX2 analytically  !
 ! D14   D(12,4,9,5)            64.4592         calculate D2E/DX2 analytically  !
 ! D15   D(12,4,9,10)         -167.881          calculate D2E/DX2 analytically  !
 ! D16   D(12,4,9,11)          -60.1615         calculate D2E/DX2 analytically  !
 ! D17   D(13,4,9,5)           -53.8472         calculate D2E/DX2 analytically  !
 ! D18   D(13,4,9,10)           73.8126         calculate D2E/DX2 analytically  !
 ! D19   D(13,4,9,11)         -178.4679         calculate D2E/DX2 analytically  !
 ! D20   D(6,5,9,4)             61.8552         calculate D2E/DX2 analytically  !
 ! D21   D(6,5,9,10)           -65.3281         calculate D2E/DX2 analytically  !
 ! D22   D(6,5,9,11)          -174.9628         calculate D2E/DX2 analytically  !
 ! D23   D(7,5,9,4)           -177.9916         calculate D2E/DX2 analytically  !
 ! D24   D(7,5,9,10)            54.8251         calculate D2E/DX2 analytically  !
 ! D25   D(7,5,9,11)           -54.8096         calculate D2E/DX2 analytically  !
 ! D26   D(8,5,9,4)            -57.8328         calculate D2E/DX2 analytically  !
 ! D27   D(8,5,9,10)           174.9839         calculate D2E/DX2 analytically  !
 ! D28   D(8,5,9,11)            65.3492         calculate D2E/DX2 analytically  !
 --------------------------------------------------------------------------------
 Trust Radius=1.00D-01 FncErr=1.00D-07 GrdErr=1.00D-07 EigMax=2.50D+02 EigMin=1.00D-04
 Number of steps in this run=     50 maximum allowed number of steps=    100.
 Search for a saddle point of order  1.
 GradGradGradGradGradGradGradGradGradGradGradGradGradGradGradGradGradGrad

                          Input orientation:                          
 ---------------------------------------------------------------------
 Center     Atomic      Atomic             Coordinates (Angstroms)
 Number     Number       Type             X           Y           Z
 ---------------------------------------------------------------------
      1          6           0       -0.980250    0.691950   -0.208940
      2          6           0       -1.921680   -0.310000    0.322910
      3          8           0       -3.012260   -0.502190   -0.200600
      4          6           0        0.228290    0.867540    0.366190
      5          6           0        2.981710   -0.364320    0.094220
      6          1           0        3.022700   -0.739890    1.120390
      7          1           0        3.509960   -1.064100   -0.559690
      8          1           0        3.486670    0.604800    0.056110
      9          7           0        1.585220   -0.220820   -0.333010
     10          1           0        1.188390   -1.165510   -0.359320
     11          1           0        1.608480    0.049870   -1.322270
     12          1           0        0.801260    1.752850    0.067920
     13          1           0        0.422540    0.431470    1.352580
     14          1           0       -1.299640    1.257240   -1.075100
     15          1           0       -1.587200   -0.874420    1.208930
 ---------------------------------------------------------------------
                    Distance matrix (angstroms):
                    1          2          3          4          5
     1  C    0.000000
     2  C    1.474130   0.000000
     3  O    2.356927   1.224894   0.000000
     4  C    1.349880   2.451702   3.563506   0.000000
     5  C    4.111537   4.909021   6.002800   3.028658   0.000000
     6  H    4.454312   5.026696   6.182415   3.310797   1.093507
     7  H    4.834121   5.554310   6.556222   3.918909   1.093773
     8  H    4.475625   5.491656   6.597531   3.283629   1.093449
     9  N    2.725835   3.568828   4.607985   1.874745   1.467413
    10  H    2.859331   3.296949   4.255660   2.362509   2.015837
    11  H    2.890206   3.911285   4.786873   2.329035   2.015876
    12  H    2.091874   3.425605   4.438496   1.095917   3.039319
    13  H    2.115187   2.665589   3.883547   1.095835   2.960760
    14  H    1.082495   2.190344   2.606417   2.136294   4.725116
    15  H    2.198240   1.102487   2.038658   2.653420   4.730509
                    6          7          8          9         10
     6  H    0.000000
     7  H    1.779102   0.000000
     8  H    1.776556   1.779039   0.000000
     9  N    2.109065   2.113558   2.109164   0.000000
    10  H    2.394867   2.332406   2.930643   1.024990   0.000000
    11  H    2.930926   2.331970   2.394885   1.025890   1.606517
    12  H    3.500892   3.958050   2.920545   2.161183   2.974765
    13  H    2.861263   3.927552   3.331632   2.149074   2.463224
    14  H    5.243217   5.365307   4.961258   3.325323   3.545751
    15  H    4.612712   5.398614   5.409366   3.587342   3.201256
                   11         12         13         14         15
    11  H    0.000000
    12  H    2.341874   0.000000
    13  H    2.950745   1.881442   0.000000
    14  H    3.158480   2.442520   3.088921   0.000000
    15  H    4.180150   3.729503   2.401050   3.137429   0.000000
 Stoichiometry    C4H9NO
 Framework group  C1[X(C4H9NO)]
 Deg. of freedom    39
 Full point group                 C1      NOp   1
 Largest Abelian subgroup         C1      NOp   1
 Largest concise Abelian subgroup C1      NOp   1
                         Standard orientation:                         
 ---------------------------------------------------------------------
 Center     Atomic      Atomic             Coordinates (Angstroms)
 Number     Number       Type             X           Y           Z
 ---------------------------------------------------------------------
      1          6           0       -0.980252    0.691948   -0.208939
      2          6           0       -1.921681   -0.310003    0.322911
      3          8           0       -3.012260   -0.502195   -0.200599
      4          6           0        0.228288    0.867539    0.366191
      5          6           0        2.981710   -0.364318    0.094221
      6          1           0        3.022700   -0.739888    1.120391
      7          1           0        3.509960   -1.064098   -0.559689
      8          1           0        3.486669    0.604802    0.056111
      9          7           0        1.585219   -0.220820   -0.333009
     10          1           0        1.188390   -1.165510   -0.359319
     11          1           0        1.608479    0.049870   -1.322269
     12          1           0        0.801257    1.752849    0.067921
     13          1           0        0.422539    0.431469    1.352581
     14          1           0       -1.299642    1.257237   -1.075099
     15          1           0       -1.587200   -0.874423    1.208931
 ---------------------------------------------------------------------
 Rotational constants (GHZ):          11.2493120           1.2678582           1.2133754
 Standard basis: STO-3G (5D, 7F)
 There are    39 symmetry adapted cartesian basis functions of A   symmetry.
 There are    39 symmetry adapted basis functions of A   symmetry.
    39 basis functions,   117 primitive gaussians,    39 cartesian basis functions
    24 alpha electrons       24 beta electrons
       nuclear repulsion energy       225.5433525727 Hartrees.
 NAtoms=   15 NActive=   15 NUniq=   15 SFac= 1.00D+00 NAtFMM=   60 NAOKFM=F Big=F
 Integral buffers will be    131072 words long.
 Raffenetti 1 integral format.
 Two-electron integral symmetry is turned on.
 External calculation of energy, first and second derivatives.
 Running external command "~/scripts/MiMe -H 'am1' -EF 'wb97xd def2svp' -c 12 -m 48GB R"
         input file       "/local/jobs/1176094/Gau-3196791.EIn"
         output file      "/local/jobs/1176094/Gau-3196791.EOu"
         message file     "/local/jobs/1176094/Gau-3196791.EMs"
         fchk file        "/local/jobs/1176094/Gau-3196791.EFC"
         mat. el file     "/local/jobs/1176094/Gau-3196791.EUF"
 Read checkpoint file Gau-3196791_H.chk type G16
 Write formatted file Gau-3196791_H.fchk

deriv: 2

spelevel: wb97xd def2svp
gradlevel: wb97xd def2svp
hesslevel: am1

runspe: False
runforce: True
runfreq: True

Running Gaussian ...

Parsing files ...
SPE file: Gau-3196791_F.out
FORCE file: Gau-3196791_F.out
HESS file: Gau-3196791_H.out

 ExternalExternalExternalExternalExternalExternalExternalExternalExternalExternal
 Output from external command:
 "~/scripts/MiMe -H 'am1' -EF 'wb97xd def2svp' -c 12 -m 48GB R /local/jobs/1176094/Gau-3196791.EIn /local/jobs/1176094/Gau-3196791.EOu /local/jobs/1176094/Gau-3196791.EMs /local/jobs/1176094/Gau-3196791.EFC /local/jobs/1176094/Gau-3196791.EUF"
  
 --------------------------------------------------
 Force calculation at wb97xd def2svp
 Hessian calculation at am1
 ExternalExternalExternalExternalExternalExternalExternalExternalExternalExternal

 Recovered energy= -287.426760468     dipole=      8.415600000000     -0.577200000000     -0.120000000000
 Energy=    -287.426760     NIter=   0.
 Dipole moment=       8.415600      -0.577200      -0.120000
 ***** Axes restored to original set *****
 -------------------------------------------------------------------
 Center     Atomic                   Forces (Hartrees/Bohr)
 Number     Number              X              Y              Z
 -------------------------------------------------------------------
      1        6          -0.029535983   -0.026595630    0.010298304
      2        6          -0.009035727    0.028900797   -0.043154025
      3        8           0.008860569   -0.007357827    0.015452622
      4        6           0.011655787    0.021171765    0.018317996
      5        6          -0.003867037    0.003316247    0.002181510
      6        1          -0.000045462   -0.000595644    0.003631452
      7        1           0.006034692   -0.002672707   -0.000695759
      8        1           0.001406577    0.003444236    0.000465617
      9        7           0.029103802   -0.031928544   -0.030626883
     10        1          -0.006355600    0.003774919    0.001432871
     11        1          -0.005256800    0.000904813    0.002447337
     12        1          -0.000803377    0.003067415    0.010436860
     13        1          -0.002982058    0.008275508    0.004241660
     14        1          -0.002349430    0.002750514   -0.005852073
     15        1           0.003170046   -0.006455863    0.011422512
 -------------------------------------------------------------------
 Cartesian Forces:  Max     0.043154025 RMS     0.014296742
 FormGI is forming the generalized inverse of G from B-inverse, IUseBI=4.

 GradGradGradGradGradGradGradGradGradGradGradGradGradGradGradGradGradGrad
 Berny optimization.
 Internal  Forces:  Max     0.036899791 RMS     0.008491535
 Search for a saddle point.
 Step number   1 out of a maximum of   50
 All quantities printed in internal units (Hartrees-Bohrs-Radians)
 Swapping is turned off.
 Second derivative matrix not updated -- analytic derivatives used.
 ITU=  0
     Eigenvalues ---   -0.05287  -0.03288  -0.01123  -0.00144   0.00923
     Eigenvalues ---    0.01347   0.01499   0.02440   0.03687   0.04042
     Eigenvalues ---    0.04252   0.04309   0.04986   0.06222   0.07154
     Eigenvalues ---    0.08594   0.09382   0.10241   0.10555   0.11632
     Eigenvalues ---    0.11703   0.12426   0.13850   0.13985   0.14733
     Eigenvalues ---    0.18448   0.35371   0.36337   0.36432   0.36534
     Eigenvalues ---    0.36724   0.37679   0.38818   0.39251   0.40695
     Eigenvalues ---    0.47229   0.52215   0.80822   1.20033
 Eigenvectors required to have negative eigenvalues:
                          R6        A19       D10       D6        A10
   1                    0.84819   0.24372   0.17331  -0.16626  -0.15124
                          A11       D1        A21       D7        D9
   1                   -0.14159   0.13490  -0.13171   0.12327  -0.11623
 RFO step:  Lambda0=6.362115556D-03 Lambda=-3.42627277D-02.
 Linear search not attempted -- option 19 set.
 Maximum step size (   0.100) exceeded in Quadratic search.
    -- Step size scaled by   0.211
 Iteration  1 RMS(Cart)=  0.04665065 RMS(Int)=  0.00129651
 Iteration  2 RMS(Cart)=  0.00182459 RMS(Int)=  0.00011940
 Iteration  3 RMS(Cart)=  0.00000172 RMS(Int)=  0.00011939
 Iteration  4 RMS(Cart)=  0.00000000 RMS(Int)=  0.00011939
 Variable       Old X    -DE/DX   Delta X   Delta X   Delta X     New X
                                 (Linear)    (Quad)   (Total)
    R1        2.78570  -0.01804   0.00000  -0.01689  -0.01689   2.76882
    R2        2.55090   0.03205   0.00000   0.01400   0.01400   2.56490
    R3        2.04562   0.00681   0.00000   0.00232   0.00232   2.04794
    R4        2.31471  -0.01334   0.00000  -0.00251  -0.00251   2.31220
    R5        2.08340   0.01345   0.00000   0.01275   0.01275   2.09615
    R6        3.54275   0.03690   0.00000  -0.01594  -0.01594   3.52681
    R7        2.07098  -0.00078   0.00000  -0.00055  -0.00055   2.07043
    R8        2.07083  -0.00000   0.00000   0.00149   0.00149   2.07232
    R9        2.06643   0.00361   0.00000   0.00280   0.00280   2.06923
   R10        2.06693   0.00504   0.00000   0.00144   0.00144   2.06837
   R11        2.06632   0.00369   0.00000   0.00195   0.00195   2.06827
   R12        2.77301   0.00464   0.00000  -0.00254  -0.00254   2.77047
   R13        1.93695  -0.00106   0.00000  -0.00148  -0.00148   1.93547
   R14        1.93865  -0.00224   0.00000  -0.00342  -0.00342   1.93523
    A1        2.10187   0.00351   0.00000  -0.00956  -0.00958   2.09229
    A2        2.04339  -0.00246   0.00000   0.01011   0.01009   2.05348
    A3        2.13784  -0.00106   0.00000  -0.00042  -0.00044   2.13740
    A4        2.11888   0.02106   0.00000   0.03555   0.03548   2.15436
    A5        2.03104  -0.00993   0.00000  -0.01551  -0.01558   2.01546
    A6        2.13326  -0.01112   0.00000  -0.01994  -0.02001   2.11325
    A7        1.99719  -0.01324   0.00000  -0.00381  -0.00380   1.99340
    A8        2.04564   0.00289   0.00000   0.00467   0.00450   2.05015
    A9        2.08340  -0.00158   0.00000  -0.01120  -0.01134   2.07206
   A10        1.55985   0.00746   0.00000   0.02128   0.02127   1.58112
   A11        1.54719   0.01067   0.00000   0.02091   0.02095   1.56813
   A12        2.06436  -0.00372   0.00000  -0.01138  -0.01190   2.05246
   A13        1.89990  -0.00201   0.00000  -0.00156  -0.00150   1.89839
   A14        1.89631  -0.00011   0.00000  -0.00001  -0.00007   1.89625
   A15        1.92035  -0.00145   0.00000  -0.01183  -0.01183   1.90852
   A16        1.89987  -0.00202   0.00000  -0.00091  -0.00094   1.89894
   A17        1.92637   0.00685   0.00000   0.01684   0.01685   1.94322
   A18        1.92055  -0.00138   0.00000  -0.00267  -0.00271   1.91784
   A19        2.26139  -0.01272   0.00000  -0.06251  -0.06250   2.19890
   A20        1.83839  -0.00158   0.00000   0.01302   0.01279   1.85117
   A21        1.79556   0.00053   0.00000   0.02108   0.02128   1.81684
   A22        1.86062   0.00939   0.00000   0.01737   0.01702   1.87764
   A23        1.85978   0.00737   0.00000   0.02016   0.02031   1.88009
   A24        1.80001  -0.00158   0.00000   0.00211   0.00171   1.80172
    D1       -3.11669  -0.00031   0.00000  -0.03874  -0.03876   3.12774
    D2        0.02009   0.00111   0.00000  -0.01747  -0.01749   0.00260
    D3        0.01139  -0.00056   0.00000  -0.02744  -0.02742  -0.01603
    D4       -3.13502   0.00086   0.00000  -0.00617  -0.00616  -3.14118
    D5        1.56156   0.00055   0.00000   0.00285   0.00282   1.56437
    D6       -2.92901   0.00333   0.00000   0.03011   0.03006  -2.89895
    D7       -0.23710  -0.00327   0.00000  -0.01490  -0.01486  -0.25196
    D8       -1.56577   0.00082   0.00000  -0.00915  -0.00916  -1.57493
    D9        0.22685   0.00360   0.00000   0.01811   0.01808   0.24493
   D10        2.91876  -0.00300   0.00000  -0.02690  -0.02683   2.89192
   D11       -3.06697   0.00113   0.00000   0.03329   0.03321  -3.03377
   D12       -0.83889   0.00192   0.00000   0.01641   0.01641  -0.82247
   D13        1.04117  -0.00012   0.00000   0.03058   0.03066   1.07183
   D14        1.12502  -0.00270   0.00000   0.01797   0.01799   1.14302
   D15       -2.93008  -0.00191   0.00000   0.00108   0.00120  -2.92887
   D16       -1.05002  -0.00396   0.00000   0.01526   0.01545  -1.03457
   D17       -0.93981   0.00153   0.00000   0.03057   0.03037  -0.90944
   D18        1.28827   0.00232   0.00000   0.01369   0.01358   1.30185
   D19       -3.11485   0.00028   0.00000   0.02786   0.02782  -3.08703
   D20        1.07958  -0.00150   0.00000  -0.00387  -0.00381   1.07577
   D21       -1.14019   0.00196   0.00000   0.01543   0.01553  -1.12466
   D22       -3.05368  -0.00334   0.00000  -0.00281  -0.00289  -3.05656
   D23       -3.10654  -0.00056   0.00000  -0.00266  -0.00265  -3.10919
   D24        0.95688   0.00290   0.00000   0.01664   0.01669   0.97357
   D25       -0.95661  -0.00241   0.00000  -0.00160  -0.00172  -0.95833
   D26       -1.00937   0.00041   0.00000   0.00524   0.00527  -1.00411
   D27        3.05405   0.00387   0.00000   0.02454   0.02460   3.07865
   D28        1.14056  -0.00143   0.00000   0.00630   0.00619   1.14675
         Item               Value     Threshold  Converged?
 Maximum Force            0.036900     0.000450     NO 
 RMS     Force            0.008492     0.000300     NO 
 Maximum Displacement     0.159733     0.001800     NO 
 RMS     Displacement     0.047204     0.001200     NO 
 Predicted change in Energy=-3.560823D-03
 Optimization stopped.
    -- Wrong number of Negative eigenvalues: Desired=  1 Actual=  4
    -- Flag reset to prevent archiving.
                           ----------------------------
                           ! Non-Optimized Parameters !
                           ! (Angstroms and Degrees)  !
 --------------------------                            --------------------------
 ! Name  Definition              Value          Derivative Info.                !
 --------------------------------------------------------------------------------
 ! R1    R(1,2)                  1.4652         -DE/DX =   -0.018               !
 ! R2    R(1,4)                  1.3573         -DE/DX =    0.032               !
 ! R3    R(1,14)                 1.0837         -DE/DX =    0.0068              !
 ! R4    R(2,3)                  1.2236         -DE/DX =   -0.0133              !
 ! R5    R(2,15)                 1.1092         -DE/DX =    0.0134              !
 ! R6    R(4,9)                  1.8663         -DE/DX =    0.0369              !
 ! R7    R(4,12)                 1.0956         -DE/DX =   -0.0008              !
 ! R8    R(4,13)                 1.0966         -DE/DX =    0.0                 !
 ! R9    R(5,6)                  1.095          -DE/DX =    0.0036              !
 ! R10   R(5,7)                  1.0945         -DE/DX =    0.005               !
 ! R11   R(5,8)                  1.0945         -DE/DX =    0.0037              !
 ! R12   R(5,9)                  1.4661         -DE/DX =    0.0046              !
 ! R13   R(9,10)                 1.0242         -DE/DX =   -0.0011              !
 ! R14   R(9,11)                 1.0241         -DE/DX =   -0.0022              !
 ! A1    A(2,1,4)              119.8797         -DE/DX =    0.0035              !
 ! A2    A(2,1,14)             117.656          -DE/DX =   -0.0025              !
 ! A3    A(4,1,14)             122.4642         -DE/DX =   -0.0011              !
 ! A4    A(1,2,3)              123.4357         -DE/DX =    0.0211              !
 ! A5    A(1,2,15)             115.4774         -DE/DX =   -0.0099              !
 ! A6    A(3,2,15)             121.08           -DE/DX =   -0.0111              !
 ! A7    A(1,4,9)              114.2132         -DE/DX =   -0.0132              !
 ! A8    A(1,4,12)             117.4648         -DE/DX =    0.0029              !
 ! A9    A(1,4,13)             118.7205         -DE/DX =   -0.0016              !
 ! A10   A(9,4,12)              90.5914         -DE/DX =    0.0075              !
 ! A11   A(9,4,13)              89.8474         -DE/DX =    0.0107              !
 ! A12   A(12,4,13)            117.5973         -DE/DX =   -0.0037              !
 ! A13   A(6,5,7)              108.7699         -DE/DX =   -0.002               !
 ! A14   A(6,5,8)              108.647          -DE/DX =   -0.0001              !
 ! A15   A(6,5,9)              109.3499         -DE/DX =   -0.0015              !
 ! A16   A(7,5,8)              108.801          -DE/DX =   -0.002               !
 ! A17   A(7,5,9)              111.3382         -DE/DX =    0.0069              !
 ! A18   A(8,5,9)              109.8839         -DE/DX =   -0.0014              !
 ! A19   A(4,9,5)              125.9876         -DE/DX =   -0.0127              !
 ! A20   A(4,9,10)             106.0645         -DE/DX =   -0.0016              !
 ! A21   A(4,9,11)             104.0972         -DE/DX =    0.0005              !
 ! A22   A(5,9,10)             107.5811         -DE/DX =    0.0094              !
 ! A23   A(5,9,11)             107.7212         -DE/DX =    0.0074              !
 ! A24   A(10,9,11)            103.2311         -DE/DX =   -0.0016              !
 ! D1    D(4,1,2,3)            179.2065         -DE/DX =   -0.0003              !
 ! D2    D(4,1,2,15)             0.1489         -DE/DX =    0.0011              !
 ! D3    D(14,1,2,3)            -0.9186         -DE/DX =   -0.0006              !
 ! D4    D(14,1,2,15)         -179.9761         -DE/DX =    0.0009              !
 ! D5    D(2,1,4,9)             89.632          -DE/DX =    0.0005              !
 ! D6    D(2,1,4,12)          -166.0976         -DE/DX =    0.0033              !
 ! D7    D(2,1,4,13)           -14.4364         -DE/DX =   -0.0033              !
 ! D8    D(14,1,4,9)           -90.2367         -DE/DX =    0.0008              !
 ! D9    D(14,1,4,12)           14.0337         -DE/DX =    0.0036              !
 ! D10   D(14,1,4,13)          165.6949         -DE/DX =   -0.003               !
 ! D11   D(1,4,9,5)           -173.822          -DE/DX =    0.0011              !
 ! D12   D(1,4,9,10)           -47.1242         -DE/DX =    0.0019              !
 ! D13   D(1,4,9,11)            61.4113         -DE/DX =   -0.0001              !
 ! D14   D(12,4,9,5)            65.4902         -DE/DX =   -0.0027              !
 ! D15   D(12,4,9,10)         -167.812          -DE/DX =   -0.0019              !
 ! D16   D(12,4,9,11)          -59.2765         -DE/DX =   -0.004               !
 ! D17   D(13,4,9,5)           -52.107          -DE/DX =    0.0015              !
 ! D18   D(13,4,9,10)           74.5907         -DE/DX =    0.0023              !
 ! D19   D(13,4,9,11)         -176.8737         -DE/DX =    0.0003              !
 ! D20   D(6,5,9,4)             61.637          -DE/DX =   -0.0015              !
 ! D21   D(6,5,9,10)           -64.4385         -DE/DX =    0.002               !
 ! D22   D(6,5,9,11)          -175.1281         -DE/DX =   -0.0033              !
 ! D23   D(7,5,9,4)           -178.1433         -DE/DX =   -0.0006              !
 ! D24   D(7,5,9,10)            55.7812         -DE/DX =    0.0029              !
 ! D25   D(7,5,9,11)           -54.9084         -DE/DX =   -0.0024              !
 ! D26   D(8,5,9,4)            -57.5311         -DE/DX =    0.0004              !
 ! D27   D(8,5,9,10)           176.3934         -DE/DX =    0.0039              !
 ! D28   D(8,5,9,11)            65.7038         -DE/DX =   -0.0014              !
 --------------------------------------------------------------------------------
 GradGradGradGradGradGradGradGradGradGradGradGradGradGradGradGradGradGrad

                          Input orientation:                          
 ---------------------------------------------------------------------
 Center     Atomic      Atomic             Coordinates (Angstroms)
 Number     Number       Type             X           Y           Z
 ---------------------------------------------------------------------
      1          6           0       -0.980250    0.691950   -0.208940
      2          6           0       -1.921680   -0.310000    0.322910
      3          8           0       -3.012260   -0.502190   -0.200600
      4          6           0        0.228290    0.867540    0.366190
      5          6           0        2.981710   -0.364320    0.094220
      6          1           0        3.022700   -0.739890    1.120390
      7          1           0        3.509960   -1.064100   -0.559690
      8          1           0        3.486670    0.604800    0.056110
      9          7           0        1.585220   -0.220820   -0.333010
     10          1           0        1.188390   -1.165510   -0.359320
     11          1           0        1.608480    0.049870   -1.322270
     12          1           0        0.801260    1.752850    0.067920
     13          1           0        0.422540    0.431470    1.352580
     14          1           0       -1.299640    1.257240   -1.075100
     15          1           0       -1.587200   -0.874420    1.208930
 ---------------------------------------------------------------------
                    Distance matrix (angstroms):
                    1          2          3          4          5
     1  C    0.000000
     2  C    1.474130   0.000000
     3  O    2.356927   1.224894   0.000000
     4  C    1.349880   2.451702   3.563506   0.000000
     5  C    4.111537   4.909021   6.002800   3.028658   0.000000
     6  H    4.454312   5.026696   6.182415   3.310797   1.093507
     7  H    4.834121   5.554310   6.556222   3.918909   1.093773
     8  H    4.475625   5.491656   6.597531   3.283629   1.093449
     9  N    2.725835   3.568828   4.607985   1.874745   1.467413
    10  H    2.859331   3.296949   4.255660   2.362509   2.015837
    11  H    2.890206   3.911285   4.786873   2.329035   2.015876
    12  H    2.091874   3.425605   4.438496   1.095917   3.039319
    13  H    2.115187   2.665589   3.883547   1.095835   2.960760
    14  H    1.082495   2.190344   2.606417   2.136294   4.725116
    15  H    2.198240   1.102487   2.038658   2.653420   4.730509
                    6          7          8          9         10
     6  H    0.000000
     7  H    1.779102   0.000000
     8  H    1.776556   1.779039   0.000000
     9  N    2.109065   2.113558   2.109164   0.000000
    10  H    2.394867   2.332406   2.930643   1.024990   0.000000
    11  H    2.930926   2.331970   2.394885   1.025890   1.606517
    12  H    3.500892   3.958050   2.920545   2.161183   2.974765
    13  H    2.861263   3.927552   3.331632   2.149074   2.463224
    14  H    5.243217   5.365307   4.961258   3.325323   3.545751
    15  H    4.612712   5.398614   5.409366   3.587342   3.201256
                   11         12         13         14         15
    11  H    0.000000
    12  H    2.341874   0.000000
    13  H    2.950745   1.881442   0.000000
    14  H    3.158480   2.442520   3.088921   0.000000
    15  H    4.180150   3.729503   2.401050   3.137429   0.000000
 Stoichiometry    C4H9NO
 Framework group  C1[X(C4H9NO)]
 Deg. of freedom    39
 Full point group                 C1      NOp   1
 Largest Abelian subgroup         C1      NOp   1
 Largest concise Abelian subgroup C1      NOp   1
                         Standard orientation:                         
 ---------------------------------------------------------------------
 Center     Atomic      Atomic             Coordinates (Angstroms)
 Number     Number       Type             X           Y           Z
 ---------------------------------------------------------------------
      1          6           0       -0.980252    0.691948   -0.208939
      2          6           0       -1.921681   -0.310003    0.322911
      3          8           0       -3.012260   -0.502195   -0.200599
      4          6           0        0.228288    0.867539    0.366191
      5          6           0        2.981710   -0.364318    0.094221
      6          1           0        3.022700   -0.739888    1.120391
      7          1           0        3.509960   -1.064098   -0.559689
      8          1           0        3.486669    0.604802    0.056111
      9          7           0        1.585219   -0.220820   -0.333009
     10          1           0        1.188390   -1.165510   -0.359319
     11          1           0        1.608479    0.049870   -1.322269
     12          1           0        0.801257    1.752849    0.067921
     13          1           0        0.422539    0.431469    1.352581
     14          1           0       -1.299642    1.257237   -1.075099
     15          1           0       -1.587200   -0.874423    1.208931
 ---------------------------------------------------------------------
 Rotational constants (GHZ):          11.2493120           1.2678582           1.2133754
 Rotating derivatives to standard orientation.
 Full mass-weighted force constant matrix:
 Low frequencies --- -488.1836 -404.6283 -181.2519 -143.2649 -122.9819  -74.8881
 Low frequencies ---  -55.5170   -0.0182    0.0191
 ******    4 imaginary frequencies (negative Signs) ****** 
 Diagonal vibrational polarizability:
        0.0000000       0.0000000       0.0000000
 Harmonic frequencies (cm**-1), IR intensities (KM/Mole), Raman scattering
 activities (A**4/AMU), depolarization ratios for plane and unpolarized
 incident light, reduced masses (AMU), force constants (mDyne/A),
 and normal coordinates:
                      1                      2                      3
                      A                      A                      A
 Frequencies --   -472.4148              -403.8343              -151.7162
 Red. masses --      1.0531                 7.1608                 3.2871
 Frc consts  --      0.1385                 0.6880                 0.0446
 IR Inten    --      0.0000                 0.0000                 0.0000
  Atom  AN      X      Y      Z        X      Y      Z        X      Y      Z
     1   6    -0.00  -0.00  -0.03     0.16  -0.11  -0.02     0.00  -0.08  -0.09
     2   6    -0.00   0.02   0.01     0.09   0.02  -0.02     0.06  -0.16  -0.13
     3   8    -0.00  -0.00   0.02     0.05   0.03   0.02    -0.15   0.17   0.18
     4   6    -0.00   0.02  -0.03     0.38  -0.32  -0.15    -0.02  -0.04  -0.06
     5   6     0.00  -0.00   0.01    -0.24   0.12   0.04     0.02   0.03   0.11
     6   1     0.04  -0.52  -0.18    -0.17   0.02   0.00    -0.14   0.02   0.11
     7   1     0.17   0.44  -0.33    -0.37   0.13  -0.09     0.10   0.02   0.18
     8   1    -0.19   0.12   0.53    -0.19   0.09   0.07     0.06   0.01   0.19
     9   7     0.00  -0.03   0.01    -0.33   0.18   0.08     0.08   0.06  -0.05
    10   1     0.01  -0.03   0.02    -0.27   0.12   0.08     0.08   0.06  -0.14
    11   1    -0.00  -0.03   0.01    -0.24   0.09   0.03     0.17   0.12  -0.03
    12   1     0.00  -0.00  -0.08     0.06   0.00   0.08    -0.07   0.01   0.01
    13   1     0.00   0.06  -0.01     0.06   0.01   0.08    -0.02  -0.09  -0.08
    14   1     0.00  -0.05  -0.05     0.19   0.00   0.05    -0.05  -0.01  -0.02
    15   1    -0.00   0.05   0.04     0.03   0.04   0.02     0.31  -0.54  -0.47
                      4                      5                      6
                      A                      A                      A
 Frequencies --   -127.3112                45.9015               150.4535
 Red. masses --      2.1757                 2.3800                 2.6701
 Frc consts  --      0.0208                 0.0030                 0.0356
 IR Inten    --      0.0000                 0.0000                 0.0000
  Atom  AN      X      Y      Z        X      Y      Z        X      Y      Z
     1   6    -0.02   0.02   0.01     0.02  -0.02  -0.06    -0.03   0.19   0.07
     2   6     0.01   0.02   0.05     0.07  -0.07  -0.07     0.14  -0.05  -0.08
     3   8     0.05  -0.09   0.02     0.02  -0.02   0.02     0.09  -0.05   0.03
     4   6     0.00   0.05  -0.05    -0.04   0.15   0.03     0.01   0.11  -0.03
     5   6    -0.07  -0.14   0.10     0.00  -0.13  -0.09    -0.12   0.00   0.05
     6   1    -0.41  -0.24   0.08     0.19  -0.24  -0.14    -0.16   0.07   0.07
     7   1    -0.10  -0.23   0.17    -0.31  -0.19  -0.29     0.04   0.04   0.14
     8   1     0.17  -0.26   0.30     0.20  -0.24  -0.14    -0.25   0.07   0.04
     9   7     0.03   0.14  -0.13    -0.06   0.11   0.17    -0.09  -0.14  -0.04
    10   1    -0.08   0.19  -0.37    -0.18   0.15   0.22    -0.08  -0.14   0.08
    11   1     0.22   0.32  -0.08    -0.14   0.08   0.16    -0.09  -0.25  -0.06
    12   1    -0.05   0.08  -0.05    -0.11   0.18  -0.03     0.08   0.04  -0.09
    13   1     0.07   0.04  -0.06    -0.08   0.31   0.11     0.10   0.05  -0.07
    14   1    -0.06   0.01   0.01     0.04  -0.12  -0.13    -0.18   0.37   0.24
    15   1     0.00   0.13   0.13     0.17  -0.18  -0.17     0.38  -0.33  -0.34
                      7                      8                      9
                      A                      A                      A
 Frequencies --    282.5536               350.4828               586.7189
 Red. masses --      2.5658                 2.8503                 3.8738
 Frc consts  --      0.1207                 0.2063                 0.7857
 IR Inten    --      0.0000                 0.0000                 0.0000
  Atom  AN      X      Y      Z        X      Y      Z        X      Y      Z
     1   6    -0.00  -0.13   0.18     0.13  -0.13  -0.10    -0.13  -0.02  -0.10
     2   6    -0.04  -0.13   0.10     0.07  -0.02   0.01     0.13  -0.10   0.20
     3   8     0.01   0.11  -0.12     0.07   0.06   0.01     0.22   0.17  -0.05
     4   6     0.06   0.11  -0.07    -0.08   0.11   0.21    -0.17  -0.09  -0.10
     5   6    -0.02   0.01   0.01    -0.12   0.04  -0.01    -0.01  -0.00   0.00
     6   1    -0.06   0.03   0.02    -0.24   0.11   0.02     0.04  -0.03  -0.01
     7   1     0.03   0.01   0.05     0.08   0.07   0.13    -0.07  -0.00  -0.04
     8   1    -0.03   0.02   0.02    -0.24   0.10   0.02     0.01  -0.02  -0.01
     9   7    -0.00  -0.01  -0.04    -0.06  -0.07  -0.12    -0.02   0.02   0.04
    10   1    -0.03   0.00   0.02    -0.07  -0.06  -0.18     0.01   0.00   0.01
    11   1     0.02  -0.07  -0.05    -0.09   0.03  -0.08    -0.02   0.04   0.05
    12   1    -0.11   0.09  -0.51     0.04   0.04   0.26    -0.11  -0.04   0.24
    13   1     0.35   0.47   0.02    -0.12   0.06   0.19    -0.35  -0.45  -0.21
    14   1    -0.10  -0.25   0.13     0.35  -0.45  -0.38    -0.51   0.00   0.06
    15   1    -0.20  -0.30   0.03    -0.01   0.10   0.11     0.01  -0.07   0.23
                     10                     11                     12
                      A                      A                      A
 Frequencies --    670.4415               748.3996               902.8696
 Red. masses --      1.1465                 1.3444                 1.4412
 Frc consts  --      0.3036                 0.4437                 0.6922
 IR Inten    --      0.0000                 0.0000                 0.0000
  Atom  AN      X      Y      Z        X      Y      Z        X      Y      Z
     1   6     0.02  -0.04  -0.01     0.07  -0.10  -0.06     0.02   0.04   0.04
     2   6    -0.01  -0.02  -0.01     0.01  -0.03  -0.03    -0.04  -0.04   0.03
     3   8    -0.01   0.00  -0.00    -0.02   0.00   0.01    -0.04  -0.02  -0.01
     4   6     0.00   0.02   0.02     0.01   0.08  -0.00     0.09   0.11  -0.09
     5   6    -0.00  -0.00  -0.00    -0.01  -0.01   0.00    -0.00  -0.02   0.02
     6   1    -0.15  -0.07  -0.02     0.09   0.04   0.01     0.20   0.03   0.03
     7   1     0.01  -0.03   0.03     0.02   0.03  -0.01     0.01   0.04  -0.03
     8   1     0.09  -0.05   0.11    -0.10   0.04  -0.06    -0.15   0.06  -0.09
     9   7     0.03   0.06  -0.06    -0.01  -0.04   0.03    -0.01  -0.01   0.01
    10   1    -0.14   0.11   0.61     0.02  -0.04  -0.22    -0.06   0.01  -0.08
    11   1    -0.05  -0.58  -0.23     0.01   0.21   0.10     0.09   0.05   0.03
    12   1    -0.05   0.11   0.21    -0.14   0.21   0.11     0.15   0.25   0.55
    13   1     0.04  -0.18  -0.07     0.17  -0.07  -0.10    -0.10  -0.44  -0.26
    14   1    -0.07   0.13   0.14    -0.28   0.51   0.46    -0.01  -0.37  -0.21
    15   1    -0.08   0.07   0.07    -0.18   0.28   0.24    -0.10  -0.12   0.00
                     13                     14                     15
                      A                      A                      A
 Frequencies --    965.6747               973.0206              1018.4166
 Red. masses --      1.9228                 1.2449                 1.1904
 Frc consts  --      1.0564                 0.6944                 0.7275
 IR Inten    --      0.0000                 0.0000                 0.0000
  Atom  AN      X      Y      Z        X      Y      Z        X      Y      Z
     1   6    -0.06   0.10   0.08    -0.02   0.00   0.01    -0.01  -0.02   0.01
     2   6     0.10  -0.16  -0.14     0.02   0.01  -0.03     0.00   0.05  -0.00
     3   8    -0.02   0.04   0.04     0.01   0.01   0.01     0.02   0.00   0.00
     4   6     0.00  -0.03  -0.01    -0.03  -0.04   0.02    -0.03  -0.00   0.02
     5   6     0.01   0.02  -0.00    -0.03  -0.08   0.06    -0.02   0.07   0.06
     6   1    -0.08  -0.03  -0.01     0.55   0.07   0.07     0.20  -0.12  -0.03
     7   1    -0.06  -0.03  -0.00     0.04   0.11  -0.08    -0.43  -0.03  -0.20
     8   1     0.13  -0.05   0.05    -0.48   0.17  -0.26     0.32  -0.12   0.01
     9   7    -0.01  -0.01   0.01     0.02   0.05  -0.04    -0.02  -0.04  -0.02
    10   1     0.09  -0.05   0.00    -0.28   0.18   0.02     0.16  -0.12  -0.06
    11   1    -0.04  -0.01   0.01     0.30  -0.10  -0.08     0.05  -0.06  -0.03
    12   1    -0.04  -0.02  -0.08    -0.18   0.01  -0.14    -0.38   0.22  -0.01
    13   1     0.08   0.01  -0.01     0.14   0.04   0.02     0.44  -0.22  -0.18
    14   1     0.13  -0.21  -0.20     0.09   0.00  -0.04     0.15  -0.07  -0.09
    15   1    -0.34   0.62   0.51     0.03   0.10   0.03     0.12  -0.03  -0.09
                     16                     17                     18
                      A                      A                      A
 Frequencies --   1023.8821              1109.8226              1220.9479
 Red. masses --      1.1962                 1.1841                 1.3493
 Frc consts  --      0.7389                 0.8593                 1.1851
 IR Inten    --      0.0000                 0.0000                 0.0000
  Atom  AN      X      Y      Z        X      Y      Z        X      Y      Z
     1   6     0.03   0.00  -0.02    -0.03   0.01   0.01    -0.00   0.06  -0.06
     2   6    -0.01  -0.04   0.01     0.01   0.01  -0.00    -0.04  -0.11   0.10
     3   8    -0.02  -0.00  -0.00     0.00   0.00  -0.00    -0.01   0.00  -0.01
     4   6     0.01   0.04   0.02     0.03  -0.04  -0.03    -0.01   0.00  -0.03
     5   6    -0.03   0.05   0.07     0.06   0.00   0.03    -0.00   0.00  -0.00
     6   1     0.34  -0.10  -0.01     0.12  -0.02   0.02     0.00  -0.00  -0.00
     7   1    -0.43  -0.01  -0.23     0.01  -0.01  -0.00    -0.00   0.00  -0.00
     8   1     0.20  -0.08  -0.06     0.11  -0.03   0.02     0.00  -0.00   0.00
     9   7    -0.00  -0.01  -0.05    -0.03  -0.04  -0.06    -0.00  -0.00   0.00
    10   1     0.05  -0.03  -0.05     0.04  -0.06  -0.06     0.01  -0.01  -0.01
    11   1     0.18  -0.11  -0.08     0.03  -0.07  -0.06     0.01  -0.00  -0.00
    12   1     0.49  -0.31  -0.06    -0.35   0.36   0.43    -0.02   0.06   0.07
    13   1    -0.32   0.10   0.11    -0.34   0.54   0.31     0.04   0.08  -0.01
    14   1    -0.13   0.09   0.11    -0.09   0.00   0.03     0.81   0.50  -0.06
    15   1    -0.10  -0.01   0.06     0.01   0.01  -0.00    -0.12  -0.15   0.08
                     19                     20                     21
                      A                      A                      A
 Frequencies --   1266.4472              1274.8760              1324.5262
 Red. masses --      2.7589                 1.9446                 1.0596
 Frc consts  --      2.6071                 1.8622                 1.0953
 IR Inten    --      0.0000                 0.0000                 0.0000
  Atom  AN      X      Y      Z        X      Y      Z        X      Y      Z
     1   6    -0.00  -0.02   0.05     0.06   0.16  -0.16     0.00   0.00  -0.00
     2   6     0.01   0.02  -0.02    -0.03  -0.08   0.07    -0.00  -0.00   0.00
     3   8     0.01  -0.00   0.00    -0.03  -0.01  -0.01    -0.00  -0.00   0.00
     4   6     0.01  -0.03  -0.05     0.04  -0.06   0.09     0.00  -0.00   0.00
     5   6    -0.24   0.04  -0.06    -0.03   0.00  -0.00    -0.02  -0.05   0.04
     6   1    -0.38  -0.11  -0.10    -0.02  -0.02  -0.01    -0.27   0.33   0.15
     7   1    -0.42  -0.01  -0.20    -0.06  -0.01  -0.02     0.20   0.57  -0.45
     8   1    -0.32   0.08  -0.25    -0.06   0.01  -0.04     0.32  -0.20  -0.27
     9   7     0.27  -0.04   0.07     0.04   0.00   0.00    -0.00  -0.01   0.00
    10   1     0.15   0.00   0.16     0.05  -0.01   0.05    -0.08   0.02  -0.01
    11   1     0.17   0.08   0.09    -0.03   0.01   0.01     0.07  -0.01   0.01
    12   1    -0.16   0.15   0.18    -0.06   0.04   0.07    -0.00   0.00   0.00
    13   1    -0.25   0.19   0.10     0.57   0.25   0.10     0.01   0.00   0.00
    14   1     0.06   0.02   0.04    -0.54  -0.19  -0.14    -0.01  -0.00  -0.00
    15   1     0.04   0.04  -0.01    -0.29  -0.24   0.05    -0.01  -0.00   0.00
                     22                     23                     24
                      A                      A                      A
 Frequencies --   1334.4402              1337.6315              1363.4730
 Red. masses --      1.1069                 1.0673                 1.1911
 Frc consts  --      1.1613                 1.1252                 1.3047
 IR Inten    --      0.0000                 0.0000                 0.0000
  Atom  AN      X      Y      Z        X      Y      Z        X      Y      Z
     1   6    -0.04  -0.02  -0.01     0.00   0.00   0.00     0.00  -0.00   0.01
     2   6    -0.04  -0.05   0.03     0.00   0.00  -0.00    -0.00  -0.00   0.00
     3   8    -0.02   0.02  -0.03     0.00  -0.00   0.00    -0.00   0.00  -0.00
     4   6    -0.01  -0.01  -0.01     0.00  -0.00  -0.00     0.00   0.01  -0.00
     5   6     0.00  -0.00  -0.00     0.00  -0.04  -0.05    -0.03  -0.08   0.05
     6   1    -0.00   0.04   0.01     0.11   0.61   0.20     0.18   0.05   0.08
     7   1    -0.03  -0.00  -0.02    -0.29  -0.06  -0.21     0.05   0.08  -0.06
     8   1    -0.01   0.01   0.04    -0.08   0.05   0.65    -0.16  -0.00  -0.10
     9   7     0.00   0.00   0.00     0.02  -0.01  -0.00     0.01   0.06  -0.04
    10   1    -0.02   0.02   0.02    -0.03   0.01   0.02     0.66  -0.23   0.12
    11   1    -0.01   0.02   0.01    -0.02   0.03   0.01    -0.62   0.05  -0.05
    12   1     0.30  -0.09   0.32    -0.03   0.01  -0.01    -0.00   0.00  -0.03
    13   1     0.36   0.21   0.02    -0.03  -0.00   0.00    -0.05  -0.02  -0.01
    14   1    -0.01  -0.01  -0.00     0.00   0.00   0.00     0.01   0.00   0.01
    15   1     0.67   0.39   0.01    -0.05  -0.03  -0.00     0.05   0.03  -0.00
                     25                     26                     27
                      A                      A                      A
 Frequencies --   1381.0437              1386.9660              1417.2931
 Red. masses --      1.3807                 1.3681                 1.1841
 Frc consts  --      1.5515                 1.5506                 1.4014
 IR Inten    --      0.0000                 0.0000                 0.0000
  Atom  AN      X      Y      Z        X      Y      Z        X      Y      Z
     1   6    -0.02  -0.01   0.00     0.06   0.06  -0.03     0.00  -0.01  -0.00
     2   6     0.01   0.01  -0.01    -0.05  -0.08   0.06     0.00   0.00  -0.00
     3   8     0.01  -0.00   0.01    -0.04   0.01  -0.03     0.00  -0.00   0.00
     4   6    -0.01   0.01  -0.00     0.07   0.01   0.05    -0.01   0.01   0.01
     5   6     0.17  -0.01   0.06     0.03   0.00   0.01    -0.01  -0.03  -0.05
     6   1    -0.53  -0.06   0.04    -0.12  -0.01   0.00    -0.14   0.06  -0.01
     7   1    -0.46  -0.09  -0.32    -0.10  -0.02  -0.07     0.05  -0.02   0.00
     8   1    -0.44   0.26  -0.21    -0.08   0.05  -0.03    -0.12   0.03   0.02
     9   7    -0.03   0.00  -0.02    -0.01  -0.01  -0.00    -0.06   0.06   0.06
    10   1    -0.04   0.01  -0.02    -0.01  -0.01  -0.04     0.54  -0.24  -0.22
    11   1    -0.10   0.00  -0.01     0.06  -0.05  -0.02     0.59  -0.42  -0.10
    12   1     0.09  -0.04   0.06    -0.38   0.14  -0.44     0.02  -0.00   0.04
    13   1     0.09   0.03  -0.01    -0.43  -0.28   0.01     0.04   0.03   0.01
    14   1     0.03   0.01  -0.00    -0.09  -0.03  -0.02    -0.01  -0.00   0.01
    15   1    -0.11  -0.06  -0.01     0.48   0.25   0.03    -0.01  -0.01  -0.00
                     28                     29                     30
                      A                      A                      A
 Frequencies --   1718.5932              1759.9323              2082.6451
 Red. masses --      1.1035                 8.1815                11.6654
 Frc consts  --      1.9203                14.9305                29.8112
 IR Inten    --      0.0000                 0.0000                 0.0000
  Atom  AN      X      Y      Z        X      Y      Z        X      Y      Z
     1   6    -0.02  -0.01  -0.01     0.57   0.14   0.20     0.01  -0.01   0.02
     2   6     0.00   0.00   0.00    -0.06  -0.04   0.00     0.68   0.15   0.28
     3   8    -0.00   0.00  -0.00    -0.02  -0.02   0.01    -0.49  -0.08  -0.23
     4   6     0.02   0.01   0.01    -0.43  -0.12  -0.25    -0.06  -0.01  -0.02
     5   6     0.01  -0.01  -0.01     0.03   0.00   0.01    -0.00  -0.00  -0.00
     6   1    -0.02   0.00  -0.01    -0.00  -0.00   0.00    -0.00  -0.00   0.00
     7   1     0.02  -0.01  -0.00    -0.01  -0.00  -0.01     0.01   0.00   0.00
     8   1    -0.02   0.00  -0.01     0.00   0.01  -0.00    -0.00  -0.00   0.00
     9   7    -0.05  -0.02  -0.05    -0.06   0.01  -0.01     0.00   0.00   0.00
    10   1     0.22  -0.10   0.66    -0.01   0.01   0.19    -0.00   0.00  -0.01
    11   1     0.43   0.53   0.16     0.06   0.16   0.05    -0.00  -0.01  -0.00
    12   1     0.01  -0.00  -0.02    -0.17  -0.13   0.19    -0.01  -0.05   0.01
    13   1     0.00  -0.02   0.00    -0.02   0.26  -0.17     0.00  -0.00  -0.02
    14   1     0.00   0.01  -0.01    -0.02  -0.20   0.22     0.08   0.03   0.02
    15   1    -0.00  -0.00   0.00     0.10   0.06  -0.00     0.16  -0.15   0.28
                     31                     32                     33
                      A                      A                      A
 Frequencies --   3163.0383              3195.0974              3211.0144
 Red. masses --      1.0723                 1.1040                 1.0495
 Frc consts  --      6.3209                 6.6403                 6.3755
 IR Inten    --      0.0000                 0.0000                 0.0000
  Atom  AN      X      Y      Z        X      Y      Z        X      Y      Z
     1   6     0.00  -0.00   0.00     0.00  -0.00   0.00     0.00  -0.00   0.00
     2   6    -0.03   0.04  -0.06    -0.00  -0.00   0.00     0.00  -0.00   0.00
     3   8     0.00   0.00  -0.00     0.00  -0.00   0.00    -0.00  -0.00   0.00
     4   6    -0.00   0.00  -0.00     0.01   0.06  -0.07    -0.04  -0.03  -0.03
     5   6     0.00  -0.00  -0.00     0.00   0.00  -0.00    -0.00  -0.01   0.01
     6   1     0.00  -0.00   0.00     0.00  -0.01   0.04    -0.00   0.02  -0.07
     7   1    -0.00   0.00   0.00    -0.00   0.00  -0.00     0.01  -0.01  -0.01
     8   1     0.00   0.00  -0.00    -0.02  -0.04   0.00     0.03   0.06   0.00
     9   7     0.00   0.00  -0.00    -0.00  -0.01   0.01     0.00   0.01  -0.01
    10   1    -0.00  -0.00  -0.00     0.04   0.09   0.00    -0.04  -0.09  -0.00
    11   1    -0.00  -0.00   0.00    -0.00   0.03  -0.11    -0.00  -0.02   0.08
    12   1     0.00   0.00  -0.00    -0.34  -0.50   0.14     0.39   0.60  -0.21
    13   1     0.01  -0.01   0.03     0.15  -0.28   0.68     0.11  -0.26   0.58
    14   1    -0.02   0.03  -0.05    -0.03   0.05  -0.08    -0.01   0.01  -0.02
    15   1     0.32  -0.50   0.80    -0.01   0.01  -0.02    -0.01   0.01  -0.02
                     34                     35                     36
                      A                      A                      A
 Frequencies --   3214.5422              3217.7345              3235.5997
 Red. masses --      1.0879                 1.0921                 1.0920
 Frc consts  --      6.6234                 6.6621                 6.7357
 IR Inten    --      0.0000                 0.0000                 0.0000
  Atom  AN      X      Y      Z        X      Y      Z        X      Y      Z
     1   6    -0.00  -0.00  -0.00     0.00   0.00   0.00     0.00  -0.00   0.00
     2   6     0.00   0.00  -0.00    -0.00  -0.00   0.00    -0.00  -0.00   0.00
     3   8    -0.00  -0.00   0.00     0.00  -0.00  -0.00     0.00   0.00  -0.00
     4   6    -0.01  -0.01   0.00    -0.00   0.00  -0.00     0.00   0.00  -0.00
     5   6     0.02   0.04  -0.04     0.02  -0.06  -0.06     0.02   0.05  -0.04
     6   1     0.02  -0.17   0.49     0.02  -0.15   0.29     0.03  -0.15   0.47
     7   1    -0.02   0.06   0.02    -0.42   0.53   0.50     0.00   0.03  -0.01
     8   1    -0.21  -0.42  -0.00     0.20   0.35  -0.05    -0.23  -0.43  -0.00
     9   7    -0.01  -0.04   0.03     0.00   0.00   0.00     0.01   0.04  -0.03
    10   1     0.18   0.42   0.01    -0.04  -0.09   0.00    -0.20  -0.44  -0.02
    11   1     0.01   0.13  -0.48     0.01   0.01  -0.03     0.00  -0.14   0.50
    12   1     0.12   0.18  -0.06    -0.00  -0.00  -0.00    -0.03  -0.05   0.01
    13   1    -0.00  -0.00  -0.00     0.00  -0.00   0.01     0.01  -0.01   0.03
    14   1     0.00  -0.01   0.01     0.00  -0.00   0.00    -0.00   0.01  -0.01
    15   1     0.00  -0.00   0.00    -0.00   0.00  -0.00    -0.00   0.00  -0.00
                     37                     38                     39
                      A                      A                      A
 Frequencies --   3304.9153              3311.4577              3316.1147
 Red. masses --      1.0405                 1.0796                 1.0312
 Frc consts  --      6.6957                 6.9752                 6.6813
 IR Inten    --      0.0000                 0.0000                 0.0000
  Atom  AN      X      Y      Z        X      Y      Z        X      Y      Z
     1   6     0.00  -0.00   0.00    -0.03   0.04  -0.06     0.00  -0.00   0.00
     2   6     0.00   0.00   0.00    -0.00   0.00  -0.01    -0.00  -0.00   0.00
     3   8    -0.00  -0.00  -0.00     0.00   0.00  -0.00     0.00   0.00   0.00
     4   6     0.00  -0.00  -0.00     0.00   0.01  -0.01     0.00  -0.00  -0.00
     5   6     0.01  -0.01  -0.00    -0.00  -0.00  -0.00    -0.04  -0.00  -0.02
     6   1     0.00   0.06  -0.16     0.00  -0.01   0.02     0.00  -0.20   0.54
     7   1    -0.12   0.16   0.15     0.01  -0.01  -0.01     0.22  -0.31  -0.29
     8   1    -0.07  -0.15   0.01     0.01   0.02  -0.00     0.25   0.52  -0.03
     9   7    -0.02  -0.03  -0.04    -0.00  -0.00  -0.00    -0.01  -0.01  -0.01
    10   1     0.28   0.62  -0.04     0.01   0.03  -0.00     0.10   0.22  -0.01
    11   1    -0.01  -0.22   0.60    -0.00  -0.01   0.03    -0.01  -0.08   0.21
    12   1     0.00   0.01  -0.00    -0.02  -0.03   0.01     0.00   0.00  -0.00
    13   1    -0.00  -0.00   0.00     0.02  -0.03   0.08    -0.00   0.00  -0.00
    14   1    -0.01   0.02  -0.02     0.29  -0.52   0.79    -0.01   0.03  -0.04
    15   1    -0.00   0.00  -0.00     0.01  -0.03   0.05    -0.00   0.00  -0.00

 -------------------
 - Thermochemistry -
 -------------------
 Temperature   298.150 Kelvin.  Pressure   1.00000 Atm.
 Atom     1 has atomic number  6 and mass  12.00000
 Atom     2 has atomic number  6 and mass  12.00000
 Atom     3 has atomic number  8 and mass  15.99491
 Atom     4 has atomic number  6 and mass  12.00000
 Atom     5 has atomic number  6 and mass  12.00000
 Atom     6 has atomic number  1 and mass   1.00783
 Atom     7 has atomic number  1 and mass   1.00783
 Atom     8 has atomic number  1 and mass   1.00783
 Atom     9 has atomic number  7 and mass  14.00307
 Atom    10 has atomic number  1 and mass   1.00783
 Atom    11 has atomic number  1 and mass   1.00783
 Atom    12 has atomic number  1 and mass   1.00783
 Atom    13 has atomic number  1 and mass   1.00783
 Atom    14 has atomic number  1 and mass   1.00783
 Atom    15 has atomic number  1 and mass   1.00783
 Molecular mass:    87.06841 amu.
 Principal axes and moments of inertia in atomic units:
                           1         2         3
     Eigenvalues --   160.431251423.456691487.37253
           X            0.99994  -0.01077  -0.00117
           Y            0.01063   0.99625  -0.08586
           Z            0.00209   0.08584   0.99631
 This molecule is an asymmetric top.
 Rotational symmetry number  1.
 Rotational temperatures (Kelvin)      0.53988     0.06085     0.05823
 Rotational constants (GHZ):          11.24931     1.26786     1.21338
    4 imaginary frequencies ignored.
 Zero-point vibrational energy     340140.0 (Joules/Mol)
                                   81.29541 (Kcal/Mol)
 Warning -- explicit consideration of   5 degrees of freedom as
           vibrations may cause significant error
 Vibrational temperatures:     66.04   216.47   406.53   504.27   844.16
          (Kelvin)            964.62  1076.78  1299.03  1389.39  1399.96
                             1465.27  1473.14  1596.79  1756.67  1822.14
                             1834.26  1905.70  1919.96  1924.55  1961.73
                             1987.01  1995.53  2039.17  2472.67  2532.15
                             2996.46  4550.91  4597.03  4619.93  4625.01
                             4629.60  4655.31  4755.04  4764.45  4771.15
 
 Zero-point correction=                           0.129552 (Hartree/Particle)
 Thermal correction to Energy=                    0.135395
 Thermal correction to Enthalpy=                  0.136339
 Thermal correction to Gibbs Free Energy=         0.098866
 Sum of electronic and zero-point Energies=           -287.297208
 Sum of electronic and thermal Energies=              -287.291365
 Sum of electronic and thermal Enthalpies=            -287.290421
 Sum of electronic and thermal Free Energies=         -287.327894
 
                     E (Thermal)             CV                S
                      KCal/Mol        Cal/Mol-Kelvin    Cal/Mol-Kelvin
 Total                   84.962             19.544             78.869
 Electronic               0.000              0.000              0.000
 Translational            0.889              2.981             39.305
 Rotational               0.889              2.981             27.321
 Vibrational             83.184             13.582             12.243
 Vibration     1          0.595              1.979              4.987
 Vibration     2          0.618              1.902              2.666
 Vibration     3          0.682              1.706              1.518
 Vibration     4          0.727              1.574              1.164
 Vibration     5          0.944              1.060              0.473
                       Q            Log10(Q)             Ln(Q)
 Total Bot       0.334815D-45        -45.475196       -104.710507
 Total V=0       0.130244D+15         14.114757         32.500430
 Vib (Bot)       0.502560D-58        -58.298812       -134.237976
 Vib (Bot)    1  0.450534D+01          0.653727          1.505263
 Vib (Bot)    2  0.134754D+01          0.129542          0.298281
 Vib (Bot)    3  0.679523D+00         -0.167796         -0.386364
 Vib (Bot)    4  0.526250D+00         -0.278808         -0.641979
 Vib (Bot)    5  0.257969D+00         -0.588433         -1.354916
 Vib (V=0)       0.195497D+02          1.291140          2.972961
 Vib (V=0)    1  0.503300D+01          0.701827          1.616016
 Vib (V=0)    2  0.193731D+01          0.287200          0.661301
 Vib (V=0)    3  0.134365D+01          0.128287          0.295392
 Vib (V=0)    4  0.122591D+01          0.088457          0.203680
 Vib (V=0)    5  0.106263D+01          0.026380          0.060743
 Electronic      0.100000D+01          0.000000          0.000000
 Translational   0.319334D+08          7.504245         17.279162
 Rotational      0.208628D+06          5.319372         12.248307
 ***** Axes restored to original set *****
 -------------------------------------------------------------------
 Center     Atomic                   Forces (Hartrees/Bohr)
 Number     Number              X              Y              Z
 -------------------------------------------------------------------
      1        6          -0.029535983   -0.026595630    0.010298304
      2        6          -0.009035727    0.028900797   -0.043154025
      3        8           0.008860569   -0.007357827    0.015452622
      4        6           0.011655787    0.021171765    0.018317996
      5        6          -0.003867037    0.003316247    0.002181510
      6        1          -0.000045462   -0.000595644    0.003631452
      7        1           0.006034692   -0.002672707   -0.000695759
      8        1           0.001406577    0.003444236    0.000465617
      9        7           0.029103802   -0.031928544   -0.030626883
     10        1          -0.006355600    0.003774919    0.001432871
     11        1          -0.005256800    0.000904813    0.002447337
     12        1          -0.000803377    0.003067415    0.010436860
     13        1          -0.002982058    0.008275508    0.004241660
     14        1          -0.002349430    0.002750514   -0.005852073
     15        1           0.003170046   -0.006455863    0.011422512
 -------------------------------------------------------------------
 Cartesian Forces:  Max     0.043154025 RMS     0.014296742


 BLESSED ARE THOSE WHO NOUGHT EXPECT,
 FOR THEY SHALL NOT BE DISAPPOINTED..  WALCOT - ODE TO PITT
 Error termination request processed by link 9999.
 Error termination via Lnk1e in /apps/gaussian/g16/C.01/g16/l9999.exe at Mon May 20 12:32:11 2024.
 Job cpu time:       0 days  0 hours  4 minutes 21.0 seconds.
 Elapsed time:       0 days  0 hours  0 minutes 38.5 seconds.
 File lengths (MBytes):  RWF=      6 Int=      0 D2E=      0 Chk=      1 Scr=      1
