Unloading slurm/anatra/current
  ERROR: No such file or directory on
    '/cm/local/modulefiles/slurm/anatra/current'
environment: line 0: unalias: gv: not found
environment: line 0: unalias: sl: not found
 Entering Gaussian System, Link 0=g16
 Initial command:
 /apps/gaussian/g16/C.01/g16/l1.exe "/local/jobs/1176095/Gau-584190.inp" -scrdir="/local/jobs/1176095/"
 Entering Link 1 = /apps/gaussian/g16/C.01/g16/l1.exe PID=    584194.
  
 Copyright (c) 1988-2019, Gaussian, Inc.  All Rights Reserved.
  
 This is part of the Gaussian(R) 16 program.  It is based on
 the Gaussian(R) 09 system (copyright 2009, Gaussian, Inc.),
 the Gaussian(R) 03 system (copyright 2003, Gaussian, Inc.),
 the Gaussian(R) 98 system (copyright 1998, Gaussian, Inc.),
 the Gaussian(R) 94 system (copyright 1995, Gaussian, Inc.),
 the Gaussian 92(TM) system (copyright 1992, Gaussian, Inc.),
 the Gaussian 90(TM) system (copyright 1990, Gaussian, Inc.),
 the Gaussian 88(TM) system (copyright 1988, Gaussian, Inc.),
 the Gaussian 86(TM) system (copyright 1986, Carnegie Mellon
 University), and the Gaussian 82(TM) system (copyright 1983,
 Carnegie Mellon University). Gaussian is a federally registered
 trademark of Gaussian, Inc.
  
 This software contains proprietary and confidential information,
 including trade secrets, belonging to Gaussian, Inc.
  
 This software is provided under written license and may be
 used, copied, transmitted, or stored only in accord with that
 written license.
  
 The following legend is applicable only to US Government
 contracts under FAR:
  
                    RESTRICTED RIGHTS LEGEND
  
 Use, reproduction and disclosure by the US Government is
 subject to restrictions as set forth in subparagraphs (a)
 and (c) of the Commercial Computer Software - Restricted
 Rights clause in FAR 52.227-19.
  
 Gaussian, Inc.
 340 Quinnipiac St., Bldg. 40, Wallingford CT 06492
  
  
 ---------------------------------------------------------------
 Warning -- This program may not be used in any manner that
 competes with the business of Gaussian, Inc. or will provide
 assistance to any competitor of Gaussian, Inc.  The licensee
 of this program is prohibited from giving any competitor of
 Gaussian, Inc. access to this program.  By using this program,
 the user acknowledges that Gaussian, Inc. is engaged in the
 business of creating and licensing software in the field of
 computational chemistry and represents and warrants to the
 licensee that it is not a competitor of Gaussian, Inc. and that
 it will not use this program in any manner prohibited above.
 ---------------------------------------------------------------
  

 Cite this work as:
 Gaussian 16, Revision C.01,
 M. J. Frisch, G. W. Trucks, H. B. Schlegel, G. E. Scuseria, 
 M. A. Robb, J. R. Cheeseman, G. Scalmani, V. Barone, 
 G. A. Petersson, H. Nakatsuji, X. Li, M. Caricato, A. V. Marenich, 
 J. Bloino, B. G. Janesko, R. Gomperts, B. Mennucci, H. P. Hratchian, 
 J. V. Ortiz, A. F. Izmaylov, J. L. Sonnenberg, D. Williams-Young, 
 F. Ding, F. Lipparini, F. Egidi, J. Goings, B. Peng, A. Petrone, 
 T. Henderson, D. Ranasinghe, V. G. Zakrzewski, J. Gao, N. Rega, 
 G. Zheng, W. Liang, M. Hada, M. Ehara, K. Toyota, R. Fukuda, 
 J. Hasegawa, M. Ishida, T. Nakajima, Y. Honda, O. Kitao, H. Nakai, 
 T. Vreven, K. Throssell, J. A. Montgomery, Jr., J. E. Peralta, 
 F. Ogliaro, M. J. Bearpark, J. J. Heyd, E. N. Brothers, K. N. Kudin, 
 V. N. Staroverov, T. A. Keith, R. Kobayashi, J. Normand, 
 K. Raghavachari, A. P. Rendell, J. C. Burant, S. S. Iyengar, 
 J. Tomasi, M. Cossi, J. M. Millam, M. Klene, C. Adamo, R. Cammi, 
 J. W. Ochterski, R. L. Martin, K. Morokuma, O. Farkas, 
 J. B. Foresman, and D. J. Fox, Gaussian, Inc., Wallingford CT, 2019.
 
 ******************************************
 Gaussian 16:  ES64L-G16RevC.01  3-Jul-2019
                20-May-2024 
 ******************************************
 %nprocshared=12
 Will use up to   12 processors via shared memory.
 %mem=48GB
 ----------------------------------------------------------------------
 # external="~/scripts/MiMe -H 'am1' -EF 'wb97xd def2svp' -c 12 -m 48GB
 " opt=(calcall,ts,eigentest,maxcycles=50,maxstep=10,nomicro)
 ----------------------------------------------------------------------
 1/5=1,6=50,8=10,10=4,11=2,18=20,26=1,38=1/1,3;
 2/9=110,12=2,17=6,18=5,40=1/2;
 3/11=9,25=1,30=1,41=9900000,43=2,71=2,140=1/1;
 4/20=17,22=2,24=3,113=1,114=1/2;
 6/7=2,8=2,9=2,10=2,18=1/1;
 7/25=1,44=-1/16;
 1/5=1,6=50,8=10,10=4,11=2,18=20,26=1/3(3);
 2/9=110/2;
 7/8=1,9=1,25=1,44=-1/16;
 99//99;
 2/9=110/2;
 3/11=9,25=1,30=1,41=9900000,43=2,71=2,140=1/1;
 4/16=2,20=17,22=2,24=3,113=1,114=1/2;
 7/25=1,44=-1/16;
 1/5=1,6=50,8=10,10=4,11=2,18=20,26=1/3(-4);
 2/9=110/2;
 6/7=2,8=2,9=2,10=2,18=1/1;
 7/8=1,9=1,25=1,44=-1/16;
 99//99;
 ----------
 TS-325.out
 ----------
 Symbolic Z-matrix:
 Charge =  0 Multiplicity = 1
 C                     0.06177   0.16222  -0.05987 
 C                    -0.40074   1.45584   0.53163 
 O                    -1.15429   1.50254   1.49781 
 C                    -0.85367  -0.80502  -0.34582 
 C                    -0.17766  -2.94069   1.77398 
 H                    -0.63118  -3.30064   2.7018 
 H                    -0.07938  -3.77989   1.08005 
 H                     0.82018  -2.55382   1.99723 
 N                    -1.00546  -1.89012   1.17544 
 H                    -1.95493  -2.2718    1.0865 
 H                    -1.12869  -1.1636    1.89783 
 H                    -0.54188  -1.70552  -0.88485 
 Br                   -2.6779   -0.38746  -0.7648 
 C                     1.50834  -0.10668  -0.22143 
 C                     2.39043   0.13335   0.84219 
 C                     3.76031  -0.0945    0.69505 
 C                     4.26366  -0.56034  -0.51778 
 C                     3.39924  -0.79839  -1.58439 
 C                     2.02876  -0.57131  -1.43866 
 H                     2.01427   0.49002   1.7996 
 H                     4.43291   0.08937   1.52903 
 H                     5.33005  -0.7391   -0.63114 
 H                     3.79175  -1.16099  -2.5311 
 H                     1.37285  -0.75516  -2.28698 
 N                     0.13935   2.56268  -0.08207 
 C                    -0.10745   3.88962   0.41632 
 H                     0.84287   2.43119  -0.79729 
 H                    -1.14152   3.98435   0.75836 
 H                     0.57131   4.07921   1.25198 
 H                     0.08687   4.60465  -0.38633 
 
 Add virtual bond connecting atoms N9         and C4         Dist= 3.54D+00.

 GradGradGradGradGradGradGradGradGradGradGradGradGradGradGradGradGradGrad
 Berny optimization.
 Initialization pass.
                           ----------------------------
                           !    Initial Parameters    !
                           ! (Angstroms and Degrees)  !
 --------------------------                            --------------------------
 ! Name  Definition              Value          Derivative Info.                !
 --------------------------------------------------------------------------------
 ! R1    R(1,2)                  1.4957         calculate D2E/DX2 analytically  !
 ! R2    R(1,4)                  1.3621         calculate D2E/DX2 analytically  !
 ! R3    R(1,14)                 1.4802         calculate D2E/DX2 analytically  !
 ! R4    R(2,3)                  1.2262         calculate D2E/DX2 analytically  !
 ! R5    R(2,25)                 1.376          calculate D2E/DX2 analytically  !
 ! R6    R(4,9)                  1.8748         calculate D2E/DX2 analytically  !
 ! R7    R(4,12)                 1.0948         calculate D2E/DX2 analytically  !
 ! R8    R(4,13)                 1.9177         calculate D2E/DX2 analytically  !
 ! R9    R(5,6)                  1.0937         calculate D2E/DX2 analytically  !
 ! R10   R(5,7)                  1.0934         calculate D2E/DX2 analytically  !
 ! R11   R(5,8)                  1.0932         calculate D2E/DX2 analytically  !
 ! R12   R(5,9)                  1.4653         calculate D2E/DX2 analytically  !
 ! R13   R(9,10)                 1.0272         calculate D2E/DX2 analytically  !
 ! R14   R(9,11)                 1.0319         calculate D2E/DX2 analytically  !
 ! R15   R(14,15)                1.4025         calculate D2E/DX2 analytically  !
 ! R16   R(14,19)                1.403          calculate D2E/DX2 analytically  !
 ! R17   R(15,16)                1.3965         calculate D2E/DX2 analytically  !
 ! R18   R(15,20)                1.0887         calculate D2E/DX2 analytically  !
 ! R19   R(16,17)                1.3933         calculate D2E/DX2 analytically  !
 ! R20   R(16,21)                1.0871         calculate D2E/DX2 analytically  !
 ! R21   R(17,18)                1.3934         calculate D2E/DX2 analytically  !
 ! R22   R(17,22)                1.0872         calculate D2E/DX2 analytically  !
 ! R23   R(18,19)                1.3968         calculate D2E/DX2 analytically  !
 ! R24   R(18,23)                1.0871         calculate D2E/DX2 analytically  !
 ! R25   R(19,24)                1.088          calculate D2E/DX2 analytically  !
 ! R26   R(25,26)                1.4388         calculate D2E/DX2 analytically  !
 ! R27   R(25,27)                1.0118         calculate D2E/DX2 analytically  !
 ! R28   R(26,28)                1.0933         calculate D2E/DX2 analytically  !
 ! R29   R(26,29)                1.0932         calculate D2E/DX2 analytically  !
 ! R30   R(26,30)                1.0924         calculate D2E/DX2 analytically  !
 ! A1    A(2,1,4)              119.2977         calculate D2E/DX2 analytically  !
 ! A2    A(2,1,14)             120.1638         calculate D2E/DX2 analytically  !
 ! A3    A(4,1,14)             120.3242         calculate D2E/DX2 analytically  !
 ! A4    A(1,2,3)              122.3149         calculate D2E/DX2 analytically  !
 ! A5    A(1,2,25)             113.4496         calculate D2E/DX2 analytically  !
 ! A6    A(3,2,25)             124.1945         calculate D2E/DX2 analytically  !
 ! A7    A(1,4,9)              107.1618         calculate D2E/DX2 analytically  !
 ! A8    A(1,4,12)             119.737          calculate D2E/DX2 analytically  !
 ! A9    A(1,4,13)             122.0429         calculate D2E/DX2 analytically  !
 ! A10   A(9,4,12)              86.9335         calculate D2E/DX2 analytically  !
 ! A11   A(9,4,13)             103.0786         calculate D2E/DX2 analytically  !
 ! A12   A(12,4,13)            110.0243         calculate D2E/DX2 analytically  !
 ! A13   A(6,5,7)              108.85           calculate D2E/DX2 analytically  !
 ! A14   A(6,5,8)              108.7668         calculate D2E/DX2 analytically  !
 ! A15   A(6,5,9)              110.3791         calculate D2E/DX2 analytically  !
 ! A16   A(7,5,8)              108.6128         calculate D2E/DX2 analytically  !
 ! A17   A(7,5,9)              109.9879         calculate D2E/DX2 analytically  !
 ! A18   A(8,5,9)              110.2017         calculate D2E/DX2 analytically  !
 ! A19   A(4,9,5)              134.4812         calculate D2E/DX2 analytically  !
 ! A20   A(4,9,10)             102.6885         calculate D2E/DX2 analytically  !
 ! A21   A(4,9,11)              99.8004         calculate D2E/DX2 analytically  !
 ! A22   A(5,9,10)             106.9268         calculate D2E/DX2 analytically  !
 ! A23   A(5,9,11)             106.6355         calculate D2E/DX2 analytically  !
 ! A24   A(10,9,11)            102.2303         calculate D2E/DX2 analytically  !
 ! A25   A(1,14,15)            120.0524         calculate D2E/DX2 analytically  !
 ! A26   A(1,14,19)            121.1561         calculate D2E/DX2 analytically  !
 ! A27   A(15,14,19)           118.7735         calculate D2E/DX2 analytically  !
 ! A28   A(14,15,16)           120.6063         calculate D2E/DX2 analytically  !
 ! A29   A(14,15,20)           120.3757         calculate D2E/DX2 analytically  !
 ! A30   A(16,15,20)           119.0145         calculate D2E/DX2 analytically  !
 ! A31   A(15,16,17)           120.043          calculate D2E/DX2 analytically  !
 ! A32   A(15,16,21)           119.9017         calculate D2E/DX2 analytically  !
 ! A33   A(17,16,21)           120.0551         calculate D2E/DX2 analytically  !
 ! A34   A(16,17,18)           119.9552         calculate D2E/DX2 analytically  !
 ! A35   A(16,17,22)           120.0055         calculate D2E/DX2 analytically  !
 ! A36   A(18,17,22)           120.0393         calculate D2E/DX2 analytically  !
 ! A37   A(17,18,19)           120.0693         calculate D2E/DX2 analytically  !
 ! A38   A(17,18,23)           119.9742         calculate D2E/DX2 analytically  !
 ! A39   A(19,18,23)           119.9565         calculate D2E/DX2 analytically  !
 ! A40   A(14,19,18)           120.5513         calculate D2E/DX2 analytically  !
 ! A41   A(14,19,24)           120.5858         calculate D2E/DX2 analytically  !
 ! A42   A(18,19,24)           118.8619         calculate D2E/DX2 analytically  !
 ! A43   A(2,25,26)            121.3346         calculate D2E/DX2 analytically  !
 ! A44   A(2,25,27)            118.9233         calculate D2E/DX2 analytically  !
 ! A45   A(26,25,27)           118.9457         calculate D2E/DX2 analytically  !
 ! A46   A(25,26,28)           110.5197         calculate D2E/DX2 analytically  !
 ! A47   A(25,26,29)           108.557          calculate D2E/DX2 analytically  !
 ! A48   A(25,26,30)           108.5812         calculate D2E/DX2 analytically  !
 ! A49   A(28,26,29)           109.457          calculate D2E/DX2 analytically  !
 ! A50   A(28,26,30)           109.9632         calculate D2E/DX2 analytically  !
 ! A51   A(29,26,30)           109.7381         calculate D2E/DX2 analytically  !
 ! D1    D(4,1,2,3)             49.1418         calculate D2E/DX2 analytically  !
 ! D2    D(4,1,2,25)          -133.0961         calculate D2E/DX2 analytically  !
 ! D3    D(14,1,2,3)          -125.5571         calculate D2E/DX2 analytically  !
 ! D4    D(14,1,2,25)           52.2051         calculate D2E/DX2 analytically  !
 ! D5    D(2,1,4,9)            -90.7057         calculate D2E/DX2 analytically  !
 ! D6    D(2,1,4,12)           172.8674         calculate D2E/DX2 analytically  !
 ! D7    D(2,1,4,13)            27.5036         calculate D2E/DX2 analytically  !
 ! D8    D(14,1,4,9)            83.9844         calculate D2E/DX2 analytically  !
 ! D9    D(14,1,4,12)          -12.4424         calculate D2E/DX2 analytically  !
 ! D10   D(14,1,4,13)         -157.8063         calculate D2E/DX2 analytically  !
 ! D11   D(2,1,14,15)           47.5529         calculate D2E/DX2 analytically  !
 ! D12   D(2,1,14,19)         -130.8817         calculate D2E/DX2 analytically  !
 ! D13   D(4,1,14,15)         -127.091          calculate D2E/DX2 analytically  !
 ! D14   D(4,1,14,19)           54.4743         calculate D2E/DX2 analytically  !
 ! D15   D(1,2,25,26)         -175.0909         calculate D2E/DX2 analytically  !
 ! D16   D(1,2,25,27)           -5.4202         calculate D2E/DX2 analytically  !
 ! D17   D(3,2,25,26)            2.6225         calculate D2E/DX2 analytically  !
 ! D18   D(3,2,25,27)          172.2932         calculate D2E/DX2 analytically  !
 ! D19   D(1,4,9,5)            -76.1611         calculate D2E/DX2 analytically  !
 ! D20   D(1,4,9,10)           154.0923         calculate D2E/DX2 analytically  !
 ! D21   D(1,4,9,11)            49.0666         calculate D2E/DX2 analytically  !
 ! D22   D(12,4,9,5)            44.0598         calculate D2E/DX2 analytically  !
 ! D23   D(12,4,9,10)          -85.6868         calculate D2E/DX2 analytically  !
 ! D24   D(12,4,9,11)          169.2875         calculate D2E/DX2 analytically  !
 ! D25   D(13,4,9,5)           153.9121         calculate D2E/DX2 analytically  !
 ! D26   D(13,4,9,10)           24.1655         calculate D2E/DX2 analytically  !
 ! D27   D(13,4,9,11)          -80.8602         calculate D2E/DX2 analytically  !
 ! D28   D(6,5,9,4)            178.1429         calculate D2E/DX2 analytically  !
 ! D29   D(6,5,9,10)           -53.4919         calculate D2E/DX2 analytically  !
 ! D30   D(6,5,9,11)            55.2944         calculate D2E/DX2 analytically  !
 ! D31   D(7,5,9,4)            -61.7329         calculate D2E/DX2 analytically  !
 ! D32   D(7,5,9,10)            66.6323         calculate D2E/DX2 analytically  !
 ! D33   D(7,5,9,11)           175.4186         calculate D2E/DX2 analytically  !
 ! D34   D(8,5,9,4)             57.985          calculate D2E/DX2 analytically  !
 ! D35   D(8,5,9,10)          -173.6498         calculate D2E/DX2 analytically  !
 ! D36   D(8,5,9,11)           -64.8635         calculate D2E/DX2 analytically  !
 ! D37   D(1,14,15,16)        -178.8957         calculate D2E/DX2 analytically  !
 ! D38   D(1,14,15,20)           1.7968         calculate D2E/DX2 analytically  !
 ! D39   D(19,14,15,16)         -0.424          calculate D2E/DX2 analytically  !
 ! D40   D(19,14,15,20)       -179.7315         calculate D2E/DX2 analytically  !
 ! D41   D(1,14,19,18)         178.8607         calculate D2E/DX2 analytically  !
 ! D42   D(1,14,19,24)          -0.7663         calculate D2E/DX2 analytically  !
 ! D43   D(15,14,19,18)          0.4065         calculate D2E/DX2 analytically  !
 ! D44   D(15,14,19,24)       -179.2205         calculate D2E/DX2 analytically  !
 ! D45   D(14,15,16,17)          0.2129         calculate D2E/DX2 analytically  !
 ! D46   D(14,15,16,21)       -179.6096         calculate D2E/DX2 analytically  !
 ! D47   D(20,15,16,17)        179.5297         calculate D2E/DX2 analytically  !
 ! D48   D(20,15,16,21)         -0.2928         calculate D2E/DX2 analytically  !
 ! D49   D(15,16,17,18)          0.0232         calculate D2E/DX2 analytically  !
 ! D50   D(15,16,17,22)       -179.898          calculate D2E/DX2 analytically  !
 ! D51   D(21,16,17,18)        179.8455         calculate D2E/DX2 analytically  !
 ! D52   D(21,16,17,22)         -0.0757         calculate D2E/DX2 analytically  !
 ! D53   D(16,17,18,19)         -0.0404         calculate D2E/DX2 analytically  !
 ! D54   D(16,17,18,23)        179.9442         calculate D2E/DX2 analytically  !
 ! D55   D(22,17,18,19)        179.8808         calculate D2E/DX2 analytically  !
 ! D56   D(22,17,18,23)         -0.1346         calculate D2E/DX2 analytically  !
 ! D57   D(17,18,19,14)         -0.1782         calculate D2E/DX2 analytically  !
 ! D58   D(17,18,19,24)        179.4552         calculate D2E/DX2 analytically  !
 ! D59   D(23,18,19,14)        179.8372         calculate D2E/DX2 analytically  !
 ! D60   D(23,18,19,24)         -0.5294         calculate D2E/DX2 analytically  !
 ! D61   D(2,25,26,28)         -38.8072         calculate D2E/DX2 analytically  !
 ! D62   D(2,25,26,29)          81.2469         calculate D2E/DX2 analytically  !
 ! D63   D(2,25,26,30)        -159.4988         calculate D2E/DX2 analytically  !
 ! D64   D(27,25,26,28)        151.5243         calculate D2E/DX2 analytically  !
 ! D65   D(27,25,26,29)        -88.4216         calculate D2E/DX2 analytically  !
 ! D66   D(27,25,26,30)         30.8328         calculate D2E/DX2 analytically  !
 --------------------------------------------------------------------------------
 Trust Radius=1.00D-01 FncErr=1.00D-07 GrdErr=1.00D-07 EigMax=2.50D+02 EigMin=1.00D-04
 Number of steps in this run=     50 maximum allowed number of steps=    180.
 Search for a saddle point of order  1.
 GradGradGradGradGradGradGradGradGradGradGradGradGradGradGradGradGradGrad

                          Input orientation:                          
 ---------------------------------------------------------------------
 Center     Atomic      Atomic             Coordinates (Angstroms)
 Number     Number       Type             X           Y           Z
 ---------------------------------------------------------------------
      1          6           0        0.061770    0.162220   -0.059870
      2          6           0       -0.400740    1.455840    0.531630
      3          8           0       -1.154290    1.502540    1.497810
      4          6           0       -0.853670   -0.805020   -0.345820
      5          6           0       -0.177660   -2.940690    1.773980
      6          1           0       -0.631180   -3.300640    2.701800
      7          1           0       -0.079380   -3.779890    1.080050
      8          1           0        0.820180   -2.553820    1.997230
      9          7           0       -1.005460   -1.890120    1.175440
     10          1           0       -1.954930   -2.271800    1.086500
     11          1           0       -1.128690   -1.163600    1.897830
     12          1           0       -0.541880   -1.705520   -0.884850
     13         35           0       -2.677900   -0.387460   -0.764800
     14          6           0        1.508340   -0.106680   -0.221430
     15          6           0        2.390430    0.133350    0.842190
     16          6           0        3.760310   -0.094500    0.695050
     17          6           0        4.263660   -0.560340   -0.517780
     18          6           0        3.399240   -0.798390   -1.584390
     19          6           0        2.028760   -0.571310   -1.438660
     20          1           0        2.014270    0.490020    1.799600
     21          1           0        4.432910    0.089370    1.529030
     22          1           0        5.330050   -0.739100   -0.631140
     23          1           0        3.791750   -1.160990   -2.531100
     24          1           0        1.372850   -0.755160   -2.286980
     25          7           0        0.139350    2.562680   -0.082070
     26          6           0       -0.107450    3.889620    0.416320
     27          1           0        0.842870    2.431190   -0.797290
     28          1           0       -1.141520    3.984350    0.758360
     29          1           0        0.571310    4.079210    1.251980
     30          1           0        0.086870    4.604650   -0.386330
 ---------------------------------------------------------------------
                    Distance matrix (angstroms):
                    1          2          3          4          5
     1  C    0.000000
     2  C    1.495741   0.000000
     3  O    2.387808   1.226182   0.000000
     4  C    1.362113   2.467094   2.968868   0.000000
     5  C    3.612255   4.574131   4.557671   3.084093   0.000000
     6  H    4.483124   5.233244   4.979335   3.945327   1.093661
     7  H    4.106041   5.274173   5.406850   3.388581   1.093368
     8  H    3.490519   4.440271   4.538944   3.368970   1.093249
     9  N    2.622417   3.460582   3.411190   1.874757   1.465333
    10  H    3.362394   4.076602   3.880186   2.327178   2.019587
    11  H    2.647184   3.042676   2.696103   2.288707   2.019368
    12  H    2.129187   3.467064   4.042742   1.094836   2.954264
    13  Br   2.881816   3.203739   3.318568   1.917737   4.383559
    14  C    1.480194   2.579371   3.554571   2.466220   3.854331
    15  C    2.497439   3.104200   3.856107   3.579957   4.112547
    16  C    3.783518   4.443489   5.229556   4.782997   4.977198
    17  C    4.288083   5.188725   6.137773   5.126061   5.535662
    18  C    3.792840   4.898871   5.960610   4.429599   5.353719
    19  C    2.511609   3.727446   4.801616   3.091492   4.561064
    20  H    2.716126   2.893584   3.340067   3.808548   4.071239
    21  H    4.651535   5.121154   5.763231   5.680046   5.522556
    22  H    5.375268   6.245939   7.183595   6.190650   6.400505
    23  H    4.665899   5.814214   6.913018   5.146075   6.120234
    24  H    2.742360   3.997337   5.080185   2.954315   4.865390
    25  N    2.401816   1.376016   2.300744   3.520945   5.816571
    26  C    3.761503   2.454099   2.821993   4.814286   6.964288
    27  H    2.510404   2.064922   3.180963   3.681729   6.042351
    28  H    4.089754   2.644527   2.589658   4.923427   7.065174
    29  H    4.162138   2.888919   3.110845   5.332845   7.079014
    30  H    4.454480   3.315934   3.835824   5.490973   7.852966
                    6          7          8          9         10
     6  H    0.000000
     7  H    1.778830   0.000000
     8  H    1.777809   1.775859   0.000000
     9  N    2.111736   2.106645   2.109217   0.000000
    10  H    2.328094   2.406671   2.934314   1.027172   0.000000
    11  H    2.336841   2.935096   2.395973   1.031923   1.602821
    12  H    3.926378   2.894434   3.298667   2.119853   2.490704
    13  Br   4.969205   4.654499   4.955652   2.969777   2.738747
    14  C    4.829513   4.207990   3.374094   3.383947   4.288667
    15  C    4.937668   4.633572   3.319742   3.967059   4.972584
    16  C    5.795823   5.336061   4.048246   5.115427   6.128445
    17  C    6.467952   5.637425   4.707100   5.692006   6.646328
    18  C    6.393510   5.299941   4.749851   5.311301   6.162120
    19  C    5.627427   4.591638   4.146848   4.216547   5.013770
    20  H    4.709721   4.809704   3.275648   3.895306   4.887812
    21  H    6.205849   5.961000   4.500831   5.798213   6.824621
    22  H    7.294261   6.437120   5.526343   6.687845   7.640052
    23  H    7.177998   5.906326   5.592493   6.106005   6.880789
    24  H    5.948406   4.753405   4.679218   4.351189   4.975408
    25  N    6.536220   6.451865   5.564673   4.766482   5.396644
    26  C    7.562906   7.698228   6.699081   5.898142   6.467258
    27  H    6.875342   6.553813   5.714909   5.097225   5.787440
    28  H    7.557016   7.843153   6.937632   5.890829   6.317335
    29  H    7.616439   7.887865   6.679403   6.174541   6.837002
    30  H    8.517379   8.513426   7.580422   6.768630   7.322823
                   11         12         13         14         15
    11  H    0.000000
    12  H    2.895053   0.000000
    13  Br   3.176798   2.512822   0.000000
    14  C    3.544329   2.683248   4.230685   0.000000
    15  C    3.896237   3.868146   5.342437   1.402492   0.000000
    16  C    5.147036   4.858015   6.608142   2.431348   1.396473
    17  C    5.939405   4.953725   6.948105   2.808099   2.416550
    18  C    5.723756   4.104226   6.145911   2.431383   2.788212
    19  C    4.631680   2.863796   4.758207   1.402985   2.414462
    20  H    3.552788   4.308198   5.418725   2.167159   1.088735
    21  H    5.712910   5.813517   7.486831   3.414038   2.155321
    22  H    6.949188   5.956333   8.016781   3.895290   3.401946
    23  H    6.620133   4.667655   6.750891   3.414690   3.875319
    24  H    4.892562   2.556432   4.342903   2.169189   3.408317
    25  N    4.406029   4.396142   4.135982   3.003171   3.438497
    26  C    5.364032   5.760848   5.127930   4.357513   4.531041
    27  H    4.906448   4.363206   4.510173   2.686122   3.219147
    28  H    5.272565   5.952674   4.877828   4.971747   5.226079
    29  H    5.549250   6.266445   5.880128   4.535486   4.364280
    30  H    6.322000   6.360982   5.719122   4.923860   5.177661
                   16         17         18         19         20
    16  C    0.000000
    17  C    1.393314   0.000000
    18  C    2.412816   1.393394   0.000000
    19  C    2.788966   2.417213   1.396788   0.000000
    20  H    2.147173   3.396066   3.876794   3.407779   0.000000
    21  H    1.087070   2.154112   3.398526   3.876031   2.466485
    22  H    2.153688   1.087195   2.154119   3.402757   4.291111
    23  H    3.398004   2.153355   1.087107   2.156219   4.963893
    24  H    3.876718   3.394820   2.145171   1.087964   4.319957
    25  N    4.558056   5.191631   4.917381   3.902832   3.369262
    26  C    5.559719   6.307241   6.186853   5.282446   4.239391
    27  H    4.137348   4.552931   4.193416   3.291306   3.447341
    28  H    6.377222   7.176260   6.998684   5.969222   4.822192
    29  H    5.282021   6.187966   6.311352   5.566960   3.906956
    30  H    6.061811   6.643792   6.449805   5.627513   5.042156
                   21         22         23         24         25
    21  H    0.000000
    22  H    2.481443   0.000000
    23  H    4.296410   2.480767   0.000000
    24  H    4.963782   4.289696   2.464827   0.000000
    25  N    5.210332   6.176293   5.762247   4.170277   0.000000
    26  C    6.024524   7.217245   7.028492   5.574325   1.438775
    27  H    4.876912   5.496647   4.960418   3.557089   1.011815
    28  H    6.843908   8.131599   7.850619   6.169206   2.089999
    29  H    5.559455   7.029072   7.220985   6.044654   2.065464
    30  H    6.553199   7.490429   7.181140   5.830418   2.065180
                   26         27         28         29         30
    26  C    0.000000
    27  H    2.122022   0.000000
    28  H    1.093282   2.961445   0.000000
    29  H    1.093155   2.643714   1.785062   0.000000
    30  H    1.092371   2.337595   1.789980   1.787408   0.000000
 Stoichiometry    C11H15BrN2O
 Framework group  C1[X(C11H15BrN2O)]
 Deg. of freedom    84
 Full point group                 C1      NOp   1
 Largest Abelian subgroup         C1      NOp   1
 Largest concise Abelian subgroup C1      NOp   1
                         Standard orientation:                         
 ---------------------------------------------------------------------
 Center     Atomic      Atomic             Coordinates (Angstroms)
 Number     Number       Type             X           Y           Z
 ---------------------------------------------------------------------
      1          6           0        0.061771    0.162220   -0.059871
      2          6           0       -0.400741    1.455839    0.531629
      3          8           0       -1.154291    1.502538    1.497809
      4          6           0       -0.853668   -0.805021   -0.345821
      5          6           0       -0.177655   -2.940690    1.773979
      6          1           0       -0.631175   -3.300641    2.701799
      7          1           0       -0.079374   -3.779890    1.080049
      8          1           0        0.820184   -2.553819    1.997229
      9          7           0       -1.005456   -1.890121    1.175439
     10          1           0       -1.954926   -2.271803    1.086499
     11          1           0       -1.128687   -1.163601    1.897829
     12          1           0       -0.541877   -1.705521   -0.884851
     13         35           0       -2.677898   -0.387463   -0.764801
     14          6           0        1.508341   -0.106678   -0.221431
     15          6           0        2.390431    0.133353    0.842189
     16          6           0        3.760311   -0.094495    0.695049
     17          6           0        4.263662   -0.560335   -0.517781
     18          6           0        3.399242   -0.798386   -1.584391
     19          6           0        2.028762   -0.571308   -1.438661
     20          1           0        2.014271    0.490022    1.799599
     21          1           0        4.432911    0.089375    1.529029
     22          1           0        5.330052   -0.739093   -0.631141
     23          1           0        3.791753   -1.160985   -2.531101
     24          1           0        1.372852   -0.755158   -2.286981
     25          7           0        0.139348    2.562680   -0.082071
     26          6           0       -0.107454    3.889620    0.416319
     27          1           0        0.842868    2.431191   -0.797291
     28          1           0       -1.141524    3.984349    0.758359
     29          1           0        0.571306    4.079211    1.251979
     30          1           0        0.086865    4.604650   -0.386331
 ---------------------------------------------------------------------
 Rotational constants (GHZ):           0.5707058           0.3130453           0.2543192
 Standard basis: STO-3G (5D, 7F)
 There are   104 symmetry adapted cartesian basis functions of A   symmetry.
 There are   103 symmetry adapted basis functions of A   symmetry.
   103 basis functions,   312 primitive gaussians,   104 cartesian basis functions
    69 alpha electrons       69 beta electrons
       nuclear repulsion energy      1347.9991246151 Hartrees.
 NAtoms=   30 NActive=   30 NUniq=   30 SFac= 1.00D+00 NAtFMM=   60 NAOKFM=F Big=F
 Integral buffers will be    131072 words long.
 Raffenetti 1 integral format.
 Two-electron integral symmetry is turned on.
 External calculation of energy, first and second derivatives.
 Running external command "~/scripts/MiMe -H 'am1' -EF 'wb97xd def2svp' -c 12 -m 48GB R"
         input file       "/local/jobs/1176095/Gau-584194.EIn"
         output file      "/local/jobs/1176095/Gau-584194.EOu"
         message file     "/local/jobs/1176095/Gau-584194.EMs"
         fchk file        "/local/jobs/1176095/Gau-584194.EFC"
         mat. el file     "/local/jobs/1176095/Gau-584194.EUF"
 Read checkpoint file Gau-584194_H.chk type G16
 Write formatted file Gau-584194_H.fchk

deriv: 2

spelevel: wb97xd def2svp
gradlevel: wb97xd def2svp
hesslevel: am1

runspe: False
runforce: True
runfreq: True

Running Gaussian ...

Parsing files ...
SPE file: Gau-584194_F.out
FORCE file: Gau-584194_F.out
HESS file: Gau-584194_H.out

 ExternalExternalExternalExternalExternalExternalExternalExternalExternalExternal
 Output from external command:
 "~/scripts/MiMe -H 'am1' -EF 'wb97xd def2svp' -c 12 -m 48GB R /local/jobs/1176095/Gau-584194.EIn /local/jobs/1176095/Gau-584194.EOu /local/jobs/1176095/Gau-584194.EMs /local/jobs/1176095/Gau-584194.EFC /local/jobs/1176095/Gau-584194.EUF"
  
 --------------------------------------------------
 Force calculation at wb97xd def2svp
 Hessian calculation at am1
 ExternalExternalExternalExternalExternalExternalExternalExternalExternalExternal

 Recovered energy= -3186.12941520     dipole=      1.200900000000     -3.104500000000      0.376200000000
 Energy=    -3186.12942     NIter=   0.
 Dipole moment=       1.200900      -3.104500       0.376200
 ***** Axes restored to original set *****
 -------------------------------------------------------------------
 Center     Atomic                   Forces (Hartrees/Bohr)
 Number     Number              X              Y              Z
 -------------------------------------------------------------------
      1        6          -0.001720372    0.021014517   -0.012066100
      2        6           0.018747369   -0.009361337   -0.001782190
      3        8          -0.002427398    0.008060121   -0.006357442
      4        6           0.022972178   -0.002259832   -0.024519171
      5        6           0.004553538    0.003164048   -0.009007489
      6        1           0.000023169   -0.003614399    0.004773783
      7        1           0.001140051   -0.002945186   -0.002416408
      8        1           0.003391391    0.002005216   -0.000592329
      9        7          -0.040868928   -0.021046559    0.053559972
     10        1           0.002033591    0.000183013   -0.000333819
     11        1           0.002047528    0.002885873   -0.009297876
     12        1           0.000818244    0.007896110   -0.009008446
     13       35           0.000196220   -0.003137862    0.004975389
     14        6          -0.011077958    0.004107306   -0.002121278
     15        6           0.010643485   -0.001658333   -0.001884103
     16        6          -0.006059152    0.000699692   -0.002989362
     17        6           0.000616557   -0.000349538   -0.000047287
     18        6          -0.005080430    0.000096115    0.004789660
     19        6           0.011465596   -0.003685447    0.001094326
     20        1          -0.003482082    0.001421633    0.001667977
     21        1           0.002391962    0.000713404    0.003013846
     22        1           0.003705661   -0.000411738   -0.000499207
     23        1           0.001292009   -0.000959245   -0.003576982
     24        1          -0.004188348    0.001177728   -0.001282472
     25        7          -0.013916840   -0.007728269    0.008792708
     26        6           0.007391777   -0.006510149   -0.002173872
     27        1          -0.002856317   -0.003042485    0.000239075
     28        1          -0.002366730   -0.000466849    0.001270424
     29        1           0.000934091    0.008793299    0.006859288
     30        1          -0.000319866    0.004959152   -0.001080613
 -------------------------------------------------------------------
 Cartesian Forces:  Max     0.053559972 RMS     0.009953923
 FormGI is forming the generalized inverse of G from B-inverse, IUseBI=4.

 GradGradGradGradGradGradGradGradGradGradGradGradGradGradGradGradGradGrad
 Berny optimization.
 Internal  Forces:  Max     0.043217533 RMS     0.006088063
 Search for a saddle point.
 Step number   1 out of a maximum of   50
 All quantities printed in internal units (Hartrees-Bohrs-Radians)
 Swapping is turned off.
 Second derivative matrix not updated -- analytic derivatives used.
 ITU=  0
     Eigenvalues ---   -0.06455  -0.06011  -0.02025  -0.01350  -0.00984
     Eigenvalues ---   -0.00800  -0.00053   0.00074   0.00985   0.01037
     Eigenvalues ---    0.01124   0.01161   0.01261   0.01576   0.02407
     Eigenvalues ---    0.02433   0.02515   0.02595   0.02732   0.03055
     Eigenvalues ---    0.03078   0.03562   0.04083   0.04214   0.04277
     Eigenvalues ---    0.05208   0.05329   0.05339   0.05819   0.08278
     Eigenvalues ---    0.09533   0.10188   0.10258   0.10926   0.10962
     Eigenvalues ---    0.11017   0.11234   0.11321   0.11552   0.12367
     Eigenvalues ---    0.12917   0.13289   0.13607   0.14184   0.14789
     Eigenvalues ---    0.15279   0.16022   0.16671   0.17968   0.19002
     Eigenvalues ---    0.19161   0.19558   0.19650   0.21202   0.23242
     Eigenvalues ---    0.25428   0.33201   0.35727   0.35966   0.36379
     Eigenvalues ---    0.36470   0.36525   0.36833   0.36990   0.37402
     Eigenvalues ---    0.37887   0.38353   0.38657   0.38861   0.39971
     Eigenvalues ---    0.40437   0.40538   0.45676   0.47774   0.52468
     Eigenvalues ---    0.56519   0.57779   0.60409   0.61729   0.61924
     Eigenvalues ---    0.70468   0.79259   0.80753   1.17205
 Eigenvectors required to have negative eigenvalues:
                          D4        D3        D2        D1        R6
   1                    0.43799   0.42005   0.38708   0.36915  -0.25199
                          D62       D61       D63       D65       D64
   1                    0.18777   0.18747   0.18133   0.14205   0.14174
 RFO step:  Lambda0=1.165006057D-03 Lambda=-6.83654854D-02.
 Linear search not attempted -- option 19 set.
 Maximum step size (   0.100) exceeded in Quadratic search.
    -- Step size scaled by   0.210
 Iteration  1 RMS(Cart)=  0.02674506 RMS(Int)=  0.00036473
 Iteration  2 RMS(Cart)=  0.00051961 RMS(Int)=  0.00004205
 Iteration  3 RMS(Cart)=  0.00000020 RMS(Int)=  0.00004205
 Variable       Old X    -DE/DX   Delta X   Delta X   Delta X     New X
                                 (Linear)    (Quad)   (Total)
    R1        2.82654  -0.00391   0.00000  -0.00104  -0.00104   2.82550
    R2        2.57402   0.01276   0.00000  -0.00267  -0.00267   2.57135
    R3        2.79716   0.00022   0.00000   0.00036   0.00036   2.79752
    R4        2.31715  -0.00321   0.00000   0.00030   0.00030   2.31744
    R5        2.60029  -0.01378   0.00000  -0.00453  -0.00453   2.59576
    R6        3.54278   0.04322   0.00000   0.08252   0.08252   3.62530
    R7        2.06894  -0.00183   0.00000  -0.00398  -0.00398   2.06497
    R8        3.62400  -0.00196   0.00000  -0.00351  -0.00351   3.62049
    R9        2.06672   0.00523   0.00000   0.00230   0.00230   2.06902
   R10        2.06617   0.00390   0.00000   0.00174   0.00174   2.06791
   R11        2.06594   0.00368   0.00000   0.00174   0.00174   2.06768
   R12        2.76908   0.00318   0.00000  -0.00350  -0.00350   2.76558
   R13        1.94107  -0.00192   0.00000  -0.00411  -0.00411   1.93696
   R14        1.95005  -0.00472   0.00000  -0.00547  -0.00547   1.94458
   R15        2.65033   0.00324   0.00000   0.00205   0.00205   2.65237
   R16        2.65126   0.00253   0.00000  -0.00004  -0.00004   2.65122
   R17        2.63895  -0.00157   0.00000  -0.00189  -0.00189   2.63706
   R18        2.05741   0.00314   0.00000   0.00191   0.00191   2.05932
   R19        2.63298   0.00130   0.00000   0.00062   0.00062   2.63360
   R20        2.05426   0.00391   0.00000   0.00197   0.00197   2.05624
   R21        2.63313   0.00118   0.00000   0.00022   0.00022   2.63336
   R22        2.05450   0.00375   0.00000   0.00159   0.00159   2.05609
   R23        2.63955  -0.00154   0.00000  -0.00039  -0.00039   2.63916
   R24        2.05434   0.00390   0.00000   0.00189   0.00189   2.05623
   R25        2.05595   0.00332   0.00000   0.00161   0.00161   2.05756
   R26        2.71889   0.00697   0.00000   0.00107   0.00107   2.71996
   R27        1.91205  -0.00176   0.00000  -0.00058  -0.00058   1.91147
   R28        2.06600   0.00260   0.00000   0.00174   0.00174   2.06774
   R29        2.06576   0.00735   0.00000   0.00303   0.00303   2.06879
   R30        2.06428   0.00398   0.00000   0.00177   0.00177   2.06606
    A1        2.08214   0.00373   0.00000  -0.00064  -0.00069   2.08145
    A2        2.09725  -0.00164   0.00000  -0.00258  -0.00263   2.09462
    A3        2.10005  -0.00232   0.00000   0.00171   0.00166   2.10171
    A4        2.13480   0.00464   0.00000  -0.00223  -0.00224   2.13256
    A5        1.98007   0.00951   0.00000   0.01044   0.01043   1.99050
    A6        2.16760  -0.01408   0.00000  -0.00796  -0.00797   2.15963
    A7        1.87033   0.01515   0.00000   0.00527   0.00525   1.87558
    A8        2.08981  -0.00434   0.00000   0.00075   0.00067   2.09047
    A9        2.13005   0.00137   0.00000   0.00365   0.00360   2.13365
   A10        1.51728   0.00946   0.00000   0.01341   0.01340   1.53068
   A11        1.79906  -0.01970   0.00000  -0.02441  -0.02441   1.77466
   A12        1.92029  -0.00030   0.00000  -0.00088  -0.00078   1.91951
   A13        1.89979  -0.00165   0.00000  -0.00205  -0.00205   1.89774
   A14        1.89834  -0.00066   0.00000  -0.00113  -0.00112   1.89721
   A15        1.92648   0.00484   0.00000   0.00888   0.00889   1.93537
   A16        1.89565  -0.00005   0.00000   0.00031   0.00030   1.89595
   A17        1.91965   0.00008   0.00000  -0.00142  -0.00143   1.91822
   A18        1.92338  -0.00265   0.00000  -0.00469  -0.00469   1.91869
   A19        2.34714  -0.02335   0.00000  -0.02853  -0.02853   2.31861
   A20        1.79225   0.00915   0.00000   0.01386   0.01396   1.80621
   A21        1.74185   0.00014   0.00000  -0.00780  -0.00783   1.73402
   A22        1.86622   0.00680   0.00000   0.00902   0.00905   1.87528
   A23        1.86114   0.01241   0.00000   0.01623   0.01596   1.87710
   A24        1.78426  -0.00155   0.00000   0.00302   0.00295   1.78721
   A25        2.09531   0.00107   0.00000  -0.00519  -0.00519   2.09012
   A26        2.11457   0.00353   0.00000   0.00850   0.00850   2.12307
   A27        2.07299  -0.00459   0.00000  -0.00319  -0.00319   2.06979
   A28        2.10498   0.00232   0.00000   0.00256   0.00256   2.10753
   A29        2.10095  -0.00386   0.00000  -0.00516  -0.00516   2.09580
   A30        2.07719   0.00155   0.00000   0.00259   0.00259   2.07979
   A31        2.09515   0.00102   0.00000   0.00002   0.00002   2.09517
   A32        2.09268  -0.00056   0.00000  -0.00051  -0.00051   2.09217
   A33        2.09536  -0.00046   0.00000   0.00048   0.00048   2.09583
   A34        2.09361  -0.00225   0.00000  -0.00186  -0.00186   2.09175
   A35        2.09449   0.00116   0.00000   0.00028   0.00028   2.09477
   A36        2.09508   0.00109   0.00000   0.00158   0.00158   2.09666
   A37        2.09560   0.00108   0.00000   0.00152   0.00152   2.09712
   A38        2.09394  -0.00036   0.00000  -0.00103  -0.00103   2.09291
   A39        2.09364  -0.00072   0.00000  -0.00048  -0.00048   2.09315
   A40        2.10402   0.00242   0.00000   0.00095   0.00096   2.10497
   A41        2.10462  -0.00422   0.00000  -0.00339  -0.00339   2.10123
   A42        2.07453   0.00180   0.00000   0.00244   0.00244   2.07697
   A43        2.11769   0.00270   0.00000   0.00208   0.00207   2.11976
   A44        2.07560  -0.00436   0.00000  -0.00318  -0.00319   2.07242
   A45        2.07599   0.00170   0.00000   0.00228   0.00228   2.07827
   A46        1.92893  -0.00412   0.00000  -0.00511  -0.00510   1.92383
   A47        1.89468   0.01255   0.00000   0.00954   0.00953   1.90421
   A48        1.89510   0.00317   0.00000   0.00578   0.00576   1.90086
   A49        1.91039  -0.00457   0.00000  -0.00382  -0.00381   1.90657
   A50        1.91922  -0.00157   0.00000  -0.00139  -0.00138   1.91784
   A51        1.91529  -0.00528   0.00000  -0.00483  -0.00487   1.91042
    D1        0.85769  -0.00473   0.00000  -0.00402  -0.00401   0.85367
    D2       -2.32296  -0.00315   0.00000   0.00255   0.00258  -2.32039
    D3       -2.19138  -0.00164   0.00000   0.01454   0.01452  -2.17687
    D4        0.91115  -0.00006   0.00000   0.02112   0.02111   0.93226
    D5       -1.58311   0.01435   0.00000   0.03603   0.03605  -1.54706
    D6        3.01711  -0.00472   0.00000   0.01629   0.01630   3.03340
    D7        0.48003   0.00168   0.00000   0.00983   0.00983   0.48986
    D8        1.46580   0.01130   0.00000   0.01721   0.01721   1.48302
    D9       -0.21716  -0.00777   0.00000  -0.00254  -0.00254  -0.21971
   D10       -2.75424  -0.00137   0.00000  -0.00899  -0.00901  -2.76325
   D11        0.82996  -0.00330   0.00000  -0.01337  -0.01336   0.81660
   D12       -2.28432  -0.00397   0.00000  -0.01860  -0.01860  -2.30292
   D13       -2.21816  -0.00050   0.00000   0.00552   0.00552  -2.21264
   D14        0.95076  -0.00117   0.00000   0.00029   0.00028   0.95104
   D15       -3.05591   0.00039   0.00000   0.00531   0.00533  -3.05058
   D16       -0.09460   0.00081   0.00000   0.01314   0.01314  -0.08146
   D17        0.04577   0.00250   0.00000   0.01219   0.01219   0.05796
   D18        3.00708   0.00293   0.00000   0.02002   0.02001   3.02709
   D19       -1.32926  -0.00069   0.00000  -0.00693  -0.00704  -1.33630
   D20        2.68942  -0.00034   0.00000  -0.01169  -0.01171   2.67770
   D21        0.85637  -0.00094   0.00000  -0.01601  -0.01590   0.84047
   D22        0.76899  -0.00038   0.00000  -0.00114  -0.00118   0.76780
   D23       -1.49552  -0.00003   0.00000  -0.00590  -0.00586  -1.50138
   D24        2.95462  -0.00063   0.00000  -0.01022  -0.01005   2.94458
   D25        2.68627   0.00094   0.00000   0.00035   0.00020   2.68647
   D26        0.42177   0.00129   0.00000  -0.00441  -0.00448   0.41729
   D27       -1.41128   0.00069   0.00000  -0.00873  -0.00867  -1.41994
   D28        3.10918  -0.00212   0.00000  -0.02247  -0.02252   3.08666
   D29       -0.93361  -0.00249   0.00000  -0.01700  -0.01706  -0.95067
   D30        0.96507   0.00386   0.00000  -0.00295  -0.00285   0.96222
   D31       -1.07744  -0.00102   0.00000  -0.02028  -0.02033  -1.09777
   D32        1.16295  -0.00140   0.00000  -0.01480  -0.01486   1.14809
   D33        3.06163   0.00495   0.00000  -0.00075  -0.00065   3.06098
   D34        1.01203  -0.00270   0.00000  -0.02374  -0.02378   0.98825
   D35       -3.03076  -0.00308   0.00000  -0.01827  -0.01831  -3.04908
   D36       -1.13208   0.00328   0.00000  -0.00421  -0.00411  -1.13619
   D37       -3.12232  -0.00049   0.00000  -0.00572  -0.00570  -3.12802
   D38        0.03136  -0.00085   0.00000  -0.00507  -0.00505   0.02631
   D39       -0.00740   0.00029   0.00000  -0.00043  -0.00043  -0.00783
   D40       -3.13691  -0.00007   0.00000   0.00022   0.00022  -3.13669
   D41        3.12171   0.00098   0.00000   0.00667   0.00669   3.12839
   D42       -0.01337   0.00098   0.00000   0.00532   0.00533  -0.00804
   D43        0.00710   0.00024   0.00000   0.00154   0.00154   0.00863
   D44       -3.12799   0.00024   0.00000   0.00019   0.00019  -3.12780
   D45        0.00372  -0.00052   0.00000  -0.00091  -0.00090   0.00281
   D46       -3.13478  -0.00028   0.00000   0.00052   0.00052  -3.13425
   D47        3.13339  -0.00021   0.00000  -0.00161  -0.00160   3.13179
   D48       -0.00511   0.00004   0.00000  -0.00018  -0.00017  -0.00528
   D49        0.00041   0.00026   0.00000   0.00116   0.00116   0.00156
   D50       -3.13981   0.00007   0.00000   0.00134   0.00134  -3.13848
   D51        3.13890   0.00001   0.00000  -0.00028  -0.00028   3.13862
   D52       -0.00132  -0.00018   0.00000  -0.00010  -0.00010  -0.00142
   D53       -0.00071   0.00026   0.00000  -0.00005  -0.00005  -0.00076
   D54        3.14062  -0.00035   0.00000  -0.00028  -0.00027   3.14034
   D55        3.13951   0.00045   0.00000  -0.00023  -0.00023   3.13928
   D56       -0.00235  -0.00016   0.00000  -0.00046  -0.00046  -0.00280
   D57       -0.00311  -0.00053   0.00000  -0.00133  -0.00133  -0.00444
   D58        3.13208  -0.00055   0.00000  -0.00002  -0.00001   3.13207
   D59        3.13875   0.00008   0.00000  -0.00110  -0.00110   3.13765
   D60       -0.00924   0.00006   0.00000   0.00021   0.00021  -0.00903
   D61       -0.67731  -0.00070   0.00000   0.02436   0.02437  -0.65295
   D62        1.41803  -0.00093   0.00000   0.02256   0.02254   1.44057
   D63       -2.78378   0.00175   0.00000   0.02554   0.02556  -2.75822
   D64        2.64460  -0.00051   0.00000   0.01708   0.01707   2.66167
   D65       -1.54325  -0.00074   0.00000   0.01528   0.01525  -1.52800
   D66        0.53813   0.00193   0.00000   0.01826   0.01827   0.55640
         Item               Value     Threshold  Converged?
 Maximum Force            0.043218     0.000450     NO 
 RMS     Force            0.006088     0.000300     NO 
 Maximum Displacement     0.121896     0.001800     NO 
 RMS     Displacement     0.026831     0.001200     NO 
 Predicted change in Energy=-7.105793D-03
 Optimization stopped.
    -- Wrong number of Negative eigenvalues: Desired=  1 Actual=  7
    -- Flag reset to prevent archiving.
                           ----------------------------
                           ! Non-Optimized Parameters !
                           ! (Angstroms and Degrees)  !
 --------------------------                            --------------------------
 ! Name  Definition              Value          Derivative Info.                !
 --------------------------------------------------------------------------------
 ! R1    R(1,2)                  1.4952         -DE/DX =   -0.0039              !
 ! R2    R(1,4)                  1.3607         -DE/DX =    0.0128              !
 ! R3    R(1,14)                 1.4804         -DE/DX =    0.0002              !
 ! R4    R(2,3)                  1.2263         -DE/DX =   -0.0032              !
 ! R5    R(2,25)                 1.3736         -DE/DX =   -0.0138              !
 ! R6    R(4,9)                  1.9184         -DE/DX =    0.0432              !
 ! R7    R(4,12)                 1.0927         -DE/DX =   -0.0018              !
 ! R8    R(4,13)                 1.9159         -DE/DX =   -0.002               !
 ! R9    R(5,6)                  1.0949         -DE/DX =    0.0052              !
 ! R10   R(5,7)                  1.0943         -DE/DX =    0.0039              !
 ! R11   R(5,8)                  1.0942         -DE/DX =    0.0037              !
 ! R12   R(5,9)                  1.4635         -DE/DX =    0.0032              !
 ! R13   R(9,10)                 1.025          -DE/DX =   -0.0019              !
 ! R14   R(9,11)                 1.029          -DE/DX =   -0.0047              !
 ! R15   R(14,15)                1.4036         -DE/DX =    0.0032              !
 ! R16   R(14,19)                1.403          -DE/DX =    0.0025              !
 ! R17   R(15,16)                1.3955         -DE/DX =   -0.0016              !
 ! R18   R(15,20)                1.0897         -DE/DX =    0.0031              !
 ! R19   R(16,17)                1.3936         -DE/DX =    0.0013              !
 ! R20   R(16,21)                1.0881         -DE/DX =    0.0039              !
 ! R21   R(17,18)                1.3935         -DE/DX =    0.0012              !
 ! R22   R(17,22)                1.088          -DE/DX =    0.0038              !
 ! R23   R(18,19)                1.3966         -DE/DX =   -0.0015              !
 ! R24   R(18,23)                1.0881         -DE/DX =    0.0039              !
 ! R25   R(19,24)                1.0888         -DE/DX =    0.0033              !
 ! R26   R(25,26)                1.4393         -DE/DX =    0.007               !
 ! R27   R(25,27)                1.0115         -DE/DX =   -0.0018              !
 ! R28   R(26,28)                1.0942         -DE/DX =    0.0026              !
 ! R29   R(26,29)                1.0948         -DE/DX =    0.0073              !
 ! R30   R(26,30)                1.0933         -DE/DX =    0.004               !
 ! A1    A(2,1,4)              119.258          -DE/DX =    0.0037              !
 ! A2    A(2,1,14)             120.0129         -DE/DX =   -0.0016              !
 ! A3    A(4,1,14)             120.4194         -DE/DX =   -0.0023              !
 ! A4    A(1,2,3)              122.1868         -DE/DX =    0.0046              !
 ! A5    A(1,2,25)             114.0472         -DE/DX =    0.0095              !
 ! A6    A(3,2,25)             123.738          -DE/DX =   -0.0141              !
 ! A7    A(1,4,9)              107.4627         -DE/DX =    0.0151              !
 ! A8    A(1,4,12)             119.7754         -DE/DX =   -0.0043              !
 ! A9    A(1,4,13)             122.249          -DE/DX =    0.0014              !
 ! A10   A(9,4,12)              87.7014         -DE/DX =    0.0095              !
 ! A11   A(9,4,13)             101.6803         -DE/DX =   -0.0197              !
 ! A12   A(12,4,13)            109.9797         -DE/DX =   -0.0003              !
 ! A13   A(6,5,7)              108.7323         -DE/DX =   -0.0016              !
 ! A14   A(6,5,8)              108.7023         -DE/DX =   -0.0007              !
 ! A15   A(6,5,9)              110.8883         -DE/DX =    0.0048              !
 ! A16   A(7,5,8)              108.6301         -DE/DX =   -0.0001              !
 ! A17   A(7,5,9)              109.9061         -DE/DX =    0.0001              !
 ! A18   A(8,5,9)              109.9327         -DE/DX =   -0.0026              !
 ! A19   A(4,9,5)              132.8463         -DE/DX =   -0.0234              !
 ! A20   A(4,9,10)             103.4885         -DE/DX =    0.0092              !
 ! A21   A(4,9,11)              99.3518         -DE/DX =    0.0001              !
 ! A22   A(5,9,10)             107.4456         -DE/DX =    0.0068              !
 ! A23   A(5,9,11)             107.5501         -DE/DX =    0.0124              !
 ! A24   A(10,9,11)            102.3995         -DE/DX =   -0.0016              !
 ! A25   A(1,14,15)            119.7549         -DE/DX =    0.0011              !
 ! A26   A(1,14,19)            121.6428         -DE/DX =    0.0035              !
 ! A27   A(15,14,19)           118.5905         -DE/DX =   -0.0046              !
 ! A28   A(14,15,16)           120.7528         -DE/DX =    0.0023              !
 ! A29   A(14,15,20)           120.0802         -DE/DX =   -0.0039              !
 ! A30   A(16,15,20)           119.163          -DE/DX =    0.0015              !
 ! A31   A(15,16,17)           120.0443         -DE/DX =    0.001               !
 ! A32   A(15,16,21)           119.8727         -DE/DX =   -0.0006              !
 ! A33   A(17,16,21)           120.0825         -DE/DX =   -0.0005              !
 ! A34   A(16,17,18)           119.8484         -DE/DX =   -0.0023              !
 ! A35   A(16,17,22)           120.0215         -DE/DX =    0.0012              !
 ! A36   A(18,17,22)           120.13           -DE/DX =    0.0011              !
 ! A37   A(17,18,19)           120.1562         -DE/DX =    0.0011              !
 ! A38   A(17,18,23)           119.915          -DE/DX =   -0.0004              !
 ! A39   A(19,18,23)           119.9288         -DE/DX =   -0.0007              !
 ! A40   A(14,19,18)           120.606          -DE/DX =    0.0024              !
 ! A41   A(14,19,24)           120.3917         -DE/DX =   -0.0042              !
 ! A42   A(18,19,24)           119.0016         -DE/DX =    0.0018              !
 ! A43   A(2,25,26)            121.4532         -DE/DX =    0.0027              !
 ! A44   A(2,25,27)            118.7407         -DE/DX =   -0.0044              !
 ! A45   A(26,25,27)           119.0761         -DE/DX =    0.0017              !
 ! A46   A(25,26,28)           110.2272         -DE/DX =   -0.0041              !
 ! A47   A(25,26,29)           109.103          -DE/DX =    0.0126              !
 ! A48   A(25,26,30)           108.9113         -DE/DX =    0.0032              !
 ! A49   A(28,26,29)           109.2386         -DE/DX =   -0.0046              !
 ! A50   A(28,26,30)           109.884          -DE/DX =   -0.0016              !
 ! A51   A(29,26,30)           109.459          -DE/DX =   -0.0053              !
 ! D1    D(4,1,2,3)             48.9118         -DE/DX =   -0.0047              !
 ! D2    D(4,1,2,25)          -132.9485         -DE/DX =   -0.0031              !
 ! D3    D(14,1,2,3)          -124.7252         -DE/DX =   -0.0016              !
 ! D4    D(14,1,2,25)           53.4145         -DE/DX =   -0.0001              !
 ! D5    D(2,1,4,9)            -88.64           -DE/DX =    0.0144              !
 ! D6    D(2,1,4,12)           173.8012         -DE/DX =   -0.0047              !
 ! D7    D(2,1,4,13)            28.0667         -DE/DX =    0.0017              !
 ! D8    D(14,1,4,9)            84.9706         -DE/DX =    0.0113              !
 ! D9    D(14,1,4,12)          -12.5882         -DE/DX =   -0.0078              !
 ! D10   D(14,1,4,13)         -158.3228         -DE/DX =   -0.0014              !
 ! D11   D(2,1,14,15)           46.7875         -DE/DX =   -0.0033              !
 ! D12   D(2,1,14,19)         -131.9473         -DE/DX =   -0.004               !
 ! D13   D(4,1,14,15)         -126.7748         -DE/DX =   -0.0005              !
 ! D14   D(4,1,14,19)           54.4904         -DE/DX =   -0.0012              !
 ! D15   D(1,2,25,26)         -174.7856         -DE/DX =    0.0004              !
 ! D16   D(1,2,25,27)           -4.6672         -DE/DX =    0.0008              !
 ! D17   D(3,2,25,26)            3.3211         -DE/DX =    0.0025              !
 ! D18   D(3,2,25,27)          173.4396         -DE/DX =    0.0029              !
 ! D19   D(1,4,9,5)            -76.5644         -DE/DX =   -0.0007              !
 ! D20   D(1,4,9,10)           153.4211         -DE/DX =   -0.0003              !
 ! D21   D(1,4,9,11)            48.1555         -DE/DX =   -0.0009              !
 ! D22   D(12,4,9,5)            43.9919         -DE/DX =   -0.0004              !
 ! D23   D(12,4,9,10)          -86.0225         -DE/DX =    0.0                 !
 ! D24   D(12,4,9,11)          168.7118         -DE/DX =   -0.0006              !
 ! D25   D(13,4,9,5)           153.9234         -DE/DX =    0.0009              !
 ! D26   D(13,4,9,10)           23.9089         -DE/DX =    0.0013              !
 ! D27   D(13,4,9,11)          -81.3567         -DE/DX =    0.0007              !
 ! D28   D(6,5,9,4)            176.8525         -DE/DX =   -0.0021              !
 ! D29   D(6,5,9,10)           -54.4691         -DE/DX =   -0.0025              !
 ! D30   D(6,5,9,11)            55.1311         -DE/DX =    0.0039              !
 ! D31   D(7,5,9,4)            -62.8975         -DE/DX =   -0.001               !
 ! D32   D(7,5,9,10)            65.7809         -DE/DX =   -0.0014              !
 ! D33   D(7,5,9,11)           175.3811         -DE/DX =    0.005               !
 ! D34   D(8,5,9,4)             56.6224         -DE/DX =   -0.0027              !
 ! D35   D(8,5,9,10)          -174.6991         -DE/DX =   -0.0031              !
 ! D36   D(8,5,9,11)           -65.0989         -DE/DX =    0.0033              !
 ! D37   D(1,14,15,16)        -179.2223         -DE/DX =   -0.0005              !
 ! D38   D(1,14,15,20)           1.5075         -DE/DX =   -0.0008              !
 ! D39   D(19,14,15,16)         -0.4489         -DE/DX =    0.0003              !
 ! D40   D(19,14,15,20)       -179.7192         -DE/DX =   -0.0001              !
 ! D41   D(1,14,19,18)         179.2438         -DE/DX =    0.001               !
 ! D42   D(1,14,19,24)          -0.4607         -DE/DX =    0.001               !
 ! D43   D(15,14,19,18)          0.4947         -DE/DX =    0.0002              !
 ! D44   D(15,14,19,24)       -179.2098         -DE/DX =    0.0002              !
 ! D45   D(14,15,16,17)          0.1612         -DE/DX =   -0.0005              !
 ! D46   D(14,15,16,21)       -179.5796         -DE/DX =   -0.0003              !
 ! D47   D(20,15,16,17)        179.4381         -DE/DX =   -0.0002              !
 ! D48   D(20,15,16,21)         -0.3027         -DE/DX =    0.0                 !
 ! D49   D(15,16,17,18)          0.0894         -DE/DX =    0.0003              !
 ! D50   D(15,16,17,22)       -179.8215         -DE/DX =    0.0001              !
 ! D51   D(21,16,17,18)        179.8296         -DE/DX =    0.0                 !
 ! D52   D(21,16,17,22)         -0.0813         -DE/DX =   -0.0002              !
 ! D53   D(16,17,18,19)         -0.0433         -DE/DX =    0.0003              !
 ! D54   D(16,17,18,23)        179.9285         -DE/DX =   -0.0003              !
 ! D55   D(22,17,18,19)        179.8676         -DE/DX =    0.0005              !
 ! D56   D(22,17,18,23)         -0.1607         -DE/DX =   -0.0002              !
 ! D57   D(17,18,19,14)         -0.2541         -DE/DX =   -0.0005              !
 ! D58   D(17,18,19,24)        179.4544         -DE/DX =   -0.0006              !
 ! D59   D(23,18,19,14)        179.7742         -DE/DX =    0.0001              !
 ! D60   D(23,18,19,24)         -0.5173         -DE/DX =    0.0001              !
 ! D61   D(2,25,26,28)         -37.4112         -DE/DX =   -0.0007              !
 ! D62   D(2,25,26,29)          82.5384         -DE/DX =   -0.0009              !
 ! D63   D(2,25,26,30)        -158.0344         -DE/DX =    0.0017              !
 ! D64   D(27,25,26,28)        152.5026         -DE/DX =   -0.0005              !
 ! D65   D(27,25,26,29)        -87.5477         -DE/DX =   -0.0007              !
 ! D66   D(27,25,26,30)         31.8794         -DE/DX =    0.0019              !
 --------------------------------------------------------------------------------
 GradGradGradGradGradGradGradGradGradGradGradGradGradGradGradGradGradGrad

                          Input orientation:                          
 ---------------------------------------------------------------------
 Center     Atomic      Atomic             Coordinates (Angstroms)
 Number     Number       Type             X           Y           Z
 ---------------------------------------------------------------------
      1          6           0        0.061770    0.162220   -0.059870
      2          6           0       -0.400740    1.455840    0.531630
      3          8           0       -1.154290    1.502540    1.497810
      4          6           0       -0.853670   -0.805020   -0.345820
      5          6           0       -0.177660   -2.940690    1.773980
      6          1           0       -0.631180   -3.300640    2.701800
      7          1           0       -0.079380   -3.779890    1.080050
      8          1           0        0.820180   -2.553820    1.997230
      9          7           0       -1.005460   -1.890120    1.175440
     10          1           0       -1.954930   -2.271800    1.086500
     11          1           0       -1.128690   -1.163600    1.897830
     12          1           0       -0.541880   -1.705520   -0.884850
     13         35           0       -2.677900   -0.387460   -0.764800
     14          6           0        1.508340   -0.106680   -0.221430
     15          6           0        2.390430    0.133350    0.842190
     16          6           0        3.760310   -0.094500    0.695050
     17          6           0        4.263660   -0.560340   -0.517780
     18          6           0        3.399240   -0.798390   -1.584390
     19          6           0        2.028760   -0.571310   -1.438660
     20          1           0        2.014270    0.490020    1.799600
     21          1           0        4.432910    0.089370    1.529030
     22          1           0        5.330050   -0.739100   -0.631140
     23          1           0        3.791750   -1.160990   -2.531100
     24          1           0        1.372850   -0.755160   -2.286980
     25          7           0        0.139350    2.562680   -0.082070
     26          6           0       -0.107450    3.889620    0.416320
     27          1           0        0.842870    2.431190   -0.797290
     28          1           0       -1.141520    3.984350    0.758360
     29          1           0        0.571310    4.079210    1.251980
     30          1           0        0.086870    4.604650   -0.386330
 ---------------------------------------------------------------------
                    Distance matrix (angstroms):
                    1          2          3          4          5
     1  C    0.000000
     2  C    1.495741   0.000000
     3  O    2.387808   1.226182   0.000000
     4  C    1.362113   2.467094   2.968868   0.000000
     5  C    3.612255   4.574131   4.557671   3.084093   0.000000
     6  H    4.483124   5.233244   4.979335   3.945327   1.093661
     7  H    4.106041   5.274173   5.406850   3.388581   1.093368
     8  H    3.490519   4.440271   4.538944   3.368970   1.093249
     9  N    2.622417   3.460582   3.411190   1.874757   1.465333
    10  H    3.362394   4.076602   3.880186   2.327178   2.019587
    11  H    2.647184   3.042676   2.696103   2.288707   2.019368
    12  H    2.129187   3.467064   4.042742   1.094836   2.954264
    13  Br   2.881816   3.203739   3.318568   1.917737   4.383559
    14  C    1.480194   2.579371   3.554571   2.466220   3.854331
    15  C    2.497439   3.104200   3.856107   3.579957   4.112547
    16  C    3.783518   4.443489   5.229556   4.782997   4.977198
    17  C    4.288083   5.188725   6.137773   5.126061   5.535662
    18  C    3.792840   4.898871   5.960610   4.429599   5.353719
    19  C    2.511609   3.727446   4.801616   3.091492   4.561064
    20  H    2.716126   2.893584   3.340067   3.808548   4.071239
    21  H    4.651535   5.121154   5.763231   5.680046   5.522556
    22  H    5.375268   6.245939   7.183595   6.190650   6.400505
    23  H    4.665899   5.814214   6.913018   5.146075   6.120234
    24  H    2.742360   3.997337   5.080185   2.954315   4.865390
    25  N    2.401816   1.376016   2.300744   3.520945   5.816571
    26  C    3.761503   2.454099   2.821993   4.814286   6.964288
    27  H    2.510404   2.064922   3.180963   3.681729   6.042351
    28  H    4.089754   2.644527   2.589658   4.923427   7.065174
    29  H    4.162138   2.888919   3.110845   5.332845   7.079014
    30  H    4.454480   3.315934   3.835824   5.490973   7.852966
                    6          7          8          9         10
     6  H    0.000000
     7  H    1.778830   0.000000
     8  H    1.777809   1.775859   0.000000
     9  N    2.111736   2.106645   2.109217   0.000000
    10  H    2.328094   2.406671   2.934314   1.027172   0.000000
    11  H    2.336841   2.935096   2.395973   1.031923   1.602821
    12  H    3.926378   2.894434   3.298667   2.119853   2.490704
    13  Br   4.969205   4.654499   4.955652   2.969777   2.738747
    14  C    4.829513   4.207990   3.374094   3.383947   4.288667
    15  C    4.937668   4.633572   3.319742   3.967059   4.972584
    16  C    5.795823   5.336061   4.048246   5.115427   6.128445
    17  C    6.467952   5.637425   4.707100   5.692006   6.646328
    18  C    6.393510   5.299941   4.749851   5.311301   6.162120
    19  C    5.627427   4.591638   4.146848   4.216547   5.013770
    20  H    4.709721   4.809704   3.275648   3.895306   4.887812
    21  H    6.205849   5.961000   4.500831   5.798213   6.824621
    22  H    7.294261   6.437120   5.526343   6.687845   7.640052
    23  H    7.177998   5.906326   5.592493   6.106005   6.880789
    24  H    5.948406   4.753405   4.679218   4.351189   4.975408
    25  N    6.536220   6.451865   5.564673   4.766482   5.396644
    26  C    7.562906   7.698228   6.699081   5.898142   6.467258
    27  H    6.875342   6.553813   5.714909   5.097225   5.787440
    28  H    7.557016   7.843153   6.937632   5.890829   6.317335
    29  H    7.616439   7.887865   6.679403   6.174541   6.837002
    30  H    8.517379   8.513426   7.580422   6.768630   7.322823
                   11         12         13         14         15
    11  H    0.000000
    12  H    2.895053   0.000000
    13  Br   3.176798   2.512822   0.000000
    14  C    3.544329   2.683248   4.230685   0.000000
    15  C    3.896237   3.868146   5.342437   1.402492   0.000000
    16  C    5.147036   4.858015   6.608142   2.431348   1.396473
    17  C    5.939405   4.953725   6.948105   2.808099   2.416550
    18  C    5.723756   4.104226   6.145911   2.431383   2.788212
    19  C    4.631680   2.863796   4.758207   1.402985   2.414462
    20  H    3.552788   4.308198   5.418725   2.167159   1.088735
    21  H    5.712910   5.813517   7.486831   3.414038   2.155321
    22  H    6.949188   5.956333   8.016781   3.895290   3.401946
    23  H    6.620133   4.667655   6.750891   3.414690   3.875319
    24  H    4.892562   2.556432   4.342903   2.169189   3.408317
    25  N    4.406029   4.396142   4.135982   3.003171   3.438497
    26  C    5.364032   5.760848   5.127930   4.357513   4.531041
    27  H    4.906448   4.363206   4.510173   2.686122   3.219147
    28  H    5.272565   5.952674   4.877828   4.971747   5.226079
    29  H    5.549250   6.266445   5.880128   4.535486   4.364280
    30  H    6.322000   6.360982   5.719122   4.923860   5.177661
                   16         17         18         19         20
    16  C    0.000000
    17  C    1.393314   0.000000
    18  C    2.412816   1.393394   0.000000
    19  C    2.788966   2.417213   1.396788   0.000000
    20  H    2.147173   3.396066   3.876794   3.407779   0.000000
    21  H    1.087070   2.154112   3.398526   3.876031   2.466485
    22  H    2.153688   1.087195   2.154119   3.402757   4.291111
    23  H    3.398004   2.153355   1.087107   2.156219   4.963893
    24  H    3.876718   3.394820   2.145171   1.087964   4.319957
    25  N    4.558056   5.191631   4.917381   3.902832   3.369262
    26  C    5.559719   6.307241   6.186853   5.282446   4.239391
    27  H    4.137348   4.552931   4.193416   3.291306   3.447341
    28  H    6.377222   7.176260   6.998684   5.969222   4.822192
    29  H    5.282021   6.187966   6.311352   5.566960   3.906956
    30  H    6.061811   6.643792   6.449805   5.627513   5.042156
                   21         22         23         24         25
    21  H    0.000000
    22  H    2.481443   0.000000
    23  H    4.296410   2.480767   0.000000
    24  H    4.963782   4.289696   2.464827   0.000000
    25  N    5.210332   6.176293   5.762247   4.170277   0.000000
    26  C    6.024524   7.217245   7.028492   5.574325   1.438775
    27  H    4.876912   5.496647   4.960418   3.557089   1.011815
    28  H    6.843908   8.131599   7.850619   6.169206   2.089999
    29  H    5.559455   7.029072   7.220985   6.044654   2.065464
    30  H    6.553199   7.490429   7.181140   5.830418   2.065180
                   26         27         28         29         30
    26  C    0.000000
    27  H    2.122022   0.000000
    28  H    1.093282   2.961445   0.000000
    29  H    1.093155   2.643714   1.785062   0.000000
    30  H    1.092371   2.337595   1.789980   1.787408   0.000000
 Stoichiometry    C11H15BrN2O
 Framework group  C1[X(C11H15BrN2O)]
 Deg. of freedom    84
 Full point group                 C1      NOp   1
 Largest Abelian subgroup         C1      NOp   1
 Largest concise Abelian subgroup C1      NOp   1
                         Standard orientation:                         
 ---------------------------------------------------------------------
 Center     Atomic      Atomic             Coordinates (Angstroms)
 Number     Number       Type             X           Y           Z
 ---------------------------------------------------------------------
      1          6           0        0.061771    0.162220   -0.059871
      2          6           0       -0.400741    1.455839    0.531629
      3          8           0       -1.154291    1.502538    1.497809
      4          6           0       -0.853668   -0.805021   -0.345821
      5          6           0       -0.177655   -2.940690    1.773979
      6          1           0       -0.631175   -3.300641    2.701799
      7          1           0       -0.079374   -3.779890    1.080049
      8          1           0        0.820184   -2.553819    1.997229
      9          7           0       -1.005456   -1.890121    1.175439
     10          1           0       -1.954926   -2.271803    1.086499
     11          1           0       -1.128687   -1.163601    1.897829
     12          1           0       -0.541877   -1.705521   -0.884851
     13         35           0       -2.677898   -0.387463   -0.764801
     14          6           0        1.508341   -0.106678   -0.221431
     15          6           0        2.390431    0.133353    0.842189
     16          6           0        3.760311   -0.094495    0.695049
     17          6           0        4.263662   -0.560335   -0.517781
     18          6           0        3.399242   -0.798386   -1.584391
     19          6           0        2.028762   -0.571308   -1.438661
     20          1           0        2.014271    0.490022    1.799599
     21          1           0        4.432911    0.089375    1.529029
     22          1           0        5.330052   -0.739093   -0.631141
     23          1           0        3.791753   -1.160985   -2.531101
     24          1           0        1.372852   -0.755158   -2.286981
     25          7           0        0.139348    2.562680   -0.082071
     26          6           0       -0.107454    3.889620    0.416319
     27          1           0        0.842868    2.431191   -0.797291
     28          1           0       -1.141524    3.984349    0.758359
     29          1           0        0.571306    4.079211    1.251979
     30          1           0        0.086865    4.604650   -0.386331
 ---------------------------------------------------------------------
 Rotational constants (GHZ):           0.5707058           0.3130453           0.2543192
 Rotating derivatives to standard orientation.
 Full mass-weighted force constant matrix:
 Low frequencies --- -511.0222 -492.8006 -456.0599 -139.4919 -128.8506  -82.9337
 Low frequencies ---  -71.0864  -65.4717  -58.8738
 ******    8 imaginary frequencies (negative Signs) ****** 
 Diagonal vibrational polarizability:
        0.0000000       0.0000000       0.0000000
 Harmonic frequencies (cm**-1), IR intensities (KM/Mole), Raman scattering
 activities (A**4/AMU), depolarization ratios for plane and unpolarized
 incident light, reduced masses (AMU), force constants (mDyne/A),
 and normal coordinates:
                      1                      2                      3
                      A                      A                      A
 Frequencies --   -510.5068              -492.0780              -455.9693
 Red. masses --      1.0108                 1.0107                 7.9428
 Frc consts  --      0.1552                 0.1442                 0.9730
 IR Inten    --      0.0000                 0.0000                 0.0000
  Atom  AN      X      Y      Z        X      Y      Z        X      Y      Z
     1   6    -0.00   0.00  -0.00     0.00   0.00  -0.00     0.01  -0.05   0.07
     2   6     0.00   0.00  -0.00     0.00   0.00  -0.00    -0.00  -0.05  -0.00
     3   8     0.00   0.00  -0.00     0.00   0.00  -0.00    -0.02  -0.01  -0.00
     4   6    -0.00   0.00  -0.00     0.00   0.00   0.00     0.04  -0.35   0.49
     5   6     0.00   0.00   0.00    -0.00   0.00   0.00    -0.03   0.18  -0.21
     6   1     0.01   0.01   0.01    -0.30  -0.40  -0.30    -0.17   0.30  -0.23
     7   1    -0.01  -0.01   0.01     0.46   0.25  -0.24    -0.06   0.15  -0.16
     8   1     0.01  -0.00  -0.01    -0.17   0.14   0.53    -0.02   0.13  -0.14
     9   7     0.00  -0.00   0.00     0.00   0.00   0.01    -0.05   0.29  -0.25
    10   1     0.00  -0.00   0.00     0.01  -0.00  -0.02    -0.05   0.20  -0.15
    11   1     0.00   0.00   0.00    -0.02  -0.01   0.01    -0.03   0.19  -0.10
    12   1    -0.00  -0.00   0.00    -0.00  -0.00   0.01     0.08  -0.01  -0.10
    13  35    -0.00  -0.00   0.00    -0.00  -0.00   0.00     0.02  -0.01   0.01
    14   6    -0.00   0.00  -0.00     0.00  -0.00  -0.00    -0.01   0.00  -0.01
    15   6     0.00   0.00  -0.00     0.00   0.00  -0.00     0.00   0.00  -0.01
    16   6     0.00   0.00  -0.00     0.00  -0.00  -0.00     0.00   0.00  -0.01
    17   6    -0.00   0.00  -0.00    -0.00  -0.00  -0.00     0.00   0.00  -0.01
    18   6    -0.00   0.00  -0.00    -0.00  -0.00  -0.00    -0.00   0.00  -0.00
    19   6    -0.00  -0.00  -0.00    -0.00  -0.00  -0.00    -0.00   0.00  -0.00
    20   1     0.00   0.00  -0.00     0.00   0.00  -0.00     0.01   0.02  -0.02
    21   1     0.00   0.00  -0.00     0.00   0.00  -0.00     0.00   0.01  -0.01
    22   1    -0.00   0.00  -0.01    -0.00  -0.00  -0.00     0.00   0.00  -0.01
    23   1    -0.00  -0.00  -0.00    -0.00  -0.00  -0.00    -0.00   0.01  -0.01
    24   1    -0.00  -0.00  -0.00    -0.00  -0.00  -0.00     0.00   0.02  -0.01
    25   7     0.00   0.00  -0.01     0.00   0.00  -0.00    -0.01  -0.03   0.01
    26   6    -0.00  -0.00   0.00     0.00   0.00  -0.01    -0.00  -0.03   0.00
    27   1    -0.00  -0.00  -0.01     0.00  -0.00  -0.00    -0.01  -0.04   0.00
    28   1    -0.16   0.16  -0.52    -0.00   0.01  -0.02    -0.00  -0.02  -0.01
    29   1    -0.41  -0.22   0.38    -0.01  -0.00   0.00    -0.01  -0.03   0.01
    30   1     0.54   0.04   0.18     0.01   0.00  -0.00     0.02  -0.03   0.01
                      4                      5                      6
                      A                      A                      A
 Frequencies --   -136.7908              -128.5201               -80.4370
 Red. masses --      3.2000                 2.0641                 4.7276
 Frc consts  --      0.0353                 0.0201                 0.0180
 IR Inten    --      0.0000                 0.0000                 0.0000
  Atom  AN      X      Y      Z        X      Y      Z        X      Y      Z
     1   6     0.01  -0.01   0.05    -0.01  -0.02   0.01    -0.02   0.02   0.01
     2   6     0.03  -0.00   0.05    -0.01  -0.01   0.00    -0.04   0.04  -0.05
     3   8    -0.15   0.03  -0.09     0.03  -0.00   0.04    -0.24   0.09  -0.21
     4   6     0.00   0.02   0.01    -0.01  -0.01  -0.02    -0.01   0.00   0.02
     5   6     0.07   0.05   0.01     0.13   0.15   0.07     0.02  -0.02  -0.00
     6   1     0.11   0.07   0.05     0.20   0.22   0.13     0.04  -0.04  -0.00
     7   1     0.19  -0.00   0.09     0.37   0.04   0.24     0.00   0.00  -0.03
     8   1     0.02   0.20  -0.02     0.02   0.46   0.02     0.03  -0.03  -0.01
     9   7    -0.03  -0.08  -0.06    -0.06  -0.10  -0.10     0.02  -0.00   0.03
    10   1     0.02  -0.19  -0.14     0.05  -0.32  -0.23     0.02   0.01   0.05
    11   1    -0.18  -0.10  -0.06    -0.33  -0.11  -0.12     0.04  -0.01   0.04
    12   1     0.01   0.04  -0.04    -0.00   0.02  -0.06     0.02  -0.00   0.04
    13  35    -0.00   0.02   0.01    -0.01   0.01  -0.01    -0.01  -0.05   0.00
    14   6     0.01  -0.02   0.02    -0.01  -0.01   0.01    -0.02   0.02   0.01
    15   6     0.03  -0.03   0.01    -0.01  -0.01   0.01    -0.01   0.04  -0.01
    16   6     0.03  -0.03  -0.02    -0.01  -0.01   0.01    -0.01   0.05  -0.02
    17   6     0.00  -0.02  -0.04    -0.01  -0.00   0.01    -0.02   0.04  -0.02
[...]
  Atom  AN      X      Y      Z        X      Y      Z        X      Y      Z
     1   6    -0.00  -0.00  -0.00     0.00  -0.00  -0.00     0.00  -0.00  -0.00
     2   6    -0.00   0.00   0.00     0.00  -0.00  -0.00     0.00   0.00  -0.00
     3   8     0.00  -0.00  -0.00    -0.00   0.00   0.00    -0.00   0.00   0.00
     4   6    -0.00  -0.00   0.00     0.00   0.00  -0.00     0.00   0.00  -0.00
     5   6    -0.00  -0.00   0.00     0.00   0.00  -0.00     0.00   0.00  -0.00
     6   1     0.00   0.00  -0.00    -0.00  -0.00   0.00    -0.00  -0.00   0.00
     7   1    -0.00   0.00   0.00     0.00  -0.00  -0.00     0.00  -0.00  -0.00
     8   1     0.00   0.00   0.00     0.00   0.00  -0.00    -0.00  -0.00  -0.00
     9   7    -0.00  -0.00   0.00     0.00  -0.00  -0.00     0.00  -0.00  -0.00
    10   1     0.01   0.01   0.00    -0.01  -0.00  -0.00    -0.02  -0.01  -0.00
    11   1     0.00  -0.00  -0.00    -0.00   0.00   0.00    -0.00   0.01   0.01
    12   1     0.00  -0.00  -0.00     0.00  -0.00  -0.00     0.00  -0.00  -0.00
    13  35     0.00   0.00   0.00    -0.00   0.00   0.00    -0.00   0.00  -0.00
    14   6     0.00  -0.00  -0.00    -0.00  -0.00  -0.00    -0.00   0.00  -0.00
    15   6     0.03  -0.02  -0.07    -0.00   0.00   0.00    -0.00   0.01   0.02
    16   6     0.02   0.00   0.02    -0.01  -0.00  -0.01     0.02   0.01   0.02
    17   6    -0.00   0.00   0.00     0.02  -0.00  -0.00    -0.06   0.01   0.01
    18   6    -0.00  -0.00  -0.00    -0.01   0.01   0.03     0.00  -0.01  -0.02
    19   6    -0.01  -0.00  -0.01    -0.04  -0.01  -0.05    -0.02  -0.01  -0.02
    20   1    -0.32   0.31   0.82     0.02  -0.02  -0.04     0.07  -0.07  -0.19
    21   1    -0.19  -0.05  -0.24     0.08   0.02   0.10    -0.24  -0.06  -0.29
    22   1     0.04  -0.01  -0.00    -0.20   0.03   0.02     0.76  -0.13  -0.08
    23   1    -0.00   0.00   0.01     0.18  -0.16  -0.43    -0.09   0.08   0.21
    24   1     0.07   0.02   0.09     0.50   0.14   0.65     0.23   0.06   0.29
    25   7    -0.00   0.00   0.00     0.00   0.00  -0.00     0.00  -0.00  -0.00
    26   6    -0.00  -0.00   0.00     0.00  -0.00   0.00     0.00   0.00  -0.00
    27   1     0.00  -0.00  -0.00    -0.00  -0.00   0.00    -0.00   0.00   0.00
    28   1     0.00  -0.00  -0.00    -0.00   0.00   0.00    -0.00   0.00   0.00
    29   1    -0.00  -0.00  -0.00    -0.00   0.00  -0.00    -0.00   0.00  -0.00
    30   1     0.00   0.00  -0.00     0.00  -0.00   0.00    -0.00  -0.00   0.00
                     79                     80                     81
                      A                      A                      A
 Frequencies --   3276.6883              3280.6433              3289.3999
 Red. masses --      1.0471                 1.0803                 1.0884
 Frc consts  --      6.6239                 6.8505                 6.9386
 IR Inten    --      0.0000                 0.0000                 0.0000
  Atom  AN      X      Y      Z        X      Y      Z        X      Y      Z
     1   6     0.00   0.00   0.00    -0.00  -0.00  -0.00     0.00   0.00   0.00
     2   6     0.00  -0.00  -0.00    -0.00   0.00   0.00    -0.00   0.00   0.00
     3   8    -0.00  -0.00   0.00     0.00  -0.00  -0.00     0.00  -0.00  -0.00
     4   6    -0.00  -0.00   0.00     0.00   0.00   0.00    -0.00  -0.00   0.00
     5   6    -0.01  -0.00   0.01     0.00  -0.00  -0.00     0.00   0.00   0.00
     6   1     0.07   0.05  -0.14    -0.00  -0.00   0.00    -0.00  -0.00   0.00
     7   1    -0.01   0.02   0.03    -0.00   0.00   0.00     0.00  -0.00  -0.00
     8   1     0.01   0.00   0.01     0.00   0.00   0.00    -0.00  -0.00  -0.00
     9   7    -0.05   0.00   0.02     0.00  -0.00  -0.00     0.00  -0.00  -0.00
    10   1     0.74   0.33   0.12    -0.01  -0.00  -0.00    -0.01  -0.00  -0.00
    11   1     0.01  -0.40  -0.36    -0.00   0.00   0.00    -0.00   0.00   0.00
    12   1    -0.00  -0.00  -0.00     0.00  -0.00  -0.00     0.00  -0.00  -0.00
    13  35     0.00  -0.00   0.00    -0.00   0.00   0.00     0.00   0.00   0.00
    14   6    -0.00   0.00  -0.00    -0.00   0.00   0.00     0.00  -0.00  -0.00
    15   6    -0.00   0.00   0.00     0.00  -0.01  -0.01     0.01  -0.01  -0.02
    16   6    -0.00  -0.00  -0.00    -0.03  -0.01  -0.04    -0.03  -0.01  -0.03
    17   6    -0.00   0.00   0.00    -0.00  -0.00  -0.00    -0.05   0.01   0.01
    18   6     0.00  -0.00  -0.00     0.02  -0.02  -0.05    -0.02   0.02   0.04
    19   6    -0.00  -0.00  -0.00    -0.01  -0.00  -0.02     0.01   0.00   0.02
    20   1     0.01  -0.01  -0.01    -0.06   0.06   0.16    -0.07   0.06   0.16
    21   1     0.00   0.00   0.00     0.42   0.11   0.52     0.32   0.09   0.40
    22   1     0.03  -0.00  -0.00     0.04  -0.01  -0.01     0.58  -0.10  -0.06
    23   1    -0.00   0.00   0.00    -0.23   0.22   0.56     0.19  -0.18  -0.46
    24   1     0.01   0.00   0.01     0.18   0.05   0.23    -0.15  -0.04  -0.19
    25   7     0.00  -0.00  -0.00    -0.00   0.00   0.00    -0.00  -0.00   0.00
    26   6     0.00   0.00  -0.00    -0.00  -0.00   0.00    -0.00  -0.00   0.00
    27   1    -0.00   0.00   0.00     0.00  -0.00  -0.00     0.00  -0.00  -0.00
    28   1    -0.00   0.00  -0.00    -0.00  -0.00   0.00     0.00  -0.00  -0.00
    29   1     0.00   0.00   0.00    -0.00  -0.00   0.00    -0.00  -0.00  -0.00
    30   1    -0.00  -0.00   0.00     0.00   0.00  -0.00     0.00   0.00  -0.00
                     82                     83                     84
                      A                      A                      A
 Frequencies --   3312.7968              3316.2931              3334.1489
 Red. masses --      1.0263                 1.0277                 1.0699
 Frc consts  --      6.6359                 6.6592                 7.0076
 IR Inten    --      0.0000                 0.0000                 0.0000
  Atom  AN      X      Y      Z        X      Y      Z        X      Y      Z
     1   6    -0.00   0.00  -0.00    -0.00  -0.00   0.00     0.00   0.00  -0.00
     2   6     0.00  -0.00  -0.00     0.00   0.00  -0.00     0.00   0.00  -0.00
     3   8    -0.00  -0.00   0.00    -0.00  -0.00   0.00    -0.00  -0.00   0.00
     4   6     0.00   0.00  -0.00    -0.00  -0.00   0.00     0.00   0.00  -0.00
     5   6    -0.00   0.00  -0.00    -0.03   0.03  -0.01     0.00  -0.00   0.00
     6   1    -0.00  -0.00   0.00    -0.23  -0.16   0.44     0.00   0.00  -0.00
     7   1     0.00  -0.00  -0.00     0.04  -0.45  -0.39    -0.00   0.00   0.00
     8   1     0.00   0.00   0.00     0.55   0.23   0.12    -0.00  -0.00  -0.00
     9   7    -0.00  -0.00  -0.00    -0.01   0.00  -0.00     0.00  -0.00  -0.00
    10   1     0.00   0.00   0.00     0.06   0.03   0.01    -0.00  -0.00  -0.00
    11   1    -0.00   0.00   0.00     0.00  -0.04  -0.04    -0.00   0.00   0.00
    12   1    -0.00   0.00   0.00    -0.00   0.00   0.00    -0.00   0.00   0.00
    13  35     0.00  -0.00  -0.00     0.00  -0.00   0.00     0.00  -0.00  -0.00
    14   6    -0.00   0.00   0.00     0.00  -0.00   0.00    -0.00   0.00   0.00
    15   6     0.00  -0.00  -0.00    -0.00   0.00  -0.00     0.00  -0.00  -0.00
    16   6    -0.00  -0.00  -0.00    -0.00  -0.00   0.00    -0.00  -0.00  -0.00
    17   6    -0.00   0.00  -0.00    -0.00   0.00   0.00    -0.00   0.00  -0.00
    18   6    -0.00   0.00   0.00     0.00  -0.00  -0.00    -0.00   0.00   0.00
    19   6     0.00   0.00   0.00    -0.00   0.00   0.00     0.00   0.00   0.00
    20   1    -0.00   0.00   0.00     0.00   0.00   0.00    -0.00   0.00   0.01
    21   1     0.00   0.00   0.00    -0.00  -0.00  -0.00     0.00   0.00   0.00
    22   1     0.00  -0.00  -0.00     0.00  -0.00  -0.00     0.00  -0.00  -0.00
    23   1     0.00  -0.00  -0.00    -0.00   0.00   0.00     0.00  -0.00  -0.00
    24   1    -0.00  -0.00  -0.00    -0.00  -0.00  -0.00    -0.00  -0.00  -0.00
    25   7     0.01   0.00  -0.01     0.00  -0.00  -0.00     0.05  -0.01  -0.05
    26   6    -0.01   0.04   0.01     0.00  -0.00  -0.00     0.01  -0.01  -0.01
    27   1    -0.14   0.02   0.14    -0.00   0.00   0.00    -0.67   0.11   0.70
    28   1     0.52  -0.03  -0.17    -0.00   0.00   0.00    -0.16   0.02   0.05
    29   1    -0.33  -0.08  -0.40     0.00   0.00   0.00     0.08   0.02   0.09
    30   1    -0.11  -0.40   0.46     0.00   0.00  -0.00     0.02   0.04  -0.05

 -------------------
 - Thermochemistry -
 -------------------
 Temperature   298.150 Kelvin.  Pressure   1.00000 Atm.
 Atom     1 has atomic number  6 and mass  12.00000
 Atom     2 has atomic number  6 and mass  12.00000
 Atom     3 has atomic number  8 and mass  15.99491
 Atom     4 has atomic number  6 and mass  12.00000
 Atom     5 has atomic number  6 and mass  12.00000
 Atom     6 has atomic number  1 and mass   1.00783
 Atom     7 has atomic number  1 and mass   1.00783
 Atom     8 has atomic number  1 and mass   1.00783
 Atom     9 has atomic number  7 and mass  14.00307
 Atom    10 has atomic number  1 and mass   1.00783
 Atom    11 has atomic number  1 and mass   1.00783
 Atom    12 has atomic number  1 and mass   1.00783
 Atom    13 has atomic number 35 and mass  78.91834
 Atom    14 has atomic number  6 and mass  12.00000
 Atom    15 has atomic number  6 and mass  12.00000
 Atom    16 has atomic number  6 and mass  12.00000
 Atom    17 has atomic number  6 and mass  12.00000
 Atom    18 has atomic number  6 and mass  12.00000
 Atom    19 has atomic number  6 and mass  12.00000
 Atom    20 has atomic number  1 and mass   1.00783
 Atom    21 has atomic number  1 and mass   1.00783
 Atom    22 has atomic number  1 and mass   1.00783
 Atom    23 has atomic number  1 and mass   1.00783
 Atom    24 has atomic number  1 and mass   1.00783
 Atom    25 has atomic number  7 and mass  14.00307
 Atom    26 has atomic number  6 and mass  12.00000
 Atom    27 has atomic number  1 and mass   1.00783
 Atom    28 has atomic number  1 and mass   1.00783
 Atom    29 has atomic number  1 and mass   1.00783
 Atom    30 has atomic number  1 and mass   1.00783
 Molecular mass:   270.03677 amu.
 Principal axes and moments of inertia in atomic units:
                           1         2         3
     Eigenvalues --  3162.296795765.111787096.36217
           X            0.99960  -0.01474  -0.02404
           Y            0.01390   0.99930  -0.03467
           Z            0.02453   0.03432   0.99911
 This molecule is an asymmetric top.
 Rotational symmetry number  1.
 Warning -- assumption of classical behavior for rotation
           may cause significant error
 Rotational temperatures (Kelvin)      0.02739     0.01502     0.01221
 Rotational constants (GHZ):           0.57071     0.31305     0.25432
    8 imaginary frequencies ignored.
 Zero-point vibrational energy     651835.8 (Joules/Mol)
                                  155.79249 (Kcal/Mol)
 Warning -- explicit consideration of  15 degrees of freedom as
           vibrations may cause significant error
 Vibrational temperatures:     34.90   106.36   161.71   185.31   275.14
          (Kelvin)            310.15   321.01   381.73   460.28   499.55
                              519.23   670.79   697.41   847.40   860.23
                              899.23   937.57   962.18  1024.95  1064.99
                             1087.27  1151.29  1201.55  1258.20  1319.82
                             1363.56  1394.85  1420.59  1443.27  1461.75
                             1500.65  1503.95  1574.27  1597.98  1633.62
                             1669.36  1681.38  1727.27  1797.86  1823.73
                             1849.69  1893.97  1901.85  1907.54  1918.38
                             1923.30  1967.22  1984.10  1997.13  2008.80
                             2068.72  2084.88  2111.90  2233.30  2333.80
                             2399.87  2457.93  2515.53  2529.91  2539.96
                             3010.50  4569.58  4575.47  4629.95  4633.54
                             4644.03  4652.79  4699.38  4705.47  4712.68
                             4714.42  4720.11  4732.71  4766.38  4771.41
                             4797.10
 
 Zero-point correction=                           0.248271 (Hartree/Particle)
 Thermal correction to Energy=                    0.259698
 Thermal correction to Enthalpy=                  0.260642
 Thermal correction to Gibbs Free Energy=         0.208338
 Sum of electronic and zero-point Energies=          -3185.881144
 Sum of electronic and thermal Energies=             -3185.869718
 Sum of electronic and thermal Enthalpies=           -3185.868773
 Sum of electronic and thermal Free Energies=        -3185.921077
 
                     E (Thermal)             CV                S
                      KCal/Mol        Cal/Mol-Kelvin    Cal/Mol-Kelvin
 Total                  162.963             44.077            110.083
 Electronic               0.000              0.000              0.000
 Translational            0.889              2.981             42.679
 Rotational               0.889              2.981             33.225
 Vibrational            161.185             38.116             34.179
 Vibration     1          0.593              1.985              6.251
 Vibration     2          0.599              1.966              4.046
 Vibration     3          0.607              1.939              3.227
 Vibration     4          0.611              1.924              2.964
 Vibration     5          0.634              1.852              2.216
 Vibration     6          0.645              1.817              1.996
 Vibration     7          0.649              1.806              1.934
 Vibration     8          0.671              1.737              1.627
 Vibration     9          0.706              1.635              1.311
 Vibration    10          0.725              1.581              1.179
 Vibration    11          0.735              1.553              1.118
 Vibration    12          0.824              1.325              0.748
 Vibration    13          0.841              1.284              0.697
 Vibration    14          0.946              1.055              0.469
 Vibration    15          0.956              1.036              0.453
                       Q            Log10(Q)             Ln(Q)
 Total Bot       0.148367D-95        -95.828662       -220.653648
 Total V=0       0.233363D+19         18.368033         42.293958
 Vib (Bot)       0.208921-110       -110.680019       -254.850161
 Vib (Bot)    1  0.853745D+01          0.931328          2.144463
 Vib (Bot)    2  0.278833D+01          0.445345          1.025444
 Vib (Bot)    3  0.182134D+01          0.260391          0.599572
 Vib (Bot)    4  0.158333D+01          0.199571          0.459528
 Vib (Bot)    5  0.104612D+01          0.019581          0.045087
 Vib (Bot)    6  0.919305D+00         -0.036540         -0.084137
 Vib (Bot)    7  0.885396D+00         -0.052862         -0.121720
 Vib (Bot)    8  0.730141D+00         -0.136593         -0.314518
 Vib (Bot)    9  0.587633D+00         -0.230894         -0.531653
 Vib (Bot)   10  0.532346D+00         -0.273806         -0.630462
 Vib (Bot)   11  0.507600D+00         -0.294478         -0.678061
 Vib (Bot)   12  0.362937D+00         -0.440169         -1.013526
 Vib (Bot)   13  0.343636D+00         -0.463901         -1.068172
 Vib (Bot)   14  0.256397D+00         -0.591087         -1.361028
 Vib (Bot)   15  0.250287D+00         -0.601561         -1.385146
 Vib (V=0)       0.328606D+04          3.516676          8.097445
 Vib (V=0)    1  0.905208D+01          0.956748          2.202995
 Vib (V=0)    2  0.333281D+01          0.522810          1.203815
 Vib (V=0)    3  0.238872D+01          0.378166          0.870759
 Vib (V=0)    4  0.216040D+01          0.334534          0.770293
 Vib (V=0)    5  0.165947D+01          0.219969          0.506497
 Vib (V=0)    6  0.154648D+01          0.189344          0.435982
 Vib (V=0)    7  0.151682D+01          0.180935          0.416617
 Vib (V=0)    8  0.138493D+01          0.141429          0.325652
 Vib (V=0)    9  0.127156D+01          0.104339          0.240248
 Vib (V=0)   10  0.123034D+01          0.090024          0.207288
 Vib (V=0)   11  0.121250D+01          0.083682          0.192685
 Vib (V=0)   12  0.111784D+01          0.048379          0.111396
 Vib (V=0)   13  0.110670D+01          0.044030          0.101383
 Vib (V=0)   14  0.106191D+01          0.026086          0.060066
 Vib (V=0)   15  0.105915D+01          0.024956          0.057463
 Electronic      0.100000D+01          0.000000          0.000000
 Translational   0.174417D+09          8.241588         18.976958
 Rotational      0.407163D+07          6.609769         15.219555
 ***** Axes restored to original set *****
 -------------------------------------------------------------------
 Center     Atomic                   Forces (Hartrees/Bohr)
 Number     Number              X              Y              Z
 -------------------------------------------------------------------
      1        6          -0.001720372    0.021014517   -0.012066100
      2        6           0.018747369   -0.009361337   -0.001782190
      3        8          -0.002427398    0.008060121   -0.006357442
      4        6           0.022972178   -0.002259832   -0.024519171
      5        6           0.004553538    0.003164048   -0.009007489
      6        1           0.000023169   -0.003614399    0.004773783
      7        1           0.001140051   -0.002945186   -0.002416408
      8        1           0.003391391    0.002005216   -0.000592329
      9        7          -0.040868928   -0.021046559    0.053559972
     10        1           0.002033591    0.000183013   -0.000333819
     11        1           0.002047528    0.002885873   -0.009297876
     12        1           0.000818244    0.007896110   -0.009008446
     13       35           0.000196220   -0.003137862    0.004975389
     14        6          -0.011077958    0.004107306   -0.002121278
     15        6           0.010643485   -0.001658333   -0.001884103
     16        6          -0.006059152    0.000699692   -0.002989362
     17        6           0.000616557   -0.000349538   -0.000047287
     18        6          -0.005080430    0.000096115    0.004789660
     19        6           0.011465596   -0.003685447    0.001094326
     20        1          -0.003482082    0.001421633    0.001667977
     21        1           0.002391962    0.000713404    0.003013846
     22        1           0.003705661   -0.000411738   -0.000499207
     23        1           0.001292009   -0.000959245   -0.003576982
     24        1          -0.004188348    0.001177728   -0.001282472
     25        7          -0.013916840   -0.007728269    0.008792708
     26        6           0.007391777   -0.006510149   -0.002173872
     27        1          -0.002856317   -0.003042485    0.000239075
     28        1          -0.002366730   -0.000466849    0.001270424
     29        1           0.000934091    0.008793299    0.006859288
     30        1          -0.000319866    0.004959152   -0.001080613
 -------------------------------------------------------------------
 Cartesian Forces:  Max     0.053559972 RMS     0.009953923


      HUMANKIND PERIODICALLY GOES THROUGH A SPEEDUP OF ITS AFFAIRS, 
      THEREBY EXPERIENCING THE RACE BETWEEN THE RENEWABLE VITALITY
      OF THE LIVING, AND THE BECKONING VITIATION OF DECADENCE.
      IN THIS PERIODIC RACE, ANY PAUSE BECOMES A LUXURY.
      ONLY THEN CAN ONE REFLECT THAT ALL IS PERMITTED;
      ALL IS POSSIBLE.

                              -- THE APOCRYPHA OF MUAD'DIB
                                 CHILDREN OF DUNE, BY FRANK HERBERT
 Error termination request processed by link 9999.
 Error termination via Lnk1e in /apps/gaussian/g16/C.01/g16/l9999.exe at Mon May 20 12:33:20 2024.
 Job cpu time:       0 days  0 hours 11 minutes  2.6 seconds.
 Elapsed time:       0 days  0 hours  1 minutes 47.2 seconds.
 File lengths (MBytes):  RWF=      6 Int=      0 D2E=      0 Chk=      2 Scr=      1
