Unloading slurm/anatra/current
  ERROR: No such file or directory on
    '/cm/local/modulefiles/slurm/anatra/current'
environment: line 0: unalias: gv: not found
environment: line 0: unalias: sl: not found
 Entering Gaussian System, Link 0=g16
 Initial command:
 /apps/gaussian/g16/C.01/g16/l1.exe "/local/jobs/1157680/Gau-3135697.inp" -scrdir="/local/jobs/1157680/"
 Entering Link 1 = /apps/gaussian/g16/C.01/g16/l1.exe PID=   3135699.
  
 Copyright (c) 1988-2019, Gaussian, Inc.  All Rights Reserved.
  
 This is part of the Gaussian(R) 16 program.  It is based on
 the Gaussian(R) 09 system (copyright 2009, Gaussian, Inc.),
 the Gaussian(R) 03 system (copyright 2003, Gaussian, Inc.),
 the Gaussian(R) 98 system (copyright 1998, Gaussian, Inc.),
 the Gaussian(R) 94 system (copyright 1995, Gaussian, Inc.),
 the Gaussian 92(TM) system (copyright 1992, Gaussian, Inc.),
 the Gaussian 90(TM) system (copyright 1990, Gaussian, Inc.),
 the Gaussian 88(TM) system (copyright 1988, Gaussian, Inc.),
 the Gaussian 86(TM) system (copyright 1986, Carnegie Mellon
 University), and the Gaussian 82(TM) system (copyright 1983,
 Carnegie Mellon University). Gaussian is a federally registered
 trademark of Gaussian, Inc.
  
 This software contains proprietary and confidential information,
 including trade secrets, belonging to Gaussian, Inc.
  
 This software is provided under written license and may be
 used, copied, transmitted, or stored only in accord with that
 written license.
  
 The following legend is applicable only to US Government
 contracts under FAR:
  
                    RESTRICTED RIGHTS LEGEND
  
 Use, reproduction and disclosure by the US Government is
 subject to restrictions as set forth in subparagraphs (a)
 and (c) of the Commercial Computer Software - Restricted
 Rights clause in FAR 52.227-19.
  
 Gaussian, Inc.
 340 Quinnipiac St., Bldg. 40, Wallingford CT 06492
  
  
 ---------------------------------------------------------------
 Warning -- This program may not be used in any manner that
 competes with the business of Gaussian, Inc. or will provide
 assistance to any competitor of Gaussian, Inc.  The licensee
 of this program is prohibited from giving any competitor of
 Gaussian, Inc. access to this program.  By using this program,
 the user acknowledges that Gaussian, Inc. is engaged in the
 business of creating and licensing software in the field of
 computational chemistry and represents and warrants to the
 licensee that it is not a competitor of Gaussian, Inc. and that
 it will not use this program in any manner prohibited above.
 ---------------------------------------------------------------
  

 Cite this work as:
 Gaussian 16, Revision C.01,
 M. J. Frisch, G. W. Trucks, H. B. Schlegel, G. E. Scuseria, 
 M. A. Robb, J. R. Cheeseman, G. Scalmani, V. Barone, 
 G. A. Petersson, H. Nakatsuji, X. Li, M. Caricato, A. V. Marenich, 
 J. Bloino, B. G. Janesko, R. Gomperts, B. Mennucci, H. P. Hratchian, 
 J. V. Ortiz, A. F. Izmaylov, J. L. Sonnenberg, D. Williams-Young, 
 F. Ding, F. Lipparini, F. Egidi, J. Goings, B. Peng, A. Petrone, 
 T. Henderson, D. Ranasinghe, V. G. Zakrzewski, J. Gao, N. Rega, 
 G. Zheng, W. Liang, M. Hada, M. Ehara, K. Toyota, R. Fukuda, 
 J. Hasegawa, M. Ishida, T. Nakajima, Y. Honda, O. Kitao, H. Nakai, 
 T. Vreven, K. Throssell, J. A. Montgomery, Jr., J. E. Peralta, 
 F. Ogliaro, M. J. Bearpark, J. J. Heyd, E. N. Brothers, K. N. Kudin, 
 V. N. Staroverov, T. A. Keith, R. Kobayashi, J. Normand, 
 K. Raghavachari, A. P. Rendell, J. C. Burant, S. S. Iyengar, 
 J. Tomasi, M. Cossi, J. M. Millam, M. Klene, C. Adamo, R. Cammi, 
 J. W. Ochterski, R. L. Martin, K. Morokuma, O. Farkas, 
 J. B. Foresman, and D. J. Fox, Gaussian, Inc., Wallingford CT, 2019.
 
 ******************************************
 Gaussian 16:  ES64L-G16RevC.01  3-Jul-2019
                17-Jan-2024 
 ******************************************
 %nprocshared=12
 Will use up to   12 processors via shared memory.
 %mem=48GB
 ----------------------------------------------------------------------
 # external="~/scripts/MiMe -H 'hf def2svp' -EF 'wb97xd def2svp' -c 12 
 -m 48GB" opt=(calcall,ts,noeigen,maxcycles=50,maxstep=10,nomicro)
 ----------------------------------------------------------------------
 1/5=1,6=50,8=10,10=4,11=1,18=20,26=1,38=1/1,3;
 2/9=110,12=2,17=6,18=5,40=1/2;
 3/11=9,25=1,30=1,41=9900000,43=2,71=2,140=1/1;
 4/20=17,22=2,24=3,113=1,114=1/2;
 6/7=2,8=2,9=2,10=2,18=1/1;
 7/25=1,44=-1/16;
 1/5=1,6=50,8=10,10=4,11=1,18=20,26=1/3(3);
 2/9=110/2;
 7/8=1,9=1,25=1,44=-1/16;
 99//99;
 2/9=110/2;
 3/11=9,25=1,30=1,41=9900000,43=2,71=2,140=1/1;
 4/16=2,20=17,22=2,24=3,113=1,114=1/2;
 7/25=1,44=-1/16;
 1/5=1,6=50,8=10,10=4,11=1,18=20,26=1/3(-4);
 2/9=110/2;
 6/7=2,8=2,9=2,10=2,18=1/1;
 7/8=1,9=1,25=1,44=-1/16;
 99//99;
 ----------
 TS-325.out
 ----------
 Symbolic Z-matrix:
 Charge =  0 Multiplicity = 1
 C                     0.06177   0.16222  -0.05987 
 C                    -0.40074   1.45584   0.53163 
 O                    -1.15429   1.50254   1.49781 
 C                    -0.85367  -0.80502  -0.34582 
 C                    -0.17766  -2.94069   1.77398 
 H                    -0.63118  -3.30064   2.7018 
 H                    -0.07938  -3.77989   1.08005 
 H                     0.82018  -2.55382   1.99723 
 N                    -1.00546  -1.89012   1.17544 
 H                    -1.95493  -2.2718    1.0865 
 H                    -1.12869  -1.1636    1.89783 
 H                    -0.54188  -1.70552  -0.88485 
 Br                   -2.6779   -0.38746  -0.7648 
 C                     1.50834  -0.10668  -0.22143 
 C                     2.39043   0.13335   0.84219 
 C                     3.76031  -0.0945    0.69505 
 C                     4.26366  -0.56034  -0.51778 
 C                     3.39924  -0.79839  -1.58439 
 C                     2.02876  -0.57131  -1.43866 
 H                     2.01427   0.49002   1.7996 
 H                     4.43291   0.08937   1.52903 
 H                     5.33005  -0.7391   -0.63114 
 H                     3.79175  -1.16099  -2.5311 
 H                     1.37285  -0.75516  -2.28698 
 N                     0.13935   2.56268  -0.08207 
 C                    -0.10745   3.88962   0.41632 
 H                     0.84287   2.43119  -0.79729 
 H                    -1.14152   3.98435   0.75836 
 H                     0.57131   4.07921   1.25198 
 H                     0.08687   4.60465  -0.38633 
 
 Add virtual bond connecting atoms N9         and C4         Dist= 3.54D+00.

 GradGradGradGradGradGradGradGradGradGradGradGradGradGradGradGradGradGrad
 Berny optimization.
 Initialization pass.
                           ----------------------------
                           !    Initial Parameters    !
                           ! (Angstroms and Degrees)  !
 --------------------------                            --------------------------
 ! Name  Definition              Value          Derivative Info.                !
 --------------------------------------------------------------------------------
 ! R1    R(1,2)                  1.4957         calculate D2E/DX2 analytically  !
 ! R2    R(1,4)                  1.3621         calculate D2E/DX2 analytically  !
 ! R3    R(1,14)                 1.4802         calculate D2E/DX2 analytically  !
 ! R4    R(2,3)                  1.2262         calculate D2E/DX2 analytically  !
 ! R5    R(2,25)                 1.376          calculate D2E/DX2 analytically  !
 ! R6    R(4,9)                  1.8748         calculate D2E/DX2 analytically  !
 ! R7    R(4,12)                 1.0948         calculate D2E/DX2 analytically  !
 ! R8    R(4,13)                 1.9177         calculate D2E/DX2 analytically  !
 ! R9    R(5,6)                  1.0937         calculate D2E/DX2 analytically  !
 ! R10   R(5,7)                  1.0934         calculate D2E/DX2 analytically  !
 ! R11   R(5,8)                  1.0932         calculate D2E/DX2 analytically  !
 ! R12   R(5,9)                  1.4653         calculate D2E/DX2 analytically  !
 ! R13   R(9,10)                 1.0272         calculate D2E/DX2 analytically  !
 ! R14   R(9,11)                 1.0319         calculate D2E/DX2 analytically  !
 ! R15   R(14,15)                1.4025         calculate D2E/DX2 analytically  !
 ! R16   R(14,19)                1.403          calculate D2E/DX2 analytically  !
 ! R17   R(15,16)                1.3965         calculate D2E/DX2 analytically  !
 ! R18   R(15,20)                1.0887         calculate D2E/DX2 analytically  !
 ! R19   R(16,17)                1.3933         calculate D2E/DX2 analytically  !
 ! R20   R(16,21)                1.0871         calculate D2E/DX2 analytically  !
 ! R21   R(17,18)                1.3934         calculate D2E/DX2 analytically  !
 ! R22   R(17,22)                1.0872         calculate D2E/DX2 analytically  !
 ! R23   R(18,19)                1.3968         calculate D2E/DX2 analytically  !
 ! R24   R(18,23)                1.0871         calculate D2E/DX2 analytically  !
 ! R25   R(19,24)                1.088          calculate D2E/DX2 analytically  !
 ! R26   R(25,26)                1.4388         calculate D2E/DX2 analytically  !
 ! R27   R(25,27)                1.0118         calculate D2E/DX2 analytically  !
 ! R28   R(26,28)                1.0933         calculate D2E/DX2 analytically  !
 ! R29   R(26,29)                1.0932         calculate D2E/DX2 analytically  !
 ! R30   R(26,30)                1.0924         calculate D2E/DX2 analytically  !
 ! A1    A(2,1,4)              119.2977         calculate D2E/DX2 analytically  !
 ! A2    A(2,1,14)             120.1638         calculate D2E/DX2 analytically  !
 ! A3    A(4,1,14)             120.3242         calculate D2E/DX2 analytically  !
 ! A4    A(1,2,3)              122.3149         calculate D2E/DX2 analytically  !
 ! A5    A(1,2,25)             113.4496         calculate D2E/DX2 analytically  !
 ! A6    A(3,2,25)             124.1945         calculate D2E/DX2 analytically  !
 ! A7    A(1,4,9)              107.1618         calculate D2E/DX2 analytically  !
 ! A8    A(1,4,12)             119.737          calculate D2E/DX2 analytically  !
 ! A9    A(1,4,13)             122.0429         calculate D2E/DX2 analytically  !
 ! A10   A(9,4,12)              86.9335         calculate D2E/DX2 analytically  !
 ! A11   A(9,4,13)             103.0786         calculate D2E/DX2 analytically  !
 ! A12   A(12,4,13)            110.0243         calculate D2E/DX2 analytically  !
 ! A13   A(6,5,7)              108.85           calculate D2E/DX2 analytically  !
 ! A14   A(6,5,8)              108.7668         calculate D2E/DX2 analytically  !
 ! A15   A(6,5,9)              110.3791         calculate D2E/DX2 analytically  !
 ! A16   A(7,5,8)              108.6128         calculate D2E/DX2 analytically  !
 ! A17   A(7,5,9)              109.9879         calculate D2E/DX2 analytically  !
 ! A18   A(8,5,9)              110.2017         calculate D2E/DX2 analytically  !
 ! A19   A(4,9,5)              134.4812         calculate D2E/DX2 analytically  !
 ! A20   A(4,9,10)             102.6885         calculate D2E/DX2 analytically  !
 ! A21   A(4,9,11)              99.8004         calculate D2E/DX2 analytically  !
 ! A22   A(5,9,10)             106.9268         calculate D2E/DX2 analytically  !
 ! A23   A(5,9,11)             106.6355         calculate D2E/DX2 analytically  !
 ! A24   A(10,9,11)            102.2303         calculate D2E/DX2 analytically  !
 ! A25   A(1,14,15)            120.0524         calculate D2E/DX2 analytically  !
 ! A26   A(1,14,19)            121.1561         calculate D2E/DX2 analytically  !
 ! A27   A(15,14,19)           118.7735         calculate D2E/DX2 analytically  !
 ! A28   A(14,15,16)           120.6063         calculate D2E/DX2 analytically  !
 ! A29   A(14,15,20)           120.3757         calculate D2E/DX2 analytically  !
 ! A30   A(16,15,20)           119.0145         calculate D2E/DX2 analytically  !
 ! A31   A(15,16,17)           120.043          calculate D2E/DX2 analytically  !
 ! A32   A(15,16,21)           119.9017         calculate D2E/DX2 analytically  !
 ! A33   A(17,16,21)           120.0551         calculate D2E/DX2 analytically  !
 ! A34   A(16,17,18)           119.9552         calculate D2E/DX2 analytically  !
 ! A35   A(16,17,22)           120.0055         calculate D2E/DX2 analytically  !
 ! A36   A(18,17,22)           120.0393         calculate D2E/DX2 analytically  !
 ! A37   A(17,18,19)           120.0693         calculate D2E/DX2 analytically  !
 ! A38   A(17,18,23)           119.9742         calculate D2E/DX2 analytically  !
 ! A39   A(19,18,23)           119.9565         calculate D2E/DX2 analytically  !
 ! A40   A(14,19,18)           120.5513         calculate D2E/DX2 analytically  !
 ! A41   A(14,19,24)           120.5858         calculate D2E/DX2 analytically  !
 ! A42   A(18,19,24)           118.8619         calculate D2E/DX2 analytically  !
 ! A43   A(2,25,26)            121.3346         calculate D2E/DX2 analytically  !
 ! A44   A(2,25,27)            118.9233         calculate D2E/DX2 analytically  !
 ! A45   A(26,25,27)           118.9457         calculate D2E/DX2 analytically  !
 ! A46   A(25,26,28)           110.5197         calculate D2E/DX2 analytically  !
 ! A47   A(25,26,29)           108.557          calculate D2E/DX2 analytically  !
 ! A48   A(25,26,30)           108.5812         calculate D2E/DX2 analytically  !
 ! A49   A(28,26,29)           109.457          calculate D2E/DX2 analytically  !
 ! A50   A(28,26,30)           109.9632         calculate D2E/DX2 analytically  !
 ! A51   A(29,26,30)           109.7381         calculate D2E/DX2 analytically  !
 ! D1    D(4,1,2,3)             49.1418         calculate D2E/DX2 analytically  !
 ! D2    D(4,1,2,25)          -133.0961         calculate D2E/DX2 analytically  !
 ! D3    D(14,1,2,3)          -125.5571         calculate D2E/DX2 analytically  !
 ! D4    D(14,1,2,25)           52.2051         calculate D2E/DX2 analytically  !
 ! D5    D(2,1,4,9)            -90.7057         calculate D2E/DX2 analytically  !
 ! D6    D(2,1,4,12)           172.8674         calculate D2E/DX2 analytically  !
 ! D7    D(2,1,4,13)            27.5036         calculate D2E/DX2 analytically  !
 ! D8    D(14,1,4,9)            83.9844         calculate D2E/DX2 analytically  !
 ! D9    D(14,1,4,12)          -12.4424         calculate D2E/DX2 analytically  !
 ! D10   D(14,1,4,13)         -157.8063         calculate D2E/DX2 analytically  !
 ! D11   D(2,1,14,15)           47.5529         calculate D2E/DX2 analytically  !
 ! D12   D(2,1,14,19)         -130.8817         calculate D2E/DX2 analytically  !
 ! D13   D(4,1,14,15)         -127.091          calculate D2E/DX2 analytically  !
 ! D14   D(4,1,14,19)           54.4743         calculate D2E/DX2 analytically  !
 ! D15   D(1,2,25,26)         -175.0909         calculate D2E/DX2 analytically  !
 ! D16   D(1,2,25,27)           -5.4202         calculate D2E/DX2 analytically  !
 ! D17   D(3,2,25,26)            2.6225         calculate D2E/DX2 analytically  !
 ! D18   D(3,2,25,27)          172.2932         calculate D2E/DX2 analytically  !
 ! D19   D(1,4,9,5)            -76.1611         calculate D2E/DX2 analytically  !
 ! D20   D(1,4,9,10)           154.0923         calculate D2E/DX2 analytically  !
 ! D21   D(1,4,9,11)            49.0666         calculate D2E/DX2 analytically  !
 ! D22   D(12,4,9,5)            44.0598         calculate D2E/DX2 analytically  !
 ! D23   D(12,4,9,10)          -85.6868         calculate D2E/DX2 analytically  !
 ! D24   D(12,4,9,11)          169.2875         calculate D2E/DX2 analytically  !
 ! D25   D(13,4,9,5)           153.9121         calculate D2E/DX2 analytically  !
 ! D26   D(13,4,9,10)           24.1655         calculate D2E/DX2 analytically  !
 ! D27   D(13,4,9,11)          -80.8602         calculate D2E/DX2 analytically  !
 ! D28   D(6,5,9,4)            178.1429         calculate D2E/DX2 analytically  !
 ! D29   D(6,5,9,10)           -53.4919         calculate D2E/DX2 analytically  !
 ! D30   D(6,5,9,11)            55.2944         calculate D2E/DX2 analytically  !
 ! D31   D(7,5,9,4)            -61.7329         calculate D2E/DX2 analytically  !
 ! D32   D(7,5,9,10)            66.6323         calculate D2E/DX2 analytically  !
 ! D33   D(7,5,9,11)           175.4186         calculate D2E/DX2 analytically  !
 ! D34   D(8,5,9,4)             57.985          calculate D2E/DX2 analytically  !
 ! D35   D(8,5,9,10)          -173.6498         calculate D2E/DX2 analytically  !
 ! D36   D(8,5,9,11)           -64.8635         calculate D2E/DX2 analytically  !
 ! D37   D(1,14,15,16)        -178.8957         calculate D2E/DX2 analytically  !
 ! D38   D(1,14,15,20)           1.7968         calculate D2E/DX2 analytically  !
 ! D39   D(19,14,15,16)         -0.424          calculate D2E/DX2 analytically  !
 ! D40   D(19,14,15,20)       -179.7315         calculate D2E/DX2 analytically  !
 ! D41   D(1,14,19,18)         178.8607         calculate D2E/DX2 analytically  !
 ! D42   D(1,14,19,24)          -0.7663         calculate D2E/DX2 analytically  !
 ! D43   D(15,14,19,18)          0.4065         calculate D2E/DX2 analytically  !
 ! D44   D(15,14,19,24)       -179.2205         calculate D2E/DX2 analytically  !
 ! D45   D(14,15,16,17)          0.2129         calculate D2E/DX2 analytically  !
 ! D46   D(14,15,16,21)       -179.6096         calculate D2E/DX2 analytically  !
 ! D47   D(20,15,16,17)        179.5297         calculate D2E/DX2 analytically  !
 ! D48   D(20,15,16,21)         -0.2928         calculate D2E/DX2 analytically  !
 ! D49   D(15,16,17,18)          0.0232         calculate D2E/DX2 analytically  !
 ! D50   D(15,16,17,22)       -179.898          calculate D2E/DX2 analytically  !
 ! D51   D(21,16,17,18)        179.8455         calculate D2E/DX2 analytically  !
 ! D52   D(21,16,17,22)         -0.0757         calculate D2E/DX2 analytically  !
 ! D53   D(16,17,18,19)         -0.0404         calculate D2E/DX2 analytically  !
 ! D54   D(16,17,18,23)        179.9442         calculate D2E/DX2 analytically  !
 ! D55   D(22,17,18,19)        179.8808         calculate D2E/DX2 analytically  !
 ! D56   D(22,17,18,23)         -0.1346         calculate D2E/DX2 analytically  !
 ! D57   D(17,18,19,14)         -0.1782         calculate D2E/DX2 analytically  !
 ! D58   D(17,18,19,24)        179.4552         calculate D2E/DX2 analytically  !
 ! D59   D(23,18,19,14)        179.8372         calculate D2E/DX2 analytically  !
 ! D60   D(23,18,19,24)         -0.5294         calculate D2E/DX2 analytically  !
 ! D61   D(2,25,26,28)         -38.8072         calculate D2E/DX2 analytically  !
 ! D62   D(2,25,26,29)          81.2469         calculate D2E/DX2 analytically  !
 ! D63   D(2,25,26,30)        -159.4988         calculate D2E/DX2 analytically  !
 ! D64   D(27,25,26,28)        151.5243         calculate D2E/DX2 analytically  !
 ! D65   D(27,25,26,29)        -88.4216         calculate D2E/DX2 analytically  !
 ! D66   D(27,25,26,30)         30.8328         calculate D2E/DX2 analytically  !
 --------------------------------------------------------------------------------
 Trust Radius=1.00D-01 FncErr=1.00D-07 GrdErr=1.00D-07 EigMax=2.50D+02 EigMin=1.00D-04
 Number of steps in this run=     50 maximum allowed number of steps=    180.
 Search for a saddle point of order  1.
 GradGradGradGradGradGradGradGradGradGradGradGradGradGradGradGradGradGrad

                          Input orientation:                          
 ---------------------------------------------------------------------
 Center     Atomic      Atomic             Coordinates (Angstroms)
 Number     Number       Type             X           Y           Z
 ---------------------------------------------------------------------
      1          6           0        0.061770    0.162220   -0.059870
      2          6           0       -0.400740    1.455840    0.531630
      3          8           0       -1.154290    1.502540    1.497810
      4          6           0       -0.853670   -0.805020   -0.345820
      5          6           0       -0.177660   -2.940690    1.773980
      6          1           0       -0.631180   -3.300640    2.701800
      7          1           0       -0.079380   -3.779890    1.080050
      8          1           0        0.820180   -2.553820    1.997230
      9          7           0       -1.005460   -1.890120    1.175440
     10          1           0       -1.954930   -2.271800    1.086500
     11          1           0       -1.128690   -1.163600    1.897830
     12          1           0       -0.541880   -1.705520   -0.884850
     13         35           0       -2.677900   -0.387460   -0.764800
     14          6           0        1.508340   -0.106680   -0.221430
     15          6           0        2.390430    0.133350    0.842190
     16          6           0        3.760310   -0.094500    0.695050
     17          6           0        4.263660   -0.560340   -0.517780
     18          6           0        3.399240   -0.798390   -1.584390
     19          6           0        2.028760   -0.571310   -1.438660
     20          1           0        2.014270    0.490020    1.799600
     21          1           0        4.432910    0.089370    1.529030
     22          1           0        5.330050   -0.739100   -0.631140
     23          1           0        3.791750   -1.160990   -2.531100
     24          1           0        1.372850   -0.755160   -2.286980
     25          7           0        0.139350    2.562680   -0.082070
     26          6           0       -0.107450    3.889620    0.416320
     27          1           0        0.842870    2.431190   -0.797290
     28          1           0       -1.141520    3.984350    0.758360
     29          1           0        0.571310    4.079210    1.251980
     30          1           0        0.086870    4.604650   -0.386330
 ---------------------------------------------------------------------
                    Distance matrix (angstroms):
                    1          2          3          4          5
     1  C    0.000000
     2  C    1.495741   0.000000
     3  O    2.387808   1.226182   0.000000
     4  C    1.362113   2.467094   2.968868   0.000000
     5  C    3.612255   4.574131   4.557671   3.084093   0.000000
     6  H    4.483124   5.233244   4.979335   3.945327   1.093661
     7  H    4.106041   5.274173   5.406850   3.388581   1.093368
     8  H    3.490519   4.440271   4.538944   3.368970   1.093249
     9  N    2.622417   3.460582   3.411190   1.874757   1.465333
    10  H    3.362394   4.076602   3.880186   2.327178   2.019587
    11  H    2.647184   3.042676   2.696103   2.288707   2.019368
    12  H    2.129187   3.467064   4.042742   1.094836   2.954264
    13  Br   2.881816   3.203739   3.318568   1.917737   4.383559
    14  C    1.480194   2.579371   3.554571   2.466220   3.854331
    15  C    2.497439   3.104200   3.856107   3.579957   4.112547
    16  C    3.783518   4.443489   5.229556   4.782997   4.977198
    17  C    4.288083   5.188725   6.137773   5.126061   5.535662
    18  C    3.792840   4.898871   5.960610   4.429599   5.353719
    19  C    2.511609   3.727446   4.801616   3.091492   4.561064
    20  H    2.716126   2.893584   3.340067   3.808548   4.071239
    21  H    4.651535   5.121154   5.763231   5.680046   5.522556
    22  H    5.375268   6.245939   7.183595   6.190650   6.400505
    23  H    4.665899   5.814214   6.913018   5.146075   6.120234
    24  H    2.742360   3.997337   5.080185   2.954315   4.865390
    25  N    2.401816   1.376016   2.300744   3.520945   5.816571
    26  C    3.761503   2.454099   2.821993   4.814286   6.964288
    27  H    2.510404   2.064922   3.180963   3.681729   6.042351
    28  H    4.089754   2.644527   2.589658   4.923427   7.065174
    29  H    4.162138   2.888919   3.110845   5.332845   7.079014
    30  H    4.454480   3.315934   3.835824   5.490973   7.852966
                    6          7          8          9         10
     6  H    0.000000
     7  H    1.778830   0.000000
     8  H    1.777809   1.775859   0.000000
     9  N    2.111736   2.106645   2.109217   0.000000
    10  H    2.328094   2.406671   2.934314   1.027172   0.000000
    11  H    2.336841   2.935096   2.395973   1.031923   1.602821
    12  H    3.926378   2.894434   3.298667   2.119853   2.490704
    13  Br   4.969205   4.654499   4.955652   2.969777   2.738747
    14  C    4.829513   4.207990   3.374094   3.383947   4.288667
    15  C    4.937668   4.633572   3.319742   3.967059   4.972584
    16  C    5.795823   5.336061   4.048246   5.115427   6.128445
    17  C    6.467952   5.637425   4.707100   5.692006   6.646328
    18  C    6.393510   5.299941   4.749851   5.311301   6.162120
    19  C    5.627427   4.591638   4.146848   4.216547   5.013770
    20  H    4.709721   4.809704   3.275648   3.895306   4.887812
    21  H    6.205849   5.961000   4.500831   5.798213   6.824621
    22  H    7.294261   6.437120   5.526343   6.687845   7.640052
    23  H    7.177998   5.906326   5.592493   6.106005   6.880789
    24  H    5.948406   4.753405   4.679218   4.351189   4.975408
    25  N    6.536220   6.451865   5.564673   4.766482   5.396644
    26  C    7.562906   7.698228   6.699081   5.898142   6.467258
    27  H    6.875342   6.553813   5.714909   5.097225   5.787440
    28  H    7.557016   7.843153   6.937632   5.890829   6.317335
    29  H    7.616439   7.887865   6.679403   6.174541   6.837002
    30  H    8.517379   8.513426   7.580422   6.768630   7.322823
                   11         12         13         14         15
    11  H    0.000000
    12  H    2.895053   0.000000
    13  Br   3.176798   2.512822   0.000000
    14  C    3.544329   2.683248   4.230685   0.000000
    15  C    3.896237   3.868146   5.342437   1.402492   0.000000
    16  C    5.147036   4.858015   6.608142   2.431348   1.396473
    17  C    5.939405   4.953725   6.948105   2.808099   2.416550
    18  C    5.723756   4.104226   6.145911   2.431383   2.788212
    19  C    4.631680   2.863796   4.758207   1.402985   2.414462
    20  H    3.552788   4.308198   5.418725   2.167159   1.088735
    21  H    5.712910   5.813517   7.486831   3.414038   2.155321
    22  H    6.949188   5.956333   8.016781   3.895290   3.401946
    23  H    6.620133   4.667655   6.750891   3.414690   3.875319
    24  H    4.892562   2.556432   4.342903   2.169189   3.408317
    25  N    4.406029   4.396142   4.135982   3.003171   3.438497
    26  C    5.364032   5.760848   5.127930   4.357513   4.531041
    27  H    4.906448   4.363206   4.510173   2.686122   3.219147
    28  H    5.272565   5.952674   4.877828   4.971747   5.226079
    29  H    5.549250   6.266445   5.880128   4.535486   4.364280
    30  H    6.322000   6.360982   5.719122   4.923860   5.177661
                   16         17         18         19         20
    16  C    0.000000
    17  C    1.393314   0.000000
    18  C    2.412816   1.393394   0.000000
    19  C    2.788966   2.417213   1.396788   0.000000
    20  H    2.147173   3.396066   3.876794   3.407779   0.000000
    21  H    1.087070   2.154112   3.398526   3.876031   2.466485
    22  H    2.153688   1.087195   2.154119   3.402757   4.291111
    23  H    3.398004   2.153355   1.087107   2.156219   4.963893
    24  H    3.876718   3.394820   2.145171   1.087964   4.319957
    25  N    4.558056   5.191631   4.917381   3.902832   3.369262
    26  C    5.559719   6.307241   6.186853   5.282446   4.239391
    27  H    4.137348   4.552931   4.193416   3.291306   3.447341
    28  H    6.377222   7.176260   6.998684   5.969222   4.822192
    29  H    5.282021   6.187966   6.311352   5.566960   3.906956
    30  H    6.061811   6.643792   6.449805   5.627513   5.042156
                   21         22         23         24         25
    21  H    0.000000
    22  H    2.481443   0.000000
    23  H    4.296410   2.480767   0.000000
    24  H    4.963782   4.289696   2.464827   0.000000
    25  N    5.210332   6.176293   5.762247   4.170277   0.000000
    26  C    6.024524   7.217245   7.028492   5.574325   1.438775
    27  H    4.876912   5.496647   4.960418   3.557089   1.011815
    28  H    6.843908   8.131599   7.850619   6.169206   2.089999
    29  H    5.559455   7.029072   7.220985   6.044654   2.065464
    30  H    6.553199   7.490429   7.181140   5.830418   2.065180
                   26         27         28         29         30
    26  C    0.000000
    27  H    2.122022   0.000000
    28  H    1.093282   2.961445   0.000000
    29  H    1.093155   2.643714   1.785062   0.000000
    30  H    1.092371   2.337595   1.789980   1.787408   0.000000
 Stoichiometry    C11H15BrN2O
 Framework group  C1[X(C11H15BrN2O)]
 Deg. of freedom    84
 Full point group                 C1      NOp   1
 Largest Abelian subgroup         C1      NOp   1
 Largest concise Abelian subgroup C1      NOp   1
                         Standard orientation:                         
 ---------------------------------------------------------------------
 Center     Atomic      Atomic             Coordinates (Angstroms)
 Number     Number       Type             X           Y           Z
 ---------------------------------------------------------------------
      1          6           0        0.061771    0.162220   -0.059871
      2          6           0       -0.400741    1.455839    0.531629
      3          8           0       -1.154291    1.502538    1.497809
      4          6           0       -0.853668   -0.805021   -0.345821
      5          6           0       -0.177655   -2.940690    1.773979
      6          1           0       -0.631175   -3.300641    2.701799
      7          1           0       -0.079374   -3.779890    1.080049
      8          1           0        0.820184   -2.553819    1.997229
      9          7           0       -1.005456   -1.890121    1.175439
     10          1           0       -1.954926   -2.271803    1.086499
     11          1           0       -1.128687   -1.163601    1.897829
     12          1           0       -0.541877   -1.705521   -0.884851
     13         35           0       -2.677898   -0.387463   -0.764801
     14          6           0        1.508341   -0.106678   -0.221431
     15          6           0        2.390431    0.133353    0.842189
     16          6           0        3.760311   -0.094495    0.695049
     17          6           0        4.263662   -0.560335   -0.517781
     18          6           0        3.399242   -0.798386   -1.584391
     19          6           0        2.028762   -0.571308   -1.438661
     20          1           0        2.014271    0.490022    1.799599
     21          1           0        4.432911    0.089375    1.529029
     22          1           0        5.330052   -0.739093   -0.631141
     23          1           0        3.791753   -1.160985   -2.531101
     24          1           0        1.372852   -0.755158   -2.286981
     25          7           0        0.139348    2.562680   -0.082071
     26          6           0       -0.107454    3.889620    0.416319
     27          1           0        0.842868    2.431191   -0.797291
     28          1           0       -1.141524    3.984349    0.758359
     29          1           0        0.571306    4.079211    1.251979
     30          1           0        0.086865    4.604650   -0.386331
 ---------------------------------------------------------------------
 Rotational constants (GHZ):           0.5707058           0.3130453           0.2543192
 Standard basis: STO-3G (5D, 7F)
 There are   104 symmetry adapted cartesian basis functions of A   symmetry.
 There are   103 symmetry adapted basis functions of A   symmetry.
   103 basis functions,   312 primitive gaussians,   104 cartesian basis functions
    69 alpha electrons       69 beta electrons
       nuclear repulsion energy      1347.9991246151 Hartrees.
 NAtoms=   30 NActive=   30 NUniq=   30 SFac= 1.00D+00 NAtFMM=   60 NAOKFM=F Big=F
 Integral buffers will be    131072 words long.
 Raffenetti 1 integral format.
 Two-electron integral symmetry is turned on.
 External calculation of energy, first and second derivatives.
 Running external command "~/scripts/MiMe -H 'hf def2svp' -EF 'wb97xd def2svp' -c 12 -m 48GB R"
         input file       "/local/jobs/1157680/Gau-3135699.EIn"
         output file      "/local/jobs/1157680/Gau-3135699.EOu"
         message file     "/local/jobs/1157680/Gau-3135699.EMs"
         fchk file        "/local/jobs/1157680/Gau-3135699.EFC"
         mat. el file     "/local/jobs/1157680/Gau-3135699.EUF"
 Read checkpoint file Gau-3135699_H.chk type G16
 Write formatted file Gau-3135699_H.fchk

deriv: 2

spelevel: wb97xd def2svp
gradlevel: wb97xd def2svp
hesslevel: hf def2svp

runspe: False
runforce: True
runfreq: True

Running Gaussian ...

Parsing files ...
SPE file: Gau-3135699_F.out
FORCE file: Gau-3135699_F.out
HESS file: Gau-3135699_H.out

 ExternalExternalExternalExternalExternalExternalExternalExternalExternalExternal
 Output from external command:
 "~/scripts/MiMe -H 'hf def2svp' -EF 'wb97xd def2svp' -c 12 -m 48GB R /local/jobs/1157680/Gau-3135699.EIn /local/jobs/1157680/Gau-3135699.EOu /local/jobs/1157680/Gau-3135699.EMs /local/jobs/1157680/Gau-3135699.EFC /local/jobs/1157680/Gau-3135699.EUF"
  
 --------------------------------------------------
 Force calculation at wb97xd def2svp
 Hessian calculation at hf def2svp
 ExternalExternalExternalExternalExternalExternalExternalExternalExternalExternal

 Recovered energy= -3186.12941520     dipole=      1.200900000000     -3.104500000000      0.376200000000
 Energy=    -3186.12942     NIter=   0.
 Dipole moment=       1.200900      -3.104500       0.376200
 ***** Axes restored to original set *****
 -------------------------------------------------------------------
 Center     Atomic                   Forces (Hartrees/Bohr)
 Number     Number              X              Y              Z
 -------------------------------------------------------------------
      1        6          -0.001720372    0.021014517   -0.012066100
      2        6           0.018747369   -0.009361337   -0.001782190
      3        8          -0.002427398    0.008060121   -0.006357442
      4        6           0.022972178   -0.002259832   -0.024519171
      5        6           0.004553538    0.003164048   -0.009007489
      6        1           0.000023169   -0.003614399    0.004773783
      7        1           0.001140051   -0.002945186   -0.002416408
      8        1           0.003391391    0.002005216   -0.000592329
      9        7          -0.040868928   -0.021046559    0.053559972
     10        1           0.002033591    0.000183013   -0.000333819
     11        1           0.002047528    0.002885873   -0.009297876
     12        1           0.000818244    0.007896110   -0.009008446
     13       35           0.000196220   -0.003137862    0.004975389
     14        6          -0.011077958    0.004107306   -0.002121278
     15        6           0.010643485   -0.001658333   -0.001884103
     16        6          -0.006059152    0.000699692   -0.002989362
     17        6           0.000616557   -0.000349538   -0.000047287
     18        6          -0.005080430    0.000096115    0.004789660
     19        6           0.011465596   -0.003685447    0.001094326
     20        1          -0.003482082    0.001421633    0.001667977
     21        1           0.002391962    0.000713404    0.003013846
     22        1           0.003705661   -0.000411738   -0.000499207
     23        1           0.001292009   -0.000959245   -0.003576982
     24        1          -0.004188348    0.001177728   -0.001282472
     25        7          -0.013916840   -0.007728269    0.008792708
     26        6           0.007391777   -0.006510149   -0.002173872
     27        1          -0.002856317   -0.003042485    0.000239075
     28        1          -0.002366730   -0.000466849    0.001270424
     29        1           0.000934091    0.008793299    0.006859288
     30        1          -0.000319866    0.004959152   -0.001080613
 -------------------------------------------------------------------
 Cartesian Forces:  Max     0.053559972 RMS     0.009953923
 FormGI is forming the generalized inverse of G from B-inverse, IUseBI=4.

 GradGradGradGradGradGradGradGradGradGradGradGradGradGradGradGradGradGrad
 Berny optimization.
 Internal  Forces:  Max     0.043217533 RMS     0.006088063
 Search for a saddle point.
 Step number   1 out of a maximum of   50
 All quantities printed in internal units (Hartrees-Bohrs-Radians)
 Swapping is turned off.
 Second derivative matrix not updated -- analytic derivatives used.
 ITU=  0
     Eigenvalues ---   -0.07708   0.00364   0.00393   0.00638   0.00859
     Eigenvalues ---    0.01056   0.01446   0.02087   0.02116   0.02348
     Eigenvalues ---    0.02384   0.02536   0.02719   0.03028   0.03157
     Eigenvalues ---    0.03387   0.03517   0.03705   0.03918   0.04234
     Eigenvalues ---    0.04777   0.05838   0.05924   0.06440   0.07006
     Eigenvalues ---    0.07360   0.07480   0.07930   0.08518   0.11589
     Eigenvalues ---    0.12315   0.12908   0.13493   0.13696   0.14036
     Eigenvalues ---    0.14527   0.14559   0.15005   0.15568   0.15952
     Eigenvalues ---    0.16543   0.19834   0.20623   0.21141   0.21308
     Eigenvalues ---    0.21475   0.21970   0.22038   0.22458   0.22631
     Eigenvalues ---    0.22644   0.24000   0.26347   0.27716   0.29141
     Eigenvalues ---    0.32777   0.33211   0.36052   0.36203   0.36221
     Eigenvalues ---    0.36683   0.36924   0.36961   0.37189   0.38056
     Eigenvalues ---    0.38253   0.38520   0.38541   0.38675   0.39248
     Eigenvalues ---    0.39476   0.41286   0.42804   0.44021   0.44676
     Eigenvalues ---    0.46824   0.47445   0.47733   0.49276   0.51914
     Eigenvalues ---    0.52309   0.55646   0.60782   0.83640
 Eigenvectors required to have negative eigenvalues:
                          R6        A19       A10       D7        D5
   1                   -0.77946  -0.30452   0.20277   0.17744   0.17683
                          D10       D8        A20       R2        A21
   1                    0.17462   0.17401   0.15849   0.13506   0.11122
 RFO step:  Lambda0=1.772875767D-03 Lambda=-3.24679176D-02.
 Linear search not attempted -- option 19 set.
 Maximum step size (   0.100) exceeded in Quadratic search.
    -- Step size scaled by   0.244
 Iteration  1 RMS(Cart)=  0.02975564 RMS(Int)=  0.00043809
 Iteration  2 RMS(Cart)=  0.00081907 RMS(Int)=  0.00010542
 Iteration  3 RMS(Cart)=  0.00000035 RMS(Int)=  0.00010542
 Variable       Old X    -DE/DX   Delta X   Delta X   Delta X     New X
                                 (Linear)    (Quad)   (Total)
    R1        2.82654  -0.00391   0.00000  -0.00375  -0.00375   2.82279
    R2        2.57402   0.01276   0.00000   0.00253   0.00253   2.57655
    R3        2.79716   0.00022   0.00000   0.00016   0.00016   2.79732
    R4        2.31715  -0.00321   0.00000   0.00082   0.00082   2.31797
    R5        2.60029  -0.01378   0.00000  -0.00723  -0.00723   2.59307
    R6        3.54278   0.04322   0.00000   0.03569   0.03569   3.57847
    R7        2.06894  -0.00183   0.00000  -0.00045  -0.00045   2.06849
    R8        3.62400  -0.00196   0.00000   0.00291   0.00291   3.62691
    R9        2.06672   0.00523   0.00000   0.00346   0.00346   2.07018
   R10        2.06617   0.00390   0.00000   0.00255   0.00255   2.06872
   R11        2.06594   0.00368   0.00000   0.00252   0.00252   2.06846
   R12        2.76908   0.00318   0.00000  -0.00545  -0.00545   2.76363
   R13        1.94107  -0.00192   0.00000  -0.00201  -0.00201   1.93906
   R14        1.95005  -0.00472   0.00000  -0.00267  -0.00267   1.94738
   R15        2.65033   0.00324   0.00000   0.00213   0.00213   2.65246
   R16        2.65126   0.00253   0.00000   0.00099   0.00099   2.65224
   R17        2.63895  -0.00157   0.00000  -0.00166  -0.00166   2.63729
   R18        2.05741   0.00314   0.00000   0.00197   0.00197   2.05938
   R19        2.63298   0.00130   0.00000   0.00097   0.00097   2.63395
   R20        2.05426   0.00391   0.00000   0.00231   0.00231   2.05658
   R21        2.63313   0.00118   0.00000   0.00022   0.00022   2.63335
   R22        2.05450   0.00375   0.00000   0.00204   0.00204   2.05654
   R23        2.63955  -0.00154   0.00000  -0.00103  -0.00103   2.63852
   R24        2.05434   0.00390   0.00000   0.00228   0.00228   2.05662
   R25        2.05595   0.00332   0.00000   0.00210   0.00210   2.05805
   R26        2.71889   0.00697   0.00000   0.00142   0.00142   2.72031
   R27        1.91205  -0.00176   0.00000  -0.00050  -0.00050   1.91156
   R28        2.06600   0.00260   0.00000   0.00175   0.00175   2.06775
   R29        2.06576   0.00735   0.00000   0.00436   0.00436   2.07012
   R30        2.06428   0.00398   0.00000   0.00236   0.00236   2.06665
    A1        2.08214   0.00373   0.00000  -0.00233  -0.00234   2.07979
    A2        2.09725  -0.00164   0.00000  -0.00185  -0.00187   2.09539
    A3        2.10005  -0.00232   0.00000   0.00327   0.00326   2.10331
    A4        2.13480   0.00464   0.00000   0.00164   0.00163   2.13643
    A5        1.98007   0.00951   0.00000   0.00668   0.00668   1.98674
    A6        2.16760  -0.01408   0.00000  -0.00812  -0.00813   2.15948
    A7        1.87033   0.01515   0.00000   0.01170   0.01169   1.88202
    A8        2.08981  -0.00434   0.00000  -0.00505  -0.00533   2.08447
    A9        2.13005   0.00137   0.00000   0.00177   0.00175   2.13180
   A10        1.51728   0.00946   0.00000   0.02489   0.02490   1.54218
   A11        1.79906  -0.01970   0.00000  -0.03071  -0.03069   1.76837
   A12        1.92029  -0.00030   0.00000   0.00063   0.00090   1.92119
   A13        1.89979  -0.00165   0.00000  -0.00159  -0.00159   1.89820
   A14        1.89834  -0.00066   0.00000  -0.00117  -0.00117   1.89717
   A15        1.92648   0.00484   0.00000   0.00664   0.00663   1.93311
   A16        1.89565  -0.00005   0.00000  -0.00112  -0.00112   1.89453
   A17        1.91965   0.00008   0.00000  -0.00125  -0.00125   1.91840
   A18        1.92338  -0.00265   0.00000  -0.00164  -0.00164   1.92174
   A19        2.34714  -0.02335   0.00000  -0.06602  -0.06606   2.28108
   A20        1.79225   0.00915   0.00000   0.03068   0.03091   1.82316
   A21        1.74185   0.00014   0.00000   0.00304   0.00272   1.74457
   A22        1.86622   0.00680   0.00000   0.01705   0.01726   1.88349
   A23        1.86114   0.01241   0.00000   0.02197   0.02124   1.88238
   A24        1.78426  -0.00155   0.00000   0.00828   0.00790   1.79216
   A25        2.09531   0.00107   0.00000   0.00172   0.00172   2.09702
   A26        2.11457   0.00353   0.00000   0.00231   0.00231   2.11688
   A27        2.07299  -0.00459   0.00000  -0.00401  -0.00401   2.06898
   A28        2.10498   0.00232   0.00000   0.00204   0.00204   2.10701
   A29        2.10095  -0.00386   0.00000  -0.00425  -0.00425   2.09670
   A30        2.07719   0.00155   0.00000   0.00222   0.00222   2.07941
   A31        2.09515   0.00102   0.00000   0.00105   0.00105   2.09619
   A32        2.09268  -0.00056   0.00000  -0.00073  -0.00073   2.09195
   A33        2.09536  -0.00046   0.00000  -0.00032  -0.00032   2.09503
   A34        2.09361  -0.00225   0.00000  -0.00229  -0.00230   2.09132
   A35        2.09449   0.00116   0.00000   0.00119   0.00119   2.09568
   A36        2.09508   0.00109   0.00000   0.00110   0.00110   2.09618
   A37        2.09560   0.00108   0.00000   0.00097   0.00097   2.09657
   A38        2.09394  -0.00036   0.00000   0.00006   0.00006   2.09400
   A39        2.09364  -0.00072   0.00000  -0.00102  -0.00103   2.09261
   A40        2.10402   0.00242   0.00000   0.00225   0.00225   2.10627
   A41        2.10462  -0.00422   0.00000  -0.00512  -0.00512   2.09949
   A42        2.07453   0.00180   0.00000   0.00286   0.00286   2.07739
   A43        2.11769   0.00270   0.00000   0.00320   0.00320   2.12089
   A44        2.07560  -0.00436   0.00000  -0.00514  -0.00514   2.07046
   A45        2.07599   0.00170   0.00000   0.00230   0.00230   2.07830
   A46        1.92893  -0.00412   0.00000  -0.00369  -0.00369   1.92525
   A47        1.89468   0.01255   0.00000   0.01202   0.01201   1.90669
   A48        1.89510   0.00317   0.00000   0.00272   0.00271   1.89781
   A49        1.91039  -0.00457   0.00000  -0.00493  -0.00492   1.90546
   A50        1.91922  -0.00157   0.00000  -0.00217  -0.00217   1.91705
   A51        1.91529  -0.00528   0.00000  -0.00376  -0.00379   1.91150
    D1        0.85769  -0.00473   0.00000  -0.01776  -0.01776   0.83992
    D2       -2.32296  -0.00315   0.00000  -0.01260  -0.01258  -2.33555
    D3       -2.19138  -0.00164   0.00000  -0.00682  -0.00685  -2.19823
    D4        0.91115  -0.00006   0.00000  -0.00166  -0.00167   0.90948
    D5       -1.58311   0.01435   0.00000   0.05432   0.05430  -1.52881
    D6        3.01711  -0.00472   0.00000   0.01893   0.01896   3.03607
    D7        0.48003   0.00168   0.00000   0.02387   0.02386   0.50389
    D8        1.46580   0.01130   0.00000   0.04308   0.04306   1.50886
    D9       -0.21716  -0.00777   0.00000   0.00769   0.00772  -0.20944
   D10       -2.75424  -0.00137   0.00000   0.01263   0.01262  -2.74162
   D11        0.82996  -0.00330   0.00000  -0.01486  -0.01486   0.81509
   D12       -2.28432  -0.00397   0.00000  -0.01516  -0.01517  -2.29948
   D13       -2.21816  -0.00050   0.00000  -0.00350  -0.00349  -2.22165
   D14        0.95076  -0.00117   0.00000  -0.00381  -0.00380   0.94696
   D15       -3.05591   0.00039   0.00000   0.00212   0.00213  -3.05378
   D16       -0.09460   0.00081   0.00000   0.00468   0.00468  -0.08992
   D17        0.04577   0.00250   0.00000   0.00765   0.00765   0.05342
   D18        3.00708   0.00293   0.00000   0.01021   0.01020   3.01728
   D19       -1.32926  -0.00069   0.00000   0.00448   0.00412  -1.32514
   D20        2.68942  -0.00034   0.00000   0.00231   0.00232   2.69174
   D21        0.85637  -0.00094   0.00000  -0.01459  -0.01451   0.84186
   D22        0.76899  -0.00038   0.00000   0.00866   0.00858   0.77757
   D23       -1.49552  -0.00003   0.00000   0.00649   0.00678  -1.48874
   D24        2.95462  -0.00063   0.00000  -0.01041  -0.01006   2.94457
   D25        2.68627   0.00094   0.00000   0.01415   0.01378   2.70006
   D26        0.42177   0.00129   0.00000   0.01198   0.01198   0.43375
   D27       -1.41128   0.00069   0.00000  -0.00492  -0.00485  -1.41613
   D28        3.10918  -0.00212   0.00000  -0.01244  -0.01253   3.09665
   D29       -0.93361  -0.00249   0.00000  -0.00799  -0.00807  -0.94168
   D30        0.96507   0.00386   0.00000   0.01777   0.01794   0.98301
   D31       -1.07744  -0.00102   0.00000  -0.01099  -0.01108  -1.08852
   D32        1.16295  -0.00140   0.00000  -0.00654  -0.00662   1.15633
   D33        3.06163   0.00495   0.00000   0.01922   0.01939   3.08102
   D34        1.01203  -0.00270   0.00000  -0.01419  -0.01428   0.99775
   D35       -3.03076  -0.00308   0.00000  -0.00974  -0.00982  -3.04058
   D36       -1.13208   0.00328   0.00000   0.01602   0.01619  -1.11589
   D37       -3.12232  -0.00049   0.00000  -0.00021  -0.00021  -3.12253
   D38        0.03136  -0.00085   0.00000  -0.00077  -0.00077   0.03059
   D39       -0.00740   0.00029   0.00000   0.00019   0.00019  -0.00721
   D40       -3.13691  -0.00007   0.00000  -0.00038  -0.00038  -3.13728
   D41        3.12171   0.00098   0.00000   0.00181   0.00181   3.12352
   D42       -0.01337   0.00098   0.00000   0.00342   0.00342  -0.00996
   D43        0.00710   0.00024   0.00000   0.00142   0.00142   0.00851
   D44       -3.12799   0.00024   0.00000   0.00303   0.00303  -3.12496
   D45        0.00372  -0.00052   0.00000  -0.00134  -0.00134   0.00238
   D46       -3.13478  -0.00028   0.00000  -0.00032  -0.00032  -3.13510
   D47        3.13339  -0.00021   0.00000  -0.00083  -0.00083   3.13256
   D48       -0.00511   0.00004   0.00000   0.00019   0.00019  -0.00492
   D49        0.00041   0.00026   0.00000   0.00091   0.00091   0.00132
   D50       -3.13981   0.00007   0.00000  -0.00000  -0.00000  -3.13982
   D51        3.13890   0.00001   0.00000  -0.00011  -0.00011   3.13879
   D52       -0.00132  -0.00018   0.00000  -0.00102  -0.00102  -0.00234
   D53       -0.00071   0.00026   0.00000   0.00069   0.00069  -0.00002
   D54        3.14062  -0.00035   0.00000  -0.00203  -0.00204   3.13858
   D55        3.13951   0.00045   0.00000   0.00160   0.00160   3.14111
   D56       -0.00235  -0.00016   0.00000  -0.00112  -0.00112  -0.00347
   D57       -0.00311  -0.00053   0.00000  -0.00188  -0.00188  -0.00499
   D58        3.13208  -0.00055   0.00000  -0.00350  -0.00350   3.12858
   D59        3.13875   0.00008   0.00000   0.00084   0.00084   3.13959
   D60       -0.00924   0.00006   0.00000  -0.00078  -0.00078  -0.01002
   D61       -0.67731  -0.00070   0.00000   0.00110   0.00110  -0.67621
   D62        1.41803  -0.00093   0.00000   0.00036   0.00034   1.41837
   D63       -2.78378   0.00175   0.00000   0.00430   0.00432  -2.77946
   D64        2.64460  -0.00051   0.00000  -0.00071  -0.00071   2.64389
   D65       -1.54325  -0.00074   0.00000  -0.00145  -0.00147  -1.54472
   D66        0.53813   0.00193   0.00000   0.00249   0.00250   0.54063
         Item               Value     Threshold  Converged?
 Maximum Force            0.043218     0.000450     NO 
 RMS     Force            0.006088     0.000300     NO 
 Maximum Displacement     0.112992     0.001800     NO 
 RMS     Displacement     0.030072     0.001200     NO 
 Predicted change in Energy=-6.871755D-03
 GradGradGradGradGradGradGradGradGradGradGradGradGradGradGradGradGradGrad

                          Input orientation:                          
 ---------------------------------------------------------------------
 Center     Atomic      Atomic             Coordinates (Angstroms)
 Number     Number       Type             X           Y           Z
 ---------------------------------------------------------------------
      1          6           0        0.073509    0.149490   -0.074587
      2          6           0       -0.391942    1.435648    0.525798
      3          8           0       -1.152260    1.475066    1.487542
      4          6           0       -0.841098   -0.821682   -0.356236
      5          6           0       -0.201697   -2.907849    1.782742
      6          1           0       -0.626667   -3.283390    2.720012
      7          1           0       -0.094515   -3.744315    1.084713
      8          1           0        0.791514   -2.496074    1.987886
      9          7           0       -1.061766   -1.879045    1.199134
     10          1           0       -2.006449   -2.269891    1.111341
     11          1           0       -1.188483   -1.136801    1.902670
     12          1           0       -0.521195   -1.724337   -0.886354
     13         35           0       -2.664032   -0.411369   -0.794611
     14          6           0        1.521503   -0.112304   -0.235830
     15          6           0        2.405809    0.139250    0.824769
     16          6           0        3.775985   -0.081801    0.678361
     17          6           0        4.282512   -0.554733   -0.530984
     18          6           0        3.417286   -0.804862   -1.594321
     19          6           0        2.046472   -0.582611   -1.449523
     20          1           0        2.025712    0.501115    1.779858
     21          1           0        4.448248    0.112223    1.511908
     22          1           0        5.350848   -0.728514   -0.644098
     23          1           0        3.810425   -1.171498   -2.540604
     24          1           0        1.388061   -0.772402   -2.296021
     25          7           0        0.141529    2.550735   -0.069936
     26          6           0       -0.109840    3.871660    0.444083
     27          1           0        0.844092    2.427814   -0.787244
     28          1           0       -1.145607    3.955024    0.786900
     29          1           0        0.564353    4.066096    1.285329
     30          1           0        0.077865    4.599371   -0.350406
 ---------------------------------------------------------------------
                    Distance matrix (angstroms):
                    1          2          3          4          5
     1  C    0.000000
     2  C    1.493757   0.000000
     3  O    2.387449   1.226617   0.000000
     4  C    1.363453   2.464804   2.961654   0.000000
     5  C    3.587859   4.525712   4.494515   3.055513   0.000000
     6  H    4.481595   5.209509   4.943494   3.945794   1.095493
     7  H    4.066193   5.218512   5.340696   3.342979   1.094718
     8  H    3.430501   4.358521   4.449557   3.311181   1.094582
     9  N    2.650692   3.448077   3.367704   1.893644   1.462449
    10  H    3.403829   4.084178   3.859517   2.368361   2.028522
    11  H    2.675204   3.024524   2.644900   2.307083   2.030946
    12  H    2.126938   3.463579   4.033585   1.094600   2.937151
    13  Br   2.885676   3.212062   3.324502   1.919276   4.351811
    14  C    1.480278   2.576335   3.555104   2.469736   3.854753
    15  C    2.499714   3.097974   3.857918   3.586163   4.123301
    16  C    3.785334   4.438191   5.231272   4.789078   5.002815
    17  C    4.291845   5.189309   6.142580   5.133535   5.567640
    18  C    3.794895   4.901531   5.964622   4.434746   5.378118
    19  C    2.513763   3.731102   4.805443   3.096852   4.572585
    20  H    2.715456   2.879421   3.336695   3.811992   4.072148
    21  H    4.653676   5.113835   5.763994   5.686767   5.551232
    22  H    5.380107   6.247551   7.189581   6.199334   6.439706
    23  H    4.668061   5.818928   6.917985   5.150777   6.148444
    24  H    2.740930   4.000819   5.081309   2.955392   4.870706
    25  N    2.402214   1.372192   2.292748   3.524304   5.774631
    26  C    3.762604   2.453653   2.814091   4.816918   6.911019
    27  H    2.508474   2.058216   3.172980   3.685764   6.013968
    28  H    4.087847   2.642620   2.577040   4.921017   6.998693
    29  H    4.174938   2.900111   3.114657   5.344193   7.033503
    30  H    4.458423   3.316263   3.827864   5.498394   7.809407
                    6          7          8          9         10
     6  H    0.000000
     7  H    1.780405   0.000000
     8  H    1.779638   1.777322   0.000000
     9  N    2.115317   2.104258   2.106538   0.000000
    10  H    2.349213   2.414565   2.940763   1.026106   0.000000
    11  H    2.364641   2.943628   2.403180   1.030507   1.605977
    12  H    3.930349   2.854377   3.252697   2.159956   2.548409
    13  Br   4.975132   4.608992   4.901947   2.948957   2.742111
    14  C    4.838122   4.188896   3.340682   3.442931   4.349310
    15  C    4.949982   4.626151   3.302079   4.029608   5.035286
    16  C    5.813936   5.344147   4.055938   5.187015   6.197722
    17  C    6.489575   5.651750   4.722349   5.771345   6.722353
    18  C    6.411718   5.305691   4.752587   5.386945   6.235689
    19  C    5.641357   4.582854   4.129412   4.284539   5.082431
    20  H    4.716087   4.796067   3.248024   3.941436   4.937986
    21  H    6.224505   5.974285   4.516799   5.867132   6.891882
    22  H    7.319516   6.460327   5.553299   6.770735   7.719277
    23  H    7.198747   5.916999   5.601388   6.182598   6.955516
    24  H    5.960267   4.739163   4.656047   4.409356   5.037389
    25  N    6.512369   6.404420   5.488843   4.762500   5.408111
    26  C    7.526068   7.642887   6.613910   5.877658   6.462276
    27  H    6.861620   6.517698   5.652326   5.111461   5.813660
    28  H    7.510050   7.776459   6.841891   5.849216   6.292526
    29  H    7.582334   7.840719   6.603580   6.164121   6.839885
    30  H    8.488919   8.467962   7.504815   6.757937   7.325833
                   11         12         13         14         15
    11  H    0.000000
    12  H    2.927306   0.000000
    13  Br   3.158927   2.514767   0.000000
    14  C    3.600944   2.682247   4.233247   0.000000
    15  C    3.963472   3.868883   5.350595   1.403620   0.000000
    16  C    5.220910   4.859220   6.614536   2.432974   1.395593
    17  C    6.016084   4.956800   6.953023   2.811767   2.416959
    18  C    5.792430   4.105885   6.146284   2.432926   2.786832
    19  C    4.691403   2.865941   4.758895   1.403507   2.413009
    20  H    3.609557   4.306745   5.427174   2.166450   1.089777
    21  H    5.786665   5.815495   7.495246   3.416261   2.155098
    22  H    7.029621   5.960809   8.022565   3.900036   3.403504
    23  H    6.688271   4.669595   6.748696   3.416583   3.875145
    24  H    4.939673   2.557069   4.336362   2.167469   3.406795
    25  N    4.388397   4.402498   4.143717   3.003936   3.426766
    26  C    5.326878   5.766668   5.138345   4.358386   4.517111
    27  H    4.906473   4.371978   4.513087   2.686102   3.205476
    28  H    5.212818   5.953555   4.885916   4.970172   5.212881
    29  H    5.524824   6.278833   5.898840   4.548526   4.361559
    30  H    6.291555   6.374590   5.729121   4.929209   5.166531
                   16         17         18         19         20
    16  C    0.000000
    17  C    1.393825   0.000000
    18  C    2.411756   1.393509   0.000000
    19  C    2.787457   2.417513   1.396243   0.000000
    20  H    2.148614   3.398227   3.876485   3.406434   0.000000
    21  H    1.088294   2.155390   3.398910   3.875745   2.468140
    22  H    2.155767   1.088272   2.155787   3.404247   4.294657
    23  H    3.398582   2.154493   1.088316   2.156102   4.964799
    24  H    3.876346   3.397143   2.147368   1.089075   4.317549
    25  N    4.549667   5.196561   4.930961   3.917899   3.342578
    26  C    5.548367   6.311614   6.202062   5.298675   4.207784
    27  H    4.128215   4.558946   4.209857   3.308624   3.420293
    28  H    6.366302   7.179081   7.010473   5.981730   4.792987
    29  H    5.280912   6.202883   6.337022   5.593440   3.884484
    30  H    6.053744   6.654056   6.473391   5.651231   5.012767
                   21         22         23         24         25
    21  H    0.000000
    22  H    2.483926   0.000000
    23  H    4.298559   2.483118   0.000000
    24  H    4.964638   4.293537   2.467174   0.000000
    25  N    5.195807   6.182245   5.781006   4.189575   0.000000
    26  C    6.004147   7.222524   7.050552   5.596355   1.439528
    27  H    4.861893   5.503976   4.982816   3.579622   1.011551
    28  H    6.825246   8.135553   7.868658   6.186472   2.088759
    29  H    5.546989   7.044254   7.253078   6.075823   2.076497
    30  H    6.534750   7.501798   7.213314   5.861567   2.068725
                   26         27         28         29         30
    26  C    0.000000
    27  H    2.123874   0.000000
    28  H    1.094206   2.961284   0.000000
    29  H    1.095462   2.656648   1.784582   0.000000
    30  H    1.093623   2.343841   1.790400   1.787927   0.000000
 Stoichiometry    C11H15BrN2O
 Framework group  C1[X(C11H15BrN2O)]
 Deg. of freedom    84
 Full point group                 C1      NOp   1
 Largest Abelian subgroup         C1      NOp   1
 Largest concise Abelian subgroup C1      NOp   1
                         Standard orientation:                         
 ---------------------------------------------------------------------
 Center     Atomic      Atomic             Coordinates (Angstroms)
 Number     Number       Type             X           Y           Z
 ---------------------------------------------------------------------
      1          6           0        0.070403    0.156486   -0.067204
      2          6           0       -0.380947    1.454664    0.517883
      3          8           0       -1.141855    1.513769    1.478152
      4          6           0       -0.854961   -0.807297   -0.338915
      5          6           0       -0.241958   -2.876091    1.824526
      6          1           0       -0.672272   -3.236011    2.765479
      7          1           0       -0.143585   -3.721646    1.136218
      8          1           0        0.755676   -2.473405    2.026217
      9          7           0       -1.089508   -1.844233    1.228133
     10          1           0       -2.038512   -2.225209    1.143606
     11          1           0       -1.208503   -1.092601    1.922996
     12          1           0       -0.544831   -1.719553   -0.858298
     13         35           0       -2.672571   -0.381161   -0.784250
     14          6           0        1.515482   -0.123702   -0.223616
     15          6           0        2.401410    0.129800    0.835164
     16          6           0        3.769126   -0.108589    0.693022
     17          6           0        4.271569   -0.601072   -0.510207
     18          6           0        3.404739   -0.853400   -1.571718
     19          6           0        2.036401   -0.613821   -1.431200
     20          1           0        2.024403    0.506878    1.785581
     21          1           0        4.442623    0.087226    1.525153
     22          1           0        5.337969   -0.788361   -0.619979
     23          1           0        3.794722   -1.235297   -2.513259
     24          1           0        1.376818   -0.805711   -2.276311
     25          7           0        0.165954    2.556692   -0.089854
     26          6           0       -0.070832    3.886192    0.408747
     27          1           0        0.867875    2.417547   -0.804823
     28          1           0       -1.105964    3.985326    0.749279
     29          1           0        0.604591    4.082487    1.248574
     30          1           0        0.126109    4.602586   -0.393752
 ---------------------------------------------------------------------
 Rotational constants (GHZ):           0.5719141           0.3113649           0.2546173
 Standard basis: STO-3G (5D, 7F)
 There are   104 symmetry adapted cartesian basis functions of A   symmetry.
 There are   103 symmetry adapted basis functions of A   symmetry.
   103 basis functions,   312 primitive gaussians,   104 cartesian basis functions
    69 alpha electrons       69 beta electrons
       nuclear repulsion energy      1347.7393663668 Hartrees.
 NAtoms=   30 NActive=   30 NUniq=   30 SFac= 1.00D+00 NAtFMM=   60 NAOKFM=F Big=F
 Integral buffers will be    131072 words long.
 Raffenetti 1 integral format.
 Two-electron integral symmetry is turned on.
 External calculation of energy, first and second derivatives.
 Running external command "~/scripts/MiMe -H 'hf def2svp' -EF 'wb97xd def2svp' -c 12 -m 48GB R"
         input file       "/local/jobs/1157680/Gau-3135699.EIn"
         output file      "/local/jobs/1157680/Gau-3135699.EOu"
         message file     "/local/jobs/1157680/Gau-3135699.EMs"
         fchk file        "/local/jobs/1157680/Gau-3135699.EFC"
         mat. el file     "/local/jobs/1157680/Gau-3135699.EUF"
 Read checkpoint file Gau-3135699_H.chk type G16
 Write formatted file Gau-3135699_H.fchk

deriv: 2

spelevel: wb97xd def2svp
gradlevel: wb97xd def2svp
hesslevel: hf def2svp

runspe: False
runforce: True
runfreq: True

Running Gaussian ...

Parsing files ...
SPE file: Gau-3135699_F.out
FORCE file: Gau-3135699_F.out
HESS file: Gau-3135699_H.out

 ExternalExternalExternalExternalExternalExternalExternalExternalExternalExternal
 Output from external command:
 "~/scripts/MiMe -H 'hf def2svp' -EF 'wb97xd def2svp' -c 12 -m 48GB R /local/jobs/1157680/Gau-3135699.EIn /local/jobs/1157680/Gau-3135699.EOu /local/jobs/1157680/Gau-3135699.EMs /local/jobs/1157680/Gau-3135699.EFC /local/jobs/1157680/Gau-3135699.EUF"
  
 --------------------------------------------------
 Force calculation at wb97xd def2svp
 Hessian calculation at hf def2svp
 ExternalExternalExternalExternalExternalExternalExternalExternalExternalExternal

 Recovered energy= -3186.13638600     dipole=      1.166500000000     -2.984200000000      0.479200000000
 Energy=    -3186.13639     NIter=   0.
 Dipole moment=       1.166500      -2.984200       0.479200
 ***** Axes restored to original set *****
 -------------------------------------------------------------------
 Center     Atomic                   Forces (Hartrees/Bohr)
 Number     Number              X              Y              Z
 -------------------------------------------------------------------
      1        6          -0.002105311    0.016947771   -0.010604700
      2        6           0.015562261   -0.008062650   -0.000043583
      3        8          -0.002463360    0.006217763   -0.005306726
      4        6           0.021144296   -0.002290961   -0.020237119
      5        6           0.003721395    0.003181422   -0.007507764
      6        1           0.000412748   -0.002906628    0.003769302
      7        1           0.000985961   -0.002246596   -0.001946803
      8        1           0.002607177    0.001815307   -0.000776866
      9        7          -0.036543803   -0.017525920    0.045235807
     10        1           0.001894948   -0.000257009   -0.000697018
     11        1           0.002489536    0.003042465   -0.008106497
     12        1           0.000833195    0.006180858   -0.006806133
     13       35          -0.000162942   -0.002251967    0.003841525
     14        6          -0.008866619    0.003485887   -0.002164133
     15        6           0.008550061   -0.001125620   -0.001599198
     16        6          -0.004757655    0.000562536   -0.002428580
     17        6           0.000575110   -0.000313999    0.000002276
     18        6          -0.004070298   -0.000124793    0.003870595
     19        6           0.009239036   -0.003206618    0.000903414
     20        1          -0.002851163    0.001151209    0.001243297
     21        1           0.001859925    0.000606372    0.002353174
     22        1           0.002901553   -0.000283032   -0.000393881
     23        1           0.001000474   -0.000756586   -0.002806268
     24        1          -0.003374885    0.001053828   -0.000960933
     25        7          -0.010989000   -0.005745592    0.007248276
     26        6           0.006530183   -0.005450325   -0.001857671
     27        1          -0.002356877   -0.002397057   -0.000006687
     28        1          -0.001851029   -0.000455216    0.001021109
     29        1           0.000496044    0.007119515    0.005476447
     30        1          -0.000410960    0.004035634   -0.000714660
 -------------------------------------------------------------------
 Cartesian Forces:  Max     0.045235807 RMS     0.008450222
 FormGI is forming the generalized inverse of G from B-inverse, IUseBI=4.

 GradGradGradGradGradGradGradGradGradGradGradGradGradGradGradGradGradGrad
 Berny optimization.
 Internal  Forces:  Max     0.035780439 RMS     0.005026355
 Search for a saddle point.
 Step number   2 out of a maximum of   50
 All quantities printed in internal units (Hartrees-Bohrs-Radians)
 Swapping is turned off.
 Second derivative matrix not updated -- analytic derivatives used.
 ITU=  0  0
     Eigenvalues ---   -0.06833   0.00380   0.00409   0.00653   0.00863
     Eigenvalues ---    0.01094   0.01529   0.02170   0.02209   0.02347
     Eigenvalues ---    0.02387   0.02561   0.02733   0.03031   0.03154
     Eigenvalues ---    0.03388   0.03517   0.03712   0.03911   0.04205
     Eigenvalues ---    0.04810   0.05815   0.05912   0.06342   0.07096
     Eigenvalues ---    0.07375   0.07468   0.07950   0.08355   0.11412
     Eigenvalues ---    0.11893   0.12801   0.12928   0.13714   0.14062
     Eigenvalues ---    0.14527   0.14624   0.15026   0.15875   0.16026
     Eigenvalues ---    0.16393   0.19616   0.20550   0.21102   0.21264
     Eigenvalues ---    0.21407   0.21872   0.22015   0.22487   0.22576
     Eigenvalues ---    0.22726   0.24037   0.26358   0.27871   0.29255
     Eigenvalues ---    0.32303   0.33325   0.35633   0.35855   0.36337
     Eigenvalues ---    0.36487   0.36685   0.36724   0.36994   0.37881
     Eigenvalues ---    0.38041   0.38265   0.38299   0.38439   0.39205
     Eigenvalues ---    0.39595   0.41655   0.43243   0.44369   0.44409
     Eigenvalues ---    0.46860   0.47374   0.48395   0.49347   0.51971
     Eigenvalues ---    0.52180   0.55621   0.60339   0.83704
 Eigenvectors required to have negative eigenvalues:
                          R6        A19       A10       D7        D10
   1                   -0.79919  -0.26479   0.19982   0.19436   0.18812
                          D5        D8        A20       R2        A21
   1                    0.17279   0.16655   0.13387   0.13153   0.09410
 RFO step:  Lambda0=1.946304198D-03 Lambda=-2.58489509D-02.
 Linear search not attempted -- option 19 set.
 Maximum step size (   0.100) exceeded in Quadratic search.
    -- Step size scaled by   0.268
 Iteration  1 RMS(Cart)=  0.03565416 RMS(Int)=  0.00051992
 Iteration  2 RMS(Cart)=  0.00096537 RMS(Int)=  0.00012373
 Iteration  3 RMS(Cart)=  0.00000045 RMS(Int)=  0.00012373
 Variable       Old X    -DE/DX   Delta X   Delta X   Delta X     New X
                                 (Linear)    (Quad)   (Total)
    R1        2.82279  -0.00315   0.00000  -0.00374  -0.00374   2.81905
    R2        2.57655   0.00980   0.00000   0.00314   0.00314   2.57969
    R3        2.79732   0.00023   0.00000  -0.00009  -0.00009   2.79723
    R4        2.31797  -0.00243   0.00000   0.00126   0.00126   2.31923
    R5        2.59307  -0.01053   0.00000  -0.00630  -0.00630   2.58677
    R6        3.57847   0.03578   0.00000   0.02899   0.02899   3.60746
    R7        2.06849  -0.00156   0.00000  -0.00025  -0.00025   2.06825
    R8        3.62691  -0.00120   0.00000   0.00518   0.00518   3.63209
    R9        2.07018   0.00406   0.00000   0.00298   0.00298   2.07316
   R10        2.06872   0.00305   0.00000   0.00228   0.00228   2.07100
   R11        2.06846   0.00290   0.00000   0.00219   0.00219   2.07065
   R12        2.76363   0.00207   0.00000  -0.00522  -0.00522   2.75841
   R13        1.93906  -0.00159   0.00000  -0.00193  -0.00193   1.93713
   R14        1.94738  -0.00365   0.00000  -0.00223  -0.00223   1.94515
   R15        2.65246   0.00248   0.00000   0.00204   0.00204   2.65449
   R16        2.65224   0.00201   0.00000   0.00092   0.00092   2.65317
   R17        2.63729  -0.00122   0.00000  -0.00156  -0.00156   2.63573
   R18        2.05938   0.00247   0.00000   0.00175   0.00175   2.06113
   R19        2.63395   0.00100   0.00000   0.00088   0.00088   2.63483
   R20        2.05658   0.00306   0.00000   0.00204   0.00204   2.05862
   R21        2.63335   0.00095   0.00000   0.00017   0.00017   2.63352
   R22        2.05654   0.00293   0.00000   0.00177   0.00177   2.05831
   R23        2.63852  -0.00123   0.00000  -0.00090  -0.00090   2.63761
   R24        2.05662   0.00306   0.00000   0.00201   0.00201   2.05863
   R25        2.05805   0.00260   0.00000   0.00184   0.00184   2.05990
   R26        2.72031   0.00539   0.00000   0.00107   0.00107   2.72138
   R27        1.91156  -0.00134   0.00000  -0.00039  -0.00039   1.91116
   R28        2.06775   0.00204   0.00000   0.00159   0.00159   2.06934
   R29        2.07012   0.00577   0.00000   0.00387   0.00387   2.07399
   R30        2.06665   0.00313   0.00000   0.00210   0.00210   2.06874
    A1        2.07979   0.00297   0.00000  -0.00364  -0.00366   2.07613
    A2        2.09539  -0.00112   0.00000  -0.00131  -0.00133   2.09405
    A3        2.10331  -0.00211   0.00000   0.00380   0.00377   2.10708
    A4        2.13643   0.00310   0.00000   0.00104   0.00103   2.13746
    A5        1.98674   0.00818   0.00000   0.00647   0.00647   1.99321
    A6        2.15948  -0.01123   0.00000  -0.00734  -0.00735   2.15213
    A7        1.88202   0.01112   0.00000   0.00898   0.00895   1.89097
    A8        2.08447  -0.00385   0.00000  -0.00460  -0.00489   2.07958
    A9        2.13180   0.00145   0.00000   0.00034   0.00029   2.13209
   A10        1.54218   0.00826   0.00000   0.02802   0.02803   1.57020
   A11        1.76837  -0.01563   0.00000  -0.02728  -0.02727   1.74111
   A12        1.92119  -0.00004   0.00000  -0.00026   0.00001   1.92119
   A13        1.89820  -0.00137   0.00000  -0.00134  -0.00134   1.89686
   A14        1.89717  -0.00047   0.00000  -0.00083  -0.00083   1.89635
   A15        1.93311   0.00426   0.00000   0.00659   0.00659   1.93970
   A16        1.89453   0.00002   0.00000  -0.00102  -0.00103   1.89350
   A17        1.91840   0.00005   0.00000  -0.00132  -0.00132   1.91708
   A18        1.92174  -0.00255   0.00000  -0.00220  -0.00221   1.91953
   A19        2.28108  -0.02030   0.00000  -0.06880  -0.06887   2.21221
   A20        1.82316   0.00821   0.00000   0.03311   0.03337   1.85653
   A21        1.74457  -0.00016   0.00000   0.00061   0.00021   1.74478
   A22        1.88349   0.00594   0.00000   0.01790   0.01815   1.90164
   A23        1.88238   0.01032   0.00000   0.02072   0.01979   1.90218
   A24        1.79216  -0.00115   0.00000   0.01080   0.01042   1.80257
   A25        2.09702   0.00085   0.00000   0.00185   0.00185   2.09888
   A26        2.11688   0.00286   0.00000   0.00195   0.00195   2.11883
   A27        2.06898  -0.00369   0.00000  -0.00380  -0.00380   2.06518
   A28        2.10701   0.00189   0.00000   0.00195   0.00195   2.10896
   A29        2.09670  -0.00319   0.00000  -0.00391  -0.00391   2.09280
   A30        2.07941   0.00131   0.00000   0.00196   0.00196   2.08137
   A31        2.09619   0.00082   0.00000   0.00097   0.00097   2.09716
   A32        2.09195  -0.00046   0.00000  -0.00072  -0.00072   2.09124
   A33        2.09503  -0.00036   0.00000  -0.00026  -0.00026   2.09478
   A34        2.09132  -0.00184   0.00000  -0.00216  -0.00216   2.08915
   A35        2.09568   0.00094   0.00000   0.00110   0.00110   2.09678
   A36        2.09618   0.00089   0.00000   0.00106   0.00106   2.09725
   A37        2.09657   0.00086   0.00000   0.00094   0.00094   2.09751
   A38        2.09400  -0.00028   0.00000   0.00005   0.00004   2.09404
   A39        2.09261  -0.00058   0.00000  -0.00100  -0.00100   2.09161
   A40        2.10627   0.00197   0.00000   0.00209   0.00209   2.10836
   A41        2.09949  -0.00348   0.00000  -0.00480  -0.00480   2.09470
   A42        2.07739   0.00151   0.00000   0.00270   0.00270   2.08009
   A43        2.12089   0.00212   0.00000   0.00344   0.00344   2.12433
   A44        2.07046  -0.00341   0.00000  -0.00512  -0.00512   2.06534
   A45        2.07830   0.00133   0.00000   0.00224   0.00224   2.08053
   A46        1.92525  -0.00347   0.00000  -0.00342  -0.00342   1.92183
   A47        1.90669   0.01024   0.00000   0.01138   0.01137   1.91805
   A48        1.89781   0.00268   0.00000   0.00251   0.00250   1.90030
   A49        1.90546  -0.00372   0.00000  -0.00462  -0.00462   1.90085
   A50        1.91705  -0.00130   0.00000  -0.00228  -0.00228   1.91477
   A51        1.91150  -0.00436   0.00000  -0.00347  -0.00350   1.90799
    D1        0.83992  -0.00444   0.00000  -0.02055  -0.02054   0.81938
    D2       -2.33555  -0.00308   0.00000  -0.01541  -0.01539  -2.35094
    D3       -2.19823  -0.00148   0.00000  -0.00812  -0.00814  -2.20637
    D4        0.90948  -0.00012   0.00000  -0.00298  -0.00299   0.90649
    D5       -1.52881   0.01254   0.00000   0.06155   0.06153  -1.46728
    D6        3.03607  -0.00282   0.00000   0.02372   0.02375   3.05982
    D7        0.50389   0.00186   0.00000   0.03243   0.03243   0.53632
    D8        1.50886   0.00963   0.00000   0.04874   0.04872   1.55759
    D9       -0.20944  -0.00574   0.00000   0.01092   0.01095  -0.19850
   D10       -2.74162  -0.00105   0.00000   0.01963   0.01962  -2.72200
   D11        0.81509  -0.00321   0.00000  -0.01883  -0.01884   0.79626
   D12       -2.29948  -0.00382   0.00000  -0.01914  -0.01915  -2.31864
   D13       -2.22165  -0.00051   0.00000  -0.00577  -0.00576  -2.22741
   D14        0.94696  -0.00112   0.00000  -0.00609  -0.00608   0.94088
   D15       -3.05378   0.00045   0.00000   0.00234   0.00236  -3.05143
   D16       -0.08992   0.00081   0.00000   0.00619   0.00619  -0.08373
   D17        0.05342   0.00215   0.00000   0.00775   0.00775   0.06116
   D18        3.01728   0.00251   0.00000   0.01160   0.01158   3.02887
   D19       -1.32514  -0.00059   0.00000   0.00540   0.00498  -1.32015
   D20        2.69174  -0.00019   0.00000   0.00346   0.00349   2.69523
   D21        0.84186  -0.00102   0.00000  -0.01673  -0.01659   0.82527
   D22        0.77757   0.00000   0.00000   0.01190   0.01175   0.78932
   D23       -1.48874   0.00039   0.00000   0.00996   0.01025  -1.47849
   D24        2.94457  -0.00043   0.00000  -0.01023  -0.00983   2.93474
   D25        2.70006   0.00097   0.00000   0.01614   0.01571   2.71577
   D26        0.43375   0.00136   0.00000   0.01420   0.01421   0.44796
   D27       -1.41613   0.00053   0.00000  -0.00598  -0.00586  -1.42199
   D28        3.09665  -0.00225   0.00000  -0.01482  -0.01491   3.08174
   D29       -0.94168  -0.00241   0.00000  -0.00935  -0.00943  -0.95111
   D30        0.98301   0.00380   0.00000   0.02095   0.02111   1.00412
   D31       -1.08852  -0.00121   0.00000  -0.01313  -0.01322  -1.10174
   D32        1.15633  -0.00137   0.00000  -0.00766  -0.00774   1.14859
   D33        3.08102   0.00484   0.00000   0.02263   0.02280   3.10382
   D34        0.99775  -0.00274   0.00000  -0.01660  -0.01669   0.98107
   D35       -3.04058  -0.00291   0.00000  -0.01113  -0.01121  -3.05178
   D36       -1.11589   0.00330   0.00000   0.01917   0.01934  -1.09656
   D37       -3.12253  -0.00046   0.00000  -0.00030  -0.00030  -3.12282
   D38        0.03059  -0.00077   0.00000  -0.00074  -0.00074   0.02985
   D39       -0.00721   0.00024   0.00000   0.00010   0.00009  -0.00712
   D40       -3.13728  -0.00008   0.00000  -0.00035  -0.00035  -3.13763
   D41        3.12352   0.00092   0.00000   0.00208   0.00208   3.12560
   D42       -0.00996   0.00089   0.00000   0.00406   0.00405  -0.00590
   D43        0.00851   0.00025   0.00000   0.00169   0.00169   0.01020
   D44       -3.12496   0.00022   0.00000   0.00366   0.00366  -3.12130
   D45        0.00238  -0.00048   0.00000  -0.00146  -0.00146   0.00092
   D46       -3.13510  -0.00025   0.00000  -0.00023  -0.00023  -3.13533
   D47        3.13256  -0.00020   0.00000  -0.00105  -0.00105   3.13151
   D48       -0.00492   0.00003   0.00000   0.00018   0.00018  -0.00475
   D49        0.00132   0.00025   0.00000   0.00106   0.00106   0.00238
   D50       -3.13982   0.00007   0.00000   0.00006   0.00006  -3.13976
   D51        3.13879   0.00002   0.00000  -0.00017  -0.00017   3.13862
   D52       -0.00234  -0.00015   0.00000  -0.00118  -0.00118  -0.00352
   D53       -0.00002   0.00024   0.00000   0.00071   0.00071   0.00069
   D54        3.13858  -0.00030   0.00000  -0.00232  -0.00232   3.13626
   D55        3.14111   0.00041   0.00000   0.00172   0.00172  -3.14036
   D56       -0.00347  -0.00013   0.00000  -0.00131  -0.00131  -0.00479
   D57       -0.00499  -0.00050   0.00000  -0.00212  -0.00212  -0.00711
   D58        3.12858  -0.00049   0.00000  -0.00411  -0.00411   3.12447
   D59        3.13959   0.00004   0.00000   0.00090   0.00090   3.14049
   D60       -0.01002   0.00005   0.00000  -0.00108  -0.00108  -0.01111
   D61       -0.67621  -0.00050   0.00000   0.00228   0.00229  -0.67392
   D62        1.41837  -0.00078   0.00000   0.00163   0.00162   1.41999
   D63       -2.77946   0.00153   0.00000   0.00560   0.00561  -2.77385
   D64        2.64389  -0.00039   0.00000  -0.00085  -0.00085   2.64303
   D65       -1.54472  -0.00068   0.00000  -0.00150  -0.00152  -1.54624
   D66        0.54063   0.00164   0.00000   0.00246   0.00247   0.54311
         Item               Value     Threshold  Converged?
 Maximum Force            0.035780     0.000450     NO 
 RMS     Force            0.005026     0.000300     NO 
[...]
    11   1    -0.00  -0.00   0.00     0.00  -0.00  -0.00     0.00  -0.00   0.00
    12   1    -0.01   0.04  -0.00     0.02  -0.05   0.00     0.02  -0.07   0.00
    13  35     0.00   0.00   0.00     0.00  -0.00  -0.00     0.00  -0.00  -0.00
    14   6     0.00  -0.00  -0.00     0.00   0.00   0.00    -0.00   0.00   0.00
    15   6     0.01  -0.02  -0.01     0.01  -0.04  -0.03    -0.01   0.04   0.03
    16   6     0.03   0.02   0.02     0.03   0.03   0.02     0.01   0.00   0.00
    17   6    -0.03   0.01   0.00    -0.01   0.00  -0.00    -0.05   0.01   0.00
    18   6     0.01  -0.04  -0.02    -0.00   0.02   0.01     0.01  -0.02  -0.02
    19   6     0.03   0.02   0.03    -0.03  -0.02  -0.03    -0.03  -0.02  -0.02
    20   1    -0.08   0.24   0.17    -0.14   0.43   0.30     0.14  -0.43  -0.29
    21   1    -0.30  -0.23  -0.22    -0.37  -0.29  -0.27    -0.06  -0.04  -0.04
    22   1     0.37  -0.11  -0.01     0.12  -0.03  -0.00     0.54  -0.16  -0.02
    23   1    -0.13   0.42   0.28     0.07  -0.24  -0.16    -0.10   0.28   0.19
    24   1    -0.36  -0.27  -0.28     0.37   0.28   0.29     0.35   0.25   0.27
    25   7     0.00  -0.00   0.00     0.00  -0.00   0.00    -0.00   0.00  -0.00
    26   6     0.00   0.00  -0.00     0.00   0.00  -0.00    -0.00  -0.00  -0.00
    27   1    -0.00   0.00   0.00    -0.00   0.00  -0.00     0.00  -0.00  -0.00
    28   1    -0.00   0.00   0.00    -0.00   0.00   0.00     0.00  -0.00  -0.00
    29   1    -0.00  -0.00  -0.00    -0.00  -0.00  -0.00     0.00   0.00   0.00
    30   1     0.00  -0.00   0.00     0.00  -0.00   0.00    -0.00   0.00  -0.00
                     79                     80                     81
                      A                      A                      A
 Frequencies --   3262.3207              3274.6314              3278.4681
 Red. masses --      1.0979                 1.1011                 1.0944
 Frc consts  --      6.8844                 6.9570                 6.9305
 IR Inten    --      0.0000                 0.0000                 0.0000
  Atom  AN      X      Y      Z        X      Y      Z        X      Y      Z
     1   6    -0.00  -0.00  -0.00     0.00   0.00  -0.00     0.00   0.00  -0.00
     2   6    -0.00  -0.00   0.00    -0.00  -0.00   0.00    -0.00   0.00   0.00
     3   8    -0.00   0.00  -0.00    -0.00   0.00  -0.00     0.00  -0.00  -0.00
     4   6    -0.00   0.01  -0.00     0.00  -0.01   0.00     0.02  -0.08   0.01
     5   6     0.00  -0.00   0.00     0.00  -0.00  -0.00     0.00  -0.00  -0.00
     6   1     0.00   0.00   0.00    -0.00   0.00   0.00    -0.00   0.00   0.00
     7   1    -0.00   0.00  -0.00     0.00   0.00  -0.00    -0.00   0.00  -0.00
     8   1    -0.00  -0.00   0.00    -0.00  -0.00  -0.00     0.00  -0.00  -0.00
     9   7     0.00  -0.00  -0.00     0.00  -0.00   0.00     0.00  -0.00   0.00
    10   1     0.00   0.00   0.00    -0.00  -0.00  -0.00    -0.00  -0.00  -0.00
    11   1     0.00  -0.00  -0.00    -0.00   0.00   0.00    -0.01   0.02   0.00
    12   1     0.02  -0.06   0.00    -0.04   0.12  -0.01    -0.29   0.94  -0.06
    13  35     0.00  -0.00  -0.00    -0.00   0.00   0.00    -0.00   0.00   0.00
    14   6     0.00   0.00   0.00     0.00  -0.00   0.00    -0.00   0.00   0.00
    15   6     0.01  -0.04  -0.03     0.01  -0.02  -0.01    -0.00   0.00   0.00
    16   6    -0.04  -0.02  -0.02    -0.03  -0.02  -0.02     0.00   0.00   0.00
    17   6     0.01   0.00   0.00    -0.06   0.02   0.00     0.01  -0.00   0.00
    18   6     0.01  -0.04  -0.03    -0.01   0.03   0.02     0.00  -0.01  -0.00
    19   6    -0.02  -0.01  -0.02     0.01   0.01   0.01    -0.01  -0.01  -0.01
    20   1    -0.14   0.42   0.29    -0.06   0.17   0.11     0.00  -0.01  -0.01
    21   1     0.38   0.29   0.27     0.30   0.23   0.22    -0.03  -0.02  -0.02
    22   1    -0.06   0.01  -0.00     0.68  -0.20  -0.03    -0.06   0.02   0.00
    23   1    -0.14   0.43   0.29     0.11  -0.36  -0.24    -0.02   0.06   0.04
    24   1     0.23   0.16   0.17    -0.12  -0.08  -0.09     0.09   0.07   0.07
    25   7     0.00   0.00   0.00     0.00   0.00  -0.00     0.00  -0.00  -0.00
    26   6     0.00   0.00  -0.00     0.00  -0.00   0.00    -0.00   0.00  -0.00
    27   1    -0.00   0.00  -0.00    -0.00  -0.00   0.00     0.00   0.00   0.00
    28   1    -0.00  -0.00   0.00     0.00   0.00  -0.00     0.00  -0.00  -0.00
    29   1    -0.00  -0.00  -0.00    -0.00  -0.00   0.00    -0.00  -0.00  -0.00
    30   1     0.00  -0.00   0.00    -0.00   0.00  -0.00     0.00  -0.00   0.00
                     82                     83                     84
                      A                      A                      A
 Frequencies --   3385.1524              3640.7746              3718.4079
 Red. masses --      1.0704                 1.0852                 1.0794
 Frc consts  --      7.2268                 8.4755                 8.7934
 IR Inten    --      0.0000                 0.0000                 0.0000
  Atom  AN      X      Y      Z        X      Y      Z        X      Y      Z
     1   6    -0.00  -0.00   0.00     0.00   0.00  -0.00    -0.00   0.00  -0.00
     2   6    -0.00   0.00   0.00    -0.00   0.00   0.00     0.00   0.00  -0.00
     3   8     0.00  -0.00  -0.00     0.00  -0.00  -0.00     0.00   0.00  -0.00
     4   6     0.00   0.00  -0.00    -0.00   0.00   0.00    -0.00  -0.00   0.00
     5   6     0.00  -0.00  -0.00     0.00  -0.00   0.00     0.00  -0.00   0.00
     6   1    -0.00   0.00   0.00     0.00  -0.00  -0.00    -0.00  -0.00  -0.00
     7   1    -0.01   0.03  -0.01    -0.00   0.01  -0.00    -0.00   0.00  -0.00
     8   1    -0.01  -0.01   0.01     0.01   0.01  -0.00    -0.00  -0.00   0.00
     9   7     0.03  -0.06   0.01    -0.06  -0.05   0.01     0.00   0.00  -0.00
    10   1    -0.19  -0.11   0.02     0.80   0.54  -0.15    -0.00  -0.00   0.00
    11   1    -0.23   0.93  -0.14    -0.06   0.19  -0.02     0.00  -0.01   0.00
    12   1     0.00  -0.02   0.01    -0.00   0.00   0.00     0.00   0.00  -0.00
    13  35     0.00   0.00   0.00    -0.00   0.00  -0.00     0.00   0.00  -0.00
    14   6     0.00  -0.00   0.00    -0.00   0.00  -0.00     0.00   0.00  -0.00
    15   6    -0.00   0.00   0.00     0.00   0.00   0.00    -0.00  -0.00  -0.00
    16   6     0.00   0.00   0.00    -0.00  -0.00  -0.00     0.00   0.00  -0.00
    17   6    -0.00  -0.00  -0.00     0.00   0.00   0.00    -0.00   0.00   0.00
    18   6     0.00  -0.00  -0.00    -0.00   0.00   0.00    -0.00   0.00   0.00
    19   6    -0.00   0.00   0.00     0.00  -0.00   0.00    -0.00   0.00   0.00
    20   1     0.00  -0.00  -0.00    -0.00  -0.00  -0.00    -0.00   0.00   0.00
    21   1    -0.00  -0.00  -0.00     0.00   0.00   0.00    -0.00  -0.00  -0.00
    22   1     0.00  -0.00  -0.00     0.00  -0.00  -0.00     0.00   0.00   0.00
    23   1    -0.00   0.00   0.00     0.00  -0.00  -0.00    -0.00   0.00  -0.00
    24   1     0.00   0.00  -0.00    -0.00  -0.00  -0.00    -0.00  -0.00  -0.00
    25   7     0.00   0.00  -0.00    -0.00   0.00   0.00    -0.06   0.02   0.04
    26   6    -0.00  -0.00   0.00    -0.00  -0.00   0.00     0.00  -0.00   0.00
    27   1     0.01   0.00  -0.00     0.00  -0.00  -0.00     0.76  -0.32  -0.57
    28   1     0.00  -0.00  -0.00    -0.00  -0.00  -0.00     0.01  -0.01  -0.01
    29   1     0.00   0.00   0.00     0.00   0.00   0.00     0.00   0.00   0.00
    30   1    -0.00   0.00  -0.00    -0.00   0.00  -0.00    -0.00   0.00  -0.00

 -------------------
 - Thermochemistry -
 -------------------
 Temperature   298.150 Kelvin.  Pressure   1.00000 Atm.
 Atom     1 has atomic number  6 and mass  12.00000
 Atom     2 has atomic number  6 and mass  12.00000
 Atom     3 has atomic number  8 and mass  15.99491
 Atom     4 has atomic number  6 and mass  12.00000
 Atom     5 has atomic number  6 and mass  12.00000
 Atom     6 has atomic number  1 and mass   1.00783
 Atom     7 has atomic number  1 and mass   1.00783
 Atom     8 has atomic number  1 and mass   1.00783
 Atom     9 has atomic number  7 and mass  14.00307
 Atom    10 has atomic number  1 and mass   1.00783
 Atom    11 has atomic number  1 and mass   1.00783
 Atom    12 has atomic number  1 and mass   1.00783
 Atom    13 has atomic number 35 and mass  78.91834
 Atom    14 has atomic number  6 and mass  12.00000
 Atom    15 has atomic number  6 and mass  12.00000
 Atom    16 has atomic number  6 and mass  12.00000
 Atom    17 has atomic number  6 and mass  12.00000
 Atom    18 has atomic number  6 and mass  12.00000
 Atom    19 has atomic number  6 and mass  12.00000
 Atom    20 has atomic number  1 and mass   1.00783
 Atom    21 has atomic number  1 and mass   1.00783
 Atom    22 has atomic number  1 and mass   1.00783
 Atom    23 has atomic number  1 and mass   1.00783
 Atom    24 has atomic number  1 and mass   1.00783
 Atom    25 has atomic number  7 and mass  14.00307
 Atom    26 has atomic number  6 and mass  12.00000
 Atom    27 has atomic number  1 and mass   1.00783
 Atom    28 has atomic number  1 and mass   1.00783
 Atom    29 has atomic number  1 and mass   1.00783
 Atom    30 has atomic number  1 and mass   1.00783
 Molecular mass:   270.03677 amu.
 Principal axes and moments of inertia in atomic units:
                           1         2         3
     Eigenvalues --  3146.775585905.363076937.38802
           X            0.99908  -0.03147  -0.02913
           Y            0.02997   0.99827  -0.05052
           Z            0.03067   0.04960   0.99830
 This molecule is an asymmetric top.
 Rotational symmetry number  1.
 Warning -- assumption of classical behavior for rotation
           may cause significant error
 Rotational temperatures (Kelvin)      0.02752     0.01467     0.01249
 Rotational constants (GHZ):           0.57352     0.30561     0.26015
    1 imaginary frequencies ignored.
 Zero-point vibrational energy     689542.8 (Joules/Mol)
                                  164.80469 (Kcal/Mol)
 Warning -- explicit consideration of  21 degrees of freedom as
           vibrations may cause significant error
 Vibrational temperatures:    103.26   125.72   150.67   165.60   196.21
          (Kelvin)            236.36   259.18   275.40   345.25   369.00
                              406.63   431.70   446.19   507.09   529.01
                              540.65   663.65   688.06   759.56   818.71
                              890.18   973.63   999.42  1039.93  1106.76
                             1164.63  1223.64  1266.50  1296.57  1311.34
                             1423.17  1512.33  1528.27  1545.59  1586.93
                             1614.43  1632.38  1648.29  1663.20  1686.35
                             1692.54  1703.54  1723.68  1771.43  1824.68
                             1851.56  1861.62  1895.15  1928.58  1953.55
                             1964.98  2065.33  2122.59  2131.26  2182.25
                             2265.29  2284.69  2295.50  2314.13  2322.45
                             2332.00  2339.63  2375.26  2467.81  2512.52
                             2537.68  2570.30  2602.29  4445.43  4455.48
                             4533.19  4565.85  4601.47  4647.29  4660.41
                             4667.57  4684.54  4693.75  4711.46  4716.98
                             4870.48  5238.26  5349.96
 
 Zero-point correction=                           0.262633 (Hartree/Particle)
 Thermal correction to Energy=                    0.276393
 Thermal correction to Enthalpy=                  0.277337
 Thermal correction to Gibbs Free Energy=         0.221598
 Sum of electronic and zero-point Energies=          -3185.898982
 Sum of electronic and thermal Energies=             -3185.885223
 Sum of electronic and thermal Enthalpies=           -3185.884279
 Sum of electronic and thermal Free Energies=        -3185.940017
 
                     E (Thermal)             CV                S
                      KCal/Mol        Cal/Mol-Kelvin    Cal/Mol-Kelvin
 Total                  173.439             51.832            117.311
 Electronic               0.000              0.000              0.000
 Translational            0.889              2.981             42.679
 Rotational               0.889              2.981             33.222
 Vibrational            171.662             45.870             41.410
 Vibration     1          0.598              1.967              4.104
 Vibration     2          0.601              1.958              3.718
 Vibration     3          0.605              1.945              3.364
 Vibration     4          0.608              1.937              3.181
 Vibration     5          0.614              1.917              2.854
 Vibration     6          0.623              1.886              2.500
 Vibration     7          0.629              1.867              2.327
 Vibration     8          0.634              1.852              2.214
 Vibration     9          0.657              1.779              1.803
 Vibration    10          0.666              1.752              1.686
 Vibration    11          0.682              1.706              1.518
 Vibration    12          0.693              1.674              1.417
 Vibration    13          0.699              1.654              1.362
 Vibration    14          0.729              1.570              1.155
 Vibration    15          0.740              1.539              1.089
 Vibration    16          0.747              1.522              1.056
 Vibration    17          0.819              1.336              0.762
 Vibration    18          0.835              1.298              0.715
 Vibration    19          0.883              1.188              0.592
 Vibration    20          0.925              1.098              0.506
 Vibration    21          0.979              0.992              0.419
                       Q            Log10(Q)             Ln(Q)
 Total Bot       0.117993-101       -101.928144       -234.698225
 Total V=0       0.749094D+19         18.874537         43.460227
 Vib (Bot)       0.166444-116       -116.778732       -268.892968
 Vib (Bot)    1  0.287296D+01          0.458330          1.055344
 Vib (Bot)    2  0.235405D+01          0.371815          0.856137
 Vib (Bot)    3  0.195790D+01          0.291791          0.671873
 Vib (Bot)    4  0.177750D+01          0.249810          0.575208
 Vib (Bot)    5  0.149245D+01          0.173899          0.400416
 Vib (Bot)    6  0.122901D+01          0.089555          0.206208
 Vib (Bot)    7  0.111491D+01          0.047241          0.108776
 Vib (Bot)    8  0.104505D+01          0.019135          0.044061
 Vib (Bot)    9  0.817146D+00         -0.087700         -0.201938
 Vib (Bot)   10  0.758630D+00         -0.119970         -0.276241
 Vib (Bot)   11  0.679341D+00         -0.167912         -0.386632
 Vib (Bot)   12  0.633804D+00         -0.198045         -0.456015
 Vib (Bot)   13  0.609707D+00         -0.214879         -0.494777
 Vib (Bot)   14  0.522646D+00         -0.281792         -0.648851
 Vib (Bot)   15  0.495938D+00         -0.304573         -0.701304
 Vib (Bot)   16  0.482578D+00         -0.316433         -0.728613
 Vib (Bot)   17  0.368360D+00         -0.433728         -0.998695
 Vib (Bot)   18  0.350254D+00         -0.455617         -1.049097
 Vib (Bot)   19  0.303525D+00         -0.517806         -1.192292
 Vib (Bot)   20  0.270729D+00         -0.567466         -1.306639
 Vib (Bot)   21  0.236687D+00         -0.625826         -1.441017
 Vib (V=0)       0.105669D+05          4.023949          9.265484
 Vib (V=0)    1  0.341615D+01          0.533536          1.228513
 Vib (V=0)    2  0.290656D+01          0.463380          1.066971
 Vib (V=0)    3  0.252074D+01          0.401528          0.924551
 Vib (V=0)    4  0.234648D+01          0.370418          0.852918
 Vib (V=0)    5  0.207397D+01          0.316803          0.729467
 Vib (V=0)    6  0.182682D+01          0.261697          0.602579
 Vib (V=0)    7  0.172190D+01          0.236007          0.543426
 Vib (V=0)    8  0.165850D+01          0.219715          0.505913
 Vib (V=0)    9  0.145798D+01          0.163752          0.377053
 Vib (V=0)   10  0.140858D+01          0.148782          0.342583
 Vib (V=0)   11  0.134351D+01          0.128240          0.295283
 Vib (V=0)   12  0.130728D+01          0.116370          0.267952
 Vib (V=0)   13  0.128851D+01          0.110087          0.253484
 Vib (V=0)   14  0.122330D+01          0.087532          0.201550
 Vib (V=0)   15  0.120424D+01          0.080713          0.185849
 Vib (V=0)   16  0.119490D+01          0.077330          0.178060
 Vib (V=0)   17  0.112104D+01          0.049621          0.114256
 Vib (V=0)   18  0.111047D+01          0.045508          0.104786
 Vib (V=0)   19  0.108492D+01          0.035396          0.081503
 Vib (V=0)   20  0.106859D+01          0.028811          0.066339
 Vib (V=0)   21  0.105319D+01          0.022507          0.051825
 Electronic      0.100000D+01          0.000000          0.000000
 Translational   0.174417D+09          8.241588         18.976958
 Rotational      0.406443D+07          6.609000         15.217784
 ***** Axes restored to original set *****
 -------------------------------------------------------------------
 Center     Atomic                   Forces (Hartrees/Bohr)
 Number     Number              X              Y              Z
 -------------------------------------------------------------------
      1        6           0.000000146    0.000000377    0.000000358
      2        6           0.000000864    0.000000419   -0.000002780
      3        8           0.000000522   -0.000000444    0.000001990
      4        6          -0.000000211    0.000000435    0.000000051
      5        6          -0.000000837    0.000001206    0.000000055
      6        1          -0.000001115    0.000000219    0.000000002
      7        1          -0.000001467    0.000000505   -0.000000374
      8        1          -0.000000597   -0.000000009    0.000000657
      9        7          -0.000000930   -0.000000050   -0.000000915
     10        1          -0.000001374    0.000001770   -0.000000576
     11        1           0.000000610    0.000001616    0.000001008
     12        1          -0.000000598    0.000000125   -0.000000376
     13       35           0.000000092    0.000000931   -0.000000420
     14        6           0.000000250   -0.000000259   -0.000000250
     15        6           0.000000334   -0.000001172    0.000000152
     16        6          -0.000000042   -0.000001010    0.000000549
     17        6           0.000000019   -0.000001196    0.000000640
     18        6           0.000000037   -0.000001017    0.000000432
     19        6           0.000000007   -0.000000597    0.000000475
     20        1          -0.000000223    0.000000306   -0.000000089
     21        1          -0.000000068   -0.000001110    0.000000646
     22        1          -0.000000071   -0.000001893    0.000001078
     23        1           0.000000043   -0.000001464    0.000000799
     24        1           0.000000201   -0.000000384    0.000000062
     25        7           0.000002144   -0.000001470    0.000001005
     26        6           0.000000655    0.000000347   -0.000000873
     27        1          -0.000001605    0.000001823   -0.000002359
     28        1           0.000007683   -0.000000289    0.000007194
     29        1           0.000003492    0.000005845   -0.000007856
     30        1          -0.000007963   -0.000003560   -0.000000285
 -------------------------------------------------------------------
 Cartesian Forces:  Max     0.000007963 RMS     0.000002013


 THERE'S A SUCKER BORN EVERY MINUTE

              -- PHINEAS TAYLOR (P.T.) BARNUM
 Error termination request processed by link 9999.
 Error termination via Lnk1e in /apps/gaussian/g16/C.01/g16/l9999.exe at Wed Jan 17 03:55:56 2024.
 Job cpu time:       0 days 19 hours  0 minutes  4.9 seconds.
 Elapsed time:       0 days  3 hours  8 minutes 36.5 seconds.
 File lengths (MBytes):  RWF=      6 Int=      0 D2E=      0 Chk=      2 Scr=      1
