Unloading slurm/anatra/current
  ERROR: No such file or directory on
    '/cm/local/modulefiles/slurm/anatra/current'
environment: line 0: unalias: gv: not found
environment: line 0: unalias: sl: not found
 Entering Gaussian System, Link 0=g16
 Initial command:
 /apps/gaussian/g16/C.01/g16/l1.exe "/local/jobs/1157673/Gau-331906.inp" -scrdir="/local/jobs/1157673/"
 Entering Link 1 = /apps/gaussian/g16/C.01/g16/l1.exe PID=    331907.
  
 Copyright (c) 1988-2019, Gaussian, Inc.  All Rights Reserved.
  
 This is part of the Gaussian(R) 16 program.  It is based on
 the Gaussian(R) 09 system (copyright 2009, Gaussian, Inc.),
 the Gaussian(R) 03 system (copyright 2003, Gaussian, Inc.),
 the Gaussian(R) 98 system (copyright 1998, Gaussian, Inc.),
 the Gaussian(R) 94 system (copyright 1995, Gaussian, Inc.),
 the Gaussian 92(TM) system (copyright 1992, Gaussian, Inc.),
 the Gaussian 90(TM) system (copyright 1990, Gaussian, Inc.),
 the Gaussian 88(TM) system (copyright 1988, Gaussian, Inc.),
 the Gaussian 86(TM) system (copyright 1986, Carnegie Mellon
 University), and the Gaussian 82(TM) system (copyright 1983,
 Carnegie Mellon University). Gaussian is a federally registered
 trademark of Gaussian, Inc.
  
 This software contains proprietary and confidential information,
 including trade secrets, belonging to Gaussian, Inc.
  
 This software is provided under written license and may be
 used, copied, transmitted, or stored only in accord with that
 written license.
  
 The following legend is applicable only to US Government
 contracts under FAR:
  
                    RESTRICTED RIGHTS LEGEND
  
 Use, reproduction and disclosure by the US Government is
 subject to restrictions as set forth in subparagraphs (a)
 and (c) of the Commercial Computer Software - Restricted
 Rights clause in FAR 52.227-19.
  
 Gaussian, Inc.
 340 Quinnipiac St., Bldg. 40, Wallingford CT 06492
  
  
 ---------------------------------------------------------------
 Warning -- This program may not be used in any manner that
 competes with the business of Gaussian, Inc. or will provide
 assistance to any competitor of Gaussian, Inc.  The licensee
 of this program is prohibited from giving any competitor of
 Gaussian, Inc. access to this program.  By using this program,
 the user acknowledges that Gaussian, Inc. is engaged in the
 business of creating and licensing software in the field of
 computational chemistry and represents and warrants to the
 licensee that it is not a competitor of Gaussian, Inc. and that
 it will not use this program in any manner prohibited above.
 ---------------------------------------------------------------
  

 Cite this work as:
 Gaussian 16, Revision C.01,
 M. J. Frisch, G. W. Trucks, H. B. Schlegel, G. E. Scuseria, 
 M. A. Robb, J. R. Cheeseman, G. Scalmani, V. Barone, 
 G. A. Petersson, H. Nakatsuji, X. Li, M. Caricato, A. V. Marenich, 
 J. Bloino, B. G. Janesko, R. Gomperts, B. Mennucci, H. P. Hratchian, 
 J. V. Ortiz, A. F. Izmaylov, J. L. Sonnenberg, D. Williams-Young, 
 F. Ding, F. Lipparini, F. Egidi, J. Goings, B. Peng, A. Petrone, 
 T. Henderson, D. Ranasinghe, V. G. Zakrzewski, J. Gao, N. Rega, 
 G. Zheng, W. Liang, M. Hada, M. Ehara, K. Toyota, R. Fukuda, 
 J. Hasegawa, M. Ishida, T. Nakajima, Y. Honda, O. Kitao, H. Nakai, 
 T. Vreven, K. Throssell, J. A. Montgomery, Jr., J. E. Peralta, 
 F. Ogliaro, M. J. Bearpark, J. J. Heyd, E. N. Brothers, K. N. Kudin, 
 V. N. Staroverov, T. A. Keith, R. Kobayashi, J. Normand, 
 K. Raghavachari, A. P. Rendell, J. C. Burant, S. S. Iyengar, 
 J. Tomasi, M. Cossi, J. M. Millam, M. Klene, C. Adamo, R. Cammi, 
 J. W. Ochterski, R. L. Martin, K. Morokuma, O. Farkas, 
 J. B. Foresman, and D. J. Fox, Gaussian, Inc., Wallingford CT, 2019.
 
 ******************************************
 Gaussian 16:  ES64L-G16RevC.01  3-Jul-2019
                16-Jan-2024 
 ******************************************
 %nprocshared=12
 Will use up to   12 processors via shared memory.
 %mem=48GB
 ----------------------------------------------------------------------
 # external="~/scripts/MiMe -H 'hf def2svp' -EF 'wb97xd def2svp' -c 12 
 -m 48GB" opt=(calcall,ts,noeigen,maxcycles=50,maxstep=10,nomicro)
 ----------------------------------------------------------------------
 1/5=1,6=50,8=10,10=4,11=1,18=20,26=1,38=1/1,3;
 2/9=110,12=2,17=6,18=5,40=1/2;
 3/11=9,25=1,30=1,41=9900000,43=2,71=2,140=1/1;
 4/20=17,22=2,24=3,113=1,114=1/2;
 6/7=2,8=2,9=2,10=2,18=1/1;
 7/25=1,44=-1/16;
 1/5=1,6=50,8=10,10=4,11=1,18=20,26=1/3(3);
 2/9=110/2;
 7/8=1,9=1,25=1,44=-1/16;
 99//99;
 2/9=110/2;
 3/11=9,25=1,30=1,41=9900000,43=2,71=2,140=1/1;
 4/16=2,20=17,22=2,24=3,113=1,114=1/2;
 7/25=1,44=-1/16;
 1/5=1,6=50,8=10,10=4,11=1,18=20,26=1/3(-4);
 2/9=110/2;
 6/7=2,8=2,9=2,10=2,18=1/1;
 7/8=1,9=1,25=1,44=-1/16;
 99//99;
 -----
 *****
 -----
 Symbolic Z-matrix:
 Charge =  0 Multiplicity = 1
 C                     0.7952   -0.3887   -0.8761 
 C                    -1.5119   -0.557    -0.2726 
 C                     0.2953    1.9111   -0.4892 
 C                    -1.9384    0.8105   -0.17 
 N                     1.1554    0.8132   -0.1629 
 H                    -2.4403    1.2646   -1.0159 
 H                    -0.0681    2.0507   -1.5043 
 H                    -1.7658   -1.191    -1.1121 
 H                     0.1873    2.7498    0.1944 
 H                     0.4382   -0.2881   -1.9022 
 H                    -2.0602    1.2339    0.8204 
 F                    -1.4481   -1.2825    0.863 
 C                     1.3984   -1.7207   -0.5386 
 H                     1.0027   -2.487    -1.2129 
 H                     2.4852   -1.692    -0.6607 
 H                     1.1594   -2.0217    0.4852 
 C                     1.4768    0.6754    1.2476 
 H                     1.7665    1.6392    1.6839 
 H                     0.6339    0.2847    1.8294 
 H                     2.335     0.0097    1.3941 
 
 Add virtual bond connecting atoms C2         and C1         Dist= 4.52D+00.
 Add virtual bond connecting atoms C4         and C3         Dist= 4.74D+00.
 Add virtual bond connecting atoms H6         and H7         Dist= 4.81D+00.
 Add virtual bond connecting atoms H8         and H10        Dist= 4.74D+00.

 GradGradGradGradGradGradGradGradGradGradGradGradGradGradGradGradGradGrad
 Berny optimization.
 Initialization pass.
                           ----------------------------
                           !    Initial Parameters    !
                           ! (Angstroms and Degrees)  !
 --------------------------                            --------------------------
 ! Name  Definition              Value          Derivative Info.                !
 --------------------------------------------------------------------------------
 ! R1    R(1,2)                  2.3907         calculate D2E/DX2 analytically  !
 ! R2    R(1,5)                  1.4432         calculate D2E/DX2 analytically  !
 ! R3    R(1,10)                 1.0911         calculate D2E/DX2 analytically  !
 ! R4    R(1,13)                 1.5007         calculate D2E/DX2 analytically  !
 ! R5    R(2,4)                  1.4361         calculate D2E/DX2 analytically  !
 ! R6    R(2,8)                  1.0822         calculate D2E/DX2 analytically  !
 ! R7    R(2,12)                 1.3491         calculate D2E/DX2 analytically  !
 ! R8    R(3,4)                  2.5105         calculate D2E/DX2 analytically  !
 ! R9    R(3,5)                  1.4324         calculate D2E/DX2 analytically  !
 ! R10   R(3,7)                  1.0872         calculate D2E/DX2 analytically  !
 ! R11   R(3,9)                  1.0874         calculate D2E/DX2 analytically  !
 ! R12   R(4,6)                  1.0834         calculate D2E/DX2 analytically  !
 ! R13   R(4,11)                 1.084          calculate D2E/DX2 analytically  !
 ! R14   R(5,17)                 1.4532         calculate D2E/DX2 analytically  !
 ! R15   R(6,7)                  2.5463         calculate D2E/DX2 analytically  !
 ! R16   R(8,10)                 2.5094         calculate D2E/DX2 analytically  !
 ! R17   R(13,14)                1.0947         calculate D2E/DX2 analytically  !
 ! R18   R(13,15)                1.094          calculate D2E/DX2 analytically  !
 ! R19   R(13,16)                1.0936         calculate D2E/DX2 analytically  !
 ! R20   R(17,18)                1.0969         calculate D2E/DX2 analytically  !
 ! R21   R(17,19)                1.0962         calculate D2E/DX2 analytically  !
 ! R22   R(17,20)                1.096          calculate D2E/DX2 analytically  !
 ! A1    A(2,1,5)              100.0631         calculate D2E/DX2 analytically  !
 ! A2    A(2,1,10)              85.8789         calculate D2E/DX2 analytically  !
 ! A3    A(2,1,13)             105.5837         calculate D2E/DX2 analytically  !
 ! A4    A(5,1,10)             118.0091         calculate D2E/DX2 analytically  !
 ! A5    A(5,1,13)             121.8517         calculate D2E/DX2 analytically  !
 ! A6    A(10,1,13)            115.1422         calculate D2E/DX2 analytically  !
 ! A7    A(1,2,4)              103.7448         calculate D2E/DX2 analytically  !
 ! A8    A(1,2,8)               94.1191         calculate D2E/DX2 analytically  !
 ! A9    A(1,2,12)             101.8128         calculate D2E/DX2 analytically  !
 ! A10   A(4,2,8)              122.9279         calculate D2E/DX2 analytically  !
 ! A11   A(4,2,12)             117.7738         calculate D2E/DX2 analytically  !
 ! A12   A(8,2,12)             110.4275         calculate D2E/DX2 analytically  !
 ! A13   A(4,3,5)               99.7457         calculate D2E/DX2 analytically  !
 ! A14   A(4,3,7)               82.9697         calculate D2E/DX2 analytically  !
 ! A15   A(4,3,9)               99.7783         calculate D2E/DX2 analytically  !
 ! A16   A(5,3,7)              120.7865         calculate D2E/DX2 analytically  !
 ! A17   A(5,3,9)              120.5063         calculate D2E/DX2 analytically  !
 ! A18   A(7,3,9)              117.0486         calculate D2E/DX2 analytically  !
 ! A19   A(2,4,3)               98.2869         calculate D2E/DX2 analytically  !
 ! A20   A(2,4,6)              118.7462         calculate D2E/DX2 analytically  !
 ! A21   A(2,4,11)             118.0718         calculate D2E/DX2 analytically  !
 ! A22   A(3,4,6)               97.4214         calculate D2E/DX2 analytically  !
 ! A23   A(3,4,11)              92.5739         calculate D2E/DX2 analytically  !
 ! A24   A(6,4,11)             119.8434         calculate D2E/DX2 analytically  !
 ! A25   A(1,5,3)              112.079          calculate D2E/DX2 analytically  !
 ! A26   A(1,5,17)             117.1211         calculate D2E/DX2 analytically  !
 ! A27   A(3,5,17)             115.2522         calculate D2E/DX2 analytically  !
 ! A28   A(4,6,7)               81.232          calculate D2E/DX2 analytically  !
 ! A29   A(3,7,6)               95.3172         calculate D2E/DX2 analytically  !
 ! A30   A(2,8,10)              80.0607         calculate D2E/DX2 analytically  !
 ! A31   A(1,10,8)              87.5985         calculate D2E/DX2 analytically  !
 ! A32   A(1,13,14)            109.7242         calculate D2E/DX2 analytically  !
 ! A33   A(1,13,15)            110.5436         calculate D2E/DX2 analytically  !
 ! A34   A(1,13,16)            111.5317         calculate D2E/DX2 analytically  !
 ! A35   A(14,13,15)           107.9802         calculate D2E/DX2 analytically  !
 ! A36   A(14,13,16)           107.7571         calculate D2E/DX2 analytically  !
 ! A37   A(15,13,16)           109.197          calculate D2E/DX2 analytically  !
 ! A38   A(5,17,18)            111.1716         calculate D2E/DX2 analytically  !
 ! A39   A(5,17,19)            112.2648         calculate D2E/DX2 analytically  !
 ! A40   A(5,17,20)            111.1327         calculate D2E/DX2 analytically  !
 ! A41   A(18,17,19)           107.7668         calculate D2E/DX2 analytically  !
 ! A42   A(18,17,20)           105.8861         calculate D2E/DX2 analytically  !
 ! A43   A(19,17,20)           108.3418         calculate D2E/DX2 analytically  !
 ! D1    D(5,1,2,4)             33.7023         calculate D2E/DX2 analytically  !
 ! D2    D(5,1,2,8)            159.0596         calculate D2E/DX2 analytically  !
 ! D3    D(5,1,2,12)           -89.0669         calculate D2E/DX2 analytically  !
 ! D4    D(10,1,2,4)           -84.0338         calculate D2E/DX2 analytically  !
 ! D5    D(10,1,2,8)            41.3235         calculate D2E/DX2 analytically  !
 ! D6    D(10,1,2,12)          153.1971         calculate D2E/DX2 analytically  !
 ! D7    D(13,1,2,4)           160.9971         calculate D2E/DX2 analytically  !
 ! D8    D(13,1,2,8)           -73.6456         calculate D2E/DX2 analytically  !
 ! D9    D(13,1,2,12)           38.2279         calculate D2E/DX2 analytically  !
 ! D10   D(2,1,5,3)            -54.2014         calculate D2E/DX2 analytically  !
 ! D11   D(2,1,5,17)            82.2671         calculate D2E/DX2 analytically  !
 ! D12   D(10,1,5,3)            36.4703         calculate D2E/DX2 analytically  !
 ! D13   D(10,1,5,17)          172.9388         calculate D2E/DX2 analytically  !
 ! D14   D(13,1,5,3)          -169.762          calculate D2E/DX2 analytically  !
 ! D15   D(13,1,5,17)          -33.2935         calculate D2E/DX2 analytically  !
 ! D16   D(2,1,10,8)           -16.5159         calculate D2E/DX2 analytically  !
 ! D17   D(5,1,10,8)          -115.7287         calculate D2E/DX2 analytically  !
 ! D18   D(13,1,10,8)           88.7748         calculate D2E/DX2 analytically  !
 ! D19   D(2,1,13,14)           68.4348         calculate D2E/DX2 analytically  !
 ! D20   D(2,1,13,15)         -172.5816         calculate D2E/DX2 analytically  !
 ! D21   D(2,1,13,16)          -50.8897         calculate D2E/DX2 analytically  !
 ! D22   D(5,1,13,14)         -178.8076         calculate D2E/DX2 analytically  !
 ! D23   D(5,1,13,15)          -59.824          calculate D2E/DX2 analytically  !
 ! D24   D(5,1,13,16)           61.8678         calculate D2E/DX2 analytically  !
 ! D25   D(10,1,13,14)         -24.344          calculate D2E/DX2 analytically  !
 ! D26   D(10,1,13,15)          94.6396         calculate D2E/DX2 analytically  !
 ! D27   D(10,1,13,16)        -143.6685         calculate D2E/DX2 analytically  !
 ! D28   D(1,2,4,3)             -6.061          calculate D2E/DX2 analytically  !
 ! D29   D(1,2,4,6)             97.1637         calculate D2E/DX2 analytically  !
 ! D30   D(1,2,4,11)          -103.4791         calculate D2E/DX2 analytically  !
 ! D31   D(8,2,4,3)           -110.3321         calculate D2E/DX2 analytically  !
 ! D32   D(8,2,4,6)             -7.1074         calculate D2E/DX2 analytically  !
 ! D33   D(8,2,4,11)           152.2498         calculate D2E/DX2 analytically  !
 ! D34   D(12,2,4,3)           105.4705         calculate D2E/DX2 analytically  !
 ! D35   D(12,2,4,6)          -151.3049         calculate D2E/DX2 analytically  !
 ! D36   D(12,2,4,11)            8.0523         calculate D2E/DX2 analytically  !
 ! D37   D(1,2,8,10)           -16.9011         calculate D2E/DX2 analytically  !
 ! D38   D(4,2,8,10)            92.3946         calculate D2E/DX2 analytically  !
 ! D39   D(12,2,8,10)         -121.1326         calculate D2E/DX2 analytically  !
 ! D40   D(5,3,4,2)            -20.024          calculate D2E/DX2 analytically  !
 ! D41   D(5,3,4,6)           -140.6267         calculate D2E/DX2 analytically  !
 ! D42   D(5,3,4,11)            98.8294         calculate D2E/DX2 analytically  !
 ! D43   D(7,3,4,2)            100.1142         calculate D2E/DX2 analytically  !
 ! D44   D(7,3,4,6)            -20.4885         calculate D2E/DX2 analytically  !
 ! D45   D(7,3,4,11)          -141.0324         calculate D2E/DX2 analytically  !
 ! D46   D(9,3,4,2)           -143.5461         calculate D2E/DX2 analytically  !
 ! D47   D(9,3,4,6)             95.8512         calculate D2E/DX2 analytically  !
 ! D48   D(9,3,4,11)           -24.6927         calculate D2E/DX2 analytically  !
 ! D49   D(4,3,5,1)             49.9272         calculate D2E/DX2 analytically  !
 ! D50   D(4,3,5,17)           -87.4015         calculate D2E/DX2 analytically  !
 ! D51   D(7,3,5,1)            -37.6527         calculate D2E/DX2 analytically  !
 ! D52   D(7,3,5,17)          -174.9813         calculate D2E/DX2 analytically  !
 ! D53   D(9,3,5,1)            157.4572         calculate D2E/DX2 analytically  !
 ! D54   D(9,3,5,17)            20.1285         calculate D2E/DX2 analytically  !
 ! D55   D(4,3,7,6)              8.5289         calculate D2E/DX2 analytically  !
 ! D56   D(5,3,7,6)            105.7132         calculate D2E/DX2 analytically  !
 ! D57   D(9,3,7,6)            -88.8927         calculate D2E/DX2 analytically  !
 ! D58   D(2,4,6,7)            -95.0917         calculate D2E/DX2 analytically  !
 ! D59   D(3,4,6,7)              8.6313         calculate D2E/DX2 analytically  !
 ! D60   D(11,4,6,7)           105.9241         calculate D2E/DX2 analytically  !
 ! D61   D(1,5,17,18)          178.1796         calculate D2E/DX2 analytically  !
 ! D62   D(1,5,17,19)          -61.0126         calculate D2E/DX2 analytically  !
 ! D63   D(1,5,17,20)           60.5078         calculate D2E/DX2 analytically  !
 ! D64   D(3,5,17,18)          -46.7049         calculate D2E/DX2 analytically  !
 ! D65   D(3,5,17,19)           74.1029         calculate D2E/DX2 analytically  !
 ! D66   D(3,5,17,20)         -164.3767         calculate D2E/DX2 analytically  !
 ! D67   D(4,6,7,3)            -20.1898         calculate D2E/DX2 analytically  !
 ! D68   D(2,8,10,1)            39.4876         calculate D2E/DX2 analytically  !
 --------------------------------------------------------------------------------
 Trust Radius=1.00D-01 FncErr=1.00D-07 GrdErr=1.00D-07 EigMax=2.50D+02 EigMin=1.00D-04
 Number of steps in this run=     50 maximum allowed number of steps=    120.
 Search for a saddle point of order  1.
 GradGradGradGradGradGradGradGradGradGradGradGradGradGradGradGradGradGrad

                          Input orientation:                          
 ---------------------------------------------------------------------
 Center     Atomic      Atomic             Coordinates (Angstroms)
 Number     Number       Type             X           Y           Z
 ---------------------------------------------------------------------
      1          6           0        0.795200   -0.388700   -0.876100
      2          6           0       -1.511900   -0.557000   -0.272600
      3          6           0        0.295300    1.911100   -0.489200
      4          6           0       -1.938400    0.810500   -0.170000
      5          7           0        1.155400    0.813200   -0.162900
      6          1           0       -2.440300    1.264600   -1.015900
      7          1           0       -0.068100    2.050700   -1.504300
      8          1           0       -1.765800   -1.191000   -1.112100
      9          1           0        0.187300    2.749800    0.194400
     10          1           0        0.438200   -0.288100   -1.902200
     11          1           0       -2.060200    1.233900    0.820400
     12          9           0       -1.448100   -1.282500    0.863000
     13          6           0        1.398400   -1.720700   -0.538600
     14          1           0        1.002700   -2.487000   -1.212900
     15          1           0        2.485200   -1.692000   -0.660700
     16          1           0        1.159400   -2.021700    0.485200
     17          6           0        1.476800    0.675400    1.247600
     18          1           0        1.766500    1.639200    1.683900
     19          1           0        0.633900    0.284700    1.829400
     20          1           0        2.335000    0.009700    1.394100
 ---------------------------------------------------------------------
                    Distance matrix (angstroms):
                    1          2          3          4          5
     1  C    0.000000
     2  C    2.390658   0.000000
     3  C    2.385094   3.066660   0.000000
     4  C    3.067446   1.436136   2.510503   0.000000
     5  N    1.443247   3.000662   1.432351   3.093809   0.000000
     6  H    3.636125   2.175465   2.859875   1.083355   3.722960
     7  H    2.662817   3.225173   1.087187   2.610838   2.197206
     8  H    2.694087   1.082211   3.776131   2.218861   3.667589
     9  H    3.371305   3.747038   1.087378   2.900392   2.194379
    10  H    1.091078   2.555542   2.617913   3.139374   2.180000
    11  H    3.696519   2.168549   2.778854   1.083972   3.388798
    12  F    2.975860   1.349077   3.881619   2.384981   3.496089
    13  C    1.500660   3.145600   3.795951   4.204411   2.573101
    14  H    2.135264   3.306399   4.513030   4.539958   3.466574
    15  H    2.145015   4.173207   4.219882   5.106029   2.879618
    16  H    2.156958   3.139339   4.142830   4.248177   2.908042
    17  C    2.471232   3.572415   2.437082   3.700194   1.453202
    18  H    3.407257   4.404440   2.638318   4.224923   2.113383
    19  H    2.792708   3.119506   2.852321   3.300120   2.126155
    20  H    2.771915   4.230565   3.364895   4.620567   2.112183
                    6          7          8          9         10
     6  H    0.000000
     7  H    2.546335   0.000000
     8  H    2.548367   3.680302   0.000000
     9  H    3.251911   1.854603   4.588186   0.000000
    10  H    3.388535   2.425830   2.509403   3.699665   0.000000
    11  H    1.875478   3.168573   3.114702   2.782281   3.996378
    12  F    3.316993   4.314943   2.002580   4.402386   3.491889
    13  C    4.886251   4.160127   3.259087   4.689288   2.198575
    14  H    5.095838   4.671429   3.058491   5.483561   2.372542
    15  H    5.755710   4.608558   4.304157   5.073571   2.775332
    16  H    5.100089   4.695669   3.434854   4.878192   3.037298
    17  C    4.562265   3.442546   4.423357   2.659920   3.453732
    18  H    5.012625   3.701312   5.320225   2.438425   4.282403
    19  H    4.301935   3.837332   4.072919   2.991554   3.780375
    20  H    5.494212   4.282674   4.953714   3.682396   3.814725
                   11         12         13         14         15
    11  H    0.000000
    12  F    2.590126   0.000000
    13  C    4.747468   3.202977   0.000000
    14  H    5.230752   3.430248   1.094749   0.000000
    15  H    5.604927   4.237948   1.094014   1.770524   0.000000
    16  H    4.590982   2.736459   1.093567   1.767655   1.783125
    17  C    3.606216   3.540668   2.989641   4.034799   3.203601
    18  H    3.943797   4.420844   4.045236   5.099056   4.136493
    19  H    3.029395   2.779347   3.195859   4.132060   3.679029
    20  H    4.598432   4.032827   2.758049   3.847724   2.672180
                   16         17         18         19         20
    16  H    0.000000
    17  C    2.820699   0.000000
    18  H    3.899698   1.096902   0.000000
    19  H    2.720754   1.096183   1.771616   0.000000
    20  H    2.516887   1.095959   1.749985   1.777316   0.000000
 Stoichiometry    C6H12FN
 Framework group  C1[X(C6H12FN)]
 Deg. of freedom    54
 Full point group                 C1      NOp   1
 Largest Abelian subgroup         C1      NOp   1
 Largest concise Abelian subgroup C1      NOp   1
                         Standard orientation:                         
 ---------------------------------------------------------------------
 Center     Atomic      Atomic             Coordinates (Angstroms)
 Number     Number       Type             X           Y           Z
 ---------------------------------------------------------------------
      1          6           0       -0.708768    0.500977   -0.853229
      2          6           0        1.596693    0.384316   -0.231550
      3          6           0       -0.480472   -1.851490   -0.533147
      4          6           0        1.862007   -1.025662   -0.167871
      5          7           0       -1.211478   -0.671790   -0.178794
      6          1           0        2.316107   -1.509572   -1.024189
      7          1           0       -0.126185   -2.002195   -1.549879
      8          1           0        1.929622    1.009185   -1.050011
      9          1           0       -0.476039   -2.716759    0.125398
     10          1           0       -0.356249    0.390055   -1.879815
     11          1           0        1.925108   -1.489182    0.809965
     12          9           0        1.606321    1.078672    0.925077
     13          6           0       -1.157754    1.883160   -0.479115
     14          1           0       -0.670274    2.618186   -1.127632
     15          1           0       -2.239460    1.983574   -0.608326
     16          1           0       -0.895174    2.124398    0.554686
     17          6           0       -1.527907   -0.539326    1.233340
     18          1           0       -1.930627   -1.475683    1.638613
     19          1           0       -0.651057   -0.265685    1.831564
     20          1           0       -2.305107    0.216305    1.394921
 ---------------------------------------------------------------------
 Rotational constants (GHZ):           2.1495626           1.7137595           1.2884224
 Standard basis: STO-3G (5D, 7F)
 There are    52 symmetry adapted cartesian basis functions of A   symmetry.
 There are    52 symmetry adapted basis functions of A   symmetry.
    52 basis functions,   156 primitive gaussians,    52 cartesian basis functions
    32 alpha electrons       32 beta electrons
       nuclear repulsion energy       395.3818641918 Hartrees.
 NAtoms=   20 NActive=   20 NUniq=   20 SFac= 1.00D+00 NAtFMM=   60 NAOKFM=F Big=F
 Integral buffers will be    131072 words long.
 Raffenetti 1 integral format.
 Two-electron integral symmetry is turned on.
 External calculation of energy, first and second derivatives.
 Running external command "~/scripts/MiMe -H 'hf def2svp' -EF 'wb97xd def2svp' -c 12 -m 48GB R"
         input file       "/local/jobs/1157673/Gau-331907.EIn"
         output file      "/local/jobs/1157673/Gau-331907.EOu"
         message file     "/local/jobs/1157673/Gau-331907.EMs"
         fchk file        "/local/jobs/1157673/Gau-331907.EFC"
         mat. el file     "/local/jobs/1157673/Gau-331907.EUF"
 Read checkpoint file Gau-331907_H.chk type G16
 Write formatted file Gau-331907_H.fchk

deriv: 2

spelevel: wb97xd def2svp
gradlevel: wb97xd def2svp
hesslevel: hf def2svp

runspe: False
runforce: True
runfreq: True

Running Gaussian ...

Parsing files ...
SPE file: Gau-331907_F.out
FORCE file: Gau-331907_F.out
HESS file: Gau-331907_H.out

 ExternalExternalExternalExternalExternalExternalExternalExternalExternalExternal
 Output from external command:
 "~/scripts/MiMe -H 'hf def2svp' -EF 'wb97xd def2svp' -c 12 -m 48GB R /local/jobs/1157673/Gau-331907.EIn /local/jobs/1157673/Gau-331907.EOu /local/jobs/1157673/Gau-331907.EMs /local/jobs/1157673/Gau-331907.EFC /local/jobs/1157673/Gau-331907.EUF"
  
 --------------------------------------------------
 Force calculation at wb97xd def2svp
 Hessian calculation at hf def2svp
 ExternalExternalExternalExternalExternalExternalExternalExternalExternalExternal

 Recovered energy= -389.898671614     dipole=     -1.460200000000     -0.441500000000     -0.351600000000
 Energy=    -389.898672     NIter=   0.
 Dipole moment=      -1.460200      -0.441500      -0.351600
 ***** Axes restored to original set *****
 -------------------------------------------------------------------
 Center     Atomic                   Forces (Hartrees/Bohr)
 Number     Number              X              Y              Z
 -------------------------------------------------------------------
      1        6          -0.007705034    0.017772796    0.031531870
      2        6           0.001526143    0.047411992    0.004826981
      3        6           0.012548850   -0.038148715    0.018144280
      4        6           0.038288521   -0.041952067   -0.004743163
      5        7          -0.083321878   -0.000126937   -0.045315267
      6        1          -0.000051173    0.004185501   -0.003614751
      7        1           0.009029800   -0.003967241   -0.002997930
      8        1          -0.001538034   -0.002350445   -0.008870294
      9        1           0.010320365    0.000980586    0.002629191
     10        1           0.006429800    0.011925723   -0.000091129
     11        1          -0.003874826    0.001763602    0.003903493
     12        9           0.006676083   -0.001790772    0.005967221
     13        6           0.001768033    0.013306476   -0.000526167
     14        1          -0.001358546   -0.000569731   -0.001641754
     15        1           0.007908760   -0.004682140    0.000679219
     16        1          -0.000245767   -0.002434596    0.004945284
     17        6           0.008879503    0.000722686    0.004181989
     18        1          -0.000999534    0.003180443   -0.004273414
     19        1          -0.004937397   -0.002506046   -0.001991982
     20        1           0.000656332   -0.002721117   -0.002743676
 -------------------------------------------------------------------
 Cartesian Forces:  Max     0.083321878 RMS     0.017769170
 FormGI is forming the generalized inverse of G from B-inverse, IUseBI=4.

 GradGradGradGradGradGradGradGradGradGradGradGradGradGradGradGradGradGrad
 Berny optimization.
 Internal  Forces:  Max     0.061263096 RMS     0.009196453
 Search for a saddle point.
 Step number   1 out of a maximum of   50
 All quantities printed in internal units (Hartrees-Bohrs-Radians)
 Swapping is turned off.
 Second derivative matrix not updated -- analytic derivatives used.
 ITU=  0
     Eigenvalues ---   -0.04509   0.00041   0.00465   0.00508   0.00693
     Eigenvalues ---    0.00819   0.00967   0.01278   0.01394   0.01643
     Eigenvalues ---    0.01752   0.02078   0.02344   0.02923   0.03692
     Eigenvalues ---    0.04361   0.04709   0.05434   0.05490   0.05560
     Eigenvalues ---    0.05855   0.06022   0.06964   0.07435   0.07514
     Eigenvalues ---    0.07673   0.09159   0.11693   0.14758   0.14845
     Eigenvalues ---    0.15278   0.16505   0.17995   0.19018   0.20473
     Eigenvalues ---    0.20567   0.26037   0.29642   0.33231   0.34600
     Eigenvalues ---    0.34723   0.35678   0.35994   0.36147   0.36284
     Eigenvalues ---    0.36579   0.36934   0.37390   0.37633   0.39040
     Eigenvalues ---    0.39094   0.39621   0.40356   0.43555
 Eigenvectors required to have negative eigenvalues:
                          R1        R8        D33       D51       D35
   1                   -0.56275  -0.50603  -0.16855  -0.16616   0.15511
                          R16       R5        D12       D31       D39
   1                   -0.15064   0.14522   0.13703  -0.12472  -0.12151
 RFO step:  Lambda0=4.936152180D-04 Lambda=-4.41679788D-02.
 Linear search not attempted -- option 19 set.
 Maximum step size (   0.100) exceeded in Quadratic search.
    -- Step size scaled by   0.258
 Iteration  1 RMS(Cart)=  0.01548302 RMS(Int)=  0.00018416
 Iteration  2 RMS(Cart)=  0.00023530 RMS(Int)=  0.00008934
 Iteration  3 RMS(Cart)=  0.00000005 RMS(Int)=  0.00008934
 Variable       Old X    -DE/DX   Delta X   Delta X   Delta X     New X
                                 (Linear)    (Quad)   (Total)
    R1        4.51769  -0.02000   0.00000  -0.01685  -0.01684   4.50085
    R2        2.72734  -0.05416   0.00000  -0.04728  -0.04712   2.68022
    R3        2.06184  -0.00138   0.00000  -0.00039  -0.00038   2.06146
    R4        2.83584  -0.00097   0.00000  -0.00055  -0.00055   2.83529
    R5        2.71390  -0.04482   0.00000  -0.03622  -0.03640   2.67750
    R6        2.04508   0.00852   0.00000   0.00478   0.00473   2.04982
    R7        2.54939   0.00630   0.00000   0.00503   0.00503   2.55442
    R8        4.74416  -0.01701   0.00000  -0.01101  -0.01103   4.73313
    R9        2.70675  -0.06126   0.00000  -0.05068  -0.05054   2.65621
   R10        2.05449  -0.00211   0.00000  -0.00064  -0.00064   2.05385
   R11        2.05485   0.00138   0.00000   0.00015   0.00015   2.05499
   R12        2.04724   0.00604   0.00000   0.00317   0.00313   2.05038
   R13        2.04841   0.00469   0.00000   0.00299   0.00299   2.05140
   R14        2.74615  -0.00376   0.00000   0.00295   0.00295   2.74910
   R15        4.81188  -0.00135   0.00000  -0.00137  -0.00139   4.81049
   R16        4.74208  -0.00273   0.00000  -0.00299  -0.00299   4.73909
   R17        2.06878   0.00190   0.00000   0.00143   0.00143   2.07020
   R18        2.06739   0.00766   0.00000   0.00482   0.00482   2.07220
   R19        2.06654   0.00535   0.00000   0.00334   0.00334   2.06988
   R20        2.07284   0.00083   0.00000  -0.00032  -0.00032   2.07252
   R21        2.07149   0.00363   0.00000   0.00120   0.00120   2.07268
   R22        2.07106   0.00180   0.00000   0.00011   0.00011   2.07117
    A1        1.74643  -0.00320   0.00000  -0.01522  -0.01508   1.73135
    A2        1.49887   0.00476   0.00000   0.00813   0.00809   1.50696
    A3        1.84278   0.00079   0.00000   0.00518   0.00503   1.84782
    A4        2.05965  -0.00690   0.00000  -0.01116  -0.01120   2.04844
    A5        2.12671   0.00153   0.00000   0.00554   0.00558   2.13230
    A6        2.00961   0.00425   0.00000   0.00636   0.00633   2.01595
    A7        1.81069  -0.00324   0.00000  -0.00219  -0.00226   1.80843
    A8        1.64269   0.00229   0.00000  -0.00390  -0.00386   1.63883
    A9        1.77697  -0.00234   0.00000  -0.01446  -0.01442   1.76255
   A10        2.14550   0.00026   0.00000   0.00351   0.00356   2.14905
   A11        2.05554   0.00024   0.00000   0.00500   0.00484   2.06038
   A12        1.92732   0.00155   0.00000   0.00295   0.00285   1.93018
   A13        1.74089  -0.00629   0.00000  -0.02159  -0.02146   1.71943
   A14        1.44809   0.00679   0.00000   0.00992   0.00987   1.45796
   A15        1.74146   0.00397   0.00000   0.01560   0.01544   1.75690
   A16        2.10812  -0.00537   0.00000  -0.00720  -0.00723   2.10089
   A17        2.10323   0.00013   0.00000  -0.00165  -0.00149   2.10174
   A18        2.04288   0.00418   0.00000   0.00819   0.00803   2.05091
   A19        1.71543  -0.00137   0.00000   0.00275   0.00264   1.71807
   A20        2.07251   0.00243   0.00000   0.00358   0.00367   2.07618
   A21        2.06074  -0.00131   0.00000   0.00336   0.00327   2.06401
   A22        1.70032  -0.00010   0.00000  -0.00653  -0.00648   1.69384
   A23        1.61572   0.00077   0.00000  -0.00238  -0.00238   1.61334
   A24        2.09166  -0.00092   0.00000  -0.00474  -0.00476   2.08690
   A25        1.95615   0.01519   0.00000   0.02777   0.02775   1.98390
   A26        2.04415  -0.00726   0.00000  -0.00259  -0.00290   2.04125
   A27        2.01153  -0.00355   0.00000   0.00039   0.00014   2.01167
   A28        1.41777  -0.00162   0.00000   0.00488   0.00481   1.42258
   A29        1.66360  -0.00590   0.00000  -0.01028  -0.01024   1.65336
   A30        1.39732  -0.00462   0.00000   0.00089   0.00085   1.39817
   A31        1.52888  -0.00376   0.00000  -0.00906  -0.00902   1.51986
   A32        1.91505  -0.00323   0.00000  -0.00404  -0.00404   1.91101
   A33        1.92935   0.00761   0.00000   0.01103   0.01102   1.94037
   A34        1.94660   0.00080   0.00000   0.00190   0.00188   1.94848
   A35        1.88461  -0.00197   0.00000  -0.00321  -0.00320   1.88141
   A36        1.88072   0.00015   0.00000  -0.00222  -0.00222   1.87850
   A37        1.90585  -0.00366   0.00000  -0.00398  -0.00401   1.90184
   A38        1.94031  -0.00556   0.00000  -0.00571  -0.00572   1.93459
   A39        1.95939  -0.00474   0.00000  -0.01059  -0.01062   1.94877
   A40        1.93963  -0.00217   0.00000  -0.00151  -0.00152   1.93811
   A41        1.88088   0.00532   0.00000   0.00776   0.00772   1.88861
   A42        1.84806   0.00499   0.00000   0.00743   0.00743   1.85549
   A43        1.89092   0.00311   0.00000   0.00412   0.00410   1.89502
    D1        0.58822  -0.00463   0.00000  -0.00564  -0.00580   0.58242
    D2        2.77611  -0.00440   0.00000  -0.00385  -0.00395   2.77216
    D3       -1.55451  -0.00259   0.00000  -0.00413  -0.00421  -1.55872
    D4       -1.46667   0.00165   0.00000   0.00455   0.00448  -1.46219
    D5        0.72123   0.00188   0.00000   0.00634   0.00633   0.72756
    D6        2.67379   0.00369   0.00000   0.00606   0.00607   2.67986
    D7        2.80993  -0.00411   0.00000  -0.00455  -0.00466   2.80527
    D8       -1.28536  -0.00388   0.00000  -0.00276  -0.00281  -1.28817
    D9        0.66720  -0.00207   0.00000  -0.00304  -0.00307   0.66413
   D10       -0.94599  -0.00496   0.00000  -0.01850  -0.01878  -0.96477
   D11        1.43583  -0.00103   0.00000   0.01171   0.01165   1.44748
   D12        0.63653  -0.00248   0.00000  -0.01935  -0.01944   0.61708
   D13        3.01835   0.00145   0.00000   0.01086   0.01098   3.02933
   D14       -2.96291  -0.00425   0.00000  -0.01607  -0.01625  -2.97916
   D15       -0.58108  -0.00032   0.00000   0.01414   0.01418  -0.56691
   D16       -0.28826  -0.00204   0.00000  -0.00321  -0.00322  -0.29147
   D17       -2.01985  -0.00083   0.00000   0.00989   0.00975  -2.01010
   D18        1.54941   0.00129   0.00000   0.00665   0.00657   1.55598
   D19        1.19441   0.00265   0.00000   0.00704   0.00701   1.20142
   D20       -3.01212   0.00290   0.00000   0.00735   0.00731  -3.00481
   D21       -0.88819   0.00407   0.00000   0.01125   0.01122  -0.87697
   D22       -3.12078  -0.00003   0.00000  -0.00562  -0.00557  -3.12635
   D23       -1.04413   0.00021   0.00000  -0.00530  -0.00527  -1.04939
   D24        1.07980   0.00138   0.00000  -0.00141  -0.00136   1.07844
   D25       -0.42488  -0.00446   0.00000  -0.00670  -0.00670  -0.43159
   D26        1.65177  -0.00421   0.00000  -0.00638  -0.00640   1.64537
   D27       -2.50749  -0.00304   0.00000  -0.00249  -0.00249  -2.50998
   D28       -0.10578   0.00083   0.00000   0.00174   0.00174  -0.10404
   D29        1.69583   0.00057   0.00000  -0.00328  -0.00327   1.69256
   D30       -1.80605   0.00099   0.00000   0.00223   0.00230  -1.80376
   D31       -1.92566   0.00019   0.00000   0.00680   0.00679  -1.91887
   D32       -0.12405  -0.00007   0.00000   0.00177   0.00178  -0.12227
   D33        2.65726   0.00035   0.00000   0.00729   0.00734   2.66460
   D34        1.84081  -0.00406   0.00000  -0.01506  -0.01514   1.82567
   D35       -2.64077  -0.00433   0.00000  -0.02009  -0.02015  -2.66092
   D36        0.14054  -0.00390   0.00000  -0.01458  -0.01459   0.12595
   D37       -0.29498  -0.00097   0.00000  -0.00246  -0.00244  -0.29742
   D38        1.61259  -0.00324   0.00000  -0.00686  -0.00690   1.60569
   D39       -2.11416   0.00037   0.00000   0.01424   0.01422  -2.09994
   D40       -0.34948   0.00377   0.00000   0.00131   0.00148  -0.34801
   D41       -2.45440   0.00159   0.00000  -0.00145  -0.00135  -2.45575
   D42        1.72490   0.00240   0.00000   0.00464   0.00471   1.72960
   D43        1.74732  -0.00056   0.00000  -0.00382  -0.00375   1.74357
   D44       -0.35759  -0.00273   0.00000  -0.00657  -0.00658  -0.36418
   D45       -2.46148  -0.00192   0.00000  -0.00049  -0.00053  -2.46201
   D46       -2.50535   0.00437   0.00000   0.00499   0.00517  -2.50018
   D47        1.67292   0.00219   0.00000   0.00223   0.00234   1.67526
   D48       -0.43097   0.00301   0.00000   0.00832   0.00840  -0.42257
   D49        0.87139   0.00386   0.00000   0.01697   0.01724   0.88863
   D50       -1.52544   0.00193   0.00000  -0.01095  -0.01097  -1.53641
   D51       -0.65716   0.00039   0.00000   0.01910   0.01922  -0.63794
   D52       -3.05400  -0.00154   0.00000  -0.00882  -0.00899  -3.06299
   D53        2.74815   0.00452   0.00000   0.02084   0.02110   2.76925
   D54        0.35131   0.00258   0.00000  -0.00708  -0.00711   0.34420
   D55        0.14886   0.00150   0.00000   0.00290   0.00291   0.15176
   D56        1.84504  -0.00159   0.00000  -0.01610  -0.01595   1.82909
   D57       -1.55147  -0.00611   0.00000  -0.01912  -0.01908  -1.57055
   D58       -1.65966   0.00218   0.00000   0.00245   0.00254  -1.65712
   D59        0.15064   0.00116   0.00000   0.00274   0.00274   0.15338
   D60        1.84872   0.00181   0.00000  -0.00491  -0.00481   1.84391
   D61        3.10982  -0.00538   0.00000  -0.01822  -0.01819   3.09164
   D62       -1.06487  -0.00578   0.00000  -0.01965  -0.01960  -1.08447
   D63        1.05606  -0.00667   0.00000  -0.02288  -0.02283   1.03323
   D64       -0.81515   0.00654   0.00000   0.02449   0.02443  -0.79072
   D65        1.29334   0.00614   0.00000   0.02305   0.02301   1.31635
   D66       -2.86891   0.00526   0.00000   0.01983   0.01979  -2.84912
   D67       -0.35238  -0.00168   0.00000  -0.00586  -0.00585  -0.35823
   D68        0.68919  -0.00047   0.00000   0.00429   0.00425   0.69344
         Item               Value     Threshold  Converged?
 Maximum Force            0.061263     0.000450     NO 
 RMS     Force            0.009196     0.000300     NO 
 Maximum Displacement     0.060992     0.001800     NO 
 RMS     Displacement     0.015567     0.001200     NO 
 Predicted change in Energy=-1.020262D-02
 GradGradGradGradGradGradGradGradGradGradGradGradGradGradGradGradGradGrad

                          Input orientation:                          
 ---------------------------------------------------------------------
 Center     Atomic      Atomic             Coordinates (Angstroms)
 Number     Number       Type             X           Y           Z
 ---------------------------------------------------------------------
      1          6           0        0.788710   -0.380922   -0.873105
      2          6           0       -1.507885   -0.548427   -0.264579
      3          6           0        0.301492    1.900486   -0.491270
      4          6           0       -1.925097    0.801739   -0.162030
      5          7           0        1.123125    0.805673   -0.171841
      6          1           0       -2.426957    1.262070   -1.006710
      7          1           0       -0.055913    2.041144   -1.507991
      8          1           0       -1.760828   -1.184860   -1.105757
      9          1           0        0.214033    2.741357    0.192725
     10          1           0        0.436638   -0.274166   -1.900071
     11          1           0       -2.041770    1.229801    0.828718
     12          9           0       -1.420905   -1.274953    0.871992
     13          6           0        1.400755   -1.708314   -0.534664
     14          1           0        1.008921   -2.474904   -1.212109
     15          1           0        2.490784   -1.683225   -0.651540
     16          1           0        1.159396   -2.015235    0.488715
     17          6           0        1.452885    0.667566    1.238307
     18          1           0        1.743383    1.634067    1.667615
     19          1           0        0.606146    0.276714    1.815608
     20          1           0        2.309588   -0.001509    1.378488
 ---------------------------------------------------------------------
                    Distance matrix (angstroms):
                    1          2          3          4          5
     1  C    0.000000
     2  C    2.381745   0.000000
     3  C    2.363895   3.053262   0.000000
     4  C    3.044513   1.416874   2.504664   0.000000
     5  N    1.418313   2.960473   1.405607   3.048240   0.000000
     6  H    3.613556   2.161794   2.849155   1.085013   3.675375
     7  H    2.642512   3.218722   1.086851   2.615641   2.168367
     8  H    2.683391   1.084716   3.761664   2.205489   3.626514
     9  H    3.348861   3.741231   1.087456   2.909269   2.169384
    10  H    1.090876   2.555626   2.594628   3.123483   2.150371
    11  H    3.674540   2.154629   2.771834   1.085556   3.346276
    12  F    2.954159   1.351739   3.861159   2.374040   3.448287
    13  C    1.500371   3.143004   3.772757   4.183362   2.555162
    14  H    2.132646   3.308088   4.490446   4.521894   3.443456
    15  H    2.154563   4.174549   4.202579   5.090645   2.880142
    16  H    2.159385   3.135820   4.126650   4.227636   2.897443
    17  C    2.449187   3.536024   2.416037   3.659195   1.454763
    18  H    3.380361   4.366623   2.609754   4.183075   2.110582
    19  H    2.773985   3.078500   2.837453   3.254826   2.120618
    20  H    2.743483   4.191884   3.338567   4.577222   2.112525
                    6          7          8          9         10
     6  H    0.000000
     7  H    2.545601   0.000000
     8  H    2.537913   3.670916   0.000000
     9  H    3.256035   1.858925   4.582718   0.000000
    10  H    3.370206   2.399373   2.507818   3.677326   0.000000
    11  H    1.875689   3.172083   3.106720   2.788895   3.981295
    12  F    3.313329   4.303954   2.008770   4.389211   3.483730
    13  C    4.867996   4.138560   3.255113   4.662292   2.202417
    14  H    5.080593   4.649313   3.057293   5.460291   2.375721
    15  H    5.743264   4.592396   4.304751   5.047108   2.786358
    16  H    5.083203   4.681669   3.429223   4.858651   3.043025
    17  C    4.521804   3.421307   4.387946   2.632224   3.430603
    18  H    4.968112   3.672554   5.283695   2.395893   4.251743
    19  H    4.258653   3.820713   4.033998   2.976906   3.760116
    20  H    5.451666   4.254385   4.913256   3.649753   3.785662
                   11         12         13         14         15
    11  H    0.000000
    12  F    2.580918   0.000000
    13  C    4.726765   3.182491   0.000000
    14  H    5.215030   3.418687   1.095503   0.000000
    15  H    5.587569   4.217718   1.096563   1.771132   0.000000
    16  H    4.570922   2.711618   1.095335   1.768259   1.784098
    17  C    3.563212   3.488013   2.964953   4.009584   3.189824
    18  H    3.898020   4.371285   4.017329   5.071084   4.116007
    19  H    2.982245   2.721583   3.177344   4.111046   3.671517
    20  H    4.555512   3.974264   2.720167   3.810592   2.642350
                   16         17         18         19         20
    16  H    0.000000
    17  C    2.800972   0.000000
    18  H    3.879208   1.096731   0.000000
    19  H    2.705506   1.096817   1.776969   0.000000
    20  H    2.483895   1.096017   1.754791   1.780505   0.000000
 Stoichiometry    C6H12FN
 Framework group  C1[X(C6H12FN)]
 Deg. of freedom    54
 Full point group                 C1      NOp   1
 Largest Abelian subgroup         C1      NOp   1
 Largest concise Abelian subgroup C1      NOp   1
                         Standard orientation:                         
 ---------------------------------------------------------------------
 Center     Atomic      Atomic             Coordinates (Angstroms)
 Number     Number       Type             X           Y           Z
 ---------------------------------------------------------------------
      1          6           0       -0.717242    0.476448   -0.849183
      2          6           0        1.583798    0.400320   -0.239160
      3          6           0       -0.459885   -1.850454   -0.521621
      4          6           0        1.864503   -0.986687   -0.168824
      5          7           0       -1.168977   -0.687157   -0.175704
      6          1           0        2.319230   -1.474667   -1.024600
      7          1           0       -0.116866   -2.002021   -1.541724
      8          1           0        1.899931    1.028037   -1.065380
      9          1           0       -0.457427   -2.711703    0.142311
     10          1           0       -0.376144    0.359377   -1.878725
     11          1           0        1.936677   -1.447408    0.811461
     12          9           0        1.567976    1.104969    0.914278
     13          6           0       -1.194677    1.849811   -0.478994
     14          1           0       -0.727618    2.589339   -1.138601
     15          1           0       -2.281636    1.936029   -0.595348
     16          1           0       -0.925373    2.107054    0.551084
     17          6           0       -1.485274   -0.550127    1.237630
     18          1           0       -1.871049   -1.492764    1.644364
     19          1           0       -0.604640   -0.259123    1.823129
     20          1           0       -2.271367    0.197366    1.394365
 ---------------------------------------------------------------------
 Rotational constants (GHZ):           2.1705232           1.7444054           1.3104599
 Standard basis: STO-3G (5D, 7F)
 There are    52 symmetry adapted cartesian basis functions of A   symmetry.
 There are    52 symmetry adapted basis functions of A   symmetry.
    52 basis functions,   156 primitive gaussians,    52 cartesian basis functions
    32 alpha electrons       32 beta electrons
       nuclear repulsion energy       397.9108184308 Hartrees.
 NAtoms=   20 NActive=   20 NUniq=   20 SFac= 1.00D+00 NAtFMM=   60 NAOKFM=F Big=F
 Integral buffers will be    131072 words long.
 Raffenetti 1 integral format.
 Two-electron integral symmetry is turned on.
 External calculation of energy, first and second derivatives.
 Running external command "~/scripts/MiMe -H 'hf def2svp' -EF 'wb97xd def2svp' -c 12 -m 48GB R"
         input file       "/local/jobs/1157673/Gau-331907.EIn"
         output file      "/local/jobs/1157673/Gau-331907.EOu"
         message file     "/local/jobs/1157673/Gau-331907.EMs"
         fchk file        "/local/jobs/1157673/Gau-331907.EFC"
         mat. el file     "/local/jobs/1157673/Gau-331907.EUF"
 Read checkpoint file Gau-331907_H.chk type G16
 Write formatted file Gau-331907_H.fchk

deriv: 2

spelevel: wb97xd def2svp
gradlevel: wb97xd def2svp
hesslevel: hf def2svp

runspe: False
runforce: True
runfreq: True

Running Gaussian ...

Parsing files ...
SPE file: Gau-331907_F.out
FORCE file: Gau-331907_F.out
HESS file: Gau-331907_H.out

 ExternalExternalExternalExternalExternalExternalExternalExternalExternalExternal
 Output from external command:
 "~/scripts/MiMe -H 'hf def2svp' -EF 'wb97xd def2svp' -c 12 -m 48GB R /local/jobs/1157673/Gau-331907.EIn /local/jobs/1157673/Gau-331907.EOu /local/jobs/1157673/Gau-331907.EMs /local/jobs/1157673/Gau-331907.EFC /local/jobs/1157673/Gau-331907.EUF"
  
 --------------------------------------------------
 Force calculation at wb97xd def2svp
 Hessian calculation at hf def2svp
 ExternalExternalExternalExternalExternalExternalExternalExternalExternalExternal

 Recovered energy= -389.908834462     dipole=     -1.536300000000     -0.497600000000     -0.321800000000
 Energy=    -389.908834     NIter=   0.
 Dipole moment=      -1.536300      -0.497600      -0.321800
 ***** Axes restored to original set *****
 -------------------------------------------------------------------
 Center     Atomic                   Forces (Hartrees/Bohr)
 Number     Number              X              Y              Z
 -------------------------------------------------------------------
      1        6          -0.007136698    0.010830939    0.023343695
      2        6           0.001975701    0.035806443    0.003396555
      3        6           0.006940780   -0.027344525    0.013700352
      4        6           0.031279212   -0.031537974   -0.003709214
      5        7          -0.069119786   -0.001556111   -0.032893923
      6        1           0.000442891    0.003541980   -0.002610836
      7        1           0.007542042   -0.003090329   -0.002651143
      8        1          -0.000868699   -0.001690399   -0.006936170
      9        1           0.009288955    0.000848091    0.001832673
     10        1           0.005612339    0.009992786   -0.000207918
     11        1          -0.003407983    0.001626761    0.002853894
     12        9           0.006295167   -0.001468347    0.004891788
     13        6           0.002009936    0.011163051   -0.000291690
     14        1          -0.001105388   -0.000469387   -0.001221172
     15        1           0.006153350   -0.003891078    0.000569387
     16        1          -0.000298609   -0.002035899    0.003757780
     17        6           0.008878037    0.001008195    0.003712664
     18        1          -0.000913912    0.002614621   -0.003495883
     19        1          -0.004006022   -0.002086050   -0.001773519
     20        1           0.000438688   -0.002262770   -0.002267318
 -------------------------------------------------------------------
 Cartesian Forces:  Max     0.069119786 RMS     0.013933511
 FormGI is forming the generalized inverse of G from B-inverse, IUseBI=4.

 GradGradGradGradGradGradGradGradGradGradGradGradGradGradGradGradGradGrad
 Berny optimization.
 Internal  Forces:  Max     0.045705804 RMS     0.007104447
 Search for a saddle point.
 Step number   2 out of a maximum of   50
 All quantities printed in internal units (Hartrees-Bohrs-Radians)
 Swapping is turned off.
 Second derivative matrix not updated -- analytic derivatives used.
 ITU=  0  0
     Eigenvalues ---   -0.04122   0.00185   0.00472   0.00525   0.00708
     Eigenvalues ---    0.00842   0.01001   0.01352   0.01462   0.01699
     Eigenvalues ---    0.01786   0.02092   0.02391   0.02956   0.03762
     Eigenvalues ---    0.04477   0.04778   0.05479   0.05525   0.05639
     Eigenvalues ---    0.05931   0.06085   0.07072   0.07456   0.07526
     Eigenvalues ---    0.07773   0.09312   0.11887   0.14751   0.15046
     Eigenvalues ---    0.15595   0.17113   0.18424   0.20010   0.20654
     Eigenvalues ---    0.20795   0.29823   0.32855   0.33306   0.34653
     Eigenvalues ---    0.35079   0.35773   0.35981   0.36222   0.36376
     Eigenvalues ---    0.36677   0.36958   0.37626   0.38900   0.38959
     Eigenvalues ---    0.39221   0.39573   0.40978   0.43790
 Eigenvectors required to have negative eigenvalues:
                          R1        R8        D33       D51       D35
   1                   -0.56290  -0.50398  -0.17367  -0.16847   0.15813
                          R16       D12       R5        D31       D39
   1                   -0.15103   0.14033   0.13111  -0.12719  -0.12354
 RFO step:  Lambda0=1.026168375D-03 Lambda=-2.91015677D-02.
 Linear search not attempted -- option 19 set.
 Maximum step size (   0.100) exceeded in Quadratic search.
    -- Step size scaled by   0.313
 Iteration  1 RMS(Cart)=  0.01487581 RMS(Int)=  0.00024415
 Iteration  2 RMS(Cart)=  0.00030558 RMS(Int)=  0.00013621
 Iteration  3 RMS(Cart)=  0.00000008 RMS(Int)=  0.00013621
 Variable       Old X    -DE/DX   Delta X   Delta X   Delta X     New X
                                 (Linear)    (Quad)   (Total)
    R1        4.50085  -0.01725   0.00000  -0.00866  -0.00866   4.49218
    R2        2.68022  -0.04079   0.00000  -0.04279  -0.04258   2.63764
    R3        2.06146  -0.00103   0.00000  -0.00028  -0.00026   2.06120
    R4        2.83529  -0.00082   0.00000  -0.00119  -0.00119   2.83410
    R5        2.67750  -0.03319   0.00000  -0.03435  -0.03459   2.64291
    R6        2.04982   0.00670   0.00000   0.00429   0.00423   2.05404
    R7        2.55442   0.00531   0.00000   0.00462   0.00462   2.55904
    R8        4.73313  -0.01459   0.00000  -0.00357  -0.00357   4.72956
    R9        2.65621  -0.04571   0.00000  -0.04274  -0.04254   2.61367
   R10        2.05385  -0.00164   0.00000  -0.00038  -0.00037   2.05348
   R11        2.05499   0.00106   0.00000   0.00002   0.00002   2.05501
   R12        2.05038   0.00473   0.00000   0.00280   0.00276   2.05313
   R13        2.05140   0.00361   0.00000   0.00284   0.00284   2.05424
   R14        2.74910  -0.00264   0.00000   0.00311   0.00311   2.75221
   R15        4.81049  -0.00127   0.00000   0.00035   0.00032   4.81081
   R16        4.73909  -0.00252   0.00000   0.00050   0.00049   4.73958
   R17        2.07020   0.00148   0.00000   0.00151   0.00151   2.07171
   R18        2.07220   0.00597   0.00000   0.00479   0.00479   2.07700
   R19        2.06988   0.00415   0.00000   0.00330   0.00330   2.07318
   R20        2.07252   0.00069   0.00000  -0.00043  -0.00043   2.07209
   R21        2.07268   0.00290   0.00000   0.00125   0.00125   2.07393
   R22        2.07117   0.00143   0.00000   0.00005   0.00005   2.07122
    A1        1.73135  -0.00308   0.00000  -0.01957  -0.01937   1.71198
    A2        1.50696   0.00425   0.00000   0.00935   0.00929   1.51625
    A3        1.84782   0.00069   0.00000   0.00563   0.00542   1.85324
    A4        2.04844  -0.00585   0.00000  -0.01202  -0.01210   2.03635
    A5        2.13230   0.00151   0.00000   0.00558   0.00564   2.13793
    A6        2.01595   0.00342   0.00000   0.00843   0.00840   2.02434
    A7        1.80843  -0.00241   0.00000  -0.00216  -0.00223   1.80620
    A8        1.63883   0.00177   0.00000  -0.00791  -0.00784   1.63099
    A9        1.76255  -0.00231   0.00000  -0.01935  -0.01929   1.74326
   A10        2.14905   0.00026   0.00000   0.00509   0.00512   2.15417
   A11        2.06038   0.00021   0.00000   0.00625   0.00599   2.06638
   A12        1.93018   0.00128   0.00000   0.00450   0.00429   1.93447
   A13        1.71943  -0.00585   0.00000  -0.02700  -0.02680   1.69263
   A14        1.45796   0.00591   0.00000   0.01088   0.01080   1.46877
   A15        1.75690   0.00369   0.00000   0.02153   0.02127   1.77817
   A16        2.10089  -0.00444   0.00000  -0.00816  -0.00821   2.09268
   A17        2.10174   0.00015   0.00000  -0.00311  -0.00287   2.09887
   A18        2.05091   0.00335   0.00000   0.01023   0.00998   2.06089
   A19        1.71807  -0.00082   0.00000   0.00443   0.00431   1.72239
   A20        2.07618   0.00204   0.00000   0.00394   0.00406   2.08024
   A21        2.06401  -0.00093   0.00000   0.00527   0.00515   2.06916
   A22        1.69384  -0.00020   0.00000  -0.01047  -0.01041   1.68344
   A23        1.61334   0.00049   0.00000  -0.00467  -0.00468   1.60866
   A24        2.08690  -0.00095   0.00000  -0.00546  -0.00551   2.08139
   A25        1.98390   0.01275   0.00000   0.03101   0.03086   2.01476
   A26        2.04125  -0.00585   0.00000  -0.00001  -0.00053   2.04073
   A27        2.01167  -0.00282   0.00000   0.00232   0.00184   2.01351
   A28        1.42258  -0.00119   0.00000   0.00852   0.00845   1.43103
   A29        1.65336  -0.00527   0.00000  -0.01139  -0.01133   1.64204
   A30        1.39817  -0.00367   0.00000   0.00426   0.00420   1.40236
   A31        1.51986  -0.00353   0.00000  -0.01073  -0.01068   1.50918
   A32        1.91101  -0.00259   0.00000  -0.00427  -0.00426   1.90675
   A33        1.94037   0.00627   0.00000   0.01171   0.01170   1.95206
   A34        1.94848   0.00061   0.00000   0.00218   0.00216   1.95064
   A35        1.88141  -0.00163   0.00000  -0.00347  -0.00346   1.87795
   A36        1.87850   0.00003   0.00000  -0.00296  -0.00296   1.87554
   A37        1.90184  -0.00297   0.00000  -0.00386  -0.00390   1.89795
   A38        1.93459  -0.00456   0.00000  -0.00600  -0.00602   1.92857
   A39        1.94877  -0.00408   0.00000  -0.01144  -0.01147   1.93730
   A40        1.93811  -0.00180   0.00000  -0.00175  -0.00176   1.93635
   A41        1.88861   0.00439   0.00000   0.00806   0.00802   1.89662
   A42        1.85549   0.00417   0.00000   0.00854   0.00854   1.86403
   A43        1.89502   0.00255   0.00000   0.00397   0.00395   1.89897
    D1        0.58242  -0.00389   0.00000  -0.00491  -0.00513   0.57729
    D2        2.77216  -0.00361   0.00000  -0.00280  -0.00295   2.76921
    D3       -1.55872  -0.00223   0.00000  -0.00297  -0.00307  -1.56178
    D4       -1.46219   0.00144   0.00000   0.00609   0.00600  -1.45618
    D5        0.72756   0.00171   0.00000   0.00820   0.00818   0.73574
    D6        2.67986   0.00310   0.00000   0.00804   0.00807   2.68793
    D7        2.80527  -0.00338   0.00000  -0.00571  -0.00585   2.79942
    D8       -1.28817  -0.00311   0.00000  -0.00360  -0.00367  -1.29184
    D9        0.66413  -0.00172   0.00000  -0.00376  -0.00379   0.66035
   D10       -0.96477  -0.00472   0.00000  -0.02508  -0.02548  -0.99025
   D11        1.44748  -0.00060   0.00000   0.01764   0.01759   1.46507
   D12        0.61708  -0.00246   0.00000  -0.02662  -0.02676   0.59032
   D13        3.02933   0.00166   0.00000   0.01611   0.01631   3.04565
   D14       -2.97916  -0.00394   0.00000  -0.01978  -0.02006  -2.99921
   D15       -0.56691   0.00018   0.00000   0.02294   0.02301  -0.54389
   D16       -0.29147  -0.00173   0.00000  -0.00369  -0.00368  -0.29515
   D17       -2.01010  -0.00037   0.00000   0.01370   0.01350  -1.99659
   D18        1.55598   0.00130   0.00000   0.00761   0.00752   1.56350
   D19        1.20142   0.00245   0.00000   0.00923   0.00918   1.21060
   D20       -3.00481   0.00266   0.00000   0.00946   0.00940  -2.99541
   D21       -0.87697   0.00372   0.00000   0.01433   0.01429  -0.86269
   D22       -3.12635  -0.00018   0.00000  -0.00878  -0.00872  -3.13507
   D23       -1.04939   0.00003   0.00000  -0.00855  -0.00851  -1.05790
   D24        1.07844   0.00109   0.00000  -0.00368  -0.00362   1.07483
   D25       -0.43159  -0.00386   0.00000  -0.00699  -0.00699  -0.43858
   D26        1.64537  -0.00365   0.00000  -0.00676  -0.00678   1.63859
   D27       -2.50998  -0.00259   0.00000  -0.00189  -0.00189  -2.51187
   D28       -0.10404   0.00067   0.00000   0.00175   0.00175  -0.10229
   D29        1.69256   0.00051   0.00000  -0.00680  -0.00676   1.68579
   D30       -1.80376   0.00077   0.00000   0.00351   0.00360  -1.80016
   D31       -1.91887   0.00010   0.00000   0.01123   0.01121  -1.90766
   D32       -0.12227  -0.00007   0.00000   0.00268   0.00269  -0.11958
   D33        2.66460   0.00019   0.00000   0.01298   0.01305   2.67765
   D34        1.82567  -0.00365   0.00000  -0.02046  -0.02057   1.80510
   D35       -2.66092  -0.00382   0.00000  -0.02902  -0.02909  -2.69000
   D36        0.12595  -0.00355   0.00000  -0.01871  -0.01872   0.10723
   D37       -0.29742  -0.00088   0.00000  -0.00271  -0.00268  -0.30010
   D38        1.60569  -0.00250   0.00000  -0.00949  -0.00954   1.59615
   D39       -2.09994   0.00071   0.00000   0.02066   0.02065  -2.07930
   D40       -0.34801   0.00301   0.00000   0.00060   0.00083  -0.34718
   D41       -2.45575   0.00114   0.00000  -0.00194  -0.00181  -2.45756
   D42        1.72960   0.00205   0.00000   0.00565   0.00572   1.73533
   D43        1.74357  -0.00058   0.00000  -0.00528  -0.00520   1.73837
   D44       -0.36418  -0.00245   0.00000  -0.00782  -0.00783  -0.37200
   D45       -2.46201  -0.00155   0.00000  -0.00023  -0.00030  -2.46230
   D46       -2.50018   0.00363   0.00000   0.00612   0.00640  -2.49378
   D47        1.67526   0.00175   0.00000   0.00358   0.00377   1.67903
   D48       -0.42257   0.00266   0.00000   0.01118   0.01130  -0.41127
   D49        0.88863   0.00377   0.00000   0.02337   0.02376   0.91240
   D50       -1.53641   0.00119   0.00000  -0.01732  -0.01734  -1.55375
   D51       -0.63794   0.00082   0.00000   0.02735   0.02752  -0.61042
   D52       -3.06299  -0.00176   0.00000  -0.01333  -0.01358  -3.07657
   D53        2.76925   0.00440   0.00000   0.03040   0.03079   2.80003
   D54        0.34420   0.00182   0.00000  -0.01028  -0.01032   0.33389
   D55        0.15176   0.00132   0.00000   0.00339   0.00339   0.15516
   D56        1.82909  -0.00183   0.00000  -0.02123  -0.02100   1.80809
   D57       -1.57055  -0.00574   0.00000  -0.02608  -0.02603  -1.59658
   D58       -1.65712   0.00160   0.00000   0.00318   0.00327  -1.65385
   D59        0.15338   0.00104   0.00000   0.00313   0.00312   0.15650
   D60        1.84391   0.00131   0.00000  -0.00951  -0.00937   1.83453
   D61        3.09164  -0.00474   0.00000  -0.02317  -0.02311   3.06853
   D62       -1.08447  -0.00507   0.00000  -0.02482  -0.02473  -1.10920
   D63        1.03323  -0.00589   0.00000  -0.02887  -0.02878   1.00445
   D64       -0.79072   0.00580   0.00000   0.03197   0.03188  -0.75885
   D65        1.31635   0.00548   0.00000   0.03033   0.03025   1.34660
   D66       -2.84912   0.00466   0.00000   0.02627   0.02620  -2.82292
   D67       -0.35823  -0.00152   0.00000  -0.00749  -0.00749  -0.36572
   D68        0.69344  -0.00034   0.00000   0.00675   0.00671   0.70015
         Item               Value     Threshold  Converged?
 Maximum Force            0.045706     0.000450     NO 
 RMS     Force            0.007104     0.000300     NO 
 Maximum Displacement     0.067846     0.001800     NO 
 RMS     Displacement     0.014994     0.001200     NO 
 Predicted change in Energy=-7.736218D-03
 GradGradGradGradGradGradGradGradGradGradGradGradGradGradGradGradGradGrad

                          Input orientation:                          
 ---------------------------------------------------------------------
 Center     Atomic      Atomic             Coordinates (Angstroms)
 Number     Number       Type             X           Y           Z
 ---------------------------------------------------------------------
      1          6           0        0.782362   -0.375408   -0.871240
      2          6           0       -1.507958   -0.541504   -0.256630
      3          6           0        0.305868    1.893874   -0.493292
      4          6           0       -1.915714    0.792361   -0.153995
      5          7           0        1.087222    0.797051   -0.177984
      6          1           0       -2.414323    1.260463   -0.998206
      7          1           0       -0.044238    2.034618   -1.512329
      8          1           0       -1.755956   -1.180176   -1.100468
      9          1           0        0.244247    2.737429    0.190229
     10          1           0        0.436437   -0.260519   -1.899270
     11          1           0       -2.026426    1.227139    0.836158
     12          9           0       -1.391455   -1.268551    0.879877
     13          6           0        1.403431   -1.697365   -0.530760
     14          1           0        1.017118   -2.464384   -1.212173
     15          1           0        2.496850   -1.675837   -0.640245
     16          1           0        1.157581   -2.011092    0.491357
     17          6           0        1.430690    0.659933    1.230686
     18          1           0        1.721739    1.629902    1.651129
     19          1           0        0.582252    0.268010    1.806014
     20          1           0        2.286772   -0.011843    1.361641
 ---------------------------------------------------------------------
                    Distance matrix (angstroms):
                    1          2          3          4          5
     1  C    0.000000
     2  C    2.377162   0.000000
     3  C    2.349369   3.045823   0.000000
     4  C    3.026176   1.398569   2.502775   0.000000
     5  N    1.395781   2.921108   1.383096   3.003036   0.000000
     6  H    3.593186   2.149073   2.838237   1.086472   3.626063
     7  H    2.627259   3.218021   1.086656   2.625013   2.142954
     8  H    2.672687   1.086954   3.750942   2.193681   3.583861
     9  H    3.332572   3.744503   1.087466   2.926980   2.147383
    10  H    1.090738   2.560838   2.575895   3.112420   2.122452
    11  H    3.656864   2.142683   2.766147   1.087056   3.302766
    12  F    2.930801   1.354186   3.842841   2.364551   3.395529
    13  C    1.499741   3.144415   3.755402   4.166223   2.539006
    14  H    2.129593   3.314595   4.474045   4.508618   3.422195
    15  H    2.164242   4.179995   4.191042   5.079288   2.883732
    16  H    2.161693   3.134369   4.116273   4.209628   2.887669
    17  C    2.431121   3.505882   2.399986   3.623990   1.456407
    18  H    3.356493   4.334223   2.583198   4.146205   2.107583
    19  H    2.760747   3.046110   2.829599   3.218139   2.114504
    20  H    2.716833   4.159244   3.316099   4.539250   2.112741
                    6          7          8          9         10
     6  H    0.000000
     7  H    2.545769   0.000000
     8  H    2.529945   3.665311   0.000000
     9  H    3.265241   1.864368   4.584139   0.000000
    10  H    3.354420   2.376642   2.508075   3.659321   0.000000
    11  H    1.875224   3.177496   3.101425   2.802527   3.970061
    12  F    3.312003   4.295179   2.015549   4.381667   3.475770
    13  C    4.852060   4.121519   3.251734   4.640143   2.207356
    14  H    5.069028   4.632233   3.058040   5.442694   2.380402
    15  H    5.733203   4.580953   4.306257   5.024024   2.798852
    16  H    5.067579   4.671926   3.422429   4.844925   3.049532
    17  C    4.484721   3.404306   4.356029   2.608867   3.410629
    18  H    4.925695   3.645537   5.249970   2.354534   4.222680
    19  H    4.222330   3.811141   4.001512   2.970360   3.745629
    20  H    5.411832   4.228630   4.875513   3.619753   3.757541
                   11         12         13         14         15
    11  H    0.000000
    12  F    2.575571   0.000000
    13  C    4.710106   3.159931   0.000000
    14  H    5.204436   3.407039   1.096303   0.000000
    15  H    5.573783   4.194707   1.099098   1.771586   0.000000
    16  H    4.554440   2.683262   1.097082   1.768394   1.785094
    17  C    3.525483   3.436076   2.942836   3.987475   3.176932
    18  H    3.856830   4.322942   3.991574   5.045608   4.096230
    19  H    2.943764   2.667258   3.161890   4.094452   3.664480
    20  H    4.518283   3.916728   2.683739   3.775115   2.611619
                   16         17         18         19         20
    16  H    0.000000
    17  C    2.784882   0.000000
    18  H    3.862665   1.096504   0.000000
    19  H    2.693257   1.097476   1.782462   0.000000
    20  H    2.455496   1.096042   1.760225   1.783585   0.000000
 Stoichiometry    C6H12FN
 Framework group  C1[X(C6H12FN)]
 Deg. of freedom    54
 Full point group                 C1      NOp   1
 Largest Abelian subgroup         C1      NOp   1
 Largest concise Abelian subgroup C1      NOp   1
                         Standard orientation:                         
 ---------------------------------------------------------------------
 Center     Atomic      Atomic             Coordinates (Angstroms)
 Number     Number       Type             X           Y           Z
 ---------------------------------------------------------------------
      1          6           0       -0.726269    0.451528   -0.847036
      2          6           0        1.573190    0.422328   -0.244929
      3          6           0       -0.431785   -1.854994   -0.511228
      4          6           0        1.872919   -0.941572   -0.167894
      5          7           0       -1.120757   -0.704701   -0.171969
      6          1           0        2.327833   -1.433246   -1.023306
      7          1           0       -0.099491   -2.005414   -1.534837
      8          1           0        1.867294    1.053797   -1.079326
      9          1           0       -0.434591   -2.712687    0.157304
     10          1           0       -0.396111    0.327369   -1.879165
     11          1           0        1.953522   -1.401217    0.813901
     12          9           0        1.521495    1.136240    0.904626
     13          6           0       -1.237244    1.812879   -0.479815
     14          1           0       -0.794103    2.558292   -1.150536
     15          1           0       -2.329416    1.881150   -0.582372
     16          1           0       -0.961596    2.087790    0.545870
     17          6           0       -1.444678   -0.565294    1.241100
     18          1           0       -1.810555   -1.516020    1.646781
     19          1           0       -0.564463   -0.252963    1.817402
     20          1           0       -2.243278    0.170640    1.389249
 ---------------------------------------------------------------------
 Rotational constants (GHZ):           2.1871799           1.7743612           1.3309205
 Standard basis: STO-3G (5D, 7F)
 There are    52 symmetry adapted cartesian basis functions of A   symmetry.
 There are    52 symmetry adapted basis functions of A   symmetry.
    52 basis functions,   156 primitive gaussians,    52 cartesian basis functions
    32 alpha electrons       32 beta electrons
       nuclear repulsion energy       400.1968573465 Hartrees.
 NAtoms=   20 NActive=   20 NUniq=   20 SFac= 1.00D+00 NAtFMM=   60 NAOKFM=F Big=F
 Integral buffers will be    131072 words long.
 Raffenetti 1 integral format.
 Two-electron integral symmetry is turned on.
 External calculation of energy, first and second derivatives.
 Running external command "~/scripts/MiMe -H 'hf def2svp' -EF 'wb97xd def2svp' -c 12 -m 48GB R"
         input file       "/local/jobs/1157673/Gau-331907.EIn"
         output file      "/local/jobs/1157673/Gau-331907.EOu"
         message file     "/local/jobs/1157673/Gau-331907.EMs"
         fchk file        "/local/jobs/1157673/Gau-331907.EFC"
         mat. el file     "/local/jobs/1157673/Gau-331907.EUF"
 Read checkpoint file Gau-331907_H.chk type G16
 Write formatted file Gau-331907_H.fchk

deriv: 2

spelevel: wb97xd def2svp
gradlevel: wb97xd def2svp
hesslevel: hf def2svp

runspe: False
runforce: True
runfreq: True

Running Gaussian ...

Parsing files ...
SPE file: Gau-331907_F.out
FORCE file: Gau-331907_F.out
HESS file: Gau-331907_H.out

 ExternalExternalExternalExternalExternalExternalExternalExternalExternalExternal
 Output from external command:
 "~/scripts/MiMe -H 'hf def2svp' -EF 'wb97xd def2svp' -c 12 -m 48GB R /local/jobs/1157673/Gau-331907.EIn /local/jobs/1157673/Gau-331907.EOu /local/jobs/1157673/Gau-331907.EMs /local/jobs/1157673/Gau-331907.EFC /local/jobs/1157673/Gau-331907.EUF"
  
 --------------------------------------------------
 Force calculation at wb97xd def2svp
 Hessian calculation at hf def2svp
 ExternalExternalExternalExternalExternalExternalExternalExternalExternalExternal

 Recovered energy= -389.916539561     dipole=     -1.602800000000     -0.550600000000     -0.290400000000
 Energy=    -389.916540     NIter=   0.
 Dipole moment=      -1.602800      -0.550600      -0.290400
 ***** Axes restored to original set *****
 -------------------------------------------------------------------
 Center     Atomic                   Forces (Hartrees/Bohr)
 Number     Number              X              Y              Z
 -------------------------------------------------------------------
      1        6          -0.006464653    0.004659535    0.015299862
      2        6           0.002355313    0.024247401    0.002147319
      3        6           0.002038700   -0.017506414    0.009457049
      4        6           0.023759197   -0.021162402   -0.002596551
      5        7          -0.053711462   -0.002300614   -0.021013206
      6        1           0.000786460    0.002796087   -0.001738146
      7        1           0.006055331   -0.002177663   -0.002225076
      8        1          -0.000334201   -0.001119029   -0.005054307
      9        1           0.008026296    0.000682914    0.001094560
     10        1           0.004772077    0.007920421   -0.000316196
     11        1          -0.002806667    0.001419169    0.001888997
     12        9           0.005508402   -0.001104115    0.003756465
     13        6           0.001999582    0.008806250   -0.000048986
     14        1          -0.000834460   -0.000360732   -0.000832430
     15        1           0.004446032   -0.003015078    0.000451761
     16        1          -0.000309392   -0.001598834    0.002618391
     17        6           0.008214860    0.001167441    0.002936403
     18        1          -0.000798169    0.002027730   -0.002662278
     19        1          -0.002980046   -0.001630604   -0.001404611
     20        1           0.000276800   -0.001751460   -0.001759018
 -------------------------------------------------------------------
 Cartesian Forces:  Max     0.053711462 RMS     0.010143024
 FormGI is forming the generalized inverse of G from B-inverse, IUseBI=4.

 GradGradGradGradGradGradGradGradGradGradGradGradGradGradGradGradGradGrad
 Berny optimization.
 Internal  Forces:  Max     0.030919125 RMS     0.005054211
 Search for a saddle point.
 Step number   3 out of a maximum of   50
 All quantities printed in internal units (Hartrees-Bohrs-Radians)
 Swapping is turned off.
 Second derivative matrix not updated -- analytic derivatives used.
 ITU=  0  0  0
     Eigenvalues ---   -0.03655   0.00311   0.00479   0.00543   0.00719
     Eigenvalues ---    0.00858   0.01030   0.01423   0.01515   0.01737
     Eigenvalues ---    0.01814   0.02091   0.02420   0.02985   0.03787
     Eigenvalues ---    0.04600   0.04832   0.05482   0.05541   0.05718
     Eigenvalues ---    0.05971   0.06129   0.07165   0.07453   0.07539
     Eigenvalues ---    0.07862   0.09425   0.12067   0.14699   0.15252
     Eigenvalues ---    0.15860   0.17345   0.18549   0.20806   0.20981
     Eigenvalues ---    0.21767   0.32422   0.33814   0.34167   0.34855
     Eigenvalues ---    0.35312   0.35739   0.36017   0.36256   0.36438
     Eigenvalues ---    0.36671   0.36959   0.38316   0.38835   0.38943
     Eigenvalues ---    0.39093   0.40721   0.42323   0.46517
 Eigenvectors required to have negative eigenvalues:
                          R1        R8        D33       D51       D35
   1                   -0.56084  -0.50082  -0.18012  -0.17173   0.16186
                          R16       D12       D31       D39       R5
   1                   -0.15089   0.14474  -0.13037  -0.12608   0.11738
 RFO step:  Lambda0=1.309644875D-03 Lambda=-1.78858050D-02.
 Linear search not attempted -- option 19 set.
 Maximum step size (   0.100) exceeded in Quadratic search.
    -- Step size scaled by   0.378
 Iteration  1 RMS(Cart)=  0.01396917 RMS(Int)=  0.00030322
 Iteration  2 RMS(Cart)=  0.00036549 RMS(Int)=  0.00018670
 Iteration  3 RMS(Cart)=  0.00000010 RMS(Int)=  0.00018670
 Variable       Old X    -DE/DX   Delta X   Delta X   Delta X     New X
                                 (Linear)    (Quad)   (Total)
    R1        4.49218  -0.01401   0.00000   0.00058   0.00056   4.49275
    R2        2.63764  -0.02764   0.00000  -0.03559  -0.03532   2.60232
    R3        2.06120  -0.00071   0.00000  -0.00015  -0.00012   2.06107
    R4        2.83410  -0.00068   0.00000  -0.00180  -0.00180   2.83230
    R5        2.64291  -0.02182   0.00000  -0.02965  -0.02994   2.61297
    R6        2.05404   0.00492   0.00000   0.00341   0.00335   2.05739
    R7        2.55904   0.00422   0.00000   0.00378   0.00378   2.56282
    R8        4.72956  -0.01175   0.00000   0.00346   0.00348   4.73304
    R9        2.61367  -0.03092   0.00000  -0.03290  -0.03266   2.58102
   R10        2.05348  -0.00118   0.00000  -0.00005  -0.00004   2.05344
   R11        2.05501   0.00076   0.00000  -0.00006  -0.00006   2.05495
   R12        2.05313   0.00346   0.00000   0.00218   0.00213   2.05527
   R13        2.05424   0.00257   0.00000   0.00241   0.00241   2.05665
   R14        2.75221  -0.00166   0.00000   0.00279   0.00279   2.75500
   R15        4.81081  -0.00112   0.00000   0.00283   0.00277   4.81358
   R16        4.73958  -0.00215   0.00000   0.00627   0.00625   4.74582
   R17        2.07171   0.00106   0.00000   0.00149   0.00149   2.07320
   R18        2.07700   0.00432   0.00000   0.00440   0.00440   2.08140
   R19        2.07318   0.00297   0.00000   0.00295   0.00295   2.07613
   R20        2.07209   0.00056   0.00000  -0.00051  -0.00051   2.07159
   R21        2.07393   0.00215   0.00000   0.00125   0.00125   2.07518
   R22        2.07122   0.00108   0.00000  -0.00001  -0.00001   2.07121
    A1        1.71198  -0.00276   0.00000  -0.02339  -0.02314   1.68884
    A2        1.51625   0.00361   0.00000   0.01148   0.01140   1.52765
    A3        1.85324   0.00055   0.00000   0.00492   0.00464   1.85788
    A4        2.03635  -0.00464   0.00000  -0.01194  -0.01201   2.02433
    A5        2.13793   0.00136   0.00000   0.00476   0.00479   2.14272
    A6        2.02434   0.00257   0.00000   0.01031   0.01028   2.03462
    A7        1.80620  -0.00164   0.00000  -0.00240  -0.00247   1.80373
    A8        1.63099   0.00124   0.00000  -0.01207  -0.01197   1.61903
    A9        1.74326  -0.00207   0.00000  -0.02298  -0.02289   1.72037
[...]
 .03346453,-0.04742950,-0.00747473,-0.00344795,-0.00053585,0.00770531,0
 .01943283,0.01032419,0.00504400,0.00055174,0.00258407,-0.00492018,-0.0
 0259833,0.00125688,0.00074324,0.00028040,-0.00017460,0.04217017,-0.000
 97168,0.00101054,0.00000973,-0.02289806,-0.19208806,-0.15227396,-0.001
 35626,0.00010773,-0.00047880,-0.00448584,-0.00493597,-0.02340042,0.001
 29498,-0.00126750,0.00016795,-0.00068480,0.00040455,0.00061316,0.00013
 677,0.00002891,-0.00004377,0.02210244,0.18827292,0.00422915,0.00268219
 ,0.00199929,-0.03753956,-0.14221675,-0.23019472,0.00124430,0.00236980,
 -0.00000969,-0.00185159,-0.00148391,0.00606906,-0.00039655,-0.00197659
 ,-0.00087501,0.00194740,0.00011585,0.00038457,-0.00004137,-0.00004928,
 0.00001549,0.04325381,0.14724072,0.25641529,-0.00292580,-0.00921729,-0
 .00712937,0.00307073,-0.00201283,0.00005113,-0.02953607,-0.04704046,-0
 .05275564,0.00072566,0.00097619,-0.00245138,-0.00603217,0.03493532,0.0
 1673998,-0.00075174,-0.00031686,0.00010569,-0.00121583,-0.00611046,-0.
 00098461,-0.00039467,0.00003397,0.00022340,0.03703491,0.00377790,-0.00
 256174,0.00368352,0.00048457,-0.00023161,0.00016876,-0.01902892,-0.245
 39597,-0.14274043,-0.00015949,-0.00026108,-0.00054538,-0.00958170,-0.0
 2307115,-0.01782297,-0.00023372,-0.00002415,0.00009004,0.00024259,0.00
 838927,0.00576944,-0.00004198,0.00003449,0.00003447,0.02590644,0.26248
 016,-0.00071054,0.00597796,0.00152253,-0.00056666,0.00058347,-0.000282
 73,-0.04590706,-0.14897497,-0.17554856,-0.00014656,0.00059575,0.000799
 48,0.00515682,0.00379169,0.00497534,0.00043971,0.00002188,0.00007265,-
 0.00183172,-0.02172362,-0.00898661,0.00006909,0.00004206,-0.00008815,0
 .04510786,0.15451277,0.17575579,-0.04576214,0.02877908,-0.06722131,-0.
 00850896,0.00348639,0.00701609,-0.00291949,0.00673319,-0.00013912,-0.0
 0062627,-0.00664555,-0.00034483,-0.00152248,-0.01360712,-0.01469020,0.
 00042542,0.00042126,0.00011021,0.00216022,0.00075301,0.00048935,0.0009
 6984,-0.00025600,-0.00006016,-0.00123153,-0.00065220,0.00039913,0.0531
 4898,0.02403591,-0.07366512,0.05673058,-0.00018829,-0.00013507,0.00128
 696,-0.00277158,0.00231443,-0.00280740,0.00035319,-0.00033334,-0.00056
 976,-0.00886873,0.00025836,-0.03849207,0.00009239,0.00003353,0.0000395
 5,-0.00000863,-0.00050863,0.00027214,-0.00030718,-0.00005562,0.0001085
 0,0.00013266,0.00003908,0.00021522,-0.01959683,0.08166768,-0.08529080,
 0.03680266,-0.32911238,0.00207761,-0.00114445,-0.00193510,-0.00013079,
 0.00059196,0.00085550,0.00025889,0.00189711,0.00050374,-0.00444709,0.0
 0731645,-0.01871225,0.00007322,-0.00011277,0.00001136,0.00050492,-0.00
 052157,0.00063560,0.00006936,0.00030268,0.00065014,-0.00014694,-0.0002
 0903,0.00056675,0.08671631,-0.04136621,0.34471534,-0.00510904,0.000732
 86,0.00047093,0.01265145,-0.00299386,0.00540334,-0.00948477,-0.0024334
 1,0.00452690,-0.03734201,0.03258303,0.01548963,0.00440827,0.00067665,0
 .00069303,0.00282905,-0.00806264,-0.01028945,0.00008240,0.00006411,-0.
 00020876,0.00509938,0.00167110,-0.00169928,0.00020852,-0.00011574,-0.0
 0030564,0.00067423,0.00009772,-0.00030839,0.03516536,-0.00185734,-0.00
 027096,-0.00000432,0.00233677,-0.01093996,-0.03264443,-0.00353528,-0.0
 0062828,0.00241978,0.02405862,-0.12385927,-0.12181707,0.00214691,0.000
 34348,0.00022311,-0.00295662,0.00957025,0.01342271,-0.00000689,0.00001
 281,-0.00004324,0.00461654,-0.00413122,0.00033714,-0.00004235,0.000061
 86,-0.00012096,0.00028628,-0.00000033,-0.00007909,-0.02049640,0.126282
 42,0.00149824,0.00203985,0.00060247,-0.00395171,0.00463214,0.00148778,
 -0.00126838,0.00203625,-0.00017712,0.01436294,-0.13002991,-0.29848110,
 -0.00006160,-0.00323434,-0.00029827,0.00356240,-0.01222557,-0.01333226
 ,0.00007011,-0.00004467,0.00005658,-0.00078540,0.00027512,0.00111688,0
 .00055787,0.00020331,0.00007177,-0.00036443,-0.00004182,0.00017976,-0.
 01528344,0.13709476,0.30635925,-0.01335781,-0.00736039,0.00783226,-0.0
 5544661,0.02365153,-0.04531365,-0.00066041,-0.00618015,0.00024931,0.00
 144110,0.01893919,-0.02131792,0.00808670,0.01140677,0.00248544,0.00895
 553,0.00641355,-0.00166180,-0.00003786,0.00007413,0.00043669,-0.000388
 04,0.00621980,-0.00907971,-0.00079207,-0.00013845,0.00031274,-0.000436
 13,-0.00046671,0.00008159,-0.00731469,-0.00419274,0.00183229,0.0629380
 5,0.00071942,0.00319345,0.00829879,0.03680790,-0.14610226,0.08626303,-
 0.00693996,0.00260266,-0.00076888,0.01774100,-0.01744035,0.05773450,0.
 00265161,-0.00728163,-0.00261733,0.00196570,-0.00635885,-0.00118394,0.
 00115227,0.00042663,-0.00065674,-0.00228669,0.01238020,-0.00729220,0.0
 0037380,0.00009363,-0.00030090,-0.00160827,-0.00001671,0.00031734,-0.0
 0199921,0.00343027,-0.00045733,-0.04578493,0.15654829,0.00253048,-0.00
 394303,-0.01353286,-0.06348531,0.09598583,-0.24761224,0.01492674,-0.00
 155323,0.00154344,-0.00992150,0.00298410,-0.01122608,-0.00294718,0.013
 84721,0.00353481,-0.00005370,0.00066523,0.00172855,-0.00197870,-0.0008
 3095,0.00110563,-0.00657574,0.02746266,-0.03539517,-0.00040615,-0.0000
 0754,0.00045708,0.00161897,0.00002354,0.00015579,0.00208503,0.00155126
 ,0.00200926,0.06358950,-0.13744374,0.29773397,-0.10203054,0.08730073,-
 0.03099939,-0.00642896,0.00450513,-0.00047818,-0.00573509,0.01113953,-
 0.00411331,0.00070320,-0.00000271,0.00080477,0.00440562,-0.02845170,0.
 00578811,0.00042899,0.00016847,-0.00008819,-0.00086171,-0.00028851,-0.
 00047811,0.00034872,-0.00029828,-0.00030130,0.00451517,0.00077218,-0.0
 0185861,-0.00044794,0.00308077,0.00160914,-0.00045053,-0.00008475,-0.0
 0019333,0.00061569,0.00055749,-0.00042781,0.57360370,0.07341001,-0.215
 47157,0.04699686,0.00279822,0.00145780,-0.00398561,-0.01000507,0.01039
 856,-0.00319954,0.00072546,0.00113686,0.00011414,0.01761306,-0.0469748
 6,-0.00100589,-0.00005986,0.00010491,0.00022988,0.00078078,0.00021306,
 -0.00014295,-0.00088662,0.00008920,0.00009181,0.00262174,0.00000655,-0
 .00045160,0.00063916,-0.00106284,-0.00171967,-0.00023152,-0.00002282,-
 0.00025485,0.00051843,-0.00229656,0.00384412,0.01182576,0.58229306,-0.
 03829588,0.04049369,-0.11645323,0.00158675,-0.00289361,0.00309187,-0.0
 0254416,-0.00395012,-0.00366472,0.00030108,0.00109685,-0.00070422,0.01
 616630,-0.01940238,0.01027601,0.00001810,-0.00005254,0.00000044,0.0007
 1829,-0.00000804,0.00063780,-0.00009046,0.00015457,-0.00015660,-0.0010
 6524,-0.00170801,0.00135725,-0.01292951,0.02498559,-0.00120542,-0.0001
 0605,-0.00015661,0.00011276,-0.00115566,0.00178609,-0.00215385,0.00784
 670,0.01650809,0.62024335,0.00415742,0.01121542,0.01245498,0.00046823,
 0.00019196,0.00017110,0.00058518,-0.00018349,0.00059091,-0.00002739,0.
 00003916,-0.00010380,-0.00125470,0.00425100,-0.00114470,-0.00000540,0.
 00001013,0.00000896,0.00000511,0.00001253,-0.00000466,-0.00022525,-0.0
 0000912,-0.00010281,-0.00018702,0.00017313,-0.00004020,0.00060125,-0.0
 0042071,0.00013905,-0.00002376,-0.00003371,-0.00000040,-0.00009967,-0.
 00020415,-0.00004315,-0.07976998,-0.05668616,-0.05392777,0.08092904,-0
 .01097469,-0.01848508,-0.02417382,-0.00077469,0.00007867,-0.00001072,-
 0.00024365,-0.00004576,-0.00134364,0.00005267,-0.00040300,0.00016638,0
 .00331208,-0.00673713,0.00303921,0.00008323,-0.00001168,-0.00003085,-0
 .00010550,-0.00008678,0.00011518,0.00048378,0.00003556,-0.00001800,0.0
 0038549,-0.00032280,0.00008551,-0.00033650,0.00112079,0.00045674,0.000
 00681,0.00004219,0.00002170,0.00015853,0.00023305,-0.00014146,-0.05307
 434,-0.18807605,-0.12262201,0.05703760,0.20337957,0.00301520,0.0087261
 7,0.00616568,-0.00005839,-0.00019915,-0.00019069,0.00020315,-0.0001809
 8,0.00044601,-0.00003757,-0.00002414,0.00016274,-0.00099993,0.00362051
 ,0.00056881,0.00000120,-0.00000663,-0.00000739,-0.00000596,-0.00001790
 ,-0.00000796,0.00022202,-0.00008289,0.00010255,-0.00015596,0.00006947,
 0.00003011,0.00057105,0.00000464,0.00102334,-0.00003407,0.00003598,0.0
 0001209,0.00036599,0.00030478,0.00001647,-0.05258023,-0.12751238,-0.17
 749196,0.05971894,0.13595368,0.18627834,-0.00841107,0.00928501,0.00008
 552,0.00119211,0.00024836,-0.00097256,-0.00365444,0.00418235,0.0005420
 9,0.00027675,0.00077510,0.00024569,0.00244390,-0.00696378,-0.00325499,
 0.00004959,0.00006519,0.00006653,0.00023882,0.00000143,-0.00006221,0.0
 0001079,-0.00020378,-0.00007277,0.00082418,0.00021428,-0.00039648,-0.0
 0150491,0.00063898,0.00042311,-0.00023387,-0.00003069,-0.00014177,0.00
 015998,-0.00024317,0.00049344,-0.30564741,-0.01591993,0.00698458,-0.00
 866160,-0.00089608,0.00047067,0.33296532,0.03138132,-0.00507436,-0.003
 41476,-0.00090536,-0.00088180,0.00212697,0.00576382,-0.00690609,0.0010
 1467,-0.00071933,-0.00155145,-0.00008197,-0.00209635,0.01237163,0.0014
 7120,0.00004147,-0.00003331,-0.00012641,-0.00042816,-0.00008503,0.0002
 3867,0.00051705,0.00014581,-0.00001786,-0.00136754,-0.00034099,0.00052
 969,0.00056024,-0.00070250,0.00008222,0.00028036,0.00007317,0.00012762
 ,-0.00073903,0.00132723,-0.00138602,-0.00982357,-0.05620955,0.00009239
 ,-0.02434404,-0.00037537,0.00230237,0.01033799,0.05915374,-0.00963906,
 0.00138394,0.00155184,0.00043989,0.00113624,-0.00153777,-0.00090123,0.
 00107718,0.00013749,-0.00002143,0.00008458,0.00027418,0.00088591,-0.00
 284035,-0.00102328,0.00000281,0.00000140,0.00002262,-0.00005178,-0.000
 04058,-0.00008903,0.00006012,-0.00011564,-0.00002465,0.00031650,0.0000
 4488,-0.00011818,-0.00010578,0.00045345,-0.00019244,-0.00006258,0.0000
 2041,-0.00004186,0.00069709,-0.00111136,0.00116332,0.00479261,-0.00008
 474,-0.05811726,-0.02425103,-0.00000026,0.00174740,-0.00463239,-0.0017
 5426,0.05385565,0.00447986,0.00467178,-0.01772216,-0.00047749,0.000833
 83,-0.00185124,-0.00092934,-0.00012915,-0.00017024,0.00039236,0.000519
 93,0.00039054,0.00083664,-0.00073367,0.00014975,0.00003471,-0.00010326
 ,0.00001668,0.00027828,0.00006226,0.00002996,-0.00004103,-0.00012950,0
 .00012171,-0.00016386,-0.00009757,0.00013042,-0.00112276,0.00303630,-0
 .00061657,-0.00011586,-0.00002206,-0.00003400,-0.00035858,-0.00045074,
 0.00101440,-0.08078725,-0.02530830,0.07391624,0.00353741,0.00461970,-0
 .01049131,-0.00961055,-0.00940351,0.03240691,0.08358681,-0.00480597,-0
 .01016931,0.02859286,-0.00162582,-0.00017375,0.00254315,0.00388489,-0.
 00253972,0.00031213,-0.00044207,-0.00142479,-0.00006629,-0.00222659,0.
 00524622,0.00055286,0.00013627,0.00004998,-0.00015537,-0.00092449,-0.0
 0023583,-0.00002886,0.00027864,0.00012168,-0.00011491,0.00018376,0.000
 14159,-0.00014804,0.00089277,-0.00429484,0.00089128,0.00020254,0.00000
 709,0.00003473,-0.00106401,0.00107132,-0.00182988,-0.02391584,-0.08173
 182,0.07007563,0.00903892,0.00927031,-0.02244333,-0.00134504,-0.000826
 03,0.00195462,0.02249934,0.08742828,-0.00193484,0.00558872,-0.00460109
 ,0.00046670,0.00133492,-0.00215534,-0.00114894,0.00133099,0.00014133,0
 .00005131,0.00003098,0.00002997,-0.00043246,-0.00316737,-0.00092423,-0
 .00004978,-0.00000595,0.00008264,0.00038876,0.00005845,-0.00004317,-0.
 00028557,0.00003476,-0.00000963,0.00002419,0.00005828,0.00007404,0.000
 94033,0.00185774,0.00035690,0.00002369,0.00001909,-0.00002695,0.001840
 34,-0.00211225,0.00158890,0.07180813,0.07080019,-0.27508056,0.00682770
 ,0.00728996,-0.01825762,-0.00011658,-0.00093390,0.00183699,-0.07800561
 ,-0.07968997,0.29736913,-0.00095799,-0.00602169,-0.00596146,0.00368762
 ,-0.00284398,-0.00115932,-0.01014836,0.00838299,-0.02092016,0.00173618
 ,0.00387643,0.00006440,-0.10562557,0.01230058,-0.04213654,-0.00015531,
 -0.00006659,0.00003398,0.00596083,0.00257834,-0.00227962,-0.00042111,-
 0.00007515,0.00003942,-0.00370028,-0.00234565,0.00098906,0.00577759,0.
 00179640,-0.00064311,-0.00068310,-0.00017913,0.00010540,-0.00088862,0.
 00002965,0.00003886,-0.00273627,-0.00275984,0.00179114,-0.00073046,0.0
 0031583,-0.00056808,-0.00127376,0.00142121,0.00024031,0.00101221,-0.00
 074423,-0.00104355,0.64061514,-0.01218516,0.01020391,-0.03187778,0.000
 89590,-0.00095708,-0.00241805,0.00919771,-0.00002736,0.03480131,0.0006
 0296,0.00101317,0.00003824,0.01378432,-0.12707267,0.00810295,-0.000232
 01,0.00001110,0.00009182,0.00427950,-0.00376990,0.00011413,-0.00010578
 ,-0.00006343,0.00012426,0.00001532,-0.00019967,0.00273667,0.00003824,-
 0.00494335,-0.00381779,-0.00030882,0.00017833,-0.00016892,0.00006848,0
 .00023590,0.00138516,-0.00167748,-0.00302125,-0.00224515,0.00001914,0.
 00025886,-0.00022020,-0.00008503,0.00000998,-0.00006983,0.00017861,-0.
 00096138,-0.00122422,-0.00450555,0.69358057,-0.01051612,-0.01096039,-0
 .02670278,0.00523554,-0.00423939,0.00437487,-0.01395954,0.01432160,-0.
 01391252,0.00249140,0.00421601,-0.00007084,-0.04875539,0.01152806,-0.2
 3234980,0.00022821,-0.00006571,-0.00009348,-0.00108562,-0.00253509,0.0
 0224762,-0.00048848,0.00004466,-0.00017557,0.00239339,-0.00316128,-0.0
 0099914,-0.00098603,-0.00099836,0.00216183,-0.00038596,-0.00055106,0.0
 0035404,-0.00361094,-0.00050460,-0.00442315,-0.00037852,-0.00040526,-0
 .00025823,-0.00045836,0.00126554,-0.00091452,-0.00029267,0.00068061,0.
 00061726,0.00024298,0.00102011,-0.00038929,-0.02136461,0.02106683,0.55
 949221,-0.00011238,0.00221346,-0.00223004,-0.00005914,0.00004483,0.000
 69147,0.00007496,-0.00086026,-0.00062149,-0.00016108,-0.00036477,-0.00
 006559,-0.00389260,-0.01320491,-0.00566783,0.00003221,0.00005817,0.000
 02926,0.00000306,0.00020243,0.00022031,0.00006940,0.00004308,-0.000072
 79,0.00032702,0.00063926,-0.00096572,0.00056476,-0.00046621,-0.0004663
 4,-0.00009582,-0.00003029,0.00000071,-0.00043793,-0.00007016,-0.000538
 69,-0.00027569,0.00057184,0.00034585,0.00021619,-0.00003480,0.00013373
 ,0.00030257,-0.00012389,-0.00018607,-0.00023011,0.00013668,0.00034558,
 -0.06745502,-0.03385134,-0.01384592,0.06290597,0.00090243,0.00101334,0
 .00150447,0.00017537,-0.00012345,0.00048874,0.00128080,0.00017066,0.00
 258351,-0.00002189,-0.00006253,-0.00010247,0.00178254,0.00374446,0.003
 91844,-0.00000352,0.00003246,0.00002082,0.00027726,0.00067610,0.000110
 12,0.00002438,0.00001275,-0.00004646,0.00074546,0.00078685,0.00201527,
 -0.00004573,0.00027411,0.00003698,-0.00005046,-0.00000953,-0.00001124,
 -0.00034535,0.00001335,-0.00038512,-0.00028354,-0.00051147,-0.00016425
 ,-0.00003637,0.00002424,-0.00023208,-0.00018741,0.00006713,0.00007538,
 0.00013583,0.00031624,-0.00024556,-0.03984896,-0.30165210,-0.10122408,
 0.03910767,0.31818609,-0.00140542,0.00615797,-0.00398025,-0.00099364,0
 .00088092,-0.00048941,0.00083273,-0.00170008,0.00056746,-0.00037810,-0
 .00078709,0.00008835,-0.00668497,-0.04012512,-0.02158804,0.00008089,0.
 00001502,0.00000007,0.00035927,0.00025442,0.00023293,0.00013403,0.0000
 0574,-0.00000560,-0.00053936,0.00090393,0.00014346,-0.00053704,-0.0015
 2569,-0.00083414,0.00006108,0.00003651,-0.00003770,0.00056169,-0.00016
 347,0.00074234,-0.00011207,0.00059955,-0.00002470,0.00000623,-0.000138
 76,0.00024177,0.00004061,0.00012096,-0.00003554,-0.00006900,-0.0002208
 9,0.00023378,-0.01441023,-0.08468861,-0.09601574,0.02183842,0.10237102
 ,0.10999827,0.00056276,0.00033110,0.00021301,0.00028970,0.00056914,-0.
 00131045,0.00016055,-0.00041794,-0.00140427,0.00034636,0.00021343,0.00
 044813,0.01329228,0.01009631,-0.01231356,0.00029346,0.00004543,0.00006
 323,-0.00072582,-0.00004077,0.00015398,-0.00005631,-0.00012982,0.00018
 513,0.00032832,0.00016986,-0.00006799,-0.00040146,0.00004033,0.0001523
 4,-0.00040264,0.00006719,0.00009519,-0.00181709,-0.00198654,0.00038944
 ,-0.00017062,-0.00062577,-0.00002579,0.00016332,0.00009180,-0.00030789
 ,0.00003099,-0.00020027,0.00003868,0.00028298,0.00042547,-0.00013375,-
 0.19699891,-0.09507232,0.10506113,-0.00043798,0.00016686,0.00026155,0.
 20224210,-0.00010299,-0.00117287,-0.00173862,-0.00017255,0.00133946,-0
 .00079883,0.00062225,0.00019628,0.00040586,-0.00022300,-0.00007343,0.0
 0024582,-0.00029740,-0.00011313,0.00357540,0.00000068,-0.00012378,-0.0
 0011944,0.00056379,0.00007523,-0.00000790,0.00001861,-0.00011917,0.000
 14019,-0.00070431,-0.00007126,0.00051239,0.00004760,-0.00000867,0.0001
 3443,0.00035294,-0.00007898,0.00000188,-0.00098398,-0.00186104,0.00014
 065,0.00000422,0.00077942,-0.00077774,-0.00000926,0.00002051,0.0000598
 8,0.00002153,0.00005705,0.00028618,0.00019544,-0.00059887,-0.00026507,
 -0.09375381,-0.12947963,0.07141106,-0.02151680,-0.01108782,0.01735337,
 0.10225141,0.13062812,0.00112146,0.00353615,0.00056529,-0.00277654,0.0
 0200006,-0.00218826,0.00424528,-0.00431358,-0.00124858,-0.00097016,-0.
 00195354,0.00065607,0.01819013,0.02114070,-0.03212065,0.00024455,0.000
 05335,0.00003363,-0.00177780,0.00012894,0.00024618,0.00032445,-0.00000
 210,0.00015519,0.00038556,0.00037545,-0.00002409,-0.00104805,-0.000393
 79,0.00026432,-0.00003649,0.00019030,0.00002587,0.00142905,-0.00020543
 ,0.00209947,0.00075280,0.00051225,-0.00038471,-0.00005703,-0.00003858,
 0.00020973,0.00010746,-0.00028584,0.00025614,0.00023786,-0.00077893,0.
 00006450,0.09661505,0.06590746,-0.13149294,-0.01075073,-0.00594221,0.0
 0989636,-0.10588430,-0.07916038,0.15117309,0.00020484,0.00149246,-0.00
 059015,-0.00031238,0.00044367,0.00044065,0.00124272,-0.00289144,-0.001
 40517,-0.00021904,-0.00044450,0.00007938,-0.00804115,0.00722481,-0.002
 87479,0.00005625,-0.00000278,-0.00006633,-0.00013882,0.00034602,0.0000
 4265,0.00002258,-0.00000382,-0.00002642,-0.00010347,0.00001523,0.00019
 236,0.00016176,-0.00020978,-0.00005554,0.00013742,-0.00004406,-0.00000
 070,-0.00016153,-0.00042501,-0.00030893,0.00072090,0.00097859,0.000465
 49,0.00032208,-0.00010729,0.00053746,0.00050261,-0.00015240,-0.0000294
 9,-0.00060444,-0.00058522,0.00043436,-0.26701482,0.11894330,0.00047553
 ,0.00866162,-0.00377538,0.00095333,-0.01698197,0.01368566,-0.00035256,
 0.28154483,-0.00029032,-0.00016417,-0.00070700,-0.00007062,0.00005078,
 0.00052301,0.00044852,-0.00003545,0.00101569,-0.00002848,-0.00010328,0
 .00001580,0.00170886,-0.00225626,0.00146160,0.00003921,-0.00000300,-0.
 00002583,0.00004565,0.00006266,0.00031380,0.00002493,0.00001663,-0.000
 02895,0.00050194,0.00044694,0.00009973,0.00011097,0.00001904,0.0001407
 3,0.00002394,-0.00006053,0.00000129,-0.00019468,-0.00019857,-0.0003688
 0,-0.00145354,-0.00110063,-0.00121243,-0.00006197,0.00007992,-0.000157
 82,0.00010467,-0.00021925,-0.00050125,-0.00037525,-0.00069635,-0.00075
 978,0.12244313,-0.13334402,-0.00090926,0.02750599,-0.01187088,0.000650
 31,-0.01599491,0.01169257,-0.00077027,-0.13448803,0.13768384,0.0003669
 2,0.00143423,0.00073259,-0.00107643,0.00068220,-0.00033837,0.00015194,
 -0.00370789,-0.00451171,-0.00056813,-0.00103542,0.00015502,-0.03821512
 ,0.02514501,-0.00490409,0.00010688,0.00007684,0.00001410,-0.00003401,0
 .00137113,-0.00050564,0.00012342,0.00004376,0.00002634,-0.00027091,0.0
 0028032,0.00022120,0.00056504,0.00021719,-0.00008863,-0.00003351,0.000
 06572,0.00000674,0.00042569,0.00011363,0.00046433,-0.00139320,-0.00093
 439,-0.00002403,0.00021603,0.00012419,-0.00013491,0.00048273,-0.000786
 38,-0.00028287,0.00030268,-0.00050089,-0.00029028,0.01056905,-0.007638
 26,-0.06144983,0.01180588,-0.00477129,0.00086635,0.01438620,-0.0113991
 4,0.00181340,0.00208886,0.00121942,0.06823029\\-0.00000070,-0.00000134
 ,-0.00000094,0.00000051,-0.00000021,-0.00000147,0.00000128,-0.00000093
 ,0.00000159,-0.00000019,0.00000152,0.00000023,0.00000150,0.00000173,0.
 00000072,0.00000046,0.00000102,-0.00000053,0.00000041,0.00000054,0.000
 00114,0.00000055,0.00000096,-0.00000171,-0.00000040,-0.00000044,0.0000
 0148,0.00000072,0.00000112,-0.00000011,-0.00000051,-0.00000047,-0.0000
 0006,-0.00000041,-0.00000012,-0.00000176,0.00000018,0.00000107,0.00000
 140,0.00000053,0.00000065,-0.00000128,0.00000035,-0.00000020,-0.000000
 27,-0.00000082,-0.00000153,-0.00000149,-0.00000196,0.00000063,0.000001
 60,0.00000746,-0.00000126,-0.00000148,-0.00000476,0.00000715,0.0000013
 8,-0.00000419,-0.00000990,0.00000157\\\@
 The archive entry for this job was punched.


 THE ONLY TROUBLE WITH A SURE THING IS THE UNCERTAINTY.
     -- FROM A TEABAG (BELONGING TO W.H.?)
 Job cpu time:       0 days  2 hours 55 minutes 58.2 seconds.
 Elapsed time:       0 days  0 hours 26 minutes 50.0 seconds.
 File lengths (MBytes):  RWF=      6 Int=      0 D2E=      0 Chk=      2 Scr=      1
 Normal termination of Gaussian 16 at Tue Jan 16 23:35:04 2024.
