Unloading slurm/anatra/current
  ERROR: No such file or directory on
    '/cm/local/modulefiles/slurm/anatra/current'
environment: line 0: unalias: gv: not found
environment: line 0: unalias: sl: not found
 Entering Gaussian System, Link 0=g16
 Initial command:
 /apps/gaussian/g16/C.01/g16/l1.exe "/local/jobs/1157677/Gau-356901.inp" -scrdir="/local/jobs/1157677/"
 Entering Link 1 = /apps/gaussian/g16/C.01/g16/l1.exe PID=    356902.
  
 Copyright (c) 1988-2019, Gaussian, Inc.  All Rights Reserved.
  
 This is part of the Gaussian(R) 16 program.  It is based on
 the Gaussian(R) 09 system (copyright 2009, Gaussian, Inc.),
 the Gaussian(R) 03 system (copyright 2003, Gaussian, Inc.),
 the Gaussian(R) 98 system (copyright 1998, Gaussian, Inc.),
 the Gaussian(R) 94 system (copyright 1995, Gaussian, Inc.),
 the Gaussian 92(TM) system (copyright 1992, Gaussian, Inc.),
 the Gaussian 90(TM) system (copyright 1990, Gaussian, Inc.),
 the Gaussian 88(TM) system (copyright 1988, Gaussian, Inc.),
 the Gaussian 86(TM) system (copyright 1986, Carnegie Mellon
 University), and the Gaussian 82(TM) system (copyright 1983,
 Carnegie Mellon University). Gaussian is a federally registered
 trademark of Gaussian, Inc.
  
 This software contains proprietary and confidential information,
 including trade secrets, belonging to Gaussian, Inc.
  
 This software is provided under written license and may be
 used, copied, transmitted, or stored only in accord with that
 written license.
  
 The following legend is applicable only to US Government
 contracts under FAR:
  
                    RESTRICTED RIGHTS LEGEND
  
 Use, reproduction and disclosure by the US Government is
 subject to restrictions as set forth in subparagraphs (a)
 and (c) of the Commercial Computer Software - Restricted
 Rights clause in FAR 52.227-19.
  
 Gaussian, Inc.
 340 Quinnipiac St., Bldg. 40, Wallingford CT 06492
  
  
 ---------------------------------------------------------------
 Warning -- This program may not be used in any manner that
 competes with the business of Gaussian, Inc. or will provide
 assistance to any competitor of Gaussian, Inc.  The licensee
 of this program is prohibited from giving any competitor of
 Gaussian, Inc. access to this program.  By using this program,
 the user acknowledges that Gaussian, Inc. is engaged in the
 business of creating and licensing software in the field of
 computational chemistry and represents and warrants to the
 licensee that it is not a competitor of Gaussian, Inc. and that
 it will not use this program in any manner prohibited above.
 ---------------------------------------------------------------
  

 Cite this work as:
 Gaussian 16, Revision C.01,
 M. J. Frisch, G. W. Trucks, H. B. Schlegel, G. E. Scuseria, 
 M. A. Robb, J. R. Cheeseman, G. Scalmani, V. Barone, 
 G. A. Petersson, H. Nakatsuji, X. Li, M. Caricato, A. V. Marenich, 
 J. Bloino, B. G. Janesko, R. Gomperts, B. Mennucci, H. P. Hratchian, 
 J. V. Ortiz, A. F. Izmaylov, J. L. Sonnenberg, D. Williams-Young, 
 F. Ding, F. Lipparini, F. Egidi, J. Goings, B. Peng, A. Petrone, 
 T. Henderson, D. Ranasinghe, V. G. Zakrzewski, J. Gao, N. Rega, 
 G. Zheng, W. Liang, M. Hada, M. Ehara, K. Toyota, R. Fukuda, 
 J. Hasegawa, M. Ishida, T. Nakajima, Y. Honda, O. Kitao, H. Nakai, 
 T. Vreven, K. Throssell, J. A. Montgomery, Jr., J. E. Peralta, 
 F. Ogliaro, M. J. Bearpark, J. J. Heyd, E. N. Brothers, K. N. Kudin, 
 V. N. Staroverov, T. A. Keith, R. Kobayashi, J. Normand, 
 K. Raghavachari, A. P. Rendell, J. C. Burant, S. S. Iyengar, 
 J. Tomasi, M. Cossi, J. M. Millam, M. Klene, C. Adamo, R. Cammi, 
 J. W. Ochterski, R. L. Martin, K. Morokuma, O. Farkas, 
 J. B. Foresman, and D. J. Fox, Gaussian, Inc., Wallingford CT, 2019.
 
 ******************************************
 Gaussian 16:  ES64L-G16RevC.01  3-Jul-2019
                17-Jan-2024 
 ******************************************
 %nprocshared=12
 Will use up to   12 processors via shared memory.
 %mem=48GB
 ----------------------------------------------------------------------
 # external="~/scripts/MiMe -H 'hf def2svp' -EF 'wb97xd def2svp' -c 12 
 -m 48GB" opt=(calcall,ts,noeigen,maxcycles=50,maxstep=10,nomicro)
 ----------------------------------------------------------------------
 1/5=1,6=50,8=10,10=4,11=1,18=20,26=1,38=1/1,3;
 2/9=110,12=2,17=6,18=5,40=1/2;
 3/11=9,25=1,30=1,41=9900000,43=2,71=2,140=1/1;
 4/20=17,22=2,24=3,113=1,114=1/2;
 6/7=2,8=2,9=2,10=2,18=1/1;
 7/25=1,44=-1/16;
 1/5=1,6=50,8=10,10=4,11=1,18=20,26=1/3(3);
 2/9=110/2;
 7/8=1,9=1,25=1,44=-1/16;
 99//99;
 2/9=110/2;
 3/11=9,25=1,30=1,41=9900000,43=2,71=2,140=1/1;
 4/16=2,20=17,22=2,24=3,113=1,114=1/2;
 7/25=1,44=-1/16;
 1/5=1,6=50,8=10,10=4,11=1,18=20,26=1/3(-4);
 2/9=110/2;
 6/7=2,8=2,9=2,10=2,18=1/1;
 7/8=1,9=1,25=1,44=-1/16;
 99//99;
 -----
 *****
 -----
 Symbolic Z-matrix:
 Charge =  0 Multiplicity = 1
 C                    -1.3702   -1.1403    0.2064 
 C                    -0.7558    1.0745    0.4479 
 C                     0.8224   -1.0488   -0.4901 
 C                     0.4828    1.0089   -0.3265 
 C                    -0.5147   -1.684     1.261 
 C                     0.7603   -1.6448    0.8547 
 H                     1.6214   -1.9327    1.4402 
 C                     2.1344   -0.8467   -1.1832 
 H                     2.732    -1.7637   -1.2043 
 H                     1.9589   -0.5494   -2.2243 
 C                     2.8795    0.2805   -0.4393 
 H                     3.5219   -0.1491    0.3372 
 H                     3.493     0.8687   -1.1278 
 C                     1.8545    1.1796    0.2336 
 O                     2.1015    1.9406    1.1586 
 H                    -0.8674   -2.0171    2.2257 
 H                     0.4116    1.3562   -1.3585 
 H                    -0.7091    1.1299    1.5312 
 C                    -0.5513   -1.3121   -1.0671 
 H                    -0.6272   -2.3346   -1.4563 
 H                    -0.8476   -0.617    -1.8576 
 Cl                   -2.0176    2.097    -0.1611 
 C                    -2.8412   -1.3691    0.2271 
 H                    -3.3446   -0.7133   -0.4888 
 H                    -3.0749   -2.4056   -0.0352 
 H                    -3.253    -1.1641    1.2206 
 

 GradGradGradGradGradGradGradGradGradGradGradGradGradGradGradGradGradGrad
 Berny optimization.
 Initialization pass.
                           ----------------------------
                           !    Initial Parameters    !
                           ! (Angstroms and Degrees)  !
 --------------------------                            --------------------------
 ! Name  Definition              Value          Derivative Info.                !
 --------------------------------------------------------------------------------
 ! R1    R(1,5)                  1.4628         calculate D2E/DX2 analytically  !
 ! R2    R(1,19)                 1.5238         calculate D2E/DX2 analytically  !
 ! R3    R(1,23)                 1.4888         calculate D2E/DX2 analytically  !
 ! R4    R(2,4)                  1.4622         calculate D2E/DX2 analytically  !
 ! R5    R(2,18)                 1.0857         calculate D2E/DX2 analytically  !
 ! R6    R(2,22)                 1.7345         calculate D2E/DX2 analytically  !
 ! R7    R(3,6)                  1.4723         calculate D2E/DX2 analytically  !
 ! R8    R(3,8)                  1.4975         calculate D2E/DX2 analytically  !
 ! R9    R(3,19)                 1.513          calculate D2E/DX2 analytically  !
 ! R10   R(4,14)                 1.4914         calculate D2E/DX2 analytically  !
 ! R11   R(4,17)                 1.0912         calculate D2E/DX2 analytically  !
 ! R12   R(5,6)                  1.3387         calculate D2E/DX2 analytically  !
 ! R13   R(5,16)                 1.0798         calculate D2E/DX2 analytically  !
 ! R14   R(6,7)                  1.0804         calculate D2E/DX2 analytically  !
 ! R15   R(8,9)                  1.0947         calculate D2E/DX2 analytically  !
 ! R16   R(8,10)                 1.0968         calculate D2E/DX2 analytically  !
 ! R17   R(8,11)                 1.5424         calculate D2E/DX2 analytically  !
 ! R18   R(11,12)                1.0955         calculate D2E/DX2 analytically  !
 ! R19   R(11,13)                1.0938         calculate D2E/DX2 analytically  !
 ! R20   R(11,14)                1.5205         calculate D2E/DX2 analytically  !
 ! R21   R(14,15)                1.223          calculate D2E/DX2 analytically  !
 ! R22   R(19,20)                1.0967         calculate D2E/DX2 analytically  !
 ! R23   R(19,21)                1.0935         calculate D2E/DX2 analytically  !
 ! R24   R(23,24)                1.0936         calculate D2E/DX2 analytically  !
 ! R25   R(23,25)                1.0944         calculate D2E/DX2 analytically  !
 ! R26   R(23,26)                1.0948         calculate D2E/DX2 analytically  !
 ! A1    A(5,1,19)             104.2605         calculate D2E/DX2 analytically  !
 ! A2    A(5,1,23)             120.7107         calculate D2E/DX2 analytically  !
 ! A3    A(19,1,23)            121.6864         calculate D2E/DX2 analytically  !
 ! A4    A(4,2,18)             119.6219         calculate D2E/DX2 analytically  !
 ! A5    A(4,2,22)             117.1749         calculate D2E/DX2 analytically  !
 ! A6    A(18,2,22)            110.5813         calculate D2E/DX2 analytically  !
 ! A7    A(6,3,8)              120.9539         calculate D2E/DX2 analytically  !
 ! A8    A(6,3,19)             103.8625         calculate D2E/DX2 analytically  !
 ! A9    A(8,3,19)             129.9718         calculate D2E/DX2 analytically  !
 ! A10   A(2,4,14)             125.1017         calculate D2E/DX2 analytically  !
 ! A11   A(2,4,17)             115.5514         calculate D2E/DX2 analytically  !
 ! A12   A(14,4,17)            112.2564         calculate D2E/DX2 analytically  !
 ! A13   A(1,5,6)              109.1057         calculate D2E/DX2 analytically  !
 ! A14   A(1,5,16)             124.5925         calculate D2E/DX2 analytically  !
 ! A15   A(6,5,16)             126.2457         calculate D2E/DX2 analytically  !
 ! A16   A(3,6,5)              109.2228         calculate D2E/DX2 analytically  !
 ! A17   A(3,6,7)              124.7004         calculate D2E/DX2 analytically  !
 ! A18   A(5,6,7)              125.9312         calculate D2E/DX2 analytically  !
 ! A19   A(3,8,9)              111.9706         calculate D2E/DX2 analytically  !
 ! A20   A(3,8,10)             109.6154         calculate D2E/DX2 analytically  !
 ! A21   A(3,8,11)             107.3751         calculate D2E/DX2 analytically  !
 ! A22   A(9,8,10)             107.223          calculate D2E/DX2 analytically  !
 ! A23   A(9,8,11)             110.9612         calculate D2E/DX2 analytically  !
 ! A24   A(10,8,11)            109.6933         calculate D2E/DX2 analytically  !
 ! A25   A(8,11,12)            109.7873         calculate D2E/DX2 analytically  !
 ! A26   A(8,11,13)            111.122          calculate D2E/DX2 analytically  !
 ! A27   A(8,11,14)            108.6587         calculate D2E/DX2 analytically  !
 ! A28   A(12,11,13)           109.1555         calculate D2E/DX2 analytically  !
 ! A29   A(12,11,14)           108.2705         calculate D2E/DX2 analytically  !
 ! A30   A(13,11,14)           109.7975         calculate D2E/DX2 analytically  !
 ! A31   A(4,14,11)            112.714          calculate D2E/DX2 analytically  !
 ! A32   A(4,14,15)            122.7514         calculate D2E/DX2 analytically  !
 ! A33   A(11,14,15)           124.5081         calculate D2E/DX2 analytically  !
 ! A34   A(1,19,3)              98.6029         calculate D2E/DX2 analytically  !
 ! A35   A(1,19,20)            111.378          calculate D2E/DX2 analytically  !
 ! A36   A(1,19,21)            112.7595         calculate D2E/DX2 analytically  !
 ! A37   A(3,19,20)            111.1257         calculate D2E/DX2 analytically  !
 ! A38   A(3,19,21)            114.2711         calculate D2E/DX2 analytically  !
 ! A39   A(20,19,21)           108.5024         calculate D2E/DX2 analytically  !
 ! A40   A(1,23,24)            110.7039         calculate D2E/DX2 analytically  !
 ! A41   A(1,23,25)            110.6828         calculate D2E/DX2 analytically  !
 ! A42   A(1,23,26)            110.8222         calculate D2E/DX2 analytically  !
 ! A43   A(24,23,25)           108.2245         calculate D2E/DX2 analytically  !
 ! A44   A(24,23,26)           107.9756         calculate D2E/DX2 analytically  !
 ! A45   A(25,23,26)           108.331          calculate D2E/DX2 analytically  !
 ! D1    D(19,1,5,6)            23.0327         calculate D2E/DX2 analytically  !
 ! D2    D(19,1,5,16)         -159.5491         calculate D2E/DX2 analytically  !
 ! D3    D(23,1,5,6)           164.4171         calculate D2E/DX2 analytically  !
 ! D4    D(23,1,5,16)          -18.1646         calculate D2E/DX2 analytically  !
 ! D5    D(5,1,19,3)           -35.7111         calculate D2E/DX2 analytically  !
 ! D6    D(5,1,19,20)           81.0757         calculate D2E/DX2 analytically  !
 ! D7    D(5,1,19,21)         -156.6622         calculate D2E/DX2 analytically  !
 ! D8    D(23,1,19,3)         -176.6196         calculate D2E/DX2 analytically  !
 ! D9    D(23,1,19,20)         -59.8327         calculate D2E/DX2 analytically  !
 ! D10   D(23,1,19,21)          62.4294         calculate D2E/DX2 analytically  !
 ! D11   D(5,1,23,24)          166.9633         calculate D2E/DX2 analytically  !
 ! D12   D(5,1,23,25)          -73.0335         calculate D2E/DX2 analytically  !
 ! D13   D(5,1,23,26)           47.1809         calculate D2E/DX2 analytically  !
 ! D14   D(19,1,23,24)         -58.3383         calculate D2E/DX2 analytically  !
 ! D15   D(19,1,23,25)          61.6649         calculate D2E/DX2 analytically  !
 ! D16   D(19,1,23,26)        -178.1206         calculate D2E/DX2 analytically  !
 ! D17   D(18,2,4,14)           -7.977          calculate D2E/DX2 analytically  !
 ! D18   D(18,2,4,17)         -156.0965         calculate D2E/DX2 analytically  !
 ! D19   D(22,2,4,14)          130.3078         calculate D2E/DX2 analytically  !
 ! D20   D(22,2,4,17)          -17.8117         calculate D2E/DX2 analytically  !
 ! D21   D(8,3,6,5)            178.4424         calculate D2E/DX2 analytically  !
 ! D22   D(8,3,6,7)              2.6139         calculate D2E/DX2 analytically  !
 ! D23   D(19,3,6,5)           -24.693          calculate D2E/DX2 analytically  !
 ! D24   D(19,3,6,7)           159.4785         calculate D2E/DX2 analytically  !
 ! D25   D(6,3,8,9)             51.8848         calculate D2E/DX2 analytically  !
 ! D26   D(6,3,8,10)           170.7483         calculate D2E/DX2 analytically  !
 ! D27   D(6,3,8,11)           -70.1496         calculate D2E/DX2 analytically  !
 ! D28   D(19,3,8,9)           -98.2635         calculate D2E/DX2 analytically  !
 ! D29   D(19,3,8,10)           20.6            calculate D2E/DX2 analytically  !
 ! D30   D(19,3,8,11)          139.702          calculate D2E/DX2 analytically  !
 ! D31   D(6,3,19,1)            36.0362         calculate D2E/DX2 analytically  !
 ! D32   D(6,3,19,20)          -80.9441         calculate D2E/DX2 analytically  !
 ! D33   D(6,3,19,21)          155.8657         calculate D2E/DX2 analytically  !
 ! D34   D(8,3,19,1)          -170.0468         calculate D2E/DX2 analytically  !
 ! D35   D(8,3,19,20)           72.9729         calculate D2E/DX2 analytically  !
 ! D36   D(8,3,19,21)          -50.2173         calculate D2E/DX2 analytically  !
 ! D37   D(2,4,14,11)          143.9173         calculate D2E/DX2 analytically  !
 ! D38   D(2,4,14,15)          -34.2897         calculate D2E/DX2 analytically  !
 ! D39   D(17,4,14,11)         -67.0704         calculate D2E/DX2 analytically  !
 ! D40   D(17,4,14,15)         114.7226         calculate D2E/DX2 analytically  !
 ! D41   D(1,5,6,3)              0.9437         calculate D2E/DX2 analytically  !
 ! D42   D(1,5,6,7)            176.7081         calculate D2E/DX2 analytically  !
 ! D43   D(16,5,6,3)          -176.4209         calculate D2E/DX2 analytically  !
 ! D44   D(16,5,6,7)            -0.6565         calculate D2E/DX2 analytically  !
 ! D45   D(3,8,11,12)           92.0212         calculate D2E/DX2 analytically  !
 ! D46   D(3,8,11,13)         -147.1267         calculate D2E/DX2 analytically  !
 ! D47   D(3,8,11,14)          -26.2174         calculate D2E/DX2 analytically  !
 ! D48   D(9,8,11,12)          -30.6399         calculate D2E/DX2 analytically  !
 ! D49   D(9,8,11,13)           90.2121         calculate D2E/DX2 analytically  !
 ! D50   D(9,8,11,14)         -148.8786         calculate D2E/DX2 analytically  !
 ! D51   D(10,8,11,12)        -148.9268         calculate D2E/DX2 analytically  !
 ! D52   D(10,8,11,13)         -28.0748         calculate D2E/DX2 analytically  !
 ! D53   D(10,8,11,14)          92.8345         calculate D2E/DX2 analytically  !
 ! D54   D(8,11,14,4)          -17.7035         calculate D2E/DX2 analytically  !
 ! D55   D(8,11,14,15)         160.4666         calculate D2E/DX2 analytically  !
 ! D56   D(12,11,14,4)        -136.897          calculate D2E/DX2 analytically  !
 ! D57   D(12,11,14,15)         41.273          calculate D2E/DX2 analytically  !
 ! D58   D(13,11,14,4)         104.0181         calculate D2E/DX2 analytically  !
 ! D59   D(13,11,14,15)        -77.8119         calculate D2E/DX2 analytically  !
 --------------------------------------------------------------------------------
 Trust Radius=1.00D-01 FncErr=1.00D-07 GrdErr=1.00D-07 EigMax=2.50D+02 EigMin=1.00D-04
 Number of steps in this run=     50 maximum allowed number of steps=    156.
 Search for a saddle point of order  1.
 GradGradGradGradGradGradGradGradGradGradGradGradGradGradGradGradGradGrad

                          Input orientation:                          
 ---------------------------------------------------------------------
 Center     Atomic      Atomic             Coordinates (Angstroms)
 Number     Number       Type             X           Y           Z
 ---------------------------------------------------------------------
      1          6           0       -1.370200   -1.140300    0.206400
      2          6           0       -0.755800    1.074500    0.447900
      3          6           0        0.822400   -1.048800   -0.490100
      4          6           0        0.482800    1.008900   -0.326500
      5          6           0       -0.514700   -1.684000    1.261000
      6          6           0        0.760300   -1.644800    0.854700
      7          1           0        1.621400   -1.932700    1.440200
      8          6           0        2.134400   -0.846700   -1.183200
      9          1           0        2.732000   -1.763700   -1.204300
     10          1           0        1.958900   -0.549400   -2.224300
     11          6           0        2.879500    0.280500   -0.439300
     12          1           0        3.521900   -0.149100    0.337200
     13          1           0        3.493000    0.868700   -1.127800
     14          6           0        1.854500    1.179600    0.233600
     15          8           0        2.101500    1.940600    1.158600
     16          1           0       -0.867400   -2.017100    2.225700
     17          1           0        0.411600    1.356200   -1.358500
     18          1           0       -0.709100    1.129900    1.531200
     19          6           0       -0.551300   -1.312100   -1.067100
     20          1           0       -0.627200   -2.334600   -1.456300
     21          1           0       -0.847600   -0.617000   -1.857600
     22         17           0       -2.017600    2.097000   -0.161100
     23          6           0       -2.841200   -1.369100    0.227100
     24          1           0       -3.344600   -0.713300   -0.488800
     25          1           0       -3.074900   -2.405600   -0.035200
     26          1           0       -3.253000   -1.164100    1.220600
 ---------------------------------------------------------------------
                    Distance matrix (angstroms):
                    1          2          3          4          5
     1  C    0.000000
     2  C    2.311093   0.000000
     3  C    2.302386   2.806949   0.000000
     4  C    2.887326   1.462234   2.091942   0.000000
     5  C    1.462761   2.885928   2.292960   3.281291   0.000000
     6  C    2.283384   3.139847   1.472263   2.917938   1.338746
     7  H    3.331641   3.959671   2.268422   3.615335   2.157982
     8  C    3.781456   3.834678   1.497523   2.627731   3.700394
     9  H    4.382550   4.790605   2.160494   3.676513   4.077391
    10  H    4.164177   4.140930   2.132717   2.865103   4.421915
    11  C    4.527201   3.825306   2.449751   2.507481   4.274444
    12  H    4.993218   4.450637   2.963307   3.319276   4.416273
    13  H    5.428341   4.536241   3.348966   3.118179   5.318299
    14  C    3.972577   2.621190   2.560222   1.491446   3.856017
    15  O    4.738284   3.069102   3.645658   2.386164   4.471321
    16  H    2.258132   3.568055   3.341945   4.182516   1.079814
    17  H    3.443288   2.169161   2.589768   1.091197   4.118571
    18  H    2.710342   1.085720   3.343334   2.210501   2.833519
    19  C    1.523783   2.834238   1.513046   2.646676   2.357901
    20  H    2.177837   3.906978   2.165217   3.699668   2.796365
    21  H    2.192498   2.860932   2.201229   2.599573   3.312850
    22  Cl   3.321791   1.734510   4.250870   2.731908   4.310109
    23  C    1.488831   3.220066   3.746856   4.124358   2.565290
    24  H    2.136326   3.282609   4.180485   4.200155   3.465890
    25  H    2.136670   4.209834   4.151721   4.939726   2.958964
    26  H    2.138715   3.441570   4.421388   4.590387   2.787511
                    6          7          8          9         10
     6  C    0.000000
     7  H    1.080366   0.000000
     8  C    2.584212   2.885272   0.000000
     9  H    2.853282   2.873217   1.094742   0.000000
    10  H    3.480917   3.931410   1.096849   1.764259   0.000000
    11  C    3.142010   3.164426   1.542446   2.187632   2.173123
    12  H    3.182980   2.830148   2.173343   2.367931   3.027291
    13  H    4.208995   4.236196   2.188940   2.741259   2.359403
    14  C    3.091969   3.346137   2.488284   3.391250   3.006927
    15  O    3.840087   3.913087   3.640625   4.438768   4.202909
    16  H    2.160476   2.611180   4.690548   4.978433   5.472167
    17  H    3.745110   4.484774   2.802060   3.891248   2.602894
    18  H    3.211814   3.849549   4.400046   5.262799   4.903270
    19  C    2.350383   3.375252   2.728197   3.317051   2.867390
    20  H    2.782391   3.688826   3.148788   3.416673   3.234915
    21  H    3.316366   4.324640   3.065926   3.815135   2.831162
    22  Cl   4.769659   5.660827   5.191258   6.209023   5.203151
    23  C    3.666155   4.658761   5.197927   5.767597   5.451810
    24  H    4.418471   5.465266   5.524439   6.208087   5.582646
    25  H    4.009925   4.945268   5.557417   5.958097   5.794547
    26  H    4.058514   4.939509   5.907883   6.485359   6.277666
                   11         12         13         14         15
    11  C    0.000000
    12  H    1.095530   0.000000
    13  H    1.093798   1.784090   0.000000
    14  C    1.520461   2.134572   2.152847   0.000000
    15  O    2.431975   2.656893   2.883204   1.223011   0.000000
    16  H    5.140083   5.130479   6.211835   4.647160   5.061270
    17  H    2.844748   3.849064   3.128243   2.155906   3.087568
    18  H    4.181196   4.578519   4.979573   2.873722   2.948820
    19  C    3.834175   4.462688   4.595208   3.699765   4.750910
    20  H    4.491100   5.020765   5.229253   4.622142   5.706211
    21  H    4.087586   4.912088   4.645505   3.860341   4.933150
    22  Cl   5.230550   5.998277   5.727996   3.998821   4.328170
    23  C    5.990966   6.479935   6.853145   5.342800   6.020971
    24  H    6.303135   6.938978   7.047256   5.579926   6.278305
    25  H    6.544716   6.981994   7.419712   6.101221   6.863653
    26  H    6.515343   6.907235   7.426693   5.705581   6.189804
                   16         17         18         19         20
    16  H    0.000000
    17  H    5.085419   0.000000
    18  H    3.226608   3.107659   0.000000
    19  C    3.382229   2.851651   3.569233   0.000000
    20  H    3.703461   3.835450   4.575437   1.096697   0.000000
    21  H    4.316713   2.393367   3.815076   1.093548   1.777574
    22  Cl   4.893423   2.807769   2.347623   3.820057   4.821808
    23  C    2.882740   4.530132   3.534336   2.630940   2.944116
    24  H    3.899349   4.375871   3.797848   2.914707   3.308917
    25  H    3.183655   5.296975   4.533253   2.937536   2.831219
    26  H    2.725605   5.141300   3.439525   3.543255   3.928192
                   21         22         23         24         25
    21  H    0.000000
    22  Cl   3.407757   0.000000
    23  C    2.980951   3.583694   0.000000
    24  H    2.849192   3.125076   1.093617   0.000000
    25  H    3.388377   4.626785   1.094417   1.772673   0.000000
    26  H    3.944690   3.751011   1.094827   1.770215   1.774845
                   26
    26  H    0.000000
 Stoichiometry    C11H13ClO
 Framework group  C1[X(C11H13ClO)]
 Deg. of freedom    72
 Full point group                 C1      NOp   1
 Largest Abelian subgroup         C1      NOp   1
 Largest concise Abelian subgroup C1      NOp   1
                         Standard orientation:                         
 ---------------------------------------------------------------------
 Center     Atomic      Atomic             Coordinates (Angstroms)
 Number     Number       Type             X           Y           Z
 ---------------------------------------------------------------------
      1          6           0       -1.441238   -1.145665    0.162447
      2          6           0       -0.738135    1.047558    0.353671
      3          6           0        0.784761   -1.178142   -0.424794
      4          6           0        0.532613    0.897341   -0.353975
      5          6           0       -0.664408   -1.685256    1.278265
      6          6           0        0.629432   -1.718174    0.936013
      7          1           0        1.446623   -2.020862    1.574581
      8          6           0        2.137078   -1.061207   -1.057363
      9          1           0        2.692155   -2.003820   -1.014576
     10          1           0        2.026706   -0.797082   -2.116198
     11          6           0        2.895894    0.060027   -0.318327
     12          1           0        3.478994   -0.367049    0.504951
     13          1           0        3.568836    0.593406   -0.995859
     14          6           0        1.881601    1.028935    0.268381
     15          8           0        2.117711    1.813619    1.176279
     16          1           0       -1.078943   -1.964768    2.235361
     17          1           0        0.528161    1.207128   -1.400265
     18          1           0       -0.742108    1.142847    1.435195
     19          6           0       -0.569655   -1.402744   -1.060733
     20          1           0       -0.673360   -2.435232   -1.415638
     21          1           0       -0.794532   -0.726448   -1.890131
     22         17           0       -1.920157    2.100352   -0.355537
     23          6           0       -2.920453   -1.308333    0.116841
     24          1           0       -3.357428   -0.659232   -0.647174
     25          1           0       -3.188467   -2.342906   -0.118907
     26          1           0       -3.370600   -1.046949    1.080009
 ---------------------------------------------------------------------
 Rotational constants (GHZ):           0.9244285           0.6743049           0.4755489
 Standard basis: STO-3G (5D, 7F)
 There are    82 symmetry adapted cartesian basis functions of A   symmetry.
 There are    82 symmetry adapted basis functions of A   symmetry.
    82 basis functions,   246 primitive gaussians,    82 cartesian basis functions
    52 alpha electrons       52 beta electrons
       nuclear repulsion energy       908.0129164764 Hartrees.
 NAtoms=   26 NActive=   26 NUniq=   26 SFac= 1.00D+00 NAtFMM=   60 NAOKFM=F Big=F
 Integral buffers will be    131072 words long.
 Raffenetti 1 integral format.
 Two-electron integral symmetry is turned on.
 External calculation of energy, first and second derivatives.
 Running external command "~/scripts/MiMe -H 'hf def2svp' -EF 'wb97xd def2svp' -c 12 -m 48GB R"
         input file       "/local/jobs/1157677/Gau-356902.EIn"
         output file      "/local/jobs/1157677/Gau-356902.EOu"
         message file     "/local/jobs/1157677/Gau-356902.EMs"
         fchk file        "/local/jobs/1157677/Gau-356902.EFC"
         mat. el file     "/local/jobs/1157677/Gau-356902.EUF"
 Read checkpoint file Gau-356902_H.chk type G16
 Write formatted file Gau-356902_H.fchk

deriv: 2

spelevel: wb97xd def2svp
gradlevel: wb97xd def2svp
hesslevel: hf def2svp

runspe: False
runforce: True
runfreq: True

Running Gaussian ...

Parsing files ...
SPE file: Gau-356902_F.out
FORCE file: Gau-356902_F.out
HESS file: Gau-356902_H.out

 ExternalExternalExternalExternalExternalExternalExternalExternalExternalExternal
 Output from external command:
 "~/scripts/MiMe -H 'hf def2svp' -EF 'wb97xd def2svp' -c 12 -m 48GB R /local/jobs/1157677/Gau-356902.EIn /local/jobs/1157677/Gau-356902.EOu /local/jobs/1157677/Gau-356902.EMs /local/jobs/1157677/Gau-356902.EFC /local/jobs/1157677/Gau-356902.EUF"
  
 --------------------------------------------------
 Force calculation at wb97xd def2svp
 Hessian calculation at hf def2svp
 ExternalExternalExternalExternalExternalExternalExternalExternalExternalExternal

 Recovered energy= -961.646326437     dipole=     -0.013600000000     -3.841900000000     -1.684100000000
 Energy=    -961.646326     NIter=   0.
 Dipole moment=      -0.013600      -3.841900      -1.684100
 ***** Axes restored to original set *****
 -------------------------------------------------------------------
 Center     Atomic                   Forces (Hartrees/Bohr)
 Number     Number              X              Y              Z
 -------------------------------------------------------------------
      1        6           0.015534276   -0.002419620    0.014527655
      2        6           0.025165460   -0.022585668   -0.018047436
      3        6          -0.004429335    0.012610082    0.015743331
      4        6          -0.021236225   -0.032971712    0.026292277
      5        6          -0.037879607    0.012672307   -0.016281519
      6        6           0.027636103    0.016673924   -0.030992173
      7        1           0.007459484    0.000724715    0.004393524
      8        6           0.002409326    0.002146362   -0.006570415
      9        1           0.003197174   -0.003573800   -0.001107518
     10        1          -0.001042977   -0.000650928   -0.002835174
     11        6          -0.004833236   -0.008862506   -0.001695690
     12        1           0.004303113    0.003908736    0.002499569
     13        1           0.005662964    0.003040961    0.000434486
     14        6          -0.002934437    0.023313384    0.025673252
     15        8           0.000713731   -0.019685487   -0.018114633
     16        1          -0.003500551   -0.000526457    0.007940079
     17        1          -0.002224943   -0.004554298   -0.006165094
     18        1           0.003099557   -0.001799130    0.003737807
     19        6           0.002900822    0.019773422    0.009087448
     20        1          -0.001481477   -0.006229005    0.002473783
     21        1          -0.000650856    0.000848145   -0.004001381
     22       17          -0.010341671    0.000337161   -0.005595914
     23        6          -0.000933156    0.009902642   -0.000069257
     24        1          -0.003325322    0.002729021   -0.002740165
     25        1          -0.001444547   -0.004850756   -0.001392684
     26        1          -0.001823672    0.000028504    0.002805842
 -------------------------------------------------------------------
 Cartesian Forces:  Max     0.037879607 RMS     0.012266822
 FormGI is forming the generalized inverse of G from B-inverse, IUseBI=4.

 GradGradGradGradGradGradGradGradGradGradGradGradGradGradGradGradGradGrad
 Berny optimization.
 Internal  Forces:  Max     0.200674620 RMS     0.033152262
 Search for a saddle point.
 Step number   1 out of a maximum of   50
 All quantities printed in internal units (Hartrees-Bohrs-Radians)
 Swapping is turned off.
 Second derivative matrix not updated -- analytic derivatives used.
 ITU=  0
     Eigenvalues ---   -1.56943   0.00355   0.00452   0.00736   0.01013
     Eigenvalues ---    0.01482   0.02023   0.02191   0.02331   0.02576
     Eigenvalues ---    0.03033   0.03248   0.03601   0.04496   0.04687
     Eigenvalues ---    0.04973   0.06038   0.06318   0.06933   0.07012
     Eigenvalues ---    0.07902   0.08245   0.08922   0.09155   0.10002
     Eigenvalues ---    0.10692   0.11098   0.11748   0.12588   0.12774
     Eigenvalues ---    0.13102   0.13740   0.14870   0.14997   0.16018
     Eigenvalues ---    0.17507   0.18898   0.20633   0.22735   0.23822
     Eigenvalues ---    0.24607   0.24828   0.25429   0.26852   0.27188
     Eigenvalues ---    0.29153   0.29888   0.31048   0.33040   0.34066
     Eigenvalues ---    0.35344   0.35453   0.35901   0.36141   0.36197
     Eigenvalues ---    0.36430   0.36487   0.36597   0.36695   0.36881
     Eigenvalues ---    0.37651   0.37928   0.39057   0.39210   0.40071
     Eigenvalues ---    0.40321   0.40540   0.52995   0.74969   0.84679
     Eigenvalues ---    1.18676   2.40418
 Eigenvectors required to have negative eigenvalues:
                          A27       A21       R4        A31       A30
   1                   -0.38799  -0.32797   0.28366  -0.23358   0.23117
                          D47       A19       D56       D46       A25
   1                    0.22493   0.20889   0.18260   0.17848   0.17754
 RFO step:  Lambda0=5.073452280D-02 Lambda=-7.00641251D-02.
 Linear search not attempted -- option 19 set.
 Maximum step size (   0.100) exceeded in Quadratic search.
    -- Step size scaled by   0.344
 Iteration  1 RMS(Cart)=  0.01490868 RMS(Int)=  0.00027034
 Iteration  2 RMS(Cart)=  0.00034526 RMS(Int)=  0.00008514
 Iteration  3 RMS(Cart)=  0.00000004 RMS(Int)=  0.00008514
 Variable       Old X    -DE/DX   Delta X   Delta X   Delta X     New X
                                 (Linear)    (Quad)   (Total)
    R1        2.76422  -0.02123   0.00000  -0.04258  -0.04255   2.72166
    R2        2.87953  -0.00114   0.00000  -0.00556  -0.00556   2.87397
    R3        2.81348   0.00622   0.00000   0.00437   0.00437   2.81786
    R4        2.76322  -0.02681   0.00000  -0.05527  -0.05527   2.70795
    R5        2.05171   0.00377   0.00000   0.00214   0.00214   2.05386
    R6        3.27775   0.00969   0.00000   0.00713   0.00713   3.28488
    R7        2.78217  -0.02556   0.00000  -0.04465  -0.04467   2.73750
    R8        2.82991  -0.00596   0.00000   0.00450   0.00450   2.83441
    R9        2.85924  -0.00364   0.00000  -0.00249  -0.00251   2.85673
   R10        2.81842   0.01206   0.00000   0.00345   0.00345   2.82188
   R11        2.06206   0.00453   0.00000   0.00329   0.00329   2.06536
   R12        2.52986   0.03177   0.00000   0.03170   0.03172   2.56158
   R13        2.04055   0.00840   0.00000   0.00628   0.00628   2.04684
   R14        2.04160   0.00813   0.00000   0.00579   0.00579   2.04739
   R15        2.06876   0.00476   0.00000   0.00279   0.00279   2.07155
   R16        2.07274   0.00268   0.00000   0.00198   0.00198   2.07472
   R17        2.91480  -0.04067   0.00000   0.00137   0.00137   2.91617
   R18        2.07025   0.00276   0.00000   0.00218   0.00218   2.07243
   R19        2.06698   0.00454   0.00000   0.00394   0.00394   2.07092
   R20        2.87325  -0.02560   0.00000   0.00596   0.00596   2.87921
   R21        2.31116  -0.02581   0.00000  -0.01102  -0.01102   2.30014
   R22        2.07246   0.00503   0.00000   0.00370   0.00370   2.07615
   R23        2.06651   0.00361   0.00000   0.00290   0.00290   2.06940
   R24        2.06664   0.00496   0.00000   0.00369   0.00369   2.07032
   R25        2.06815   0.00523   0.00000   0.00384   0.00384   2.07199
   R26        2.06892   0.00324   0.00000   0.00258   0.00258   2.07150
    A1        1.81969  -0.00313   0.00000   0.00291   0.00270   1.82239
    A2        2.10680   0.00450   0.00000   0.01472   0.01464   2.12144
    A3        2.12383   0.00048   0.00000   0.00268   0.00247   2.12630
    A4        2.08780  -0.00400   0.00000   0.01015   0.00971   2.09751
    A5        2.04509   0.00724   0.00000   0.01579   0.01536   2.06044
    A6        1.93001   0.00273   0.00000   0.00817   0.00763   1.93764
    A7        2.11104   0.00232   0.00000   0.00646   0.00648   2.11752
    A8        1.81274   0.00230   0.00000   0.00557   0.00546   1.81820
    A9        2.26844   0.00229   0.00000  -0.00424  -0.00432   2.26412
   A10        2.18344   0.02135   0.00000   0.00635   0.00631   2.18975
   A11        2.01675  -0.00529   0.00000  -0.00132  -0.00137   2.01538
   A12        1.95924  -0.00464   0.00000   0.00273   0.00269   1.96193
   A13        1.90425   0.00007   0.00000   0.00383   0.00383   1.90809
   A14        2.17455  -0.00122   0.00000  -0.00072  -0.00072   2.17383
   A15        2.20340   0.00095   0.00000  -0.00329  -0.00330   2.20010
   A16        1.90630  -0.00557   0.00000  -0.00102  -0.00106   1.90523
   A17        2.17643   0.00157   0.00000   0.00175   0.00177   2.17820
   A18        2.19791   0.00356   0.00000  -0.00104  -0.00103   2.19689
   A19        1.95426   0.07941   0.00000   0.00121   0.00121   1.95546
   A20        1.91315   0.01788   0.00000   0.00186   0.00187   1.91502
   A21        1.87405  -0.16146   0.00000  -0.00748  -0.00748   1.86657
   A22        1.87139  -0.02294   0.00000  -0.00050  -0.00051   1.87089
   A23        1.93664   0.04897   0.00000   0.00113   0.00112   1.93776
   A24        1.91451   0.04095   0.00000   0.00403   0.00403   1.91854
   A25        1.91615   0.07493   0.00000   0.00583   0.00583   1.92198
   A26        1.93944   0.03552   0.00000   0.00473   0.00473   1.94418
   A27        1.89645  -0.20067   0.00000   0.00438   0.00438   1.90083
   A28        1.90512  -0.02997   0.00000  -0.00882  -0.00884   1.89628
   A29        1.88968   0.02869   0.00000  -0.00360  -0.00363   1.88605
   A30        1.91633   0.09176   0.00000  -0.00266  -0.00268   1.91364
   A31        1.96723  -0.10886   0.00000   0.00278   0.00278   1.97001
   A32        2.14242   0.06131   0.00000   0.00385   0.00384   2.14626
   A33        2.17308   0.04648   0.00000  -0.00645  -0.00646   2.16662
   A34        1.72095   0.00297   0.00000   0.00882   0.00875   1.72970
   A35        1.94391   0.00510   0.00000  -0.01355  -0.01355   1.93036
   A36        1.96802  -0.00804   0.00000   0.00696   0.00693   1.97496
   A37        1.93951   0.00207   0.00000  -0.00791  -0.00790   1.93161
   A38        1.99441  -0.00294   0.00000   0.00389   0.00384   1.99824
   A39        1.89372   0.00111   0.00000   0.00136   0.00139   1.89511
   A40        1.93215   0.00152   0.00000   0.00287   0.00287   1.93501
   A41        1.93178  -0.00004   0.00000  -0.00030  -0.00030   1.93148
   A42        1.93421   0.00070   0.00000   0.00079   0.00079   1.93500
   A43        1.88887  -0.00072   0.00000  -0.00123  -0.00123   1.88764
   A44        1.88453  -0.00091   0.00000  -0.00116  -0.00116   1.88337
   A45        1.89073  -0.00065   0.00000  -0.00112  -0.00112   1.88961
    D1        0.40200   0.00213   0.00000  -0.01582  -0.01583   0.38617
    D2       -2.78466  -0.00224   0.00000  -0.02004  -0.02008  -2.80474
    D3        2.86962   0.00411   0.00000   0.00921   0.00929   2.87891
    D4       -0.31703  -0.00025   0.00000   0.00499   0.00504  -0.31200
    D5       -0.62328  -0.00403   0.00000   0.02338   0.02340  -0.59987
    D6        1.41504   0.00173   0.00000   0.01397   0.01394   1.42898
    D7       -2.73427   0.00112   0.00000   0.01075   0.01068  -2.72359
    D8       -3.08259  -0.00798   0.00000  -0.00784  -0.00774  -3.09033
    D9       -1.04428  -0.00222   0.00000  -0.01724  -0.01721  -1.06148
   D10        1.08960  -0.00283   0.00000  -0.02047  -0.02046   1.06914
   D11        2.91406  -0.00091   0.00000  -0.01718  -0.01722   2.89684
   D12       -1.27468  -0.00084   0.00000  -0.01704  -0.01708  -1.29175
   D13        0.82346  -0.00122   0.00000  -0.01813  -0.01816   0.80530
   D14       -1.01819   0.00050   0.00000   0.01355   0.01358  -1.00461
   D15        1.07626   0.00056   0.00000   0.01369   0.01372   1.08998
   D16       -3.10879   0.00019   0.00000   0.01261   0.01264  -3.09615
   D17       -0.13922   0.00969   0.00000  -0.00524  -0.00538  -0.14460
   D18       -2.72440  -0.01162   0.00000  -0.02188  -0.02201  -2.74641
   D19        2.27430   0.01937   0.00000   0.04651   0.04665   2.32095
   D20       -0.31087  -0.00195   0.00000   0.02987   0.03001  -0.28086
   D21        3.11441  -0.01644   0.00000   0.00087   0.00076   3.11517
   D22        0.04562  -0.01021   0.00000   0.00537   0.00530   0.05092
   D23       -0.43097  -0.00154   0.00000   0.01577   0.01577  -0.41520
   D24        2.78343   0.00469   0.00000   0.02028   0.02031   2.80374
   D25        0.90556  -0.00158   0.00000   0.00855   0.00853   0.91409
   D26        2.98012   0.03149   0.00000   0.00991   0.00989   2.99001
   D27       -1.22434  -0.00345   0.00000   0.01142   0.01140  -1.21294
   D28       -1.71502  -0.02082   0.00000  -0.01431  -0.01429  -1.72931
   D29        0.35954   0.01226   0.00000  -0.01294  -0.01293   0.34661
   D30        2.43826  -0.02269   0.00000  -0.01144  -0.01142   2.42684
   D31        0.62895   0.00591   0.00000  -0.02150  -0.02154   0.60741
   D32       -1.41274  -0.00215   0.00000  -0.00776  -0.00775  -1.42049
   D33        2.72037  -0.00304   0.00000  -0.00626  -0.00623   2.71414
   D34       -2.96788   0.02272   0.00000  -0.00078  -0.00085  -2.96873
   D35        1.27362   0.01466   0.00000   0.01296   0.01294   1.28656
   D36       -0.87646   0.01377   0.00000   0.01446   0.01446  -0.86200
   D37        2.51183  -0.03791   0.00000   0.01249   0.01249   2.52432
   D38       -0.59847  -0.00181   0.00000   0.00664   0.00661  -0.59185
   D39       -1.17060  -0.01771   0.00000   0.02751   0.02754  -1.14306
   D40        2.00229   0.01840   0.00000   0.02166   0.02166   2.02395
   D41        0.01647  -0.00090   0.00000   0.00038   0.00037   0.01684
   D42        3.08414  -0.00733   0.00000  -0.00405  -0.00408   3.08006
   D43       -3.07913   0.00363   0.00000   0.00460   0.00462  -3.07451
   D44       -0.01146  -0.00280   0.00000   0.00017   0.00017  -0.01129
   D45        1.60607   0.02033   0.00000   0.00006   0.00007   1.60614
   D46       -2.56785   0.05566   0.00000  -0.00405  -0.00405  -2.57190
   D47       -0.45758   0.06079   0.00000  -0.00153  -0.00153  -0.45911
   D48       -0.53477  -0.00221   0.00000   0.00277   0.00278  -0.53199
   D49        1.57450   0.03313   0.00000  -0.00134  -0.00134   1.57316
   D50       -2.59842   0.03826   0.00000   0.00118   0.00118  -2.59724
   D51       -2.59926  -0.02960   0.00000   0.00017   0.00017  -2.59909
   D52       -0.49000   0.00573   0.00000  -0.00394  -0.00395  -0.49394
   D53        1.62027   0.01086   0.00000  -0.00142  -0.00142   1.61884
   D54       -0.30898   0.04619   0.00000  -0.00182  -0.00182  -0.31080
   D55        2.80067   0.00958   0.00000   0.00437   0.00436   2.80503
   D56       -2.38930   0.05379   0.00000  -0.00923  -0.00921  -2.39851
   D57        0.72035   0.01718   0.00000  -0.00305  -0.00304   0.71731
   D58        1.81546   0.01993   0.00000   0.00512   0.00511   1.82057
   D59       -1.35807  -0.01669   0.00000   0.01131   0.01129  -1.34679
         Item               Value     Threshold  Converged?
 Maximum Force            0.200675     0.000450     NO 
 RMS     Force            0.033152     0.000300     NO 
 Maximum Displacement     0.090989     0.001800     NO 
 RMS     Displacement     0.014966     0.001200     NO 
 Predicted change in Energy=-6.030382D-03
 GradGradGradGradGradGradGradGradGradGradGradGradGradGradGradGradGradGrad

                          Input orientation:                          
 ---------------------------------------------------------------------
 Center     Atomic      Atomic             Coordinates (Angstroms)
 Number     Number       Type             X           Y           Z
 ---------------------------------------------------------------------
      1          6           0       -1.369692   -1.151393    0.212869
      2          6           0       -0.738690    1.081807    0.446248
      3          6           0        0.827825   -1.055737   -0.485416
      4          6           0        0.476528    1.008506   -0.309613
      5          6           0       -0.521688   -1.675535    1.252322
      6          6           0        0.769435   -1.633882    0.841556
      7          1           0        1.633229   -1.912218    1.433344
      8          6           0        2.136158   -0.849652   -1.189340
      9          1           0        2.737146   -1.766022   -1.217117
     10          1           0        1.953953   -0.549378   -2.229539
     11          6           0        2.878051    0.276494   -0.439162
     12          1           0        3.527591   -0.149974    0.334750
     13          1           0        3.492384    0.874347   -1.121897
     14          6           0        1.853165    1.172359    0.245260
     15          8           0        2.110812    1.925039    1.166467
     16          1           0       -0.871262   -2.001471    2.224307
     17          1           0        0.404222    1.338550   -1.349017
     18          1           0       -0.704845    1.135678    1.531239
     19          6           0       -0.548906   -1.304070   -1.058332
     20          1           0       -0.627652   -2.328012   -1.448693
     21          1           0       -0.844593   -0.605737   -1.848332
     22         17           0       -2.037531    2.048850   -0.185791
     23          6           0       -2.845132   -1.366793    0.226892
     24          1           0       -3.343463   -0.701457   -0.486736
     25          1           0       -3.087756   -2.401262   -0.043683
     26          1           0       -3.259688   -1.165540    1.221515
 ---------------------------------------------------------------------
                    Distance matrix (angstroms):
                    1          2          3          4          5
     1  C    0.000000
     2  C    2.332340   0.000000
     3  C    2.307776   2.809103   0.000000
     4  C    2.889062   1.432988   2.101289   0.000000
     5  C    1.440243   2.880934   2.285840   3.261925   0.000000
     6  C    2.281208   3.131402   1.448625   2.897102   1.355530
     7  H    3.329557   3.945192   2.250305   3.592559   2.175421
     8  C    3.787905   3.830200   1.499906   2.642166   3.702424
     9  H    4.391896   4.791488   2.164579   3.692149   4.089782
    10  H    4.168261   4.131698   2.136945   2.880261   4.418188
    11  C    4.528502   3.809632   2.445487   2.513948   4.269632
    12  H    5.000108   4.441945   2.963413   3.326600   4.423340
    13  H    5.433692   4.517090   3.351150   3.126210   5.315222
    14  C    3.973371   2.601213   2.559223   1.493272   3.842473
    15  O    4.742120   3.057682   3.641401   2.385316   4.461117
    16  H    2.239855   3.561695   3.335252   4.158997   1.083140
    17  H    3.433086   2.143628   2.580282   1.092940   4.087662
    18  H    2.722281   1.086855   3.349368   2.191016   2.830946
    19  C    1.520839   2.827046   1.511718   2.638201   2.340480
    20  H    2.166990   3.902563   2.159861   3.694465   2.780726
    21  H    2.195909   2.850284   2.203866   2.592064   3.295875
    22  Cl   3.293402   1.738285   4.235387   2.723626   4.270479
    23  C    1.491146   3.237415   3.754298   4.118654   2.558363
    24  H    2.141882   3.291707   4.186306   4.188995   3.454789
    25  H    2.140031   4.229647   4.163813   4.939773   2.964964
    26  H    2.142347   3.465118   4.430963   4.585863   2.785263
                    6          7          8          9         10
     6  C    0.000000
     7  H    1.083432   0.000000
     8  C    2.570504   2.874101   0.000000
     9  H    2.850874   2.874882   1.096218   0.000000
    10  H    3.465669   3.921340   1.097897   1.765960   0.000000
    11  C    3.120263   3.137884   1.543172   2.190193   2.177492
    12  H    3.172738   2.810875   2.179102   2.375859   3.035035
    13  H    4.190562   4.213152   2.194554   2.747908   2.370787
    14  C    3.066762   3.312782   2.495334   3.399126   3.016483
    15  O    3.817170   3.876061   3.639970   4.438209   4.204783
    16  H    2.176927   2.627939   4.693001   4.991938   5.470573
    17  H    3.710437   4.451907   2.795233   3.885654   2.596393
    18  H    3.212417   3.842634   4.406175   5.274526   4.904291
    19  C    2.335888   3.367492   2.726395   3.322161   2.864541
    20  H    2.771084   3.686544   3.145069   3.419259   3.230781
    21  H    3.301162   4.314614   3.062457   3.817533   2.824953
    22  Cl   4.743102   5.637919   5.179586   6.197938   5.182629
    23  C    3.676172   4.669982   5.204460   5.779825   5.452838
    24  H    4.421505   5.469928   5.526469   6.216154   5.578809
    25  H    4.031183   4.970762   5.568600   5.975781   5.798817
    26  H    4.074008   4.954093   5.918375   6.501502   6.282634
                   11         12         13         14         15
    11  C    0.000000
    12  H    1.096685   0.000000
    13  H    1.095883   1.781093   0.000000
    14  C    1.523614   2.135481   2.155219   0.000000
    15  O    2.425778   2.646639   2.872160   1.217182   0.000000
    16  H    5.132304   5.133067   6.205547   4.627346   5.042745
    17  H    2.841765   3.847884   3.131104   2.160735   3.095816
    18  H    4.178255   4.582358   4.972338   2.863302   2.946876
    19  C    3.824342   4.459871   4.591467   3.688089   4.738246
    20  H    4.482473   5.019020   5.228441   4.612649   5.694444
    21  H    4.077030   4.908112   4.639798   3.850020   4.922221
    22  Cl   5.231480   6.006361   5.730245   4.011428   4.364938
    23  C    5.991565   6.488751   6.856096   5.340564   6.023317
    24  H    6.298086   6.941928   7.043819   5.572428   6.275403
    25  H    6.551155   6.998166   7.429024   6.104667   6.870696
    26  H    6.519904   6.919891   7.432576   5.706147   6.196530
                   16         17         18         19         20
    16  H    0.000000
    17  H    5.054824   0.000000
    18  H    3.217101   3.093067   0.000000
    19  C    3.371350   2.824251   3.561258   0.000000
    20  H    3.695526   3.810299   4.569803   1.098654   0.000000
    21  H    4.305250   2.364129   3.804412   1.095080   1.781294
    22  Cl   4.855292   2.796387   2.357568   3.770863   4.768606
    23  C    2.879001   4.512280   3.541823   2.632183   2.940875
    24  H    3.892502   4.353195   3.795997   2.915375   3.308575
    25  H    3.196320   5.280530   4.546272   2.946031   2.833995
    26  H    2.721939   5.128581   3.452355   3.544746   3.925425
                   21         22         23         24         25
    21  H    0.000000
    22  Cl   3.351712   0.000000
    23  C    2.981261   3.533998   0.000000
    24  H    2.847359   3.059448   1.095569   0.000000
    25  H    3.393000   4.574567   1.096450   1.775110   0.000000
    26  H    3.945887   3.715708   1.096190   1.772149   1.776877
                   26
    26  H    0.000000
 Stoichiometry    C11H13ClO
 Framework group  C1[X(C11H13ClO)]
 Deg. of freedom    72
 Full point group                 C1      NOp   1
 Largest Abelian subgroup         C1      NOp   1
 Largest concise Abelian subgroup C1      NOp   1
                         Standard orientation:                         
 ---------------------------------------------------------------------
 Center     Atomic      Atomic             Coordinates (Angstroms)
 Number     Number       Type             X           Y           Z
 ---------------------------------------------------------------------
      1          6           0       -1.442411   -1.143931    0.177101
      2          6           0       -0.713933    1.064295    0.358404
      3          6           0        0.786115   -1.179080   -0.421455
      4          6           0        0.528750    0.904681   -0.337092
      5          6           0       -0.668284   -1.667191    1.273106
      6          6           0        0.640368   -1.702384    0.921462
      7          1           0        1.462248   -1.998248    1.562400
      8          6           0        2.133064   -1.062228   -1.070911
      9          1           0        2.689134   -2.006349   -1.037529
     10          1           0        2.012355   -0.793893   -2.128646
     11          6           0        2.894965    0.055629   -0.328428
     12          1           0        3.487688   -0.370974    0.489745
     13          1           0        3.567659    0.597112   -1.003141
     14          6           0        1.885630    1.024545    0.274767
     15          8           0        2.138446    1.799073    1.179047
     16          1           0       -1.076400   -1.938648    2.238997
     17          1           0        0.519120    1.197571   -1.390011
     18          1           0       -0.725928    1.158176    1.441130
     19          6           0       -0.574188   -1.383956   -1.048267
     20          1           0       -0.685448   -2.417285   -1.404487
     21          1           0       -0.799814   -0.703324   -1.875934
     22         17           0       -1.934411    2.066588   -0.367871
     23          6           0       -2.925778   -1.288710    0.130436
     24          1           0       -3.358625   -0.628507   -0.629200
     25          1           0       -3.206415   -2.320202   -0.113430
     26          1           0       -3.373947   -1.030017    1.096798
 ---------------------------------------------------------------------
 Rotational constants (GHZ):           0.9385823           0.6710462           0.4776517
 Standard basis: STO-3G (5D, 7F)
 There are    82 symmetry adapted cartesian basis functions of A   symmetry.
 There are    82 symmetry adapted basis functions of A   symmetry.
    82 basis functions,   246 primitive gaussians,    82 cartesian basis functions
    52 alpha electrons       52 beta electrons
       nuclear repulsion energy       909.8490951742 Hartrees.
 NAtoms=   26 NActive=   26 NUniq=   26 SFac= 1.00D+00 NAtFMM=   60 NAOKFM=F Big=F
 Integral buffers will be    131072 words long.
 Raffenetti 1 integral format.
 Two-electron integral symmetry is turned on.
 External calculation of energy, first and second derivatives.
 Running external command "~/scripts/MiMe -H 'hf def2svp' -EF 'wb97xd def2svp' -c 12 -m 48GB R"
         input file       "/local/jobs/1157677/Gau-356902.EIn"
         output file      "/local/jobs/1157677/Gau-356902.EOu"
         message file     "/local/jobs/1157677/Gau-356902.EMs"
         fchk file        "/local/jobs/1157677/Gau-356902.EFC"
         mat. el file     "/local/jobs/1157677/Gau-356902.EUF"
 Read checkpoint file Gau-356902_H.chk type G16
 Write formatted file Gau-356902_H.fchk

deriv: 2

spelevel: wb97xd def2svp
gradlevel: wb97xd def2svp
hesslevel: hf def2svp

runspe: False
runforce: True
runfreq: True

Running Gaussian ...

Parsing files ...
SPE file: Gau-356902_F.out
FORCE file: Gau-356902_F.out
HESS file: Gau-356902_H.out

 ExternalExternalExternalExternalExternalExternalExternalExternalExternalExternal
 Output from external command:
 "~/scripts/MiMe -H 'hf def2svp' -EF 'wb97xd def2svp' -c 12 -m 48GB R /local/jobs/1157677/Gau-356902.EIn /local/jobs/1157677/Gau-356902.EOu /local/jobs/1157677/Gau-356902.EMs /local/jobs/1157677/Gau-356902.EFC /local/jobs/1157677/Gau-356902.EUF"
  
 --------------------------------------------------
 Force calculation at wb97xd def2svp
 Hessian calculation at hf def2svp
 ExternalExternalExternalExternalExternalExternalExternalExternalExternalExternal

 Recovered energy= -961.652139214     dipole=     -0.033100000000     -3.746300000000     -1.683400000000
 Energy=    -961.652139     NIter=   0.
 Dipole moment=      -0.033100      -3.746300      -1.683400
 ***** Axes restored to original set *****
 -------------------------------------------------------------------
 Center     Atomic                   Forces (Hartrees/Bohr)
 Number     Number              X              Y              Z
 -------------------------------------------------------------------
      1        6           0.010897094   -0.006690001    0.009020113
      2        6           0.016543757   -0.015326534   -0.010819619
      3        6          -0.003014562    0.006212109    0.009733702
      4        6          -0.013737849   -0.023639890    0.017486049
      5        6          -0.025089253    0.009322612   -0.010760720
      6        6           0.018580359    0.011872381   -0.020314139
      7        1           0.005266244    0.001408899    0.003660694
      8        6           0.001521594    0.003339532   -0.005258168
      9        1           0.002307062   -0.002619933   -0.000833522
     10        1          -0.000850289   -0.000544299   -0.002016240
     11        6          -0.003813826   -0.007241018   -0.002161916
     12        1           0.003373776    0.003427221    0.001916858
     13        1           0.004439908    0.002314742    0.000793021
     14        6          -0.002130213    0.016285444    0.018291012
     15        8           0.000932267   -0.014230469   -0.011877521
     16        1          -0.002252884    0.000214907    0.006013324
     17        1          -0.001128768   -0.004399684   -0.004768405
     18        1           0.002127759   -0.001694508    0.002758049
     19        6           0.001742568    0.019130545    0.006047657
     20        1          -0.001150882   -0.004744775    0.002101655
     21        1          -0.000606447    0.000058962   -0.003272561
     22       17          -0.008378095   -0.000471255   -0.004730180
     23        6          -0.000833462    0.009528746   -0.000040692
     24        1          -0.002357167    0.002126747   -0.001882487
     25        1          -0.001048041   -0.003464732   -0.001132328
     26        1          -0.001340648   -0.000175748    0.002046364
 -------------------------------------------------------------------
 Cartesian Forces:  Max     0.025089253 RMS     0.008574944
 FormGI is forming the generalized inverse of G from B-inverse, IUseBI=4.

 GradGradGradGradGradGradGradGradGradGradGradGradGradGradGradGradGradGrad
 Berny optimization.
 Internal  Forces:  Max     0.148807561 RMS     0.024662064
 Search for a saddle point.
 Step number   2 out of a maximum of   50
 All quantities printed in internal units (Hartrees-Bohrs-Radians)
 Swapping is turned off.
 Second derivative matrix not updated -- analytic derivatives used.
 ITU=  0  0
     Eigenvalues ---   -1.56854   0.00602   0.00711   0.00766   0.01373
     Eigenvalues ---    0.01732   0.02023   0.02265   0.02590   0.02786
     Eigenvalues ---    0.03249   0.03624   0.03772   0.04702   0.04814
     Eigenvalues ---    0.04950   0.06123   0.06318   0.06926   0.07012
     Eigenvalues ---    0.07936   0.08529   0.09108   0.09219   0.09911
     Eigenvalues ---    0.10238   0.11293   0.11716   0.12739   0.13060
     Eigenvalues ---    0.13157   0.13833   0.14916   0.15269   0.15975
     Eigenvalues ---    0.17512   0.18889   0.19975   0.22828   0.23520
     Eigenvalues ---    0.24580   0.24863   0.25854   0.26796   0.28071
     Eigenvalues ---    0.29506   0.29866   0.30817   0.33081   0.34276
     Eigenvalues ---    0.35182   0.35516   0.35753   0.35875   0.35933
     Eigenvalues ---    0.36121   0.36315   0.36342   0.36499   0.36925
     Eigenvalues ---    0.37527   0.38817   0.39179   0.39477   0.39678
     Eigenvalues ---    0.40122   0.42145   0.53595   0.77191   0.87825
     Eigenvalues ---    1.13359   2.19143
 Eigenvectors required to have negative eigenvalues:
                          A27       A21       R4        A31       A30
   1                    0.38617   0.32495  -0.29549   0.23150  -0.22766
                          D47       A19       R12       R1        D56
   1                   -0.21642  -0.20468   0.18715  -0.18209  -0.17490
 RFO step:  Lambda0=2.759352534D-02 Lambda=-4.15547341D-02.
 Linear search not attempted -- option 19 set.
 Maximum step size (   0.100) exceeded in Quadratic search.
    -- Step size scaled by   0.490
 Iteration  1 RMS(Cart)=  0.02359259 RMS(Int)=  0.00047451
 Iteration  2 RMS(Cart)=  0.00057914 RMS(Int)=  0.00012492
 Iteration  3 RMS(Cart)=  0.00000018 RMS(Int)=  0.00012492
 Variable       Old X    -DE/DX   Delta X   Delta X   Delta X     New X
                                 (Linear)    (Quad)   (Total)
    R1        2.72166  -0.01370   0.00000  -0.04004  -0.03999   2.68168
    R2        2.87397  -0.00103   0.00000  -0.00591  -0.00589   2.86808
    R3        2.81786   0.00435   0.00000   0.00426   0.00426   2.82211
    R4        2.70795  -0.01638   0.00000  -0.04795  -0.04795   2.66000
    R5        2.05386   0.00273   0.00000   0.00240   0.00240   2.05626
    R6        3.28488   0.00772   0.00000   0.01024   0.01024   3.29512
    R7        2.73750  -0.01690   0.00000  -0.04150  -0.04154   2.69596
    R8        2.83441  -0.00452   0.00000   0.00627   0.00627   2.84068
    R9        2.85673  -0.00266   0.00000  -0.00197  -0.00202   2.85472
   R10        2.82188   0.00924   0.00000   0.00372   0.00372   2.82560
   R11        2.06536   0.00328   0.00000   0.00338   0.00338   2.06874
   R12        2.56158   0.02124   0.00000   0.03414   0.03416   2.59574
   R13        2.04684   0.00606   0.00000   0.00691   0.00691   2.05374
   R14        2.04739   0.00584   0.00000   0.00634   0.00634   2.05373
   R15        2.07155   0.00348   0.00000   0.00316   0.00316   2.07471
   R16        2.07472   0.00190   0.00000   0.00205   0.00205   2.07678
   R17        2.91617  -0.03033   0.00000   0.00121   0.00121   2.91739
   R18        2.07243   0.00202   0.00000   0.00257   0.00257   2.07501
   R19        2.07092   0.00326   0.00000   0.00442   0.00442   2.07534
   R20        2.87921  -0.01884   0.00000   0.00709   0.00709   2.88630
   R21        2.30014  -0.01759   0.00000  -0.01092  -0.01092   2.28922
   R22        2.07615   0.00376   0.00000   0.00483   0.00483   2.08099
   R23        2.06940   0.00256   0.00000   0.00272   0.00272   2.07212
   R24        2.07032   0.00359   0.00000   0.00355   0.00355   2.07387
   R25        2.07199   0.00378   0.00000   0.00435   0.00435   2.07634
   R26        2.07150   0.00233   0.00000   0.00283   0.00283   2.07433
    A1        1.82239  -0.00172   0.00000   0.00659   0.00622   1.82861
    A2        2.12144   0.00381   0.00000   0.01972   0.01947   2.14091
    A3        2.12630   0.00000   0.00000   0.00314   0.00262   2.12892
    A4        2.09751  -0.00256   0.00000   0.01126   0.01069   2.10820
    A5        2.06044   0.00532   0.00000   0.01368   0.01311   2.07356
    A6        1.93764   0.00216   0.00000   0.01112   0.01045   1.94809
    A7        2.11752   0.00185   0.00000   0.00696   0.00693   2.12445
    A8        1.81820   0.00232   0.00000   0.00860   0.00838   1.82658
    A9        2.26412   0.00106   0.00000  -0.00385  -0.00400   2.26012
   A10        2.18975   0.01636   0.00000   0.01019   0.01011   2.19985
   A11        2.01538  -0.00404   0.00000  -0.00056  -0.00066   2.01472
   A12        1.96193  -0.00388   0.00000   0.00110   0.00101   1.96294
   A13        1.90809   0.00002   0.00000   0.00277   0.00278   1.91086
   A14        2.17383  -0.00068   0.00000   0.00016   0.00013   2.17396
   A15        2.20010   0.00049   0.00000  -0.00340  -0.00343   2.19668
   A16        1.90523  -0.00418   0.00000  -0.00145  -0.00153   1.90370
   A17        2.17820   0.00140   0.00000   0.00261   0.00262   2.18083
   A18        2.19689   0.00239   0.00000  -0.00200  -0.00199   2.19489
   A19        1.95546   0.05937   0.00000   0.00113   0.00111   1.95658
   A20        1.91502   0.01338   0.00000   0.00219   0.00221   1.91723
   A21        1.86657  -0.12058   0.00000  -0.00964  -0.00964   1.85693
   A22        1.87089  -0.01726   0.00000  -0.00022  -0.00023   1.87065
   A23        1.93776   0.03646   0.00000   0.00019   0.00017   1.93793
   A24        1.91854   0.03070   0.00000   0.00669   0.00670   1.92524
   A25        1.92198   0.05592   0.00000   0.00835   0.00836   1.93034
   A26        1.94418   0.02640   0.00000   0.00791   0.00791   1.95208
   A27        1.90083  -0.14881   0.00000   0.00454   0.00453   1.90535
   A28        1.89628  -0.02256   0.00000  -0.01286  -0.01291   1.88337
   A29        1.88605   0.02158   0.00000  -0.00610  -0.00614   1.87991
   A30        1.91364   0.06874   0.00000  -0.00230  -0.00235   1.91130
   A31        1.97001  -0.08123   0.00000  -0.00089  -0.00089   1.96912
   A32        2.14626   0.04626   0.00000   0.00767   0.00767   2.15392
   A33        2.16662   0.03433   0.00000  -0.00666  -0.00666   2.15996
   A34        1.72970   0.00170   0.00000   0.00896   0.00889   1.73859
   A35        1.93036   0.00358   0.00000  -0.01716  -0.01717   1.91319
   A36        1.97496  -0.00549   0.00000   0.00949   0.00942   1.98438
   A37        1.93161   0.00163   0.00000  -0.00875  -0.00878   1.92283
   A38        1.99824  -0.00177   0.00000   0.00642   0.00633   2.00457
   A39        1.89511   0.00062   0.00000   0.00029   0.00034   1.89545
   A40        1.93501   0.00103   0.00000   0.00333   0.00333   1.93834
   A41        1.93148  -0.00008   0.00000  -0.00148  -0.00148   1.93000
   A42        1.93500   0.00059   0.00000   0.00141   0.00141   1.93641
   A43        1.88764  -0.00047   0.00000  -0.00114  -0.00114   1.88650
   A44        1.88337  -0.00065   0.00000  -0.00057  -0.00058   1.88279
   A45        1.88961  -0.00051   0.00000  -0.00169  -0.00169   1.88792
    D1        0.38617   0.00129   0.00000  -0.02040  -0.02043   0.36574
    D2       -2.80474  -0.00240   0.00000  -0.03039  -0.03049  -2.83523
    D3        2.87891   0.00366   0.00000   0.01823   0.01842   2.89733
    D4       -0.31200  -0.00003   0.00000   0.00823   0.00836  -0.30364
    D5       -0.59987  -0.00229   0.00000   0.03065   0.03068  -0.56919
    D6        1.42898   0.00171   0.00000   0.01899   0.01894   1.44792
    D7       -2.72359   0.00126   0.00000   0.01341   0.01330  -2.71029
    D8       -3.09033  -0.00645   0.00000  -0.01590  -0.01573  -3.10606
    D9       -1.06148  -0.00246   0.00000  -0.02756  -0.02747  -1.08895
   D10        1.06914  -0.00291   0.00000  -0.03314  -0.03311   1.03603
   D11        2.89684  -0.00155   0.00000  -0.02728  -0.02735   2.86950
   D12       -1.29175  -0.00151   0.00000  -0.02751  -0.02757  -1.31932
   D13        0.80530  -0.00181   0.00000  -0.02968  -0.02975   0.77555
   D14       -1.00461   0.00100   0.00000   0.02087   0.02094  -0.98367
   D15        1.08998   0.00104   0.00000   0.02064   0.02071   1.11069
   D16       -3.09615   0.00074   0.00000   0.01847   0.01853  -3.07762
   D17       -0.14460   0.00714   0.00000  -0.00223  -0.00238  -0.14698
   D18       -2.74641  -0.00917   0.00000  -0.02527  -0.02543  -2.77184
   D19        2.32095   0.01580   0.00000   0.05908   0.05924   2.38019
   D20       -0.28086  -0.00050   0.00000   0.03603   0.03619  -0.24467
   D21        3.11517  -0.01261   0.00000  -0.00408  -0.00425   3.11092
   D22        0.05092  -0.00744   0.00000   0.00727   0.00716   0.05808
   D23       -0.41520  -0.00087   0.00000   0.02060   0.02062  -0.39458
   D24        2.80374   0.00430   0.00000   0.03195   0.03202   2.83576
   D25        0.91409  -0.00079   0.00000   0.01655   0.01652   0.93061
   D26        2.99001   0.02407   0.00000   0.01843   0.01840   3.00841
   D27       -1.21294  -0.00191   0.00000   0.02204   0.02201  -1.19093
   D28       -1.72931  -0.01621   0.00000  -0.01914  -0.01911  -1.74843
   D29        0.34661   0.00864   0.00000  -0.01726  -0.01723   0.32938
   D30        2.42684  -0.01733   0.00000  -0.01365  -0.01362   2.41322
   D31        0.60741   0.00365   0.00000  -0.02911  -0.02915   0.57825
   D32       -1.42049  -0.00184   0.00000  -0.01101  -0.01100  -1.43150
   D33        2.71414  -0.00262   0.00000  -0.00928  -0.00922   2.70491
   D34       -2.96873   0.01706   0.00000   0.00231   0.00222  -2.96651
   D35        1.28656   0.01158   0.00000   0.02040   0.02037   1.30692
   D36       -0.86200   0.01079   0.00000   0.02214   0.02215  -0.83985
   D37        2.52432  -0.02757   0.00000   0.01949   0.01949   2.54381
   D38       -0.59185  -0.00072   0.00000   0.01428   0.01425  -0.57760
   D39       -1.14306  -0.01197   0.00000   0.04139   0.04143  -1.10164
   D40        2.02395   0.01489   0.00000   0.03618   0.03619   2.06014
   D41        0.01684  -0.00064   0.00000   0.00033   0.00031   0.01716
   D42        3.08006  -0.00594   0.00000  -0.01091  -0.01095   3.06910
   D43       -3.07451   0.00316   0.00000   0.01039   0.01041  -3.06410
   D44       -0.01129  -0.00213   0.00000  -0.00086  -0.00085  -0.01215
   D45        1.60614   0.01518   0.00000  -0.00038  -0.00036   1.60578
   D46       -2.57190   0.04172   0.00000  -0.00577  -0.00577  -2.57766
   D47       -0.45911   0.04555   0.00000  -0.00059  -0.00058  -0.45969
   D48       -0.53199  -0.00163   0.00000   0.00438   0.00438  -0.52761
   D49        1.57316   0.02490   0.00000  -0.00101  -0.00102   1.57214
   D50       -2.59724   0.02874   0.00000   0.00417   0.00417  -2.59307
   D51       -2.59909  -0.02233   0.00000   0.00030   0.00030  -2.59879
   D52       -0.49394   0.00421   0.00000  -0.00509  -0.00511  -0.49905
   D53        1.61884   0.00804   0.00000   0.00009   0.00008   1.61893
   D54       -0.31080   0.03439   0.00000  -0.00174  -0.00173  -0.31253
   D55        2.80503   0.00734   0.00000   0.00378   0.00377   2.80880
   D56       -2.39851   0.03953   0.00000  -0.01082  -0.01078  -2.40930
   D57        0.71731   0.01249   0.00000  -0.00530  -0.00528   0.71203
   D58        1.82057   0.01546   0.00000   0.00947   0.00945   1.83003
   D59       -1.34679  -0.01159   0.00000   0.01499   0.01496  -1.33183
         Item               Value     Threshold  Converged?
 Maximum Force            0.148808     0.000450     NO 
 RMS     Force            0.024662     0.000300     NO 
 Maximum Displacement     0.153688     0.001800     NO 
 RMS     Displacement     0.023706     0.001200     NO 
 Predicted change in Energy=-5.726499D-03
 GradGradGradGradGradGradGradGradGradGradGradGradGradGradGradGradGradGrad

                          Input orientation:                          
 ---------------------------------------------------------------------
 Center     Atomic      Atomic             Coordinates (Angstroms)
 Number     Number       Type             X           Y           Z
 ---------------------------------------------------------------------
      1          6           0       -1.365923   -1.163296    0.219554
      2          6           0       -0.729614    1.075719    0.444830
      3          6           0        0.835294   -1.064519   -0.484878
      4          6           0        0.469676    0.997722   -0.287964
      5          6           0       -0.523784   -1.664047    1.246126
      6          6           0        0.783910   -1.620415    0.828000
      7          1           0        1.651656   -1.880467    1.428414
      8          6           0        2.138964   -0.849884   -1.201857
      9          1           0        2.745023   -1.764552   -1.239827
     10          1           0        1.947940   -0.543716   -2.239900
     11          6           0        2.876051    0.272004   -0.439340
     12          1           0        3.534594   -0.152057    0.330203
     13          1           0        3.492060    0.885626   -1.110230
     14          6           0        1.849996    1.158180    0.264046
     15          8           0        2.118010    1.896920    1.185961
     16          1           0       -0.867836   -1.974255    2.229245
     17          1           0        0.400453    1.303224   -1.336920
     18          1           0       -0.715804    1.131972    1.531413
     19          6           0       -0.546344   -1.293461   -1.051205
     20          1           0       -0.631163   -2.319343   -1.442404
     21          1           0       -0.842848   -0.592492   -1.840561
     22         17           0       -2.068642    1.967522   -0.227623
     23          6           0       -2.847243   -1.352644    0.228166
     24          1           0       -3.335774   -0.673237   -0.481855
     25          1           0       -3.106570   -2.382944   -0.051986
     26          1           0       -3.262481   -1.154061    1.224693
 ---------------------------------------------------------------------
                    Distance matrix (angstroms):
                    1          2          3          4          5
     1  C    0.000000
     2  C    2.338553   0.000000
     3  C    2.313296   2.809611   0.000000
     4  C    2.880451   1.407611   2.103637   0.000000
     5  C    1.419083   2.861951   2.280987   3.228840   0.000000
     6  C    2.280558   3.115560   1.426643   2.863347   1.373607
     7  H    3.328882   3.921342   2.234481   3.553449   2.193766
     8  C    3.795111   3.827306   1.503224   2.652427   3.707521
     9  H    4.403541   4.793570   2.169576   3.703161   4.107939
    10  H    4.173066   4.123062   2.142269   2.893328   4.417798
    11  C    4.526430   3.798491   2.439888   2.517979   4.260043
    12  H    5.004989   4.438924   2.963641   3.331343   4.426676
    13  H    5.437500   4.502985   3.354480   3.134245   5.308507
    14  C    3.966530   2.587251   2.555562   1.495241   3.816317
    15  O    4.736735   3.054932   3.634169   2.387052   4.434319
    16  H    2.223645   3.536324   3.330876   4.118000   1.086795
    17  H    3.409754   2.122132   2.553677   1.094729   4.041168
    18  H    2.722477   1.088126   3.360938   2.175666   2.817087
    19  C    1.517723   2.807975   1.510651   2.619991   2.327138
    20  H    2.153700   3.885588   2.154516   3.680693   2.769321
    21  H    2.200795   2.831742   2.208358   2.581096   3.282935
    22  Cl   3.239723   1.743703   4.206221   2.717943   4.212697
    23  C    1.493398   3.229279   3.761985   4.097873   2.555714
    24  H    2.147661   3.272562   4.189382   4.160667   3.445999
    25  H    2.142691   4.226002   4.178987   4.926878   2.978706
    26  H    2.146467   3.463455   4.440992   4.565884   2.785858
                    6          7          8          9         10
     6  C    0.000000
     7  H    1.086788   0.000000
     8  C    2.559338   2.866687   0.000000
     9  H    2.853533   2.885896   1.097891   0.000000
    10  H    3.453441   3.915509   1.098982   1.768029   0.000000
    11  C    3.092645   3.101738   1.543814   2.192147   2.183759
    12  H    3.157553   2.781892   2.186768   2.385070   3.045702
    13  H    4.167859   4.181275   2.202558   2.756502   2.388196
    14  C    3.029054   3.260132   2.502938   3.406621   3.029157
    15  O    3.778836   3.813780   3.639650   4.436662   4.209769
    16  H    2.194756   2.645367   4.698672   5.013101   5.472503
    17  H    3.658085   4.398689   2.770657   3.862342   2.573184
    18  H    3.212408   3.832788   4.421337   5.295937   4.911849
    19  C    2.325487   3.365159   2.725865   3.330256   2.862965
    20  H    2.765080   3.693978   3.144961   3.427458   3.231195
    21  H    3.290012   4.309017   3.060294   3.821966   2.819636
    22  Cl   4.703688   5.602687   5.156633   6.174488   5.146699
    23  C    3.690091   4.686074   5.211526   5.796388   5.453393
    24  H    4.425456   5.475490   5.524705   6.224274   5.570021
    25  H    4.060992   5.008471   5.584631   6.002876   5.806703
    26  H    4.092448   4.971711   5.929273   6.522013   6.286844
                   11         12         13         14         15
    11  C    0.000000
    12  H    1.098046   0.000000
    13  H    1.098222   1.775793   0.000000
    14  C    1.527367   2.135174   2.158540   0.000000
    15  O    2.420037   2.633883   2.860633   1.211402   0.000000
    16  H    5.117002   5.129147   6.191906   4.589200   4.998971
    17  H    2.828012   3.836663   3.127908   2.164557   3.109245
    18  H    4.186268   4.599731   4.974443   2.861859   2.955502
    19  C    3.812853   4.457034   4.589184   3.671903   4.720406
    20  H    4.474569   5.019243   5.232890   4.600140   5.678304
    21  H    4.067060   4.905935   4.637849   3.840004   4.911587
    22  Cl   5.231596   6.016647   5.733315   4.031438   4.419419
    23  C    5.986747   6.494588   6.854773   5.326310   6.010888
    24  H    6.283475   6.937797   7.031659   5.550015   6.255484
    25  H    6.556717   7.016266   7.439445   6.099752   6.866294
    26  H    6.517993   6.928517   7.432093   5.692690   6.185440
                   16         17         18         19         20
    16  H    0.000000
    17  H    5.006791   0.000000
    18  H    3.187276   3.082644   0.000000
    19  C    3.365738   2.778638   3.547021   0.000000
    20  H    3.695417   3.768070   4.556569   1.101211   0.000000
    21  H    4.298047   2.322325   3.789475   1.096519   1.784756
    22  Cl   4.797473   2.787160   2.371186   3.691841   4.681800
    23  C    2.882493   4.477797   3.523464   2.633331   2.938762
    24  H    3.890171   4.312416   3.765138   2.913718   3.308661
    25  H    3.222261   5.247676   4.536248   2.956377   2.839885
    26  H    2.723264   5.100705   3.435925   3.546342   3.923661
                   21         22         23         24         25
    21  H    0.000000
    22  Cl   3.264631   0.000000
    23  C    2.979105   3.440562   0.000000
    24  H    2.840296   2.940046   1.097445   0.000000
    25  H    3.395461   4.476014   1.098751   1.777757   0.000000
    26  H    3.945347   3.644003   1.097689   1.774505   1.778867
                   26
    26  H    0.000000
 Stoichiometry    C11H13ClO
 Framework group  C1[X(C11H13ClO)]
 Deg. of freedom    72
 Full point group                 C1      NOp   1
 Largest Abelian subgroup         C1      NOp   1
 Largest concise Abelian subgroup C1      NOp   1
                         Standard orientation:                         
 ---------------------------------------------------------------------
 Center     Atomic      Atomic             Coordinates (Angstroms)
 Number     Number       Type             X           Y           Z
 ---------------------------------------------------------------------
      1          6           0       -1.436158   -1.139158    0.196780
      2          6           0       -0.697306    1.073034    0.367468
      3          6           0        0.792138   -1.174132   -0.423554
      4          6           0        0.523233    0.909387   -0.314349
      5          6           0       -0.659321   -1.641689    1.272784
      6          6           0        0.663692   -1.677474    0.905151
      7          1           0        1.494154   -1.956914    1.548077
      8          6           0        2.130928   -1.050196   -1.095836
      9          1           0        2.691367   -1.994091   -1.077508
     10          1           0        1.994602   -0.774040   -2.150784
     11          6           0        2.894183    0.062116   -0.345125
     12          1           0        3.501280   -0.364516    0.464271
     13          1           0        3.564935    0.619520   -1.012571
     14          6           0        1.888161    1.022877    0.285515
     15          8           0        2.158072    1.781572    1.190515
     16          1           0       -1.055160   -1.897851    2.251975
[...]
 8,0.00150267,0.00054174,-0.00071276,-0.00153513,0.00046952,0.00142430,
 -0.00027805,-0.00030485,-0.00016313,-0.00014306,-0.00033731,-0.0004751
 1,-0.00052557,-0.00059295,0.00041542,0.00010426,0.00013900,-0.00062398
 ,-0.00264547,0.00223166,-0.00217824,-0.00006680,0.00064065,-0.00089746
 ,-0.00005367,-0.00007153,-0.00001109,0.51354366,0.00139059,-0.05278706
 ,-0.00482761,-0.02473685,-0.02971748,-0.00623920,-0.01679650,-0.045949
 25,-0.00819210,0.01196630,-0.04078675,-0.02091323,0.00594947,-0.002980
 09,0.01845732,0.00862554,-0.00325429,0.02191856,-0.00081536,0.00489954
 ,0.00486155,0.00025755,-0.00343793,-0.00035391,0.00155614,-0.00049438,
 -0.00063987,-0.00065158,0.00018938,0.00026069,-0.00201370,-0.00255361,
 0.00096433,0.00004293,0.00027081,0.00017930,-0.00062802,-0.00016637,-0
 .00008699,0.00027398,0.00291713,-0.00099868,-0.00031371,0.00004885,0.0
 0026647,0.00278599,0.00573641,0.00383726,-0.00086808,0.00142055,-0.000
 76699,0.00016899,0.00007989,0.00056263,-0.01544968,0.60682104,0.048282
 69,0.00747727,-0.18845321,-0.00751588,-0.01107231,-0.00121640,-0.03861
 665,0.00976833,-0.11617024,0.00397233,-0.01245414,-0.00555950,0.002625
 80,-0.00217751,-0.04583395,-0.02966532,-0.00365554,-0.02971184,0.00158
 841,0.00270104,-0.00439643,0.01392082,0.00519963,0.01641350,0.00159739
 ,-0.00033107,-0.00095411,-0.00061850,-0.00031424,0.00108016,0.00319876
 ,-0.00016844,-0.00241487,0.00033218,0.00049246,0.00038836,0.00062064,0
 .00095275,0.00068216,0.00111482,0.00030839,-0.00264467,-0.00080675,0.0
 0024870,0.00133612,-0.00331968,0.00158484,-0.00180432,0.00032374,0.001
 92061,-0.00050502,0.00006410,0.00059169,-0.00001169,0.07029364,-0.0579
 3794,0.65620823,0.00112317,0.01921015,0.00922455,-0.00184724,0.0004123
 0,0.00296068,-0.00330758,-0.02812964,-0.01407279,-0.00176890,-0.004051
 27,-0.00204173,-0.00106624,-0.00077652,0.00198201,-0.00229489,-0.00011
 425,-0.00023600,-0.00006403,0.00104818,0.00034453,0.00036547,0.0011483
 5,0.00085104,-0.00023676,-0.00004890,-0.00012238,-0.00004309,-0.000119
 38,0.00018273,-0.00010774,-0.00041256,-0.00024751,0.00009681,0.0001129
 5,0.00005663,-0.00002778,0.00017920,0.00018212,0.00167663,0.00001676,0
 .00023792,-0.00062442,-0.00015561,-0.00059623,-0.00006194,-0.00060361,
 -0.00022303,0.00012572,0.00060547,0.00003801,0.00020206,0.00082964,-0.
 00015596,-0.04873619,-0.01916602,-0.01080107,0.05484003,-0.00101383,-0
 .00328023,-0.00273258,-0.00292686,-0.00141933,0.00010941,-0.00101367,-
 0.00386344,-0.00311950,0.00102270,-0.00296141,-0.00215609,0.00538279,0
 .00087981,0.00194022,-0.00294763,0.00082401,0.00470540,-0.00003057,-0.
 00015308,-0.00020592,-0.00018243,0.00011551,-0.00041897,-0.00026139,0.
 00003332,0.00001914,-0.00002933,-0.00014015,0.00000316,-0.00036666,-0.
 00014051,0.00002572,-0.00005808,0.00005485,0.00002829,-0.00003048,-0.0
 0000246,-0.00000212,0.00105782,-0.00016147,0.00035747,-0.00050290,0.00
 016193,-0.00042714,-0.00008022,-0.00018167,-0.00019820,0.00000148,0.00
 077475,-0.00023214,0.00005217,-0.00013487,-0.00002330,-0.01837990,-0.2
 8114877,-0.07585272,0.02208862,0.30707033,-0.00314636,-0.02239185,-0.0
 0959271,-0.00289131,-0.00167507,-0.00138199,0.00208802,-0.00479019,-0.
 00174846,0.00309550,-0.00141604,-0.00158317,-0.00101226,-0.00109479,-0
 .00176393,0.00154183,-0.00118511,-0.00117533,-0.00007715,0.00068507,0.
 00012048,-0.00007806,0.00001310,0.00003524,-0.00011496,-0.00006416,0.0
 0007155,-0.00004322,0.00004171,0.00002095,-0.00011780,-0.00007631,-0.0
 0005025,-0.00000656,0.00000428,0.00000228,-0.00001322,0.00000378,0.000
 01460,-0.00018868,0.00061819,-0.00017830,0.00003265,-0.00006502,0.0003
 5933,0.00017028,0.00133462,0.00026054,-0.00002591,-0.00013969,0.000515
 81,-0.00010749,-0.00050789,0.00016289,-0.01150607,-0.07849059,-0.08044
 920,0.00928006,0.08518078,0.08444823,0.00974986,-0.01620804,0.01186895
 ,0.00073092,-0.00035153,0.00110752,-0.00217390,0.02043822,-0.02197707,
 -0.00138463,0.00099238,-0.00134724,-0.00276270,0.00144403,0.00468519,-
 0.00638495,-0.00124406,-0.00346567,0.00046223,-0.00026668,-0.00156846,
 0.00138636,-0.00026683,-0.00063749,0.00029596,0.00005101,0.00008023,-0
 .00020791,-0.00021608,0.00078233,0.00009437,-0.00005238,0.00017102,0.0
 0007335,0.00007989,0.00006455,-0.00002645,-0.00003331,-0.00000995,0.00
 032916,-0.00034229,0.00004186,-0.00011173,0.00001619,-0.00000723,0.000
 86274,0.00027896,0.00070414,-0.00021657,-0.00079470,0.00002077,-0.0001
 0315,0.00029947,-0.00003974,-0.08478817,0.04680299,-0.05410308,0.00117
 993,-0.00157993,0.00266878,0.08237898,-0.00216874,0.00183832,-0.006204
 15,-0.00057091,-0.00029828,-0.00090912,-0.00279989,0.00288229,-0.00828
 221,-0.00134803,-0.00155854,-0.00165702,0.00266876,0.00064494,-0.00035
 315,-0.00287073,0.00055217,0.00106012,0.00000331,0.00033227,-0.0003937
 4,0.00053962,-0.00039708,0.00017520,0.00007773,0.00002546,-0.00002684,
 0.00025656,0.00013942,-0.00001598,0.00007304,0.00014664,-0.00010813,-0
 .00001374,-0.00004712,-0.00001997,0.00002850,0.00001379,0.00000859,-0.
 00021076,-0.00040224,-0.00026703,-0.00001534,0.00010839,-0.00007291,-0
 .00016298,0.00030302,-0.00024236,-0.00133779,-0.00057172,-0.00120615,0
 .00001330,0.00007970,0.00001616,0.04975166,-0.16273539,0.13126474,0.00
 838037,-0.01734164,0.02303109,-0.04966243,0.17669036,-0.01166652,0.014
 76413,-0.01452391,0.00067202,0.00206526,-0.00155310,0.00052154,0.00203
 433,-0.00493098,-0.00066619,0.00143307,0.00020609,0.00201667,0.0005662
 7,-0.00516441,-0.00083085,0.00098942,-0.00108257,0.00001447,-0.0000017
 3,-0.00040398,0.00008712,-0.00027523,0.00007576,-0.00002990,0.00001701
 ,0.00010706,-0.00029731,-0.00005142,0.00024829,-0.00000076,0.00001100,
 0.00014124,0.00003934,0.00001000,-0.00000680,-0.00004079,-0.00004890,-
 0.00003196,-0.00031047,0.00012199,0.00035637,0.00028168,-0.00002907,0.
 00016513,-0.00095187,-0.00036118,-0.00094966,-0.00020605,-0.00063296,0
 .00079803,-0.00007975,-0.00034932,0.00013737,-0.05468818,0.12389920,-0
 .20508735,0.00366626,-0.00691856,0.01050143,0.06183397,-0.13588451,0.2
 1934365,-0.00235392,-0.00038753,-0.00282014,-0.12026892,0.04593137,-0.
 05142537,0.00052128,-0.00242233,-0.00089887,-0.03685591,0.02163686,-0.
 02367050,0.00017285,0.00016367,0.00177363,-0.00105362,0.00235920,-0.00
 135134,0.00005676,-0.00048790,-0.00001248,-0.00006039,-0.00038032,-0.0
 0018372,0.00004103,0.00014146,-0.00002429,0.00000400,-0.00005614,0.000
 12101,-0.00178395,-0.00041059,-0.00040967,-0.00038858,0.00016106,0.000
 18527,-0.00030880,0.00017018,0.00023924,0.00257832,0.00473690,0.007267
 29,-0.00071478,-0.00092065,-0.00247449,-0.00002820,0.00002310,-0.00019
 718,0.00045631,-0.00221340,-0.00121483,-0.00853332,0.00804771,-0.00372
 544,0.00011246,0.00119581,-0.00083168,0.00001837,0.00016589,0.00078600
 ,-0.00011942,-0.00017690,0.00064463,0.16867164,0.00468809,-0.01660464,
 0.00921149,0.06397511,-0.04259962,0.02939241,0.00221385,-0.01303210,0.
 00601548,-0.00071329,0.00702664,0.00810376,-0.00784905,0.00317147,-0.0
 0419806,0.00801500,-0.00144067,-0.00749250,0.00001378,0.00070538,0.000
 04627,-0.00053804,0.00092930,0.00019737,-0.00022812,0.00003331,0.00016
 860,0.00009273,0.00013266,-0.00016761,-0.00002456,0.00006872,0.0000561
 6,-0.00008211,-0.00001763,0.00002618,0.00005038,0.00009755,-0.00009490
 ,-0.00262952,0.00163440,-0.00118923,0.00079880,0.00028221,0.00147568,-
 0.00020654,-0.00001955,0.00015071,-0.00024090,-0.00327385,-0.00064929,
 0.00350908,-0.00251643,0.00135628,0.00120657,0.00291771,0.00155962,-0.
 00003517,0.00036290,0.00005855,0.00002705,-0.00035068,-0.00049279,-0.0
 7202267,0.07087073,-0.00100697,0.00154183,-0.00224866,-0.05349809,0.02
 591119,-0.08275758,0.00071988,0.00040544,-0.00115220,0.00206110,-0.000
 19070,0.00588505,0.00133149,-0.00133664,0.00177063,-0.00157914,0.00188
 054,0.00050134,0.00004811,-0.00025917,0.00006500,0.00006928,-0.0002972
 8,-0.00005617,0.00013588,0.00006949,-0.00011256,-0.00004203,-0.0000213
 4,0.00006376,-0.00005943,0.00005608,-0.00007437,-0.00002869,0.00002291
 ,0.00004421,-0.00000687,0.00003015,0.00006508,0.00251869,-0.00041658,0
 .00043182,-0.00068935,0.00032025,0.00019476,-0.00000779,-0.00004275,-0
 .00002289,0.00055572,-0.00122081,0.00192411,-0.02651453,0.01753547,-0.
 00562226,0.00010006,0.00125072,-0.00054271,-0.00022238,0.00003990,0.00
 063000,-0.00022883,-0.00040136,0.00088026,0.07676197,-0.04553202,0.079
 11336,-0.27747414,-0.00689629,0.00364612,0.00195387,-0.00434591,0.0011
 5497,-0.00023613,-0.00307812,0.00200775,-0.00244773,0.00211502,0.00112
 945,-0.02174751,-0.00304352,0.00027705,0.00238935,0.00104113,-0.004551
 13,-0.00006099,0.00025722,0.00026396,0.00019846,-0.00030882,-0.0001513
 3,0.00006380,0.00008983,-0.00005915,0.00002227,0.00004839,-0.00004010,
 -0.00008808,0.00000903,0.00002193,0.00000602,-0.00002246,-0.00000886,-
 0.00001070,0.00003604,0.00000070,0.00019259,-0.00049012,0.00008753,-0.
 00002694,0.00013929,-0.00010839,0.00162409,0.00003921,0.00111939,0.000
 05107,-0.00009065,-0.00005003,0.00012541,0.00048886,-0.00039453,-0.009
 91570,0.00137741,0.00144623,0.00030931,-0.00065800,-0.00036340,0.00082
 263,-0.00022332,-0.00074728,-0.00282366,0.00044483,-0.00184255,0.57789
 982,-0.01507017,-0.07319718,0.00139483,-0.01096118,-0.00423830,0.00038
 247,-0.00593547,0.00092212,-0.00408018,0.00361094,-0.00267897,-0.00255
 555,0.02051864,0.00473404,-0.00140071,-0.00084442,0.00252256,0.0101997
 2,0.00081479,0.00001481,-0.00031946,-0.00027896,0.00323994,0.00067783,
 -0.00082552,-0.00042819,0.00068561,-0.00003466,-0.00012850,0.00008978,
 0.00059934,0.00013663,-0.00039271,-0.00004070,0.00007439,0.00001161,-0
 .00002365,-0.00000155,0.00000606,-0.00095525,0.00111408,0.00044289,0.0
 0020616,-0.00025714,0.00005822,-0.00087435,-0.00365526,-0.00121936,-0.
 00022061,0.00017567,0.00015975,0.00012156,-0.00000240,-0.00020898,0.00
 438016,-0.00011072,0.00020381,0.00004090,-0.00019367,0.00021449,0.0002
 7733,-0.00018183,-0.00046101,-0.00066872,-0.00333814,0.00157492,-0.012
 12771,0.59527774,0.00916872,0.00396908,-0.10711114,-0.00035340,-0.0014
 2577,0.00011107,0.00214331,-0.00207391,-0.00781998,-0.00053076,0.00039
 366,-0.00020790,-0.02755292,-0.00543101,0.00783237,-0.00260771,0.00239
 978,-0.00318579,-0.00109292,0.00034970,0.00084101,0.00096360,0.0010884
 6,0.00153407,-0.00009083,-0.00009514,0.00016071,-0.00019298,-0.0001025
 5,0.00016149,0.00035127,-0.00000182,-0.00025472,0.00003880,0.00012442,
 0.00007348,0.00001140,0.00005237,0.00004867,0.00038764,0.00007384,0.00
 051591,-0.00011078,0.00004014,-0.00016621,0.00020662,-0.00031998,0.000
 67525,-0.00007222,-0.00026647,0.00003941,-0.00035149,-0.00039454,-0.00
 002048,0.02968675,0.00426715,0.00855303,-0.00040281,-0.00038146,0.0006
 5079,-0.00059564,0.00030987,0.00043527,-0.00119000,0.00045319,0.000117
 76,-0.00453998,-0.00836024,0.63266492,-0.01381964,0.02590628,-0.023318
 77,-0.00024915,0.00250640,-0.00180125,0.00038146,-0.00147740,0.0003002
 1,-0.00105318,0.00065548,0.00057466,-0.00703496,-0.00042942,0.00210694
 ,0.00007491,-0.00030650,-0.00233963,-0.00044276,0.00003973,0.00023392,
 0.00005946,-0.00006237,-0.00002449,-0.00002850,0.00001212,0.00002333,-
 0.00003917,-0.00001291,0.00004432,-0.00001020,0.00002800,0.00008585,0.
 00001758,0.00001032,0.00000383,-0.00002893,-0.00004145,-0.00002594,-0.
 00001785,-0.00014982,0.00021657,0.00003010,-0.00004024,-0.00010591,0.0
 0014297,0.00022671,0.00002132,-0.00009544,-0.00007212,0.00002638,-0.00
 003071,-0.00059219,0.00009615,0.00103353,0.00020534,-0.00017938,0.0002
 1374,-0.00013067,-0.00011959,-0.00030049,-0.00007203,0.00067519,0.0011
 8681,-0.00056489,0.00080475,-0.10392365,0.07885400,-0.05897850,0.11358
 803,-0.00004899,0.00461811,-0.00331015,0.00099489,-0.00062892,-0.00012
 245,0.00044227,-0.00096923,0.00042143,-0.00066313,0.00084979,0.0007481
 1,-0.00270392,-0.00032077,-0.00084265,0.00039213,0.00010565,-0.0011085
 3,-0.00007156,0.00017063,0.00002774,-0.00002863,-0.00002996,0.00000994
 ,0.00002156,0.00001649,-0.00001705,0.00001285,0.00002019,-0.00001549,0
 .00003695,0.00001956,0.00002877,0.00001614,-0.00001889,-0.00001326,0.0
 0000298,0.00000969,-0.00000369,-0.00003302,-0.00021648,-0.00007488,0.0
 0006004,0.00002903,-0.00000064,0.00005045,0.00007207,0.00011072,-0.000
 03176,-0.00000020,-0.00002235,0.00012541,-0.00011489,-0.00000620,0.000
 27713,0.00034068,0.00029951,0.00005933,0.00000095,0.00009649,0.0001329
 8,0.00020178,-0.00011267,-0.00374026,-0.00472846,-0.00036705,0.0823608
 5,-0.19659919,0.11148320,-0.08668952,0.21255695,-0.00215474,-0.0026070
 6,0.00030017,-0.00170940,0.00081977,-0.00037751,0.00001578,0.00102286,
 -0.00007120,0.00085094,-0.00077119,-0.00024504,0.00092964,0.00093758,0
 .00130051,-0.00050393,-0.00049394,0.00055809,-0.00004096,-0.00010393,0
 .00001733,-0.00002295,-0.00001193,0.00001372,0.00001355,-0.00001726,-0
 .00001790,-0.00000281,0.00000406,0.00000112,0.00001688,-0.00000416,-0.
 00000290,0.00001068,-0.00000906,-0.00000413,0.00000786,-0.00000896,0.0
 0000057,-0.00023067,0.00014635,-0.00015238,0.00007457,-0.00004874,0.00
 010914,0.00026122,0.00010271,0.00030198,0.00000462,0.00005478,0.000007
 60,-0.00009812,-0.00009876,0.00000933,-0.00031995,-0.00093290,0.000062
 00,0.00003257,-0.00000310,0.00001175,0.00006780,0.00008459,0.00018918,
 0.00199504,0.00107555,0.00051451,-0.06035627,0.10884615,-0.14631060,0.
 06825773,-0.12119343,0.14977215,-0.01198678,-0.03030236,-0.01572308,-0
 .00213235,0.00114028,-0.00115992,-0.00200470,-0.00044347,-0.00153534,0
 .00026096,0.00009408,-0.00042901,0.00124532,-0.00081021,0.00090804,-0.
 00084024,0.00047810,0.00246792,-0.00007645,0.00004688,0.00004159,-0.00
 007323,0.00097772,0.00018413,-0.00033193,-0.00013518,0.00028121,-0.000
 04954,-0.00006535,0.00007950,0.00015861,0.00006392,0.00001278,-0.00001
 220,0.00004461,0.00000406,-0.00004854,-0.00005253,-0.00003035,-0.00008
 785,0.00032908,0.00046751,0.00000119,-0.00013622,-0.00019350,-0.000058
 52,-0.00071234,-0.00028779,-0.00012049,-0.00000424,0.00007673,-0.00011
 474,-0.00056271,0.00008853,0.00147538,-0.00011815,0.00011223,-0.000220
 92,0.00020738,0.00039109,0.00015498,-0.00001773,-0.00002248,0.00128814
 ,0.00024312,0.00042207,-0.07736160,-0.06874317,-0.02647120,0.00470902,
 0.01241259,0.00704093,0.08262873,-0.00028187,0.00158876,0.00005703,0.0
 0034428,-0.00055089,0.00047050,-0.00014290,0.00079151,-0.00036012,0.00
 036583,-0.00021533,-0.00020996,0.00116009,-0.00012588,0.00068385,-0.00
 087042,-0.00007563,0.00081407,-0.00004228,-0.00000646,0.00002642,-0.00
 004017,0.00012268,-0.00000079,-0.00004824,-0.00002253,0.00002367,-0.00
 000965,-0.00003206,0.00002091,-0.00000100,0.00000056,-0.00000785,-0.00
 000510,0.00001344,0.00000555,0.00000100,-0.00001148,0.00000441,0.00010
 651,0.00012868,0.00007800,-0.00005674,-0.00003445,-0.00000773,0.000020
 67,-0.00017458,0.00000210,-0.00002174,-0.00001592,0.00000072,-0.000008
 59,0.00006020,-0.00000832,-0.00030831,-0.00040593,-0.00036450,-0.00013
 997,0.00055291,0.00020248,-0.00001965,-0.00007868,-0.00001074,-0.00096
 643,-0.00001791,-0.00025749,-0.06644888,-0.26373200,-0.08480877,-0.007
 27940,-0.02025857,-0.01025462,0.07433828,0.28290768,-0.00184423,0.0012
 3654,-0.00030707,-0.00040687,0.00121811,-0.00006723,0.00040720,0.00045
 845,0.00057781,0.00029351,-0.00028672,-0.00002942,-0.00039921,-0.00004
 328,0.00051327,-0.00000295,0.00048154,-0.00000951,-0.00002722,-0.00001
 759,-0.00001879,-0.00003662,-0.00008283,-0.00007498,0.00000644,-0.0000
 1338,-0.00000862,0.00001286,0.00000112,-0.00000581,-0.00000980,0.00000
 054,-0.00000193,-0.00000414,-0.00000462,-0.00000597,0.00000472,-0.0000
 0661,-0.00000272,-0.00003506,0.00002320,-0.00004084,-0.00001020,-0.000
 01278,0.00004144,-0.00008718,-0.00036610,-0.00010549,-0.00003935,0.000
 01500,0.00000651,0.00014798,0.00011665,-0.00003183,-0.00054947,-0.0006
 0264,-0.00025356,0.00020555,0.00026600,0.00008178,0.00002036,0.0001500
 2,0.00003083,0.00071848,0.00000984,0.00026500,-0.02508299,-0.08477600,
 -0.09101055,0.00710853,0.01768592,0.00920013,0.03003908,0.09398949,0.0
 9058384,-0.01089126,0.00407759,0.03935796,0.00033977,0.00038219,-0.000
 29401,-0.00076586,-0.00006155,0.00240953,-0.00018142,0.00038457,-0.000
 13393,0.00180792,0.00008374,0.00012127,0.00049212,-0.00039941,-0.00029
 521,0.00006911,0.00000122,-0.00010397,-0.00029105,-0.00022169,-0.00056
 984,-0.00006098,0.00001632,0.00002618,0.00006050,0.00001982,-0.0000247
 3,-0.00012055,0.00001572,0.00015601,-0.00001584,-0.00002731,-0.0000279
 8,-0.00004010,-0.00005233,-0.00003636,-0.00006483,0.00009415,0.0001576
 1,0.00001289,-0.00008842,-0.00018450,-0.00030280,0.00027946,-0.0008047
 3,0.00002692,0.00008965,-0.00001887,-0.00018888,-0.00040199,-0.0000159
 1,-0.00581770,-0.00104138,-0.00303578,0.00025646,0.00021368,-0.0002421
 6,0.00005860,-0.00014151,0.00008552,0.00018550,-0.00014351,0.00019764,
 -0.08954186,0.00818071,0.08217606,0.00563699,-0.00338776,-0.01414000,0
 .00359777,0.00035468,-0.01042941,0.09573857,-0.00241638,-0.00121970,0.
 00362795,0.00015581,0.00035030,0.00024972,-0.00002482,0.00021717,0.000
 03372,-0.00019287,0.00005479,0.00001531,0.00029576,-0.00009883,-0.0003
 7240,-0.00000388,-0.00021672,-0.00007624,-0.00001148,0.00000119,-0.000
 00505,-0.00003918,0.00007378,0.00004013,-0.00000739,0.00000578,-0.0000
 0746,0.00000339,0.00000189,-0.00000706,0.00002866,0.00001198,-0.000022
 81,0.00000455,-0.00000323,-0.00000092,0.00001118,0.00000808,0.00000677
 ,0.00003406,-0.00003183,0.00003192,0.00000753,-0.00000715,-0.00003818,
 0.00014107,0.00018012,0.00011556,0.00003251,0.00000033,-0.00001199,-0.
 00015852,-0.00008488,-0.00006376,-0.00006296,0.00088601,-0.00024499,-0
 .00037928,0.00029144,0.00041207,0.00019742,0.00000462,-0.00028159,0.00
 012063,-0.00029326,-0.00029568,0.00928668,-0.05946895,-0.02134319,-0.0
 1052344,0.00487401,0.02346465,0.01172764,-0.00040811,-0.02943987,-0.00
 822667,0.05487116,-0.00160875,-0.00015826,0.00161547,0.00012006,-0.000
 06024,0.00009611,-0.00005670,-0.00003970,-0.00002896,0.00006396,-0.000
 04622,0.00015843,-0.00096277,0.00042755,0.00092137,0.00037031,0.000310
 17,0.00018711,0.00004820,-0.00004751,-0.00000665,0.00001798,-0.0001427
 0,0.00007990,0.00005211,0.00001020,-0.00003008,-0.00000965,-0.00000202
 ,0.00000365,-0.00000275,-0.00001381,-0.00002668,0.00000368,-0.00000113
 ,0.00000822,0.00001165,0.00001501,0.00000139,-0.00009240,-0.00009554,-
 0.00016447,0.00004226,0.00006837,0.00015777,0.00032629,-0.00031305,0.0
 0036043,-0.00002615,-0.00003944,0.00000861,0.00019855,0.00022125,-0.00
 002078,-0.00053311,0.00025749,0.00128551,-0.00012274,-0.00000368,0.000
 03568,-0.00013707,-0.00005577,0.00011878,-0.00006257,0.00045925,0.0001
 2273,0.08714091,-0.02117393,-0.29832786,0.00631378,-0.00370137,-0.0151
 8760,0.00323530,-0.00008831,-0.00932630,-0.09433038,0.02421339,0.31795
 821\\-0.00000227,-0.00000185,-0.00000171,-0.00000142,0.00000524,-0.000
 00080,-0.00000124,0.00000597,0.00000221,0.00000270,-0.00000976,-0.0000
 0263,0.00000176,0.00000210,0.00000097,-0.00000112,-0.00000015,0.000003
 48,-0.00000111,0.00000325,0.00000311,0.00000256,-0.00000319,0.00000299
 ,0.00000116,-0.00000106,0.00000293,0.00000227,-0.00000040,0.00000253,-
 0.00000350,0.00000173,-0.00000007,-0.00000250,0.00000020,0.00000466,0.
 00000400,-0.00000097,0.00000312,-0.00000454,-0.00001746,0.00000737,0.0
 0000285,0.00002716,-0.00000996,-0.00000168,0.00000223,0.00000078,0.000
 00018,-0.00000081,-0.00000176,-0.00000265,0.00000130,-0.00000385,0.000
 00052,-0.00000296,0.00000043,0.00000309,-0.00000199,0.00000114,0.00000
 135,-0.00000269,-0.00000046,-0.00000054,-0.00000156,-0.00000543,0.0000
 0070,-0.00000173,-0.00000191,0.00000041,-0.00000134,-0.00000270,0.0000
 0027,-0.00000084,-0.00000204,-0.00000125,-0.00000043,-0.00000240\\\@
 The archive entry for this job was punched.


 Democracy is the recurrent suspicion that more than half of the people
 are right more than half of the time.
 -- E. B. White
 Job cpu time:       0 days  5 hours 42 minutes 53.7 seconds.
 Elapsed time:       0 days  0 hours 54 minutes 54.8 seconds.
 File lengths (MBytes):  RWF=      6 Int=      0 D2E=      0 Chk=      2 Scr=      1
 Normal termination of Gaussian 16 at Wed Jan 17 01:08:09 2024.
