Unloading slurm/anatra/current
  ERROR: No such file or directory on
    '/cm/local/modulefiles/slurm/anatra/current'
environment: line 0: unalias: gv: not found
environment: line 0: unalias: sl: not found
 Entering Gaussian System, Link 0=g16
 Initial command:
 /apps/gaussian/g16/C.01/g16/l1.exe "/local/jobs/1158199/Gau-3861313.inp" -scrdir="/local/jobs/1158199/"
 Entering Link 1 = /apps/gaussian/g16/C.01/g16/l1.exe PID=   3861314.
  
 Copyright (c) 1988-2019, Gaussian, Inc.  All Rights Reserved.
  
 This is part of the Gaussian(R) 16 program.  It is based on
 the Gaussian(R) 09 system (copyright 2009, Gaussian, Inc.),
 the Gaussian(R) 03 system (copyright 2003, Gaussian, Inc.),
 the Gaussian(R) 98 system (copyright 1998, Gaussian, Inc.),
 the Gaussian(R) 94 system (copyright 1995, Gaussian, Inc.),
 the Gaussian 92(TM) system (copyright 1992, Gaussian, Inc.),
 the Gaussian 90(TM) system (copyright 1990, Gaussian, Inc.),
 the Gaussian 88(TM) system (copyright 1988, Gaussian, Inc.),
 the Gaussian 86(TM) system (copyright 1986, Carnegie Mellon
 University), and the Gaussian 82(TM) system (copyright 1983,
 Carnegie Mellon University). Gaussian is a federally registered
 trademark of Gaussian, Inc.
  
 This software contains proprietary and confidential information,
 including trade secrets, belonging to Gaussian, Inc.
  
 This software is provided under written license and may be
 used, copied, transmitted, or stored only in accord with that
 written license.
  
 The following legend is applicable only to US Government
 contracts under FAR:
  
                    RESTRICTED RIGHTS LEGEND
  
 Use, reproduction and disclosure by the US Government is
 subject to restrictions as set forth in subparagraphs (a)
 and (c) of the Commercial Computer Software - Restricted
 Rights clause in FAR 52.227-19.
  
 Gaussian, Inc.
 340 Quinnipiac St., Bldg. 40, Wallingford CT 06492
  
  
 ---------------------------------------------------------------
 Warning -- This program may not be used in any manner that
 competes with the business of Gaussian, Inc. or will provide
 assistance to any competitor of Gaussian, Inc.  The licensee
 of this program is prohibited from giving any competitor of
 Gaussian, Inc. access to this program.  By using this program,
 the user acknowledges that Gaussian, Inc. is engaged in the
 business of creating and licensing software in the field of
 computational chemistry and represents and warrants to the
 licensee that it is not a competitor of Gaussian, Inc. and that
 it will not use this program in any manner prohibited above.
 ---------------------------------------------------------------
  

 Cite this work as:
 Gaussian 16, Revision C.01,
 M. J. Frisch, G. W. Trucks, H. B. Schlegel, G. E. Scuseria, 
 M. A. Robb, J. R. Cheeseman, G. Scalmani, V. Barone, 
 G. A. Petersson, H. Nakatsuji, X. Li, M. Caricato, A. V. Marenich, 
 J. Bloino, B. G. Janesko, R. Gomperts, B. Mennucci, H. P. Hratchian, 
 J. V. Ortiz, A. F. Izmaylov, J. L. Sonnenberg, D. Williams-Young, 
 F. Ding, F. Lipparini, F. Egidi, J. Goings, B. Peng, A. Petrone, 
 T. Henderson, D. Ranasinghe, V. G. Zakrzewski, J. Gao, N. Rega, 
 G. Zheng, W. Liang, M. Hada, M. Ehara, K. Toyota, R. Fukuda, 
 J. Hasegawa, M. Ishida, T. Nakajima, Y. Honda, O. Kitao, H. Nakai, 
 T. Vreven, K. Throssell, J. A. Montgomery, Jr., J. E. Peralta, 
 F. Ogliaro, M. J. Bearpark, J. J. Heyd, E. N. Brothers, K. N. Kudin, 
 V. N. Staroverov, T. A. Keith, R. Kobayashi, J. Normand, 
 K. Raghavachari, A. P. Rendell, J. C. Burant, S. S. Iyengar, 
 J. Tomasi, M. Cossi, J. M. Millam, M. Klene, C. Adamo, R. Cammi, 
 J. W. Ochterski, R. L. Martin, K. Morokuma, O. Farkas, 
 J. B. Foresman, and D. J. Fox, Gaussian, Inc., Wallingford CT, 2019.
 
 ******************************************
 Gaussian 16:  ES64L-G16RevC.01  3-Jul-2019
                18-Jan-2024 
 ******************************************
 %nprocshared=12
 Will use up to   12 processors via shared memory.
 %mem=48GB
 ----------------------------------------------------------------------
 # external="~/scripts/MiMe -H 'hf def2svp' -EF 'wb97xd def2svp' -c 12 
 -m 48GB" opt=(calcall,ts,noeigen,maxcycles=50,maxstep=10,nomicro)
 ----------------------------------------------------------------------
 1/5=1,6=50,8=10,10=4,11=1,18=20,26=1,38=1/1,3;
 2/9=110,12=2,17=6,18=5,40=1/2;
 3/11=9,25=1,30=1,41=9900000,43=2,71=2,140=1/1;
 4/20=17,22=2,24=3,113=1,114=1/2;
 6/7=2,8=2,9=2,10=2,18=1/1;
 7/25=1,44=-1/16;
 1/5=1,6=50,8=10,10=4,11=1,18=20,26=1/3(3);
 2/9=110/2;
 7/8=1,9=1,25=1,44=-1/16;
 99//99;
 2/9=110/2;
 3/11=9,25=1,30=1,41=9900000,43=2,71=2,140=1/1;
 4/16=2,20=17,22=2,24=3,113=1,114=1/2;
 7/25=1,44=-1/16;
 1/5=1,6=50,8=10,10=4,11=1,18=20,26=1/3(-4);
 2/9=110/2;
 6/7=2,8=2,9=2,10=2,18=1/1;
 7/8=1,9=1,25=1,44=-1/16;
 99//99;
 -------------
 TS-68_hfm.out
 -------------
 Symbolic Z-matrix:
 Charge =  0 Multiplicity = 1
 C                    -0.79635   0.06943   0.15429 
 C                    -1.99765   0.73988   0.50794 
 O                    -2.16384   1.9606    0.43536 
 C                     0.29385   0.85166  -0.37755 
 C                    -1.03446   1.30322  -2.5494 
 H                    -0.89621   1.68951  -3.56671 
 H                    -1.72811   0.45576  -2.55954 
 H                    -1.44694   2.06987  -1.88063 
 N                     0.2646    0.8449   -2.00521 
 H                     0.42402  -0.13245  -2.26859 
 H                     1.05333   1.38427  -2.37271 
 C                     1.72393   0.54972   0.0103 
 C                     2.45762  -0.52277  -0.51081 
 C                     3.76642  -0.76039  -0.09144 
 C                     4.35903   0.0653    0.86076 
 C                     3.63461   1.13216   1.39227 
 C                     2.33141   1.37268   0.96664 
 H                     2.00527  -1.21181  -1.22854 
 H                     4.32038  -1.60579  -0.50515 
 H                     5.38228  -0.12417   1.19176 
 H                     4.08818   1.78343   2.14247 
 H                     1.76522   2.206     1.39053 
 H                     0.05366   1.90005  -0.1513 
 Br                   -0.72721  -1.82578  -0.04811 
 O                    -2.9901   -0.06821   0.94814 
 C                    -4.184     0.57269   1.32992 
 H                    -4.87576  -0.22182   1.63697 
 H                    -4.01966   1.2673    2.16808 
 H                    -4.62054   1.14711   0.49797 
 

 GradGradGradGradGradGradGradGradGradGradGradGradGradGradGradGradGradGrad
 Berny optimization.
 Initialization pass.
                           ----------------------------
                           !    Initial Parameters    !
                           ! (Angstroms and Degrees)  !
 --------------------------                            --------------------------
 ! Name  Definition              Value          Derivative Info.                !
 --------------------------------------------------------------------------------
 ! R1    R(1,2)                  1.4205         calculate D2E/DX2 analytically  !
 ! R2    R(1,4)                  1.4434         calculate D2E/DX2 analytically  !
 ! R3    R(1,24)                 1.9072         calculate D2E/DX2 analytically  !
 ! R4    R(2,3)                  1.2341         calculate D2E/DX2 analytically  !
 ! R5    R(2,25)                 1.3534         calculate D2E/DX2 analytically  !
 ! R6    R(4,9)                  1.6279         calculate D2E/DX2 analytically  !
 ! R7    R(4,12)                 1.5122         calculate D2E/DX2 analytically  !
 ! R8    R(4,23)                 1.0991         calculate D2E/DX2 analytically  !
 ! R9    R(5,6)                  1.0969         calculate D2E/DX2 analytically  !
 ! R10   R(5,7)                  1.0952         calculate D2E/DX2 analytically  !
 ! R11   R(5,8)                  1.0978         calculate D2E/DX2 analytically  !
 ! R12   R(5,9)                  1.4811         calculate D2E/DX2 analytically  !
 ! R13   R(9,10)                 1.0247         calculate D2E/DX2 analytically  !
 ! R14   R(9,11)                 1.0238         calculate D2E/DX2 analytically  !
 ! R15   R(12,13)                1.4            calculate D2E/DX2 analytically  !
 ! R16   R(12,17)                1.4003         calculate D2E/DX2 analytically  !
 ! R17   R(13,14)                1.3947         calculate D2E/DX2 analytically  !
 ! R18   R(13,18)                1.0929         calculate D2E/DX2 analytically  !
 ! R19   R(14,15)                1.3927         calculate D2E/DX2 analytically  !
 ! R20   R(14,19)                1.0921         calculate D2E/DX2 analytically  !
 ! R21   R(15,16)                1.3948         calculate D2E/DX2 analytically  !
 ! R22   R(15,20)                1.092          calculate D2E/DX2 analytically  !
 ! R23   R(16,17)                1.3919         calculate D2E/DX2 analytically  !
 ! R24   R(16,21)                1.0921         calculate D2E/DX2 analytically  !
 ! R25   R(17,22)                1.093          calculate D2E/DX2 analytically  !
 ! R26   R(25,26)                1.4078         calculate D2E/DX2 analytically  !
 ! R27   R(26,27)                1.0973         calculate D2E/DX2 analytically  !
 ! R28   R(26,28)                1.1009         calculate D2E/DX2 analytically  !
 ! R29   R(26,29)                1.1012         calculate D2E/DX2 analytically  !
 ! A1    A(2,1,4)              118.3416         calculate D2E/DX2 analytically  !
 ! A2    A(2,1,24)             121.7422         calculate D2E/DX2 analytically  !
 ! A3    A(4,1,24)             118.1674         calculate D2E/DX2 analytically  !
 ! A4    A(1,2,3)              124.4799         calculate D2E/DX2 analytically  !
 ! A5    A(1,2,25)             114.7914         calculate D2E/DX2 analytically  !
 ! A6    A(3,2,25)             120.7286         calculate D2E/DX2 analytically  !
 ! A7    A(1,4,9)              110.6458         calculate D2E/DX2 analytically  !
 ! A8    A(1,4,12)             120.7698         calculate D2E/DX2 analytically  !
 ! A9    A(1,4,23)             106.0238         calculate D2E/DX2 analytically  !
 ! A10   A(9,4,12)             105.8191         calculate D2E/DX2 analytically  !
 ! A11   A(9,4,23)             101.8793         calculate D2E/DX2 analytically  !
 ! A12   A(12,4,23)            110.141          calculate D2E/DX2 analytically  !
 ! A13   A(6,5,7)              110.1047         calculate D2E/DX2 analytically  !
 ! A14   A(6,5,8)              111.494          calculate D2E/DX2 analytically  !
 ! A15   A(6,5,9)              109.8267         calculate D2E/DX2 analytically  !
 ! A16   A(7,5,8)              107.942          calculate D2E/DX2 analytically  !
 ! A17   A(7,5,9)              108.6303         calculate D2E/DX2 analytically  !
 ! A18   A(8,5,9)              108.773          calculate D2E/DX2 analytically  !
 ! A19   A(4,9,5)              112.4468         calculate D2E/DX2 analytically  !
 ! A20   A(4,9,10)             104.9606         calculate D2E/DX2 analytically  !
 ! A21   A(4,9,11)             110.0525         calculate D2E/DX2 analytically  !
 ! A22   A(5,9,10)             109.7038         calculate D2E/DX2 analytically  !
 ! A23   A(5,9,11)             112.3833         calculate D2E/DX2 analytically  !
 ! A24   A(10,9,11)            106.8809         calculate D2E/DX2 analytically  !
 ! A25   A(4,12,13)            123.5791         calculate D2E/DX2 analytically  !
 ! A26   A(4,12,17)            117.9096         calculate D2E/DX2 analytically  !
 ! A27   A(13,12,17)           118.4937         calculate D2E/DX2 analytically  !
 ! A28   A(12,13,14)           120.6875         calculate D2E/DX2 analytically  !
 ! A29   A(12,13,18)           120.696          calculate D2E/DX2 analytically  !
 ! A30   A(14,13,18)           118.5827         calculate D2E/DX2 analytically  !
 ! A31   A(13,14,15)           120.2558         calculate D2E/DX2 analytically  !
 ! A32   A(13,14,19)           119.6011         calculate D2E/DX2 analytically  !
 ! A33   A(15,14,19)           120.1388         calculate D2E/DX2 analytically  !
 ! A34   A(14,15,16)           119.5387         calculate D2E/DX2 analytically  !
 ! A35   A(14,15,20)           120.2044         calculate D2E/DX2 analytically  !
 ! A36   A(16,15,20)           120.2564         calculate D2E/DX2 analytically  !
 ! A37   A(15,16,17)           120.1274         calculate D2E/DX2 analytically  !
 ! A38   A(15,16,21)           120.1454         calculate D2E/DX2 analytically  !
 ! A39   A(17,16,21)           119.727          calculate D2E/DX2 analytically  !
 ! A40   A(12,17,16)           120.8947         calculate D2E/DX2 analytically  !
 ! A41   A(12,17,22)           119.2225         calculate D2E/DX2 analytically  !
 ! A42   A(16,17,22)           119.8781         calculate D2E/DX2 analytically  !
 ! A43   A(2,25,26)            115.993          calculate D2E/DX2 analytically  !
 ! A44   A(25,26,27)           106.3135         calculate D2E/DX2 analytically  !
 ! A45   A(25,26,28)           111.5372         calculate D2E/DX2 analytically  !
 ! A46   A(25,26,29)           111.6402         calculate D2E/DX2 analytically  !
 ! A47   A(27,26,28)           109.7495         calculate D2E/DX2 analytically  !
 ! A48   A(27,26,29)           109.827          calculate D2E/DX2 analytically  !
 ! A49   A(28,26,29)           107.7725         calculate D2E/DX2 analytically  !
 ! D1    D(4,1,2,3)             -2.5847         calculate D2E/DX2 analytically  !
 ! D2    D(4,1,2,25)           177.4731         calculate D2E/DX2 analytically  !
 ! D3    D(24,1,2,3)          -167.2399         calculate D2E/DX2 analytically  !
 ! D4    D(24,1,2,25)           12.8179         calculate D2E/DX2 analytically  !
 ! D5    D(2,1,4,9)            -94.7574         calculate D2E/DX2 analytically  !
 ! D6    D(2,1,4,12)           140.9529         calculate D2E/DX2 analytically  !
 ! D7    D(2,1,4,23)            14.9419         calculate D2E/DX2 analytically  !
 ! D8    D(24,1,4,9)            70.4526         calculate D2E/DX2 analytically  !
 ! D9    D(24,1,4,12)          -53.8371         calculate D2E/DX2 analytically  !
 ! D10   D(24,1,4,23)         -179.8481         calculate D2E/DX2 analytically  !
 ! D11   D(1,2,25,26)          178.8307         calculate D2E/DX2 analytically  !
 ! D12   D(3,2,25,26)           -1.1139         calculate D2E/DX2 analytically  !
 ! D13   D(1,4,9,5)             55.1662         calculate D2E/DX2 analytically  !
 ! D14   D(1,4,9,10)           -64.0423         calculate D2E/DX2 analytically  !
 ! D15   D(1,4,9,11)          -178.7193         calculate D2E/DX2 analytically  !
 ! D16   D(12,4,9,5)          -172.3815         calculate D2E/DX2 analytically  !
 ! D17   D(12,4,9,10)           68.4101         calculate D2E/DX2 analytically  !
 ! D18   D(12,4,9,11)          -46.2669         calculate D2E/DX2 analytically  !
 ! D19   D(23,4,9,5)           -57.2106         calculate D2E/DX2 analytically  !
 ! D20   D(23,4,9,10)         -176.4191         calculate D2E/DX2 analytically  !
 ! D21   D(23,4,9,11)           68.9039         calculate D2E/DX2 analytically  !
 ! D22   D(1,4,12,13)           76.6626         calculate D2E/DX2 analytically  !
 ! D23   D(1,4,12,17)         -101.7839         calculate D2E/DX2 analytically  !
 ! D24   D(9,4,12,13)          -49.8648         calculate D2E/DX2 analytically  !
 ! D25   D(9,4,12,17)          131.6887         calculate D2E/DX2 analytically  !
 ! D26   D(23,4,12,13)        -159.2432         calculate D2E/DX2 analytically  !
 ! D27   D(23,4,12,17)          22.3104         calculate D2E/DX2 analytically  !
 ! D28   D(6,5,9,4)            155.9588         calculate D2E/DX2 analytically  !
 ! D29   D(6,5,9,10)           -87.6409         calculate D2E/DX2 analytically  !
 ! D30   D(6,5,9,11)            31.1139         calculate D2E/DX2 analytically  !
 ! D31   D(7,5,9,4)            -83.5669         calculate D2E/DX2 analytically  !
 ! D32   D(7,5,9,10)            32.8334         calculate D2E/DX2 analytically  !
 ! D33   D(7,5,9,11)           151.5882         calculate D2E/DX2 analytically  !
 ! D34   D(8,5,9,4)             33.6876         calculate D2E/DX2 analytically  !
 ! D35   D(8,5,9,10)           150.0879         calculate D2E/DX2 analytically  !
 ! D36   D(8,5,9,11)           -91.1573         calculate D2E/DX2 analytically  !
 ! D37   D(4,12,13,14)        -178.7905         calculate D2E/DX2 analytically  !
 ! D38   D(4,12,13,18)          -0.9363         calculate D2E/DX2 analytically  !
 ! D39   D(17,12,13,14)         -0.3526         calculate D2E/DX2 analytically  !
 ! D40   D(17,12,13,18)        177.5016         calculate D2E/DX2 analytically  !
 ! D41   D(4,12,17,16)         178.4873         calculate D2E/DX2 analytically  !
 ! D42   D(4,12,17,22)          -0.7225         calculate D2E/DX2 analytically  !
 ! D43   D(13,12,17,16)         -0.04           calculate D2E/DX2 analytically  !
 ! D44   D(13,12,17,22)       -179.2498         calculate D2E/DX2 analytically  !
 ! D45   D(12,13,14,15)          0.3816         calculate D2E/DX2 analytically  !
 ! D46   D(12,13,14,19)        179.6274         calculate D2E/DX2 analytically  !
 ! D47   D(18,13,14,15)       -177.5172         calculate D2E/DX2 analytically  !
 ! D48   D(18,13,14,19)          1.7286         calculate D2E/DX2 analytically  !
 ! D49   D(13,14,15,16)         -0.0124         calculate D2E/DX2 analytically  !
 ! D50   D(13,14,15,20)        179.7285         calculate D2E/DX2 analytically  !
 ! D51   D(19,14,15,16)       -179.2542         calculate D2E/DX2 analytically  !
 ! D52   D(19,14,15,20)          0.4867         calculate D2E/DX2 analytically  !
 ! D53   D(14,15,16,17)         -0.3775         calculate D2E/DX2 analytically  !
 ! D54   D(14,15,16,21)        179.7508         calculate D2E/DX2 analytically  !
 ! D55   D(20,15,16,17)        179.8817         calculate D2E/DX2 analytically  !
 ! D56   D(20,15,16,21)          0.01           calculate D2E/DX2 analytically  !
 ! D57   D(15,16,17,12)          0.4058         calculate D2E/DX2 analytically  !
 ! D58   D(15,16,17,22)        179.6105         calculate D2E/DX2 analytically  !
 ! D59   D(21,16,17,12)       -179.7219         calculate D2E/DX2 analytically  !
 ! D60   D(21,16,17,22)         -0.5173         calculate D2E/DX2 analytically  !
 ! D61   D(2,25,26,27)         178.9338         calculate D2E/DX2 analytically  !
 ! D62   D(2,25,26,28)         -61.4611         calculate D2E/DX2 analytically  !
 ! D63   D(2,25,26,29)          59.1766         calculate D2E/DX2 analytically  !
 --------------------------------------------------------------------------------
 Trust Radius=1.00D-01 FncErr=1.00D-07 GrdErr=1.00D-07 EigMax=2.50D+02 EigMin=1.00D-04
 Number of steps in this run=     50 maximum allowed number of steps=    174.
 Search for a saddle point of order  1.
 GradGradGradGradGradGradGradGradGradGradGradGradGradGradGradGradGradGrad

                          Input orientation:                          
 ---------------------------------------------------------------------
 Center     Atomic      Atomic             Coordinates (Angstroms)
 Number     Number       Type             X           Y           Z
 ---------------------------------------------------------------------
      1          6           0       -0.796350    0.069430    0.154290
      2          6           0       -1.997650    0.739880    0.507940
      3          8           0       -2.163840    1.960600    0.435360
      4          6           0        0.293850    0.851660   -0.377550
      5          6           0       -1.034460    1.303220   -2.549400
      6          1           0       -0.896210    1.689510   -3.566710
      7          1           0       -1.728110    0.455760   -2.559540
      8          1           0       -1.446940    2.069870   -1.880630
      9          7           0        0.264600    0.844900   -2.005210
     10          1           0        0.424020   -0.132450   -2.268590
     11          1           0        1.053330    1.384270   -2.372710
     12          6           0        1.723930    0.549720    0.010300
     13          6           0        2.457620   -0.522770   -0.510810
     14          6           0        3.766420   -0.760390   -0.091440
     15          6           0        4.359030    0.065300    0.860760
     16          6           0        3.634610    1.132160    1.392270
     17          6           0        2.331410    1.372680    0.966640
     18          1           0        2.005270   -1.211810   -1.228540
     19          1           0        4.320380   -1.605790   -0.505150
     20          1           0        5.382280   -0.124170    1.191760
     21          1           0        4.088180    1.783430    2.142470
     22          1           0        1.765220    2.206000    1.390530
     23          1           0        0.053660    1.900050   -0.151300
     24         35           0       -0.727210   -1.825780   -0.048110
     25          8           0       -2.990100   -0.068210    0.948140
     26          6           0       -4.184000    0.572690    1.329920
     27          1           0       -4.875760   -0.221820    1.636970
     28          1           0       -4.019660    1.267300    2.168080
     29          1           0       -4.620540    1.147110    0.497970
 ---------------------------------------------------------------------
                    Distance matrix (angstroms):
                    1          2          3          4          5
     1  C    0.000000
     2  C    1.420455   0.000000
     3  O    2.350650   1.234117   0.000000
     4  C    1.443355   2.459179   2.816170   0.000000
     5  C    2.981421   3.254599   3.258288   2.585584   0.000000
     6  H    4.059615   4.326400   4.206773   3.505564   1.096929
     7  H    2.895220   3.092379   3.379916   3.001023   1.095190
     8  H    2.926760   2.788803   2.426869   2.602621   1.097791
     9  N    2.527926   3.383006   3.619184   1.627937   1.481134
    10  H    2.720369   3.786101   4.288266   2.135755   2.065712
    11  H    3.396447   4.245216   4.309013   2.200261   2.096820
    12  C    2.569674   3.759516   4.157645   1.512192   3.837778
    13  C    3.373630   4.741473   5.331065   2.566850   4.436746
    14  C    4.644120   5.986198   6.545937   3.839180   5.774816
    15  C    5.203562   6.402103   6.805950   4.321743   6.500106
    16  C    4.721800   5.714742   5.934982   3.790992   6.112793
    17  C    3.484430   4.399046   4.564557   2.495989   4.867899
    18  H    3.376813   4.779940   5.496747   2.812659   4.160529
    19  H    5.424219   6.815132   7.459813   4.718928   6.427722
    20  H    6.268117   7.461740   7.865261   5.413603   7.563615
    21  H    5.545204   6.387332   6.483315   4.649262   6.963166
    22  H    3.557367   4.133723   4.050936   2.669321   4.916937
    23  H    2.041341   2.447134   2.294590   1.099091   2.700203
    24  Br   1.907241   2.916474   4.078520   2.884403   4.017648
    25  O    2.337024   1.353419   2.249826   3.658954   4.235343
    26  C    3.620987   2.341737   2.609134   4.800460   5.049990
    27  H    4.350259   3.237760   3.682572   5.651152   5.882774
    28  H    3.984968   2.668850   2.631929   5.025869   5.582771
    29  H    3.987974   2.654334   2.588641   5.000505   4.708588
                    6          7          8          9         10
     6  H    0.000000
     7  H    1.796827   0.000000
     8  H    1.814068   1.773507   0.000000
     9  N    2.121115   2.104663   2.108421   0.000000
    10  H    2.597626   2.249957   2.915685   1.024694   0.000000
    11  H    2.306407   2.938272   2.638852   1.023754   1.645391
    12  C    4.578128   4.304589   3.992604   2.505804   2.710805
    13  C    5.047859   4.761843   4.883009   2.985480   2.716187
    14  C    6.310280   6.144949   6.196023   4.301420   4.038060
    15  C    7.061027   6.993153   6.726277   5.058252   5.031525
    16  C    6.740212   6.695751   6.116643   4.793992   5.030807
    17  C    5.573973   5.454759   4.782149   3.658162   4.046019
    18  H    4.722635   4.300055   4.807536   2.804141   2.178778
    19  H    6.888030   6.712283   6.975988   4.970454   4.523502
    20  H    8.084053   8.060162   7.803309   6.111494   6.046357
    21  H    7.579426   7.596107   6.848718   5.718728   6.046000
    22  H    5.650150   5.556055   4.586610   3.954175   4.544923
    23  H    3.551282   3.325703   2.295914   2.143553   2.958233
    24  Br   4.976582   3.537585   4.364886   3.456365   3.020468
    25  O    5.278051   3.764437   3.867127   4.488777   4.691236
    26  C    6.002819   4.601409   4.476681   5.566618   5.889002
    27  H    6.824096   5.289377   5.420531   6.389575   6.584000
    28  H    6.543853   5.316031   4.863647   5.995803   6.433477
    29  H    5.539536   4.265265   4.071973   5.497439   5.893956
                   11         12         13         14         15
    11  H    0.000000
    12  C    2.612454   0.000000
    13  C    3.012558   1.400033   0.000000
    14  C    4.143020   2.428684   1.394737   0.000000
    15  C    4.808603   2.810996   2.417104   1.392708   0.000000
    16  C    4.571831   2.428945   2.783130   2.408426   1.394804
    17  C    3.575595   1.400315   2.406557   2.780067   2.414890
    18  H    2.992482   2.171834   1.092947   2.144394   3.396523
    19  H    4.806439   3.413717   2.154725   1.092121   2.158644
    20  H    5.806948   3.903012   3.407530   2.159255   1.092017
    21  H    5.454951   3.414362   3.875201   3.400721   2.160581
    22  H    3.917142   2.156387   3.397160   3.873049   3.404571
    23  H    2.489986   2.153905   3.431957   4.567944   4.788192
    24  Br   4.344941   3.413869   3.472041   4.618403   5.502006
    25  O    5.430200   4.845974   5.657987   6.870983   7.350862
    26  C    6.465118   6.053558   6.978498   8.185753   8.570934
    27  H    7.335610   6.840851   7.647352   8.829764   9.271801
    28  H    6.809382   6.177359   7.234360   8.357033   8.564831
    29  H    6.363163   6.391165   7.342104   8.621314   9.051774
                   16         17         18         19         20
    16  C    0.000000
    17  C    1.391884   0.000000
    18  H    3.875253   3.406578   0.000000
    19  H    3.401008   3.872138   2.457285   0.000000
    20  H    2.161694   3.405737   4.294765   2.490448   0.000000
    21  H    1.092098   2.153493   4.967261   4.307043   2.493488
    22  H    2.155865   1.093012   4.312607   4.965097   4.307241
    23  H    3.974351   2.591535   3.827911   5.533627   5.856233
    24  Br   5.463477   4.540377   3.039214   5.073012   6.462091
    25  O    6.747216   5.513164   5.567718   7.610474   8.376111
    26  C    7.838849   6.574384   6.930889   8.968709   9.592623
    27  H    8.620878   7.411820   7.519295   9.543220  10.268161
    28  H    7.694673   6.464569   7.347299   9.217216   9.554364
    29  H    8.303463   6.971380   7.242009   9.408760  10.107122
                   21         22         23         24         25
    21  H    0.000000
    22  H    2.477927   0.000000
    23  H    4.642449   2.323851   0.000000
    24  Br   6.404141   4.953498   3.808177   0.000000
    25  O    7.413302   5.289689   3.787782   3.033519   0.000000
    26  C    8.399708   6.169651   4.681203   4.427304   1.407802
    27  H    9.199390   7.075144   5.656803   4.756327   2.013404
    28  H    8.124292   5.911901   4.729887   5.031786   2.081306
    29  H    8.885442   6.534206   4.778767   4.928925   2.082784
                   26         27         28         29
    26  C    0.000000
    27  H    1.097296   0.000000
    28  H    1.100910   1.797905   0.000000
    29  H    1.101211   1.799007   1.778980   0.000000
 Stoichiometry    C11H14BrNO2
 Framework group  C1[X(C11H14BrNO2)]
 Deg. of freedom    81
 Full point group                 C1      NOp   1
 Largest Abelian subgroup         C1      NOp   1
 Largest concise Abelian subgroup C1      NOp   1
                         Standard orientation:                         
 ---------------------------------------------------------------------
 Center     Atomic      Atomic             Coordinates (Angstroms)
 Number     Number       Type             X           Y           Z
 ---------------------------------------------------------------------
      1          6           0       -0.796349   -0.069431   -0.154291
      2          6           0       -1.997649   -0.739882   -0.507941
      3          8           0       -2.163839   -1.960602   -0.435361
      4          6           0        0.293851   -0.851661    0.377549
      5          6           0       -1.034459   -1.303221    2.549399
      6          1           0       -0.896209   -1.689511    3.566709
      7          1           0       -1.728109   -0.455762    2.559539
      8          1           0       -1.446939   -2.069871    1.880629
      9          7           0        0.264601   -0.844901    2.005209
     10          1           0        0.424021    0.132449    2.268589
     11          1           0        1.053331   -1.384271    2.372709
     12          6           0        1.723931   -0.549721   -0.010301
     13          6           0        2.457621    0.522770    0.510809
     14          6           0        3.766420    0.760390    0.091439
     15          6           0        4.359031   -0.065300   -0.860761
     16          6           0        3.634611   -1.132160   -1.392271
     17          6           0        2.331411   -1.372680   -0.966641
     18          1           0        2.005270    1.211810    1.228539
     19          1           0        4.320380    1.605790    0.505149
     20          1           0        5.382281    0.124171   -1.191761
     21          1           0        4.088181   -1.783430   -2.142471
     22          1           0        1.765221   -2.206001   -1.390531
     23          1           0        0.053661   -1.900051    0.151299
     24         35           0       -0.727210    1.825779    0.048109
     25          8           0       -2.990099    0.068208   -0.948141
     26          6           0       -4.183999   -0.572692   -1.329921
     27          1           0       -4.875759    0.221818   -1.636971
     28          1           0       -4.019659   -1.267302   -2.168081
     29          1           0       -4.620539   -1.147112   -0.497971
 ---------------------------------------------------------------------
 Rotational constants (GHZ):           0.6949602           0.2994793           0.2713052
 Standard basis: STO-3G (5D, 7F)
 There are   103 symmetry adapted cartesian basis functions of A   symmetry.
 There are   102 symmetry adapted basis functions of A   symmetry.
   102 basis functions,   309 primitive gaussians,   103 cartesian basis functions
    69 alpha electrons       69 beta electrons
       nuclear repulsion energy      1378.9819740700 Hartrees.
 NAtoms=   29 NActive=   29 NUniq=   29 SFac= 1.00D+00 NAtFMM=   60 NAOKFM=F Big=F
 Integral buffers will be    131072 words long.
 Raffenetti 1 integral format.
 Two-electron integral symmetry is turned on.
 External calculation of energy, first and second derivatives.
 Running external command "~/scripts/MiMe -H 'hf def2svp' -EF 'wb97xd def2svp' -c 12 -m 48GB R"
         input file       "/local/jobs/1158199/Gau-3861314.EIn"
         output file      "/local/jobs/1158199/Gau-3861314.EOu"
         message file     "/local/jobs/1158199/Gau-3861314.EMs"
         fchk file        "/local/jobs/1158199/Gau-3861314.EFC"
         mat. el file     "/local/jobs/1158199/Gau-3861314.EUF"
 Read checkpoint file Gau-3861314_H.chk type G16
 Write formatted file Gau-3861314_H.fchk

deriv: 2

spelevel: wb97xd def2svp
gradlevel: wb97xd def2svp
hesslevel: hf def2svp

runspe: False
runforce: True
runfreq: True

Running Gaussian ...

Parsing files ...
SPE file: Gau-3861314_F.out
FORCE file: Gau-3861314_F.out
HESS file: Gau-3861314_H.out

 ExternalExternalExternalExternalExternalExternalExternalExternalExternalExternal
 Output from external command:
 "~/scripts/MiMe -H 'hf def2svp' -EF 'wb97xd def2svp' -c 12 -m 48GB R /local/jobs/1158199/Gau-3861314.EIn /local/jobs/1158199/Gau-3861314.EOu /local/jobs/1158199/Gau-3861314.EMs /local/jobs/1158199/Gau-3861314.EFC /local/jobs/1158199/Gau-3861314.EUF"
  
 --------------------------------------------------
 Force calculation at wb97xd def2svp
 Hessian calculation at hf def2svp
 ExternalExternalExternalExternalExternalExternalExternalExternalExternalExternal

 Recovered energy= -3205.98976712     dipole=      3.702800000000     -1.570900000000      5.880700000000
 Energy=    -3205.98977     NIter=   0.
 Dipole moment=       3.702800      -1.570900       5.880700
 ***** Axes restored to original set *****
 -------------------------------------------------------------------
 Center     Atomic                   Forces (Hartrees/Bohr)
 Number     Number              X              Y              Z
 -------------------------------------------------------------------
      1        6          -0.000273927    0.000054980   -0.000669031
      2        6           0.000026705    0.000017390    0.000101166
      3        8          -0.000001715   -0.000008918   -0.000002224
      4        6          -0.000167177   -0.000489099    0.000525451
      5        6           0.000003612   -0.000111997   -0.000023364
      6        1          -0.000112249   -0.000598204   -0.000245776
      7        1          -0.000195398    0.000160368    0.000608796
      8        1           0.000290594    0.000439414   -0.000324083
      9        7          -0.000209777   -0.000235901   -0.000142959
     10        1           0.000547851    0.000259425   -0.000614059
     11        1          -0.000192312    0.000672863    0.000575976
     12        6          -0.000027423   -0.000215067   -0.000104644
     13        6          -0.000047494   -0.000106418    0.000133480
     14        6          -0.000003029    0.000006699   -0.000002003
     15        6          -0.000003567    0.000005017   -0.000002816
     16        6           0.000014773    0.000008430   -0.000002742
     17        6           0.000052707    0.000123627   -0.000140860
     18        1          -0.000004201    0.000004880   -0.000001305
     19        1           0.000004682    0.000005830   -0.000004426
     20        1           0.000001063   -0.000000445    0.000004851
     21        1          -0.000006759   -0.000005232    0.000007138
     22        1           0.000001434   -0.000002332    0.000000199
     23        1           0.000205485    0.000028507    0.000089841
     24       35           0.000099467   -0.000006876    0.000248820
     25        8           0.000002482   -0.000005474   -0.000016591
     26        6          -0.000008442    0.000005052    0.000004409
     27        1           0.000003435   -0.000000469    0.000001767
     28        1          -0.000000773    0.000002012   -0.000005000
     29        1          -0.000000044   -0.000008064   -0.000000013
 -------------------------------------------------------------------
 Cartesian Forces:  Max     0.000672863 RMS     0.000221770
 FormGI is forming the generalized inverse of G from B-inverse, IUseBI=4.

 GradGradGradGradGradGradGradGradGradGradGradGradGradGradGradGradGradGrad
 Berny optimization.
 Internal  Forces:  Max     0.000446938 RMS     0.000121900
 Search for a saddle point.
 Step number   1 out of a maximum of   50
 All quantities printed in internal units (Hartrees-Bohrs-Radians)
 Swapping is turned off.
 Second derivative matrix not updated -- analytic derivatives used.
 ITU=  0
     Eigenvalues ---    0.00352   0.00595   0.01048   0.01071   0.01235
     Eigenvalues ---    0.01944   0.02276   0.02356   0.02423   0.02689
     Eigenvalues ---    0.02746   0.03161   0.03210   0.03500   0.03554
     Eigenvalues ---    0.03699   0.04119   0.04206   0.05001   0.05628
     Eigenvalues ---    0.05925   0.06669   0.06770   0.07556   0.08105
     Eigenvalues ---    0.10227   0.10281   0.11198   0.11484   0.12906
     Eigenvalues ---    0.13036   0.13989   0.14371   0.14650   0.15356
     Eigenvalues ---    0.15803   0.16211   0.17461   0.20111   0.21305
     Eigenvalues ---    0.21929   0.22108   0.22157   0.22491   0.22534
     Eigenvalues ---    0.22723   0.23215   0.25151   0.25636   0.27828
     Eigenvalues ---    0.29807   0.30353   0.31852   0.34657   0.34993
     Eigenvalues ---    0.35273   0.35656   0.36143   0.36176   0.36360
     Eigenvalues ---    0.36755   0.37145   0.37399   0.37528   0.37567
     Eigenvalues ---    0.37712   0.38107   0.39242   0.42285   0.45163
     Eigenvalues ---    0.45285   0.46248   0.47189   0.48446   0.50631
     Eigenvalues ---    0.52525   0.52837   0.54627   0.56050   0.56845
     Eigenvalues ---    0.80087
 Eigenvectors required to have negative eigenvalues:
                          D33       D30       D32       D29       D36
   1                    0.30933   0.30645   0.30498   0.30210   0.29697
                          D35       D31       D28       D34       D9
   1                    0.29261   0.28224   0.27937   0.26988   0.15316
 RFO step:  Lambda0=4.038374397D-03 Lambda=-7.38501312D-08.
 Linear search not attempted -- option 19 set.
 Iteration  1 RMS(Cart)=  0.00041225 RMS(Int)=  0.00000017
 Iteration  2 RMS(Cart)=  0.00000017 RMS(Int)=  0.00000000
 Variable       Old X    -DE/DX   Delta X   Delta X   Delta X     New X
                                 (Linear)    (Quad)   (Total)
    R1        2.68427   0.00001   0.00000  -0.00002  -0.00002   2.68425
    R2        2.72755  -0.00004   0.00000  -0.00000  -0.00000   2.72754
    R3        3.60416  -0.00002   0.00000  -0.00001  -0.00001   3.60415
    R4        2.33214  -0.00001   0.00000   0.00001   0.00001   2.33215
    R5        2.55759  -0.00000   0.00000  -0.00000  -0.00000   2.55759
    R6        3.07635   0.00016   0.00000   0.00007   0.00007   3.07642
    R7        2.85763  -0.00001   0.00000  -0.00001  -0.00001   2.85762
    R8        2.07698   0.00000   0.00000   0.00001   0.00001   2.07699
    R9        2.07289   0.00000   0.00000   0.00000   0.00000   2.07289
   R10        2.06961  -0.00001   0.00000  -0.00001  -0.00001   2.06959
   R11        2.07452   0.00000   0.00000   0.00001   0.00001   2.07453
   R12        2.79894  -0.00003   0.00000   0.00003   0.00003   2.79897
   R13        1.93639  -0.00000   0.00000  -0.00001  -0.00001   1.93638
   R14        1.93461  -0.00000   0.00000  -0.00000  -0.00000   1.93461
   R15        2.64568  -0.00000   0.00000  -0.00000  -0.00000   2.64568
   R16        2.64621   0.00000   0.00000   0.00000   0.00000   2.64622
   R17        2.63567  -0.00000   0.00000  -0.00001  -0.00001   2.63566
   R18        2.06537   0.00000   0.00000   0.00000   0.00000   2.06537
   R19        2.63184   0.00000   0.00000   0.00000   0.00000   2.63184
   R20        2.06381   0.00000   0.00000   0.00000   0.00000   2.06381
   R21        2.63580  -0.00000   0.00000  -0.00000  -0.00000   2.63579
   R22        2.06361   0.00000   0.00000   0.00001   0.00001   2.06362
   R23        2.63028   0.00001   0.00000   0.00001   0.00001   2.63029
   R24        2.06377  -0.00000   0.00000  -0.00001  -0.00001   2.06376
   R25        2.06549  -0.00000   0.00000  -0.00001  -0.00001   2.06548
   R26        2.66036   0.00001   0.00000   0.00002   0.00002   2.66038
   R27        2.07359  -0.00000   0.00000  -0.00001  -0.00001   2.07358
   R28        2.08042  -0.00000   0.00000  -0.00001  -0.00001   2.08041
   R29        2.08099  -0.00000   0.00000  -0.00001  -0.00001   2.08098
    A1        2.06545  -0.00001   0.00000   0.00002   0.00002   2.06547
    A2        2.12480   0.00001   0.00000  -0.00001  -0.00001   2.12479
    A3        2.06241   0.00005   0.00000   0.00005   0.00005   2.06246
    A4        2.17258   0.00000   0.00000   0.00001   0.00001   2.17259
    A5        2.00349  -0.00000   0.00000   0.00000   0.00000   2.00349
    A6        2.10711  -0.00000   0.00000  -0.00001  -0.00001   2.10710
    A7        1.93113   0.00004   0.00000   0.00000   0.00000   1.93114
    A8        2.10783   0.00003   0.00000   0.00004   0.00004   2.10787
    A9        1.85046   0.00001   0.00000  -0.00000  -0.00000   1.85046
   A10        1.84689  -0.00005   0.00000  -0.00003  -0.00003   1.84686
   A11        1.77813  -0.00007   0.00000  -0.00004  -0.00004   1.77809
   A12        1.92232   0.00001   0.00000   0.00001   0.00001   1.92233
   A13        1.92169   0.00000   0.00000  -0.00003  -0.00003   1.92166
   A14        1.94594   0.00001   0.00000  -0.00002  -0.00002   1.94592
   A15        1.91684   0.00001   0.00000  -0.00000  -0.00000   1.91683
   A16        1.88394  -0.00001   0.00000   0.00002   0.00002   1.88396
   A17        1.89596  -0.00000   0.00000   0.00005   0.00005   1.89600
   A18        1.89845  -0.00000   0.00000  -0.00001  -0.00001   1.89844
   A19        1.96257  -0.00001   0.00000  -0.00000  -0.00000   1.96257
   A20        1.83191   0.00003   0.00000  -0.00001  -0.00001   1.83190
   A21        1.92078  -0.00003   0.00000  -0.00002  -0.00002   1.92076
   A22        1.91469   0.00001   0.00000   0.00004   0.00004   1.91473
   A23        1.96146   0.00000   0.00000   0.00001   0.00001   1.96146
   A24        1.86542  -0.00000   0.00000  -0.00002  -0.00002   1.86540
   A25        2.15686  -0.00001   0.00000  -0.00002  -0.00002   2.15684
   A26        2.05791   0.00000   0.00000   0.00002   0.00002   2.05793
   A27        2.06810   0.00000   0.00000   0.00000   0.00000   2.06811
   A28        2.10639   0.00000   0.00000   0.00000   0.00000   2.10640
   A29        2.10654  -0.00001   0.00000  -0.00002  -0.00002   2.10652
   A30        2.06966   0.00001   0.00000   0.00002   0.00002   2.06968
   A31        2.09886   0.00000   0.00000  -0.00000  -0.00000   2.09886
   A32        2.08743   0.00000   0.00000  -0.00000  -0.00000   2.08743
   A33        2.09682  -0.00000   0.00000   0.00000   0.00000   2.09682
   A34        2.08634   0.00000   0.00000   0.00001   0.00001   2.08635
   A35        2.09796  -0.00000   0.00000  -0.00000  -0.00000   2.09796
   A36        2.09887  -0.00000   0.00000  -0.00000  -0.00000   2.09887
   A37        2.09662  -0.00000   0.00000  -0.00000  -0.00000   2.09662
   A38        2.09693   0.00000   0.00000   0.00000   0.00000   2.09694
   A39        2.08963  -0.00000   0.00000  -0.00000  -0.00000   2.08963
   A40        2.11001  -0.00000   0.00000  -0.00001  -0.00001   2.11000
   A41        2.08082   0.00000   0.00000   0.00001   0.00001   2.08083
   A42        2.09227  -0.00000   0.00000  -0.00000  -0.00000   2.09227
   A43        2.02446  -0.00000   0.00000  -0.00000  -0.00000   2.02446
   A44        1.85552  -0.00000   0.00000  -0.00001  -0.00001   1.85551
   A45        1.94669   0.00000   0.00000   0.00000   0.00000   1.94669
   A46        1.94849  -0.00000   0.00000  -0.00000  -0.00000   1.94849
   A47        1.91549   0.00000   0.00000   0.00002   0.00002   1.91551
   A48        1.91684   0.00000   0.00000  -0.00001  -0.00001   1.91683
   A49        1.88098   0.00000   0.00000   0.00001   0.00001   1.88099
    D1       -0.04511   0.00011   0.00000   0.00028   0.00028  -0.04483
    D2        3.09749   0.00011   0.00000   0.00029   0.00029   3.09778
    D3       -2.91889  -0.00011   0.00000   0.00003   0.00003  -2.91886
    D4        0.22371  -0.00011   0.00000   0.00004   0.00004   0.22375
    D5       -1.65383   0.00002   0.00000  -0.00003  -0.00003  -1.65386
    D6        2.46009   0.00002   0.00000  -0.00003  -0.00003   2.46006
    D7        0.26078  -0.00004   0.00000  -0.00007  -0.00007   0.26072
    D8        1.22963   0.00022   0.00000   0.00021   0.00021   1.22984
    D9       -0.93964   0.00023   0.00000   0.00021   0.00021  -0.93943
   D10       -3.13894   0.00017   0.00000   0.00017   0.00017  -3.13878
   D11        3.12118   0.00000   0.00000   0.00016   0.00016   3.12134
   D12       -0.01944   0.00000   0.00000   0.00017   0.00017  -0.01927
   D13        0.96283  -0.00012   0.00000  -0.00005  -0.00005   0.96279
   D14       -1.11775  -0.00015   0.00000  -0.00008  -0.00008  -1.11783
   D15       -3.11924  -0.00015   0.00000  -0.00005  -0.00005  -3.11929
   D16       -3.00862  -0.00009   0.00000  -0.00001  -0.00001  -3.00863
   D17        1.19398  -0.00012   0.00000  -0.00005  -0.00005   1.19393
   D18       -0.80751  -0.00012   0.00000  -0.00002  -0.00002  -0.80753
   D19       -0.99851  -0.00012   0.00000  -0.00003  -0.00003  -0.99854
   D20       -3.07909  -0.00015   0.00000  -0.00007  -0.00007  -3.07916
   D21        1.20260  -0.00015   0.00000  -0.00003  -0.00003   1.20256
   D22        1.33801  -0.00013   0.00000  -0.00032  -0.00032   1.33769
   D23       -1.77646  -0.00015   0.00000  -0.00035  -0.00035  -1.77681
   D24       -0.87031  -0.00016   0.00000  -0.00033  -0.00033  -0.87064
   D25        2.29840  -0.00018   0.00000  -0.00036  -0.00036   2.29804
   D26       -2.77932  -0.00007   0.00000  -0.00028  -0.00028  -2.77960
   D27        0.38939  -0.00008   0.00000  -0.00031  -0.00031   0.38908
   D28        2.72199   0.00039   0.00000  -0.00097  -0.00097   2.72103
   D29       -1.52962   0.00044   0.00000  -0.00095  -0.00095  -1.53058
   D30        0.54304   0.00044   0.00000  -0.00095  -0.00095   0.54209
   D31       -1.45852   0.00040   0.00000  -0.00097  -0.00097  -1.45949
   D32        0.57305   0.00044   0.00000  -0.00096  -0.00096   0.57209
   D33        2.64571   0.00045   0.00000  -0.00095  -0.00095   2.64476
   D34        0.58796   0.00038   0.00000  -0.00093  -0.00093   0.58703
   D35        2.61953   0.00042   0.00000  -0.00092  -0.00092   2.61861
   D36       -1.59099   0.00043   0.00000  -0.00091  -0.00091  -1.59191
   D37       -3.12048  -0.00002   0.00000  -0.00002  -0.00002  -3.12051
   D38       -0.01634  -0.00001   0.00000  -0.00005  -0.00005  -0.01639
   D39       -0.00615   0.00000   0.00000   0.00001   0.00001  -0.00615
   D40        3.09799   0.00001   0.00000  -0.00002  -0.00002   3.09797
   D41        3.11519   0.00001   0.00000   0.00002   0.00002   3.11521
   D42       -0.01261   0.00001   0.00000   0.00002   0.00002  -0.01259
   D43       -0.00070  -0.00001   0.00000  -0.00001  -0.00001  -0.00071
   D44       -3.12850  -0.00000   0.00000  -0.00001  -0.00001  -3.12851
   D45        0.00666   0.00000   0.00000   0.00000   0.00000   0.00666
   D46        3.13509   0.00001   0.00000  -0.00000  -0.00000   3.13509
   D47       -3.09826  -0.00000   0.00000   0.00003   0.00003  -3.09823
   D48        0.03017  -0.00000   0.00000   0.00002   0.00002   0.03019
   D49       -0.00022  -0.00000   0.00000  -0.00001  -0.00001  -0.00023
   D50        3.13685  -0.00000   0.00000   0.00000   0.00000   3.13685
   D51       -3.12858  -0.00001   0.00000  -0.00001  -0.00001  -3.12858
   D52        0.00850  -0.00001   0.00000   0.00001   0.00001   0.00850
   D53       -0.00659  -0.00000   0.00000   0.00001   0.00001  -0.00658
   D54        3.13724  -0.00000   0.00000   0.00001   0.00001   3.13725
   D55        3.13953  -0.00000   0.00000  -0.00000  -0.00000   3.13953
   D56        0.00017  -0.00000   0.00000  -0.00000  -0.00000   0.00017
   D57        0.00708   0.00001   0.00000  -0.00000  -0.00000   0.00708
   D58        3.13479   0.00000   0.00000  -0.00000  -0.00000   3.13479
   D59       -3.13674   0.00001   0.00000   0.00000   0.00000  -3.13674
   D60       -0.00903   0.00001   0.00000   0.00000   0.00000  -0.00903
   D61        3.12298   0.00001   0.00000   0.00030   0.00030   3.12328
   D62       -1.07270   0.00001   0.00000   0.00032   0.00032  -1.07238
   D63        1.03283   0.00001   0.00000   0.00032   0.00032   1.03315
         Item               Value     Threshold  Converged?
 Maximum Force            0.000447     0.000450     YES
 RMS     Force            0.000122     0.000300     YES
 Maximum Displacement     0.002234     0.001800     NO 
 RMS     Displacement     0.000412     0.001200     YES
 Predicted change in Energy= 3.102268D-06
 GradGradGradGradGradGradGradGradGradGradGradGradGradGradGradGradGradGrad

                          Input orientation:                          
 ---------------------------------------------------------------------
 Center     Atomic      Atomic             Coordinates (Angstroms)
 Number     Number       Type             X           Y           Z
 ---------------------------------------------------------------------
      1          6           0       -0.796408    0.069389    0.154208
      2          6           0       -1.997703    0.739805    0.507902
      3          8           0       -2.163983    1.960511    0.435204
      4          6           0        0.293832    0.851647   -0.377504
      5          6           0       -1.034391    1.303390   -2.549420
      6          1           0       -0.895927    1.690692   -3.566316
      7          1           0       -1.727746    0.455712   -2.560629
      8          1           0       -1.447373    2.069279   -1.880081
      9          7           0        0.264666    0.845045   -2.005202
     10          1           0        0.424164   -0.132267   -2.268660
     11          1           0        1.053403    1.384479   -2.372592
     12          6           0        1.723904    0.549690    0.010346
     13          6           0        2.457472   -0.522968   -0.510585
     14          6           0        3.766281   -0.760601   -0.091263
     15          6           0        4.359025    0.065248    0.860716
     16          6           0        3.634736    1.132286    1.392046
     17          6           0        2.331517    1.372820    0.966459
     18          1           0        2.004988   -1.212130   -1.228113
     19          1           0        4.320143   -1.606136   -0.504831
     20          1           0        5.382288   -0.124233    1.191681
     21          1           0        4.088413    1.783683    2.142065
     22          1           0        1.765432    2.206277    1.390206
     23          1           0        0.053630    1.900028   -0.151202
     24         35           0       -0.727216   -1.825831   -0.048016
     25          8           0       -2.990058   -0.068285    0.948313
     26          6           0       -4.184027    0.572586    1.329958
     27          1           0       -4.875581   -0.221907    1.637505
     28          1           0       -4.019691    1.267653    2.167733
     29          1           0       -4.620809    1.146489    0.497783
 ---------------------------------------------------------------------
                    Distance matrix (angstroms):
                    1          2          3          4          5
     1  C    0.000000
     2  C    1.420446   0.000000
     3  O    2.350651   1.234122   0.000000
     4  C    1.443353   2.459183   2.816190   0.000000
     5  C    2.981443   3.254661   3.258185   2.585627   0.000000
     6  H    4.059659   4.326356   4.206296   3.505431   1.096929
     7  H    2.896028   3.093456   3.380790   3.001595   1.095182
     8  H    2.926030   2.787979   2.426088   2.602337   1.097795
     9  N    2.527959   3.383059   3.619141   1.627973   1.481149
    10  H    2.720433   3.786192   4.288252   2.135777   2.065749
    11  H    3.396466   4.245244   4.308956   2.200280   2.096838
    12  C    2.569700   3.759529   4.157713   1.512188   3.837793
    13  C    3.373511   4.741360   5.331044   2.566830   4.436839
    14  C    4.644058   5.986128   6.545964   3.839165   5.774863
    15  C    5.203620   6.402147   6.806079   4.321737   6.500074
    16  C    4.721973   5.714903   5.935204   3.791004   6.112707
    17  C    3.484623   4.399218   4.564770   2.496000   4.867809
    18  H    3.376526   4.779680   5.496598   2.812609   4.160711
    19  H    5.424096   6.815001   7.459794   4.718908   6.427808
    20  H    6.268184   7.461795   7.865406   5.413601   7.563578
    21  H    5.545436   6.387564   6.483602   4.649277   6.963034
    22  H    3.557668   4.134027   4.051262   2.669350   4.916795
    23  H    2.041342   2.447141   2.294632   1.099095   2.700225
    24  Br   1.907234   2.916449   4.078504   2.884440   4.017886
    25  O    2.337019   1.353418   2.249822   3.658961   4.235595
    26  C    3.620988   2.341741   2.609119   4.800471   5.050134
    27  H    4.350250   3.237758   3.682559   5.651160   5.883164
    28  H    3.984931   2.668726   2.631609   5.025711   5.582547
    29  H    3.988011   2.654465   2.588928   5.000676   4.708764
                    6          7          8          9         10
     6  H    0.000000
     7  H    1.796804   0.000000
     8  H    1.814059   1.773514   0.000000
     9  N    2.121125   2.104706   2.108431   0.000000
    10  H    2.598024   2.249818   2.915553   1.024690   0.000000
    11  H    2.306216   2.938155   2.639204   1.023752   1.645375
    12  C    4.577981   4.304954   3.992475   2.505802   2.710767
    13  C    5.048076   4.761989   4.882938   2.985589   2.716214
    14  C    6.310389   6.145040   6.195989   4.301461   4.038020
    15  C    7.060822   6.993343   6.726245   5.058196   5.031415
    16  C    6.739739   6.696089   6.116585   4.793868   5.030670
    17  C    5.573463   5.455186   4.782034   3.658031   4.045896
    18  H    4.723227   4.300069   4.807443   2.804382   2.178955
    19  H    6.888334   6.712263   6.975975   4.970542   4.523498
    20  H    8.083840   8.060319   7.803300   6.111433   6.046240
    21  H    7.578780   7.596483   6.848661   5.718559   6.045832
    22  H    5.649404   5.556606   4.586465   3.953991   4.544787
    23  H    3.550842   3.326362   2.295796   2.143558   2.958233
    24  Br   4.977232   3.538323   4.364284   3.456587   3.020778
    25  O    5.278377   3.765724   3.866377   4.488948   4.691474
    26  C    6.002938   4.602569   4.475904   5.566723   5.889168
    27  H    6.824620   5.290781   5.419922   6.389824   6.584335
    28  H    6.543408   5.316923   4.862533   5.995641   6.433445
    29  H    5.539658   4.266248   4.071422   5.497607   5.894080
                   11         12         13         14         15
    11  H    0.000000
    12  C    2.612439   0.000000
    13  C    3.012778   1.400032   0.000000
    14  C    4.143131   2.428682   1.394734   0.000000
    15  C    4.808512   2.810992   2.417099   1.392708   0.000000
    16  C    4.571584   2.428949   2.783131   2.408429   1.394803
    17  C    3.575328   1.400317   2.406561   2.780074   2.414894
    18  H    2.992946   2.171820   1.092947   2.144402   3.396527
    19  H    4.806651   3.413716   2.154722   1.092122   2.158647
    20  H    5.806849   3.903012   3.407528   2.159256   1.092020
    21  H    5.454611   3.414363   3.875199   3.400722   2.160580
    22  H    3.916757   2.156390   3.397161   3.873050   3.404569
    23  H    2.489962   2.153909   3.431985   4.567966   4.788196
    24  Br   4.345152   3.413868   3.471838   4.618236   5.501983
    25  O    5.430332   4.845938   5.657800   6.870818   7.350818
    26  C    6.465193   6.053557   6.978349   8.185638   8.570958
    27  H    7.335817   6.840775   7.647130   8.829531   9.271667
    28  H    6.809147   6.177270   7.234180   8.356928   8.564867
    29  H    6.363362   6.391334   7.342068   8.621326   9.051974
                   16         17         18         19         20
    16  C    0.000000
    17  C    1.391892   0.000000
    18  H    3.875255   3.406573   0.000000
    19  H    3.401011   3.872145   2.457299   0.000000
    20  H    2.161694   3.405745   4.294774   2.490451   0.000000
    21  H    1.092095   2.153496   4.967260   4.307045   2.493489
    22  H    2.155866   1.093007   4.312597   4.965099   4.307242
    23  H    3.974338   2.591502   3.827932   5.533658   5.856241
    24  Br   5.463594   4.540526   3.038782   5.072748   6.462068
    25  O    6.747308   5.513281   5.567378   7.610233   8.376070
    26  C    7.839017   6.574559   6.930574   8.968511   9.592657
    27  H    8.620881   7.411863   7.518946   9.542905  10.268018
    28  H    7.694821   6.464670   7.346963   9.217055   9.554436
    29  H    8.303851   6.971780   7.241754   9.408656  10.107334
                   21         22         23         24         25
    21  H    0.000000
    22  H    2.477927   0.000000
    23  H    4.642423   2.323789   0.000000
    24  Br   6.404322   4.953753   3.808201   0.000000
    25  O    7.413474   5.289951   3.787773   3.033495   0.000000
    26  C    8.399973   6.169979   4.681205   4.427275   1.407811
    27  H    9.199466   7.075329   5.656784   4.756311   2.013401
    28  H    8.124550   5.912124   4.729620   5.031857   2.081312
    29  H    8.885958   6.534803   4.779057   4.928758   2.082788
                   26         27         28         29
    26  C    0.000000
    27  H    1.097293   0.000000
    28  H    1.100905   1.797909   0.000000
    29  H    1.101207   1.798995   1.778976   0.000000
 Stoichiometry    C11H14BrNO2
 Framework group  C1[X(C11H14BrNO2)]
 Deg. of freedom    81
 Full point group                 C1      NOp   1
 Largest Abelian subgroup         C1      NOp   1
 Largest concise Abelian subgroup C1      NOp   1
                         Standard orientation:                         
 ---------------------------------------------------------------------
 Center     Atomic      Atomic             Coordinates (Angstroms)
 Number     Number       Type             X           Y           Z
 ---------------------------------------------------------------------
      1          6           0       -0.796398   -0.069374   -0.154204
      2          6           0       -1.997687   -0.739689   -0.508108
      3          8           0       -2.163952   -1.960420   -0.435808
      4          6           0        0.293855   -0.851794    0.377244
      5          6           0       -1.034345   -1.304263    2.549022
      6          1           0       -0.895869   -1.691897    3.565790
      7          1           0       -1.727710   -0.456597    2.560514
      8          1           0       -1.447323   -2.069938    1.879435
      9          7           0        0.264702   -0.845725    2.004945
     10          1           0        0.424191    0.131503    2.268721
     11          1           0        1.053448   -1.385269    2.372151
     12          6           0        1.723921   -0.549693   -0.010518
     13          6           0        2.457480    0.522804    0.510758
     14          6           0        3.766284    0.760589    0.091504
     15          6           0        4.359029   -0.064940   -0.860751
     16          6           0        3.634749   -1.131813   -1.392424
     17          6           0        2.331536   -1.372502   -0.966906
     18          1           0        2.004994    1.211726    1.228516
     19          1           0        4.320138    1.605996    0.505345
     20          1           0        5.382288    0.124660   -1.191661
     21          1           0        4.088428   -1.782960   -2.142660
     22          1           0        1.765458   -2.205826   -1.390922
     23          1           0        0.053664   -1.900102    0.150601
     24         35           0       -0.727226    1.825781    0.048640
     25          8           0       -2.990056    0.068535   -0.948246
     26          6           0       -4.184020   -0.572226   -1.330092
     27          1           0       -4.875586    0.222359   -1.637373
     28          1           0       -4.019683   -1.267017   -2.168096
     29          1           0       -4.620789   -1.146407   -0.498102
 ---------------------------------------------------------------------
 Rotational constants (GHZ):           0.6949449           0.2994808           0.2712997
 Standard basis: STO-3G (5D, 7F)
 There are   103 symmetry adapted cartesian basis functions of A   symmetry.
 There are   102 symmetry adapted basis functions of A   symmetry.
   102 basis functions,   309 primitive gaussians,   103 cartesian basis functions
    69 alpha electrons       69 beta electrons
       nuclear repulsion energy      1378.9762859944 Hartrees.
 NAtoms=   29 NActive=   29 NUniq=   29 SFac= 1.00D+00 NAtFMM=   60 NAOKFM=F Big=F
 Integral buffers will be    131072 words long.
 Raffenetti 1 integral format.
 Two-electron integral symmetry is turned on.
 External calculation of energy, first and second derivatives.
 Running external command "~/scripts/MiMe -H 'hf def2svp' -EF 'wb97xd def2svp' -c 12 -m 48GB R"
         input file       "/local/jobs/1158199/Gau-3861314.EIn"
         output file      "/local/jobs/1158199/Gau-3861314.EOu"
         message file     "/local/jobs/1158199/Gau-3861314.EMs"
         fchk file        "/local/jobs/1158199/Gau-3861314.EFC"
         mat. el file     "/local/jobs/1158199/Gau-3861314.EUF"
 Read checkpoint file Gau-3861314_H.chk type G16
 Write formatted file Gau-3861314_H.fchk

deriv: 2

spelevel: wb97xd def2svp
gradlevel: wb97xd def2svp
hesslevel: hf def2svp

runspe: False
runforce: True
runfreq: True

Running Gaussian ...

Parsing files ...
SPE file: Gau-3861314_F.out
FORCE file: Gau-3861314_F.out
HESS file: Gau-3861314_H.out

 ExternalExternalExternalExternalExternalExternalExternalExternalExternalExternal
 Output from external command:
 "~/scripts/MiMe -H 'hf def2svp' -EF 'wb97xd def2svp' -c 12 -m 48GB R /local/jobs/1158199/Gau-3861314.EIn /local/jobs/1158199/Gau-3861314.EOu /local/jobs/1158199/Gau-3861314.EMs /local/jobs/1158199/Gau-3861314.EFC /local/jobs/1158199/Gau-3861314.EUF"
  
 --------------------------------------------------
 Force calculation at wb97xd def2svp
 Hessian calculation at hf def2svp
 ExternalExternalExternalExternalExternalExternalExternalExternalExternalExternal

 Recovered energy= -3205.98976404     dipole=      3.703300000000     -1.573100000000      5.879600000000
 Energy=    -3205.98976     NIter=   0.
 Dipole moment=       3.703300      -1.573100       5.879600
 ***** Axes restored to original set *****
 -------------------------------------------------------------------
 Center     Atomic                   Forces (Hartrees/Bohr)
 Number     Number              X              Y              Z
 -------------------------------------------------------------------
      1        6          -0.000266040    0.000051888   -0.000670713
      2        6           0.000018321    0.000018768    0.000105700
      3        8          -0.000000423   -0.000007788   -0.000002600
      4        6          -0.000171859   -0.000484960    0.000525077
      5        6           0.000005653   -0.000109239   -0.000025727
      6        1          -0.000111809   -0.000599175   -0.000246084
      7        1          -0.000198916    0.000156228    0.000609857
      8        1           0.000290675    0.000441346   -0.000323062
      9        7          -0.000208346   -0.000236917   -0.000141180
     10        1           0.000547877    0.000260022   -0.000614587
     11        1          -0.000192347    0.000672795    0.000575732
     12        6          -0.000028821   -0.000211526   -0.000100760
     13        6          -0.000047634   -0.000109037    0.000131398
     14        6          -0.000002814    0.000005588   -0.000002397
     15        6           0.000000533    0.000006313   -0.000001633
     16        6           0.000008840    0.000007782   -0.000005539
     17        6           0.000059028    0.000117764   -0.000142754
     18        1          -0.000003904    0.000005217   -0.000001414
     19        1           0.000004476    0.000006443   -0.000003955
     20        1          -0.000001261   -0.000000029    0.000004374
     21        1          -0.000005641   -0.000004214    0.000008739
     22        1          -0.000000330    0.000000586    0.000001403
     23        1           0.000206970    0.000025605    0.000089071
     24       35           0.000099230   -0.000007119    0.000248431
     25        8          -0.000000059   -0.000001831   -0.000017984
     26        6          -0.000001763    0.000000202    0.000005053
     27        1           0.000001821   -0.000001391    0.000002177
     28        1          -0.000000554    0.000002476   -0.000003790
     29        1          -0.000000902   -0.000005796   -0.000002833
 -------------------------------------------------------------------
 Cartesian Forces:  Max     0.000672795 RMS     0.000221668
 FormGI is forming the generalized inverse of G from B-inverse, IUseBI=4.

 GradGradGradGradGradGradGradGradGradGradGradGradGradGradGradGradGradGrad
 Berny optimization.
 Internal  Forces:  Max     0.000447127 RMS     0.000121942
 Search for a saddle point.
 Step number   2 out of a maximum of   50
 All quantities printed in internal units (Hartrees-Bohrs-Radians)
 Swapping is turned off.
 Second derivative matrix not updated -- analytic derivatives used.
 ITU=  0  0
     Eigenvalues ---    0.00352   0.00594   0.01049   0.01071   0.01235
     Eigenvalues ---    0.01943   0.02275   0.02356   0.02422   0.02688
     Eigenvalues ---    0.02746   0.03161   0.03211   0.03500   0.03554
     Eigenvalues ---    0.03699   0.04119   0.04205   0.05000   0.05628
     Eigenvalues ---    0.05925   0.06670   0.06770   0.07557   0.08105
     Eigenvalues ---    0.10227   0.10281   0.11199   0.11484   0.12906
     Eigenvalues ---    0.13036   0.13989   0.14371   0.14650   0.15356
     Eigenvalues ---    0.15803   0.16211   0.17461   0.20110   0.21306
     Eigenvalues ---    0.21929   0.22108   0.22157   0.22491   0.22534
     Eigenvalues ---    0.22723   0.23215   0.25152   0.25636   0.27827
     Eigenvalues ---    0.29808   0.30353   0.31853   0.34658   0.34993
     Eigenvalues ---    0.35274   0.35656   0.36143   0.36177   0.36359
     Eigenvalues ---    0.36756   0.37145   0.37400   0.37528   0.37567
     Eigenvalues ---    0.37712   0.38107   0.39242   0.42286   0.45164
     Eigenvalues ---    0.45285   0.46247   0.47189   0.48449   0.50633
     Eigenvalues ---    0.52525   0.52837   0.54631   0.56049   0.56849
     Eigenvalues ---    0.80085
 Eigenvectors required to have negative eigenvalues:
                          D33       D30       D32       D29       D36
   1                    0.30940   0.30652   0.30505   0.30217   0.29701
                          D35       D31       D28       D34       D9
   1                    0.29266   0.28230   0.27942   0.26990   0.15288
 RFO step:  Lambda0=4.035448884D-03 Lambda=-6.23791140D-08.
 Linear search not attempted -- option 19 set.
 Iteration  1 RMS(Cart)=  0.00038765 RMS(Int)=  0.00000014
 Iteration  2 RMS(Cart)=  0.00000015 RMS(Int)=  0.00000000
 Variable       Old X    -DE/DX   Delta X   Delta X   Delta X     New X
                                 (Linear)    (Quad)   (Total)
    R1        2.68425   0.00001   0.00000  -0.00000  -0.00000   2.68425
    R2        2.72754  -0.00004   0.00000  -0.00001  -0.00001   2.72753
    R3        3.60415  -0.00002   0.00000  -0.00001  -0.00001   3.60414
    R4        2.33215  -0.00001   0.00000   0.00001   0.00001   2.33216
    R5        2.55759  -0.00000   0.00000  -0.00001  -0.00001   2.55758
    R6        3.07642   0.00016   0.00000   0.00007   0.00007   3.07649
    R7        2.85762  -0.00001   0.00000  -0.00001  -0.00001   2.85761
    R8        2.07699  -0.00000   0.00000  -0.00000  -0.00000   2.07699
    R9        2.07289   0.00000   0.00000  -0.00000  -0.00000   2.07289
   R10        2.06959  -0.00000   0.00000  -0.00000  -0.00000   2.06959
   R11        2.07453   0.00000   0.00000   0.00001   0.00001   2.07454
   R12        2.79897  -0.00003   0.00000   0.00003   0.00003   2.79900
   R13        1.93638  -0.00001   0.00000  -0.00001  -0.00001   1.93638
   R14        1.93461  -0.00000   0.00000  -0.00000  -0.00000   1.93461
   R15        2.64568   0.00000   0.00000   0.00001   0.00001   2.64568
   R16        2.64622  -0.00000   0.00000  -0.00000  -0.00000   2.64621
   R17        2.63566  -0.00000   0.00000  -0.00000  -0.00000   2.63566
   R18        2.06537   0.00000   0.00000  -0.00000  -0.00000   2.06537
   R19        2.63184   0.00000   0.00000   0.00000   0.00000   2.63184
   R20        2.06381   0.00000   0.00000   0.00000   0.00000   2.06381
   R21        2.63579  -0.00000   0.00000  -0.00000  -0.00000   2.63579
   R22        2.06362   0.00000   0.00000   0.00000   0.00000   2.06362
   R23        2.63029   0.00000   0.00000   0.00001   0.00001   2.63030
   R24        2.06376  -0.00000   0.00000  -0.00000  -0.00000   2.06376
   R25        2.06548  -0.00000   0.00000   0.00000   0.00000   2.06548
   R26        2.66038   0.00000   0.00000   0.00000   0.00000   2.66038
   R27        2.07358  -0.00000   0.00000  -0.00000  -0.00000   2.07358
   R28        2.08041   0.00000   0.00000  -0.00000  -0.00000   2.08040
   R29        2.08098  -0.00000   0.00000   0.00000   0.00000   2.08098
    A1        2.06547  -0.00001   0.00000   0.00001   0.00001   2.06548
    A2        2.12479   0.00001   0.00000  -0.00002  -0.00002   2.12477
    A3        2.06246   0.00005   0.00000   0.00005   0.00005   2.06252
    A4        2.17259   0.00000   0.00000   0.00000   0.00000   2.17260
    A5        2.00349  -0.00000   0.00000   0.00000   0.00000   2.00350
    A6        2.10710   0.00000   0.00000  -0.00001  -0.00001   2.10709
    A7        1.93114   0.00004   0.00000   0.00000   0.00000   1.93114
    A8        2.10787   0.00003   0.00000   0.00004   0.00004   2.10791
    A9        1.85046   0.00001   0.00000   0.00001   0.00001   1.85047
   A10        1.84686  -0.00005   0.00000  -0.00003  -0.00003   1.84683
   A11        1.77809  -0.00007   0.00000  -0.00003  -0.00003   1.77806
   A12        1.92233   0.00001   0.00000   0.00000   0.00000   1.92233
   A13        1.92166   0.00000   0.00000  -0.00002  -0.00002   1.92164
   A14        1.94592   0.00001   0.00000  -0.00002  -0.00002   1.94590
   A15        1.91683   0.00001   0.00000  -0.00001  -0.00001   1.91683
   A16        1.88396  -0.00001   0.00000   0.00002   0.00002   1.88397
   A17        1.89600  -0.00000   0.00000   0.00004   0.00004   1.89605
   A18        1.89844  -0.00000   0.00000  -0.00001  -0.00001   1.89843
   A19        1.96257  -0.00001   0.00000  -0.00000  -0.00000   1.96256
   A20        1.83190   0.00003   0.00000  -0.00001  -0.00001   1.83189
   A21        1.92076  -0.00003   0.00000  -0.00001  -0.00001   1.92075
   A22        1.91473   0.00001   0.00000   0.00003   0.00003   1.91476
   A23        1.96146   0.00000   0.00000   0.00001   0.00001   1.96147
   A24        1.86540  -0.00000   0.00000  -0.00002  -0.00002   1.86538
   A25        2.15684  -0.00000   0.00000  -0.00002  -0.00002   2.15682
   A26        2.05793   0.00000   0.00000   0.00002   0.00002   2.05795
   A27        2.06811   0.00000   0.00000   0.00000   0.00000   2.06811
   A28        2.10640  -0.00000   0.00000  -0.00000  -0.00000   2.10640
   A29        2.10652  -0.00001   0.00000  -0.00002  -0.00002   2.10650
   A30        2.06968   0.00001   0.00000   0.00002   0.00002   2.06970
   A31        2.09886   0.00000   0.00000  -0.00000  -0.00000   2.09886
   A32        2.08743   0.00000   0.00000   0.00000   0.00000   2.08743
   A33        2.09682  -0.00000   0.00000  -0.00000  -0.00000   2.09682
   A34        2.08635   0.00000   0.00000   0.00000   0.00000   2.08635
   A35        2.09796  -0.00000   0.00000  -0.00000  -0.00000   2.09796
   A36        2.09887  -0.00000   0.00000  -0.00000  -0.00000   2.09887
   A37        2.09662  -0.00000   0.00000  -0.00000  -0.00000   2.09662
   A38        2.09694   0.00000   0.00000   0.00000   0.00000   2.09694
   A39        2.08963  -0.00000   0.00000  -0.00000  -0.00000   2.08963
   A40        2.11000  -0.00000   0.00000  -0.00000  -0.00000   2.11000
   A41        2.08083   0.00000   0.00000   0.00001   0.00001   2.08084
   A42        2.09227  -0.00000   0.00000  -0.00000  -0.00000   2.09226
   A43        2.02446  -0.00000   0.00000   0.00000   0.00000   2.02446
   A44        1.85551  -0.00000   0.00000  -0.00000  -0.00000   1.85551
   A45        1.94669   0.00000   0.00000   0.00000   0.00000   1.94670
   A46        1.94849  -0.00000   0.00000  -0.00000  -0.00000   1.94848
   A47        1.91551   0.00000   0.00000   0.00001   0.00001   1.91552
   A48        1.91683   0.00000   0.00000  -0.00001  -0.00001   1.91682
   A49        1.88099   0.00000   0.00000   0.00000   0.00000   1.88099
    D1       -0.04483   0.00011   0.00000   0.00026   0.00026  -0.04457
    D2        3.09778   0.00011   0.00000   0.00027   0.00027   3.09805
    D3       -2.91886  -0.00011   0.00000   0.00003   0.00003  -2.91884
    D4        0.22375  -0.00011   0.00000   0.00003   0.00003   0.22378
    D5       -1.65386   0.00002   0.00000  -0.00004  -0.00004  -1.65390
    D6        2.46006   0.00002   0.00000  -0.00003  -0.00003   2.46004
    D7        0.26072  -0.00004   0.00000  -0.00007  -0.00007   0.26065
    D8        1.22984   0.00022   0.00000   0.00018   0.00018   1.23001
    D9       -0.93943   0.00023   0.00000   0.00019   0.00019  -0.93924
   D10       -3.13878   0.00017   0.00000   0.00015   0.00015  -3.13863
   D11        3.12134   0.00000   0.00000   0.00014   0.00014   3.12148
   D12       -0.01927  -0.00000   0.00000   0.00015   0.00015  -0.01912
   D13        0.96279  -0.00012   0.00000  -0.00003  -0.00003   0.96276
   D14       -1.11783  -0.00015   0.00000  -0.00006  -0.00006  -1.11789
   D15       -3.11929  -0.00015   0.00000  -0.00003  -0.00003  -3.11932
   D16       -3.00863  -0.00009   0.00000  -0.00000  -0.00000  -3.00864
   D17        1.19393  -0.00012   0.00000  -0.00004  -0.00004   1.19390
   D18       -0.80753  -0.00012   0.00000  -0.00000  -0.00000  -0.80753
   D19       -0.99854  -0.00012   0.00000  -0.00002  -0.00002  -0.99857
   D20       -3.07916  -0.00015   0.00000  -0.00006  -0.00006  -3.07922
   D21        1.20256  -0.00015   0.00000  -0.00002  -0.00002   1.20254
   D22        1.33769  -0.00013   0.00000  -0.00032  -0.00032   1.33737
   D23       -1.77681  -0.00015   0.00000  -0.00035  -0.00035  -1.77717
   D24       -0.87064  -0.00016   0.00000  -0.00032  -0.00032  -0.87096
   D25        2.29804  -0.00018   0.00000  -0.00036  -0.00036   2.29768
   D26       -2.77960  -0.00007   0.00000  -0.00027  -0.00027  -2.77987
   D27        0.38908  -0.00008   0.00000  -0.00031  -0.00031   0.38877
   D28        2.72103   0.00039   0.00000  -0.00090  -0.00090   2.72013
   D29       -1.53058   0.00044   0.00000  -0.00089  -0.00089  -1.53146
   D30        0.54209   0.00044   0.00000  -0.00089  -0.00089   0.54120
   D31       -1.45949   0.00040   0.00000  -0.00090  -0.00090  -1.46039
   D32        0.57209   0.00044   0.00000  -0.00089  -0.00089   0.57120
   D33        2.64476   0.00045   0.00000  -0.00089  -0.00089   2.64387
   D34        0.58703   0.00038   0.00000  -0.00086  -0.00086   0.58616
   D35        2.61861   0.00042   0.00000  -0.00086  -0.00086   2.61775
   D36       -1.59191   0.00043   0.00000  -0.00086  -0.00086  -1.59276
   D37       -3.12051  -0.00002   0.00000  -0.00003  -0.00003  -3.12053
   D38       -0.01639  -0.00001   0.00000  -0.00005  -0.00005  -0.01643
   D39       -0.00615   0.00000   0.00000   0.00001   0.00001  -0.00614
   D40        3.09797   0.00001   0.00000  -0.00001  -0.00001   3.09796
   D41        3.11521   0.00001   0.00000   0.00002   0.00002   3.11523
   D42       -0.01259   0.00001   0.00000   0.00002   0.00002  -0.01257
   D43       -0.00071  -0.00001   0.00000  -0.00001  -0.00001  -0.00072
   D44       -3.12851  -0.00000   0.00000  -0.00001  -0.00001  -3.12852
   D45        0.00666   0.00000   0.00000   0.00000   0.00000   0.00666
   D46        3.13509   0.00001   0.00000  -0.00000  -0.00000   3.13509
   D47       -3.09823  -0.00000   0.00000   0.00002   0.00002  -3.09821
   D48        0.03019  -0.00000   0.00000   0.00002   0.00002   0.03021
   D49       -0.00023  -0.00000   0.00000  -0.00001  -0.00001  -0.00023
   D50        3.13685  -0.00000   0.00000  -0.00000  -0.00000   3.13685
   D51       -3.12858  -0.00001   0.00000  -0.00000  -0.00000  -3.12858
   D52        0.00850  -0.00001   0.00000  -0.00000  -0.00000   0.00850
   D53       -0.00658  -0.00000   0.00000   0.00000   0.00000  -0.00658
   D54        3.13725  -0.00000   0.00000   0.00000   0.00000   3.13725
   D55        3.13953  -0.00000   0.00000  -0.00000  -0.00000   3.13953
   D56        0.00017  -0.00000   0.00000  -0.00000  -0.00000   0.00017
   D57        0.00708   0.00001   0.00000   0.00001   0.00001   0.00709
   D58        3.13479   0.00000   0.00000   0.00001   0.00001   3.13480
   D59       -3.13674   0.00001   0.00000   0.00001   0.00001  -3.13673
   D60       -0.00903   0.00001   0.00000   0.00001   0.00001  -0.00902
   D61        3.12328   0.00001   0.00000   0.00028   0.00028   3.12357
   D62       -1.07238   0.00001   0.00000   0.00030   0.00030  -1.07208
   D63        1.03315   0.00001   0.00000   0.00030   0.00030   1.03345
         Item               Value     Threshold  Converged?
 Maximum Force            0.000447     0.000450     YES
 RMS     Force            0.000122     0.000300     YES
 Maximum Displacement     0.002095     0.001800     NO 
 RMS     Displacement     0.000388     0.001200     YES
 Predicted change in Energy= 2.907891D-06
 GradGradGradGradGradGradGradGradGradGradGradGradGradGradGradGradGradGrad

                          Input orientation:                          
 ---------------------------------------------------------------------
 Center     Atomic      Atomic             Coordinates (Angstroms)
 Number     Number       Type             X           Y           Z
 ---------------------------------------------------------------------
      1          6           0       -0.796462    0.069347    0.154131
      2          6           0       -1.997757    0.739735    0.507875
      3          8           0       -2.164112    1.960429    0.435076
      4          6           0        0.293810    0.851638   -0.377455
      5          6           0       -1.034321    1.303559   -2.549441
      6          1           0       -0.895650    1.691801   -3.565949
      7          1           0       -1.727410    0.455679   -2.561646
      8          1           0       -1.447766    2.068743   -1.879572
      9          7           0        0.264731    0.845183   -2.005192
     10          1           0        0.424291   -0.132096   -2.268721
     11          1           0        1.053479    1.384665   -2.372482
     12          6           0        1.723875    0.549664    0.010396
     13          6           0        2.457325   -0.523164   -0.510362
     14          6           0        3.766145   -0.760806   -0.091089
     15          6           0        4.359023    0.065203    0.860671
     16          6           0        3.634860    1.132412    1.391823
     17          6           0        2.331625    1.372957    0.966279
     18          1           0        2.004711   -1.212445   -1.227694
     19          1           0        4.319911   -1.606473   -0.504516
     20          1           0        5.382297   -0.124286    1.191601
     21          1           0        4.088643    1.783936    2.141668
     22          1           0        1.765643    2.206555    1.389886
     23          1           0        0.053600    1.900004   -0.151104
     24         35           0       -0.727229   -1.825881   -0.047950
     25          8           0       -2.990025   -0.068358    0.948463
     26          6           0       -4.184053    0.572477    1.329991
     27          1           0       -4.875422   -0.222002    1.637990
     28          1           0       -4.019722    1.267959    2.167419
     29          1           0       -4.621061    1.145915    0.497612
 ---------------------------------------------------------------------
                    Distance matrix (angstroms):
                    1          2          3          4          5
     1  C    0.000000
     2  C    1.420445   0.000000
     3  O    2.350657   1.234127   0.000000
     4  C    1.443349   2.459189   2.816204   0.000000
     5  C    2.981469   3.254733   3.258105   2.585669   0.000000
     6  H    4.059704   4.326328   4.205872   3.505308   1.096928
[...]
 00164924,0.00025506,0.00000779,-0.00005493,-0.00037051,-0.00001166,-0.
 00004837,0.00002355,-0.00005082,-0.00004940,0.00007464,-0.00001024,0.0
 0000630,-0.00008355,-0.00053367,-0.00098170,0.08242088,0.00092997,-0.0
 1980765,-0.00173849,0.00102324,-0.00359625,0.00051271,0.00461936,0.002
 08487,-0.00166648,0.05316937,-0.31703349,-0.05160027,-0.00040802,0.000
 58271,0.00012053,-0.00013628,0.00015194,0.00013306,0.00005967,0.000042
 71,0.00008617,-0.00034785,0.00036761,-0.00003378,0.00020945,0.00373301
 ,0.00077197,0.00032232,0.00060679,0.00140467,0.00014037,0.00003905,-0.
 00084571,0.00044055,-0.00151077,-0.00048582,0.00060323,0.00017786,0.00
 019958,-0.00067170,-0.00020992,-0.00050294,-0.00018058,0.00062963,0.00
 039814,0.00076692,0.00021901,-0.00005069,-0.00240650,0.00065441,-0.001
 52607,-0.00005491,0.00001046,0.00006865,0.00000227,-0.00001965,0.00006
 303,-0.00004905,-0.00000834,0.00008465,0.00001031,-0.00004905,0.000011
 29,-0.00045109,0.00058173,0.00057609,-0.05582679,0.33414208,0.00024520
 ,0.01077244,0.00445849,-0.00103478,0.00477009,-0.00091326,0.00034113,-
 0.00281851,-0.00122090,0.00530498,-0.04450769,-0.06368195,0.00301447,-
 0.00192069,0.00127818,-0.00016270,0.00022143,0.00016927,-0.00023757,0.
 00016730,0.00001383,-0.00085690,0.00041272,-0.00001893,0.00532650,-0.0
 3405456,-0.02501073,-0.00023491,0.00124765,-0.00679783,0.00002996,-0.0
 0039452,0.00070114,0.00018494,0.00793750,0.00377816,-0.00238754,-0.000
 19549,-0.00029094,0.00010116,0.00036882,0.00060840,-0.00007782,-0.0001
 2932,-0.00013964,0.00012168,0.00013196,-0.00040517,-0.00165084,0.00130
 522,0.00026009,0.00008955,0.00017452,-0.00008698,-0.00014067,0.0000534
 1,-0.00008046,-0.00002359,-0.00005282,0.00002894,-0.00003903,-0.000003
 75,-0.00002097,-0.00079826,-0.00021311,-0.00003466,-0.00955572,0.05422
 886,0.08532726,-0.03044668,0.00138076,0.01145353,0.00363148,0.01846229
 ,-0.00127652,-0.00311613,0.00348064,0.00209818,0.00132692,-0.01776923,
 -0.00255131,-0.00048297,0.00009993,-0.00004414,0.00006067,-0.00002708,
 0.00001738,-0.00000470,-0.00012201,0.00010942,-0.00004495,-0.00005992,
 0.00013011,0.00081636,0.00029434,-0.00090698,-0.00004966,0.00039602,-0
 .00019763,0.00009823,-0.00007795,-0.00051491,0.00023206,-0.00157231,-0
 .00031780,-0.00357609,-0.00048290,0.00193805,0.00004305,-0.00071892,0.
 00025824,0.00027816,-0.00016414,-0.00036237,-0.00052660,-0.00002736,-0
 .00023790,0.00032935,0.00037421,0.00021056,-0.00249234,-0.00209903,-0.
 00061999,-0.00001393,-0.00002244,0.00007899,-0.00004341,-0.00001127,-0
 .00009000,-0.00000758,-0.00001593,-0.00001303,-0.00001529,-0.00005376,
 0.00004019,-0.00231536,-0.00194688,0.00215362,0.03857054,0.00980585,-0
 .14765011,-0.01264337,-0.01783118,-0.02799857,0.00223708,0.00820346,-0
 .00550105,-0.00151599,0.00784852,-0.03520639,-0.00904583,-0.00081067,-
 0.00032561,-0.00112872,0.00012147,0.00015356,0.00018785,0.00026853,0.0
 0030203,0.00022026,0.00005512,0.00020853,-0.00037435,0.00044194,0.0008
 6899,0.00198005,-0.00017420,-0.00021542,0.00073666,0.00017017,0.000504
 92,-0.00046039,0.00170748,0.00092104,0.00119613,-0.00126248,0.00014154
 ,-0.00052884,-0.00074337,0.00000620,-0.00030409,-0.00013734,0.00056755
 ,0.00033533,0.00052355,-0.00025965,0.00001276,-0.00066532,-0.00007573,
 -0.00072674,-0.00074459,-0.00057732,0.00043395,-0.00014925,0.00002912,
 0.00001213,-0.00004925,0.00001553,0.00000941,-0.00004247,-0.00003345,-
 0.00000150,0.00011426,0.00012442,0.00024084,-0.00429252,-0.00217787,0.
 00283483,-0.00494375,0.21373271,0.01181708,-0.01439606,-0.00710306,-0.
 00794588,-0.00498267,-0.00388193,0.00330687,-0.00289739,0.00455116,0.0
 0096658,0.00603990,-0.00696152,0.00019208,0.00007985,0.00044876,-0.000
 10197,0.00000051,0.00002694,0.00014826,-0.00050936,-0.00014115,0.00007
 607,0.00006740,-0.00018951,-0.00026419,0.00265893,0.00236213,-0.000574
 13,-0.00117741,0.00053189,-0.00024961,-0.00014773,0.00061697,0.0002100
 2,-0.00075682,0.00015733,0.00085981,-0.00056954,-0.00090497,0.00005740
 ,0.00029754,0.00040820,0.00008805,-0.00009395,0.00008492,0.00000916,0.
 00006129,0.00000341,-0.00001659,0.00004700,-0.00009896,0.00088889,0.00
 093143,0.00036068,0.00001348,0.00002030,-0.00005360,0.00002924,0.00003
 051,0.00003113,0.00000984,0.00000801,0.00001127,0.00002489,0.00004158,
 0.00003594,0.00072761,0.00000822,0.00181834,-0.01192683,0.01683253,0.0
 0953098,-0.06789092,-0.03290130,0.02862551,-0.20838321,-0.05558558,0.0
 5070150,0.01265356,-0.04362411,0.01104939,0.00519658,0.01273814,-0.009
 45642,-0.00244838,0.00054621,-0.00102098,0.00003580,-0.00001302,0.0004
 9989,-0.00019669,0.00000595,0.00009152,0.00003474,0.00022131,-0.000956
 19,-0.00331371,-0.00301590,0.01050359,0.00031217,-0.00040845,-0.000833
 21,0.00051453,0.00017436,0.00172024,0.00058162,-0.00100485,0.00282908,
 -0.00062540,-0.00032162,-0.00020817,-0.00009363,-0.00021885,-0.0004960
 4,-0.00057466,0.00038640,0.00008417,0.00054528,0.00008408,0.00009057,-
 0.00115679,0.00029059,-0.00017654,0.00024163,-0.00019230,-0.00008415,-
 0.00017662,0.00013144,0.00000682,-0.00016407,0.00001982,-0.00003803,-0
 .00018971,-0.00007899,-0.00012476,0.00020514,0.00010590,0.00018623,0.0
 0149003,0.00024783,0.00024586,-0.00273612,0.00275302,0.00221614,0.5446
 0845,-0.00732519,0.01330010,-0.00095179,-0.02181793,-0.18914595,0.0191
 4924,-0.05456357,-0.07553037,0.03189145,0.00672069,0.00093407,-0.00381
 684,-0.00035404,-0.00067852,-0.00006604,-0.00008494,0.00024293,0.00024
 191,-0.00009815,-0.00001123,0.00016596,0.00035180,0.00014464,-0.001078
 86,-0.00093932,-0.00024853,0.00266195,-0.00013048,-0.00043581,0.000098
 86,0.00015203,0.00001909,0.00038531,0.00038890,0.00095321,0.00051661,-
 0.00001568,-0.00022596,-0.00029866,-0.00017652,0.00006834,-0.00011436,
 -0.00011296,0.00018287,0.00010296,0.00021268,0.00002296,0.00011797,-0.
 00010233,-0.00018676,-0.00016083,-0.00002084,-0.00001514,0.00020813,-0
 .00006049,0.00002788,0.00000147,-0.00003596,0.00001003,0.00001094,-0.0
 0001707,-0.00002735,-0.00000458,0.00009934,0.00007091,0.00008375,0.001
 34915,0.00031139,-0.00038030,0.00543228,0.00218345,-0.00151855,-0.0134
 2165,0.40855486,0.02757875,0.01200519,0.00518175,0.05072978,0.02881084
 ,-0.10639840,0.01073371,0.02828619,0.02125170,0.00037835,-0.00388217,0
 .00673195,0.00021988,-0.00027739,0.00054932,0.00000927,0.00005925,-0.0
 0014129,-0.00017162,-0.00008441,0.00035329,-0.00006591,-0.00018986,0.0
 0020727,0.00049197,0.00004008,-0.00229045,-0.00016011,0.00014000,0.000
 10922,-0.00010334,-0.00010530,-0.00025582,0.00026920,0.00101141,-0.001
 60099,0.00023695,0.00014688,0.00009874,0.00004681,0.00009178,0.0002969
 3,0.00030769,-0.00020253,-0.00003272,-0.00028488,-0.00008259,0.0000119
 4,0.00056961,-0.00015999,0.00007495,-0.00007193,0.00009627,-0.00001165
 ,0.00007966,-0.00005151,-0.00000904,0.00007367,-0.00000148,0.00000622,
 0.00010225,0.00005008,0.00004440,-0.00009323,0.00002094,-0.00010254,-0
 .00055984,-0.00023514,0.00016615,0.00080974,-0.00064486,-0.00140341,-0
 .16458771,-0.02560996,0.15915412,0.00889386,0.00014070,-0.00109386,-0.
 06530286,-0.01259839,0.02563687,-0.00058446,0.01814453,-0.00460347,-0.
 00273333,-0.00250565,0.00446133,0.00057540,-0.00018546,0.00032991,0.00
 011477,0.00002066,-0.00022516,0.00003617,-0.00004259,0.00023287,-0.000
 01235,-0.00024976,0.00050713,0.00077859,0.00071990,-0.00324762,-0.0002
 2144,-0.00000847,0.00035120,-0.00016362,-0.00007594,-0.00040819,-0.000
 21824,0.00013595,-0.00100242,0.00025852,0.00006973,-0.00002138,0.00003
 123,0.00014336,0.00018505,0.00019479,-0.00013991,-0.00002938,-0.000197
 46,-0.00003643,-0.00006674,0.00036859,-0.00006335,0.00006637,-0.000134
 34,0.00008623,0.00013602,0.00005819,-0.00005760,-0.00000308,0.00007160
 ,-0.00001142,0.00002523,0.00006582,0.00003415,0.00005330,-0.00009860,-
 0.00006689,-0.00005787,-0.00045404,-0.00005287,-0.00002543,0.00035885,
 0.00002756,-0.00061555,-0.20572804,0.05695165,0.04162574,0.58701252,-0
 .00508448,-0.00570148,0.00223660,-0.01785850,0.03523346,0.00305778,-0.
 00171595,-0.01001352,0.00110795,-0.00024846,0.00165116,-0.00100671,-0.
 00033660,0.00014715,-0.00015306,-0.00002397,-0.00001844,0.00008280,-0.
 00002449,0.00005418,-0.00005126,-0.00007604,0.00005935,-0.00015226,-0.
 00033176,-0.00036871,0.00126847,0.00009789,0.00001099,-0.00013459,0.00
 007673,0.00004125,0.00020385,0.00009089,-0.00025167,0.00045291,-0.0000
 9263,-0.00001918,-0.00001067,-0.00001388,-0.00004424,-0.00007838,-0.00
 008389,0.00005348,0.00001304,0.00008643,-0.00000131,0.00000147,-0.0002
 0266,0.00009191,-0.00001840,0.00004087,-0.00003280,-0.00003527,-0.0000
 1993,0.00001925,-0.00000352,-0.00002311,0.00000333,-0.00000774,-0.0000
 3902,-0.00001060,-0.00002289,0.00002919,0.00000821,0.00003335,0.000184
 98,0.00004357,0.00008589,0.00023195,0.00012703,-0.00004509,0.08463305,
 -0.15781137,-0.02331022,0.05506785,0.64921134,-0.00268232,0.00078100,0
 .00245831,0.02592878,0.00078500,-0.00894559,-0.00243665,-0.00612096,-0
 .00476066,0.00187890,0.00086889,0.00034674,0.00003049,0.00003139,-0.00
 007620,-0.00006808,-0.00000646,0.00004991,0.00010120,-0.00009166,-0.00
 016718,0.00017410,0.00014082,-0.00016354,-0.00088926,-0.00052713,0.001
 35606,0.00007624,-0.00005036,-0.00012218,0.00008356,0.00003763,0.00025
 219,0.00039222,0.00024755,0.00001174,-0.00005924,0.00000306,0.00001400
 ,-0.00002590,-0.00005505,-0.00005687,-0.00004795,0.00005020,0.00000829
 ,0.00005216,-0.00002404,0.00001820,-0.00013356,0.00006329,-0.00000978,
 0.00003712,-0.00005891,-0.00005721,-0.00001641,0.00001408,0.00000220,-
 0.00002616,0.00000031,-0.00000629,-0.00003509,-0.00001602,-0.00001570,
 0.00002536,0.00001514,0.00004049,0.00020828,0.00001897,0.00011669,-0.0
 0021040,0.00011965,-0.00020888,0.04025487,-0.01366221,-0.09163440,0.01
 218971,-0.02025274,0.63263077,-0.00189281,-0.00168317,0.00067407,-0.00
 020447,0.00795789,-0.00075225,0.00119718,-0.00140495,0.00012703,0.0000
 2881,0.00068948,-0.00046022,-0.00008608,0.00002393,-0.00004742,-0.0000
 1091,-0.00000355,0.00002926,-0.00000480,-0.00000894,-0.00002254,0.0000
 0513,0.00003171,-0.00005755,-0.00015974,-0.00012605,0.00049432,0.00001
 983,-0.00002559,-0.00003905,0.00002605,0.00000900,0.00007850,0.0000345
 6,-0.00007247,0.00017356,-0.00003924,-0.00001101,-0.00001630,-0.000006
 26,-0.00000976,-0.00003059,-0.00003438,0.00002408,0.00000469,0.0000319
 9,0.00000706,0.00000520,-0.00006978,0.00001121,-0.00001826,0.00001359,
 -0.00001236,-0.00000134,-0.00001187,0.00000804,0.00000149,-0.00001117,
 0.00000089,-0.00000155,-0.00001128,-0.00000578,-0.00000697,0.00001496,
 0.00000783,0.00001237,0.00009725,0.00003114,-0.00000325,0.00002960,0.0
 0020147,0.00002851,-0.03629105,-0.02318508,0.01570003,-0.15573431,-0.1
 1871896,0.04111555,0.18304370,-0.00019421,0.00079843,-0.00014974,0.004
 18966,-0.00474196,-0.00096594,-0.00291249,0.00196264,0.00099663,0.0002
 7383,-0.00003251,-0.00015432,0.00002412,-0.00004207,-0.00001117,-0.000
 01479,0.00000703,0.00001554,0.00000180,-0.00001193,-0.00001946,0.00004
 179,0.00002502,-0.00004444,-0.00005927,0.00000306,0.00010154,0.0000035
 0,-0.00001244,-0.00000938,0.00000894,0.00000060,0.00000693,0.00003196,
 0.00005321,0.00002407,-0.00001740,-0.00000312,-0.00000442,-0.00000450,
 -0.00000528,-0.00000562,-0.00000680,0.00000721,0.00000164,0.00000610,0
 .00000600,0.00000909,-0.00000755,-0.00001460,-0.00000884,0.00000636,-0
 .00000536,-0.00000473,-0.00000422,0.00000374,0.00000117,-0.00000541,0.
 00000105,-0.00000107,-0.00000109,-0.00000299,-0.00000212,0.00000901,0.
 00000694,0.00000421,0.00004810,0.00003182,-0.00002258,-0.00008393,0.00
 011947,0.00007165,0.02046726,0.01745366,-0.00863009,-0.13264468,-0.219
 16764,0.05920621,0.13120629,0.22495797,0.00070812,0.00057998,-0.000111
 62,-0.00005407,-0.00229024,0.00040333,0.00035183,0.00035177,0.00093580
 ,-0.00000552,-0.00024818,0.00017177,0.00001569,0.00000657,0.00002270,0
 .00001022,0.00000063,-0.00001248,0.00000004,0.00002173,0.00002015,-0.0
 0004017,-0.00001750,0.00003117,0.00006819,0.00003236,-0.00016949,-0.00
 000022,0.00001448,0.00001779,-0.00000948,-0.00000472,-0.00002347,-0.00
 001152,0.00002045,-0.00007267,0.00001773,0.00000584,0.00000917,0.00000
 221,0.00000445,0.00001259,0.00001382,-0.00000990,-0.00000349,-0.000014
 48,-0.00000019,-0.00000227,0.00003009,-0.00000864,0.00000482,-0.000004
 86,0.00000519,0.,0.00000476,-0.00000334,0.00000028,0.00000354,-0.00000
 043,0.00000113,0.00000451,0.00000134,0.00000303,-0.00000362,-0.0000023
 8,-0.00000551,-0.00004271,-0.00002197,0.00000362,-0.00002228,-0.000087
 87,-0.00004616,0.01191658,0.00722723,-0.00346167,0.04222938,0.05410911
 ,-0.08550047,-0.05562258,-0.05993025,0.08082433,-0.00156736,-0.0002754
 4,-0.00023182,0.00532242,0.00557726,-0.00023168,-0.00092751,-0.0020889
 3,0.00044417,0.00021827,0.00035709,-0.00067643,-0.00007929,0.00005078,
 -0.00005761,0.00000265,-0.00001243,0.00001257,-0.00001284,0.00001253,-
 0.00001774,-0.00001491,-0.00000187,-0.00001056,-0.00004962,-0.00005058
 ,0.00036258,0.00002295,0.00000473,-0.00003614,0.00001155,0.00000609,0.
 00004409,-0.00001766,-0.00008327,0.00014049,-0.00002926,-0.00000603,0.
 00000572,0.00000521,-0.00001827,-0.00002324,-0.00002863,0.00001396,-0.
 00000060,0.00002441,0.00000455,-0.00000455,-0.00004975,0.00002540,0.00
 000029,0.00001440,-0.00000909,-0.00001469,-0.00000548,0.00000435,0.000
 00014,-0.00000516,-0.00000039,-0.00000217,-0.00000934,-0.00000369,-0.0
 0000411,0.00000127,-0.00000691,0.00000812,0.00000246,-0.00000552,0.000
 02471,0.00005224,-0.00016456,0.00009579,-0.00644638,0.02824279,0.03518
 798,-0.07319099,-0.03825285,-0.04684821,-0.00156919,-0.01077244,-0.016
 95580,0.07835602,0.00085398,0.00032842,-0.00017292,-0.00398222,-0.0031
 6260,0.00189384,-0.00047673,0.00170013,0.00060395,-0.00017647,-0.00026
 803,0.00038925,0.00004342,-0.00000775,0.00002581,0.00001459,0.00000071
 ,-0.00002096,0.00000476,-0.00001041,0.00002373,-0.00000613,-0.00001961
 ,0.00005807,0.00006677,0.00007158,-0.00025366,-0.00002546,-0.00000389,
 0.00003609,-0.00002100,-0.00000623,-0.00003773,-0.00001844,0.00001782,
 -0.00011105,0.00003205,0.00000526,-0.00000196,0.00000132,0.00001438,0.
 00001970,0.00002322,-0.00001330,0.00000138,-0.00001680,-0.00000567,0.0
 0000067,0.00003996,-0.00001990,0.00000618,-0.00001454,0.00001161,0.000
 01749,0.00000615,-0.00000503,-0.00000074,0.00000826,0.,0.00000156,0.00
 001116,0.00000615,0.00000440,-0.00000833,0.00000441,-0.00001367,-0.000
 05780,0.00000825,-0.00000371,0.00002317,0.00001412,-0.00009786,0.01025
 612,-0.01061132,-0.01513083,-0.03118992,-0.16389096,-0.12441313,-0.004
 55553,-0.01203112,-0.01922369,0.02624179,0.17483347,0.00061012,0.00057
 018,-0.00029590,-0.00307815,-0.00645376,0.00133016,-0.00134249,0.00310
 253,0.00143460,-0.00014548,-0.00023887,0.00018642,-0.00000675,-0.00006
 691,0.00001490,0.00001480,0.00001345,-0.00000192,-0.00002740,0.0000298
 0,0.00003340,-0.00001854,-0.00001976,-0.00001775,0.00008977,0.00007126
 ,-0.00017827,-0.00002481,-0.00000505,0.00002611,-0.00000950,-0.0000147
 0,-0.00002603,-0.00000984,0.00004304,-0.00004934,0.00001472,0.00000011
 ,-0.00000869,-0.00000497,0.00001443,0.00001454,0.00001456,-0.00000468,
 0.00000222,-0.00000985,0.00000261,0.00000425,0.00003546,-0.00003274,-0
 .00000769,-0.00000921,0.00001037,0.00001440,0.00000173,-0.00000219,0.0
 0000015,0.00000343,0.00000053,0.00000181,0.00000846,0.00000199,0.00000
 382,0.00000145,0.00000464,-0.00000495,0.00002592,0.00002293,-0.0000325
 0,-0.00001092,0.00017339,-0.00000614,0.01048350,-0.00657592,-0.0046447
 2,-0.03843730,-0.12239273,-0.21675620,0.00115399,0.00742662,0.01137783
 ,0.03737714,0.14172935,0.22654812,-0.00149449,-0.00062377,0.00091629,0
 .00527547,0.00863802,-0.00461625,0.00064228,-0.00384481,0.00113061,0.0
 0051746,0.00052859,-0.00053002,-0.00018590,0.00007855,-0.00005608,0.00
 002545,-0.00001244,0.00001255,-0.00002112,0.00004370,0.00002005,-0.000
 10079,-0.00001627,-0.00000777,-0.00013609,-0.00022730,0.00063307,0.000
 02828,0.00000754,-0.00006193,0.00001948,0.00000287,0.00010247,0.000045
 76,-0.00001082,0.00010891,-0.00002075,-0.00000837,0.00001217,-0.000005
 52,-0.00001639,-0.00002007,-0.00001689,0.00001628,0.00000506,0.0000216
 2,-0.00000345,0.00000660,-0.00004120,0.00000978,-0.00000126,0.00001405
 ,-0.00000951,-0.00001897,-0.00000464,0.00000564,-0.00000057,-0.0000061
 9,0.00000099,-0.00000295,-0.00000580,-0.00000208,-0.00000576,0.0000083
 4,0.00000953,0.00000019,-0.00000870,-0.00003796,0.00004526,0.00004427,
 -0.00023145,-0.00007100,-0.03000415,0.02256090,-0.01905247,-0.09404483
 ,0.04260735,-0.06906931,0.01159470,-0.00958997,0.01741059,-0.00003048,
 0.00292268,-0.00669983,0.10789037,0.00092450,0.00029749,-0.00027695,-0
 .00397430,-0.00260193,0.00169966,-0.00095328,0.00123948,-0.00048731,-0
 .00030178,-0.00029253,0.00033733,0.00011838,0.00001421,0.00006709,-0.0
 0000643,-0.00000294,-0.00002304,0.00004172,-0.00002802,-0.00001161,-0.
 00001464,0.00000659,0.00006191,0.00008904,0.00007450,-0.00040076,-0.00
 001341,-0.00000146,0.00004129,-0.00002209,0.00000093,-0.00005792,-0.00
 003858,0.00002114,-0.00008257,0.00002107,0.00000508,-0.00000433,0.0000
 0506,0.00001483,0.00001625,0.00001719,-0.00001415,-0.00000396,-0.00001
 895,-0.00000320,-0.00000575,0.00003519,-0.00000342,0.00000761,-0.00001
 242,0.00000734,0.00001466,0.00000528,-0.00000543,0.00000020,0.00000636
 ,-0.00000122,0.00000239,0.00000585,0.00000298,0.00000472,-0.00000964,-
 0.00000563,-0.00000763,-0.00006583,-0.00000591,-0.00001559,0.00002321,
 0.00000095,-0.00000425,0.01772515,-0.00955209,0.00783942,0.04838706,-0
 .12942373,0.10289549,0.00961316,-0.00936682,0.01946815,-0.00878905,0.0
 1303951,-0.01740989,-0.06279782,0.13658347,0.00028141,-0.00041941,-0.0
 0037532,0.00028004,0.00231159,0.00063214,0.00255331,-0.00129146,0.0001
 1326,-0.00011048,-0.00004795,-0.00008020,-0.00001160,0.00002684,-0.000
 01966,0.00000116,-0.00000526,0.00000237,0.00000628,0.00000431,-0.00001
 201,-0.00000067,0.00000636,0.00000145,0.00004324,0.00004093,-0.0000433
 6,0.00000549,0.00001252,-0.00000243,-0.00000548,0.00000720,-0.00001641
 ,-0.00003131,-0.00005052,0.00000580,0.00000483,-0.00000102,0.00000636,
 0.00000272,-0.00000282,0.00000172,0.00000282,-0.00000370,0.00000080,-0
 .00000208,0.00000243,0.00000418,0.00000523,-0.00000608,0.00000296,0.00
 000121,0.00000432,-0.00000204,0.00000131,0.00000098,-0.00000064,0.0000
 0094,0.00000129,-0.00000148,0.00000363,0.00000252,-0.00000159,0.000002
 22,0.00000719,-0.00000822,-0.00002662,-0.00000216,0.00000634,0.0000050
 0,-0.00010032,0.00001922,0.00647674,-0.00862484,0.01774913,-0.07819265
 ,0.10502231,-0.22882447,-0.00251868,0.00209887,-0.00443021,-0.00858844
 ,0.01467048,-0.01896265,0.07981043,-0.11366461,0.23423495\\0.00026499,
 -0.00005268,0.00066743,-0.00001775,-0.00001858,-0.00010541,-0.00000047
 ,0.00000729,0.00000094,0.00017338,0.00048547,-0.00052289,-0.00000526,0
 .00010899,0.00002581,0.00011129,0.00060089,0.00024856,0.00020056,-0.00
 015464,-0.00061259,-0.00029194,-0.00044358,0.00032384,0.00020793,0.000
 23778,0.00014054,-0.00054851,-0.00026022,0.00061507,0.00019295,-0.0006
 7348,-0.00057623,0.00002907,0.00021169,0.00010013,0.00004745,0.0001088
 0,-0.00013092,0.00000285,-0.00000564,0.00000239,-0.00000090,-0.0000065
 5,0.00000174,-0.00000837,-0.00000796,0.00000568,-0.00005930,-0.0001169
 7,0.00014256,0.00000395,-0.00000523,0.00000149,-0.00000455,-0.00000652
 ,0.00000390,0.00000131,-0.00000012,-0.00000435,0.00000556,0.00000409,-
 0.00000870,0.00000041,-0.00000072,-0.00000136,-0.00020771,-0.00002584,
 -0.00008878,-0.00009891,0.00000702,-0.00024749,0.00000115,0.00000185,0
 .00002018,0.00000118,0.00000037,-0.00000541,-0.00000141,0.00000140,-0.
 00000155,0.00000056,-0.00000159,0.00000298,0.00000046,0.00000469,0.000
 00243\\\@
 The archive entry for this job was punched.


 GROWING OLD ISN'T SO BAD -- WHEN YOU CONSIDER THE ALTERNATIVE.

                     -- MAURICE CHEVALIER
 Job cpu time:       0 days  1 hours 44 minutes 58.9 seconds.
 Elapsed time:       0 days  0 hours 17 minutes 21.6 seconds.
 File lengths (MBytes):  RWF=      6 Int=      0 D2E=      0 Chk=      2 Scr=      1
 Normal termination of Gaussian 16 at Thu Jan 18 20:09:09 2024.
