Unloading slurm/anatra/current
  ERROR: No such file or directory on
    '/cm/local/modulefiles/slurm/anatra/current'
environment: line 0: unalias: gv: not found
environment: line 0: unalias: sl: not found
 Entering Gaussian System, Link 0=g16
 Initial command:
 /apps/gaussian/g16/C.01/g16/l1.exe "/local/jobs/1152787/Gau-1563932.inp" -scrdir="/local/jobs/1152787/"
 Entering Link 1 = /apps/gaussian/g16/C.01/g16/l1.exe PID=   1563935.
  
 Copyright (c) 1988-2019, Gaussian, Inc.  All Rights Reserved.
  
 This is part of the Gaussian(R) 16 program.  It is based on
 the Gaussian(R) 09 system (copyright 2009, Gaussian, Inc.),
 the Gaussian(R) 03 system (copyright 2003, Gaussian, Inc.),
 the Gaussian(R) 98 system (copyright 1998, Gaussian, Inc.),
 the Gaussian(R) 94 system (copyright 1995, Gaussian, Inc.),
 the Gaussian 92(TM) system (copyright 1992, Gaussian, Inc.),
 the Gaussian 90(TM) system (copyright 1990, Gaussian, Inc.),
 the Gaussian 88(TM) system (copyright 1988, Gaussian, Inc.),
 the Gaussian 86(TM) system (copyright 1986, Carnegie Mellon
 University), and the Gaussian 82(TM) system (copyright 1983,
 Carnegie Mellon University). Gaussian is a federally registered
 trademark of Gaussian, Inc.
  
 This software contains proprietary and confidential information,
 including trade secrets, belonging to Gaussian, Inc.
  
 This software is provided under written license and may be
 used, copied, transmitted, or stored only in accord with that
 written license.
  
 The following legend is applicable only to US Government
 contracts under FAR:
  
                    RESTRICTED RIGHTS LEGEND
  
 Use, reproduction and disclosure by the US Government is
 subject to restrictions as set forth in subparagraphs (a)
 and (c) of the Commercial Computer Software - Restricted
 Rights clause in FAR 52.227-19.
  
 Gaussian, Inc.
 340 Quinnipiac St., Bldg. 40, Wallingford CT 06492
  
  
 ---------------------------------------------------------------
 Warning -- This program may not be used in any manner that
 competes with the business of Gaussian, Inc. or will provide
 assistance to any competitor of Gaussian, Inc.  The licensee
 of this program is prohibited from giving any competitor of
 Gaussian, Inc. access to this program.  By using this program,
 the user acknowledges that Gaussian, Inc. is engaged in the
 business of creating and licensing software in the field of
 computational chemistry and represents and warrants to the
 licensee that it is not a competitor of Gaussian, Inc. and that
 it will not use this program in any manner prohibited above.
 ---------------------------------------------------------------
  

 Cite this work as:
 Gaussian 16, Revision C.01,
 M. J. Frisch, G. W. Trucks, H. B. Schlegel, G. E. Scuseria, 
 M. A. Robb, J. R. Cheeseman, G. Scalmani, V. Barone, 
 G. A. Petersson, H. Nakatsuji, X. Li, M. Caricato, A. V. Marenich, 
 J. Bloino, B. G. Janesko, R. Gomperts, B. Mennucci, H. P. Hratchian, 
 J. V. Ortiz, A. F. Izmaylov, J. L. Sonnenberg, D. Williams-Young, 
 F. Ding, F. Lipparini, F. Egidi, J. Goings, B. Peng, A. Petrone, 
 T. Henderson, D. Ranasinghe, V. G. Zakrzewski, J. Gao, N. Rega, 
 G. Zheng, W. Liang, M. Hada, M. Ehara, K. Toyota, R. Fukuda, 
 J. Hasegawa, M. Ishida, T. Nakajima, Y. Honda, O. Kitao, H. Nakai, 
 T. Vreven, K. Throssell, J. A. Montgomery, Jr., J. E. Peralta, 
 F. Ogliaro, M. J. Bearpark, J. J. Heyd, E. N. Brothers, K. N. Kudin, 
 V. N. Staroverov, T. A. Keith, R. Kobayashi, J. Normand, 
 K. Raghavachari, A. P. Rendell, J. C. Burant, S. S. Iyengar, 
 J. Tomasi, M. Cossi, J. M. Millam, M. Klene, C. Adamo, R. Cammi, 
 J. W. Ochterski, R. L. Martin, K. Morokuma, O. Farkas, 
 J. B. Foresman, and D. J. Fox, Gaussian, Inc., Wallingford CT, 2019.
 
 ******************************************
 Gaussian 16:  ES64L-G16RevC.01  3-Jul-2019
                22-Dec-2023 
 ******************************************
 %chk=allylic-1_1_opt_sqm_re.chk
 %nprocshared=12
 Will use up to   12 processors via shared memory.
 %mem=48GB
 ----------------------------------------------------------------------
 # wb97xd def2svp geom=allchk scrf=(iefpcm,solvent=toluene) opt=(readfc
 ,ts,noeigen,maxcycles=50,maxstep=10)
 ----------------------------------------------------------------------
 1/5=1,6=50,8=10,10=3,11=1,18=20,26=3,29=7,38=1/1,3;
 2/9=110,12=2,40=1/2;
 3/5=43,7=101,11=2,14=-4,25=1,30=1,70=2201,71=1,72=13,74=-58/1,2,3;
 4//1;
 5/5=2,38=5,53=13/2;
 6/7=2,8=2,9=2,10=2,28=1/1;
 7//1,2,3,16;
 1/5=1,6=50,8=10,11=1,18=20,26=3/3(2);
 2/9=110/2;
 99//99;
 2/9=110/2;
 3/5=43,7=101,11=2,14=-2,25=1,30=1,70=2205,71=1,72=13,74=-58/1,2,3;
 4/5=5,16=3,69=1/1;
 5/5=2,38=5,53=13/2;
 7//1,2,3,16;
 1/5=1,6=50,8=10,11=1,18=20,26=3/3(-5);
 2/9=110/2;
 6/7=2,8=2,9=2,10=2,19=2,28=1/1;
 99/9=1/99;
 Structure from the checkpoint file:  "allylic-1_1_opt_sqm_re.chk"
 -----------------------
 allylic-1_1_opt_sqm.out
 -----------------------
 Charge =  0 Multiplicity = 1
 Redundant internal coordinates found in file.  (old form).
 C,0,-0.86071,-0.48682,-0.94098
 C,0,2.36969,-0.12977,0.25765
 C,0,-1.08044,1.85755,-0.53303
 C,0,2.21152,0.72935,-0.73744
 N,0,-1.2632,0.435,-0.14646
 H,0,3.02297,0.83625,-1.45806
 H,0,-0.48459,2.2704,0.3075
 H,0,3.24972,-0.75391,0.43449
 H,0,-2.08946,2.30573,-0.3842
 H,0,-0.49496,-0.09307,-1.8956
 H,0,1.30199,1.33451,-0.86055
 F,0,1.42594,-0.33678,1.19329
 C,0,-0.84269,-1.94709,-0.65354
 H,0,-1.86591,-2.35722,-0.63535
 H,0,-0.27661,-2.47224,-1.43454
 H,0,-0.3712,-2.15512,0.31623
 C,0,-1.81738,0.12107,1.16951
 H,0,-2.69982,0.75519,1.32032
 H,0,-2.09885,-0.93385,1.27783
 H,0,-1.06422,0.38361,1.9246
 Recover connectivity data from disk.

 GradGradGradGradGradGradGradGradGradGradGradGradGradGradGradGradGradGrad
 Berny optimization.
 Initialization pass.
 Force constant matrix read from checkpoint file:
 "allylic-1_1_opt_sqm_re.chk"
                           ----------------------------
                           !    Initial Parameters    !
                           ! (Angstroms and Degrees)  !
 --------------------------                            --------------------------
 ! Name  Definition              Value          Derivative Info.                !
 --------------------------------------------------------------------------------
 ! R1    R(1,5)                  1.2818         D2E/DX2 =    0.8708             !
 ! R2    R(1,10)                 1.0955         D2E/DX2 =    0.2712             !
 ! R3    R(1,13)                 1.4884         D2E/DX2 =    0.4121             !
 ! R4    R(2,4)                  1.3241         D2E/DX2 =    0.7877             !
 ! R5    R(2,8)                  1.0933         D2E/DX2 =    0.262              !
 ! R6    R(2,12)                 1.345          D2E/DX2 =    0.4584             !
 ! R7    R(3,5)                  1.4854         D2E/DX2 =    0.262              !
 ! R8    R(3,7)                  1.1099         D2E/DX2 =    0.2036             !
 ! R9    R(3,9)                  1.1141         D2E/DX2 =    0.2413             !
 ! R10   R(3,11)                 2.4611         D2E/DX2 =    0.0119             !
 ! R11   R(4,6)                  1.0905         D2E/DX2 =    0.2663             !
 ! R12   R(4,11)                 1.0994         D2E/DX2 =    0.2667             !
 ! R13   R(5,17)                 1.462          D2E/DX2 =    0.459              !
 ! R14   R(7,11)                 2.3307         D2E/DX2 =    0.004              !
 ! R15   R(13,14)                1.1025         D2E/DX2 =    0.2629             !
 ! R16   R(13,15)                1.0983         D2E/DX2 =    0.2665             !
 ! R17   R(13,16)                1.0982         D2E/DX2 =    0.2655             !
 ! R18   R(17,18)                1.0971         D2E/DX2 =    0.2669             !
 ! R19   R(17,19)                1.0972         D2E/DX2 =    0.2644             !
 ! R20   R(17,20)                1.0983         D2E/DX2 =    0.2658             !
 ! A1    A(5,1,10)             112.7361         D2E/DX2 =    0.1161             !
 ! A2    A(5,1,13)             126.1333         D2E/DX2 =    0.1487             !
 ! A3    A(10,1,13)            121.123          D2E/DX2 =    0.0906             !
 ! A4    A(4,2,8)              126.023          D2E/DX2 =    0.0792             !
 ! A5    A(4,2,12)             122.6045         D2E/DX2 =    0.1111             !
 ! A6    A(8,2,12)             111.3723         D2E/DX2 =    0.0902             !
 ! A7    A(5,3,7)              103.0139         D2E/DX2 =    0.1333             !
 ! A8    A(5,3,9)              103.8313         D2E/DX2 =    0.0977             !
 ! A9    A(5,3,11)              87.1459         D2E/DX2 =    0.0989             !
 ! A10   A(7,3,9)              103.6159         D2E/DX2 =    0.0182             !
 ! A11   A(2,4,6)              118.1206         D2E/DX2 =    0.0846             !
 ! A12   A(2,4,11)             122.6925         D2E/DX2 =    0.1138             !
 ! A13   A(6,4,11)             119.1867         D2E/DX2 =    0.0662             !
 ! A14   A(1,5,3)              119.2602         D2E/DX2 =    0.1381             !
 ! A15   A(1,5,17)             121.5025         D2E/DX2 =    0.1822             !
 ! A16   A(3,5,17)             119.1123         D2E/DX2 =    0.143              !
 ! A17   A(3,11,4)             154.5512         D2E/DX2 =    0.0948             !
 ! A18   A(4,11,7)             143.0437         D2E/DX2 =    0.0178             !
 ! A19   A(1,13,14)            110.911          D2E/DX2 =    0.0915             !
 ! A20   A(1,13,15)            109.7571         D2E/DX2 =    0.0994             !
 ! A21   A(1,13,16)            111.1974         D2E/DX2 =    0.0994             !
 ! A22   A(14,13,15)           108.1931         D2E/DX2 =    0.0436             !
 ! A23   A(14,13,16)           108.2655         D2E/DX2 =    0.0435             !
 ! A24   A(15,13,16)           108.4268         D2E/DX2 =    0.0449             !
 ! A25   A(5,17,18)            107.7293         D2E/DX2 =    0.1171             !
 ! A26   A(5,17,19)            113.114          D2E/DX2 =    0.1255             !
 ! A27   A(5,17,20)            107.9123         D2E/DX2 =    0.1131             !
 ! A28   A(18,17,19)           109.6229         D2E/DX2 =    0.0493             !
 ! A29   A(18,17,20)           108.5967         D2E/DX2 =    0.043              !
 ! A30   A(19,17,20)           109.7472         D2E/DX2 =    0.0473             !
 ! A31   L(9,3,11,5,-1)        190.9772         D2E/DX2 =    0.0413             !
 ! A32   L(9,3,11,5,-2)        183.3447         D2E/DX2 =    0.0055             !
 ! D1    D(10,1,5,3)            -5.4567         D2E/DX2 =    0.0112             !
 ! D2    D(10,1,5,17)          178.6443         D2E/DX2 =    0.011              !
 ! D3    D(13,1,5,3)           173.5409         D2E/DX2 =    0.0136             !
 ! D4    D(13,1,5,17)           -2.3581         D2E/DX2 =    0.0095             !
 ! D5    D(5,1,13,14)           71.0836         D2E/DX2 =    0.0125             !
 ! D6    D(5,1,13,15)         -169.4195         D2E/DX2 =    0.0129             !
 ! D7    D(5,1,13,16)          -49.4503         D2E/DX2 =    0.0127             !
 ! D8    D(10,1,13,14)        -109.9964         D2E/DX2 =    0.0126             !
 ! D9    D(10,1,13,15)           9.5005         D2E/DX2 =    0.0128             !
 ! D10   D(10,1,13,16)         129.4697         D2E/DX2 =    0.0129             !
 ! D11   D(8,2,4,6)              0.1207         D2E/DX2 =    0.0153             !
 ! D12   D(8,2,4,11)          -179.715          D2E/DX2 =    0.0197             !
 ! D13   D(12,2,4,6)          -179.7401         D2E/DX2 =    0.0308             !
 ! D14   D(12,2,4,11)            0.4243         D2E/DX2 =    0.0208             !
 ! D15   D(7,3,5,1)           -122.6241         D2E/DX2 =    0.0072             !
 ! D16   D(7,3,5,17)            53.3739         D2E/DX2 =    0.0046             !
 ! D17   D(9,3,5,1)            129.5735         D2E/DX2 =    0.0053             !
 ! D18   D(9,3,5,17)           -54.4286         D2E/DX2 =    0.0048             !
 ! D19   D(11,3,5,1)           -53.7712         D2E/DX2 =    0.0062             !
 ! D20   D(11,3,5,17)          122.2267         D2E/DX2 =    0.0058             !
 ! D21   D(5,3,11,4)           -17.3914         D2E/DX2 =    0.0654             !
 ! D22   D(2,4,11,3)           -22.4581         D2E/DX2 =    0.0225             !
 ! D23   D(2,4,11,7)            25.6404         D2E/DX2 =    0.0096             !
 ! D24   D(6,4,11,3)           157.7079         D2E/DX2 =    0.016              !
 ! D25   D(6,4,11,7)          -154.1936         D2E/DX2 =    0.0085             !
 ! D26   D(1,5,17,18)         -137.0409         D2E/DX2 =    0.0122             !
 ! D27   D(1,5,17,19)          -15.7219         D2E/DX2 =    0.0118             !
 ! D28   D(1,5,17,20)          105.8814         D2E/DX2 =    0.0121             !
 ! D29   D(3,5,17,18)           47.0542         D2E/DX2 =    0.0119             !
 ! D30   D(3,5,17,19)          168.3732         D2E/DX2 =    0.0121             !
 ! D31   D(3,5,17,20)          -70.0234         D2E/DX2 =    0.0118             !
 --------------------------------------------------------------------------------
 Trust Radius=1.00D-01 FncErr=1.00D-07 GrdErr=1.00D-06 EigMax=2.50D+02 EigMin=1.00D-04
 Number of steps in this run=     50 maximum allowed number of steps=    120.
 Search for a saddle point of order  1.
 GradGradGradGradGradGradGradGradGradGradGradGradGradGradGradGradGradGrad

                          Input orientation:                          
 ---------------------------------------------------------------------
 Center     Atomic      Atomic             Coordinates (Angstroms)
 Number     Number       Type             X           Y           Z
 ---------------------------------------------------------------------
      1          6           0       -0.860710   -0.486820   -0.940980
      2          6           0        2.369690   -0.129770    0.257650
      3          6           0       -1.080440    1.857550   -0.533030
      4          6           0        2.211520    0.729350   -0.737440
      5          7           0       -1.263200    0.435000   -0.146460
      6          1           0        3.022970    0.836250   -1.458060
      7          1           0       -0.484590    2.270400    0.307500
      8          1           0        3.249720   -0.753910    0.434490
      9          1           0       -2.089460    2.305730   -0.384200
     10          1           0       -0.494960   -0.093070   -1.895600
     11          1           0        1.301990    1.334510   -0.860550
     12          9           0        1.425940   -0.336780    1.193290
     13          6           0       -0.842690   -1.947090   -0.653540
     14          1           0       -1.865910   -2.357220   -0.635350
     15          1           0       -0.276610   -2.472240   -1.434540
     16          1           0       -0.371200   -2.155120    0.316230
     17          6           0       -1.817380    0.121070    1.169510
     18          1           0       -2.699820    0.755190    1.320320
     19          1           0       -2.098850   -0.933850    1.277830
     20          1           0       -1.064220    0.383610    1.924600
 ---------------------------------------------------------------------
                    Distance matrix (angstroms):
                    1          2          3          4          5
     1  C    0.000000
     2  C    3.464056   0.000000
     3  C    2.389723   4.059312   0.000000
     4  C    3.310452   1.324126   3.485917   0.000000
     5  N    1.281800   3.698670   1.485425   3.536888   0.000000
     6  H    4.135318   2.074519   4.328592   1.090492   4.500283
     7  H    3.049989   3.729640   1.109943   3.276544   2.044751
     8  H    4.342682   1.093287   5.148408   2.156696   4.702920
     9  H    3.101317   5.121294   1.114063   4.594364   2.058848
    10  H    1.095496   3.583860   2.450368   3.056590   1.982055
    11  H    2.828601   2.129430   2.461059   1.099372   2.810559
    12  F    3.131515   1.344968   3.751960   2.341258   3.101943
    13  C    1.488400   3.801619   3.813966   4.061843   2.471500
    14  H    2.145282   4.868192   4.288557   5.114956   2.898062
    15  H    2.127596   3.918364   4.495102   4.114234   3.329347
    16  H    2.145559   3.408512   4.162425   4.012584   2.778213
    17  C    2.395603   4.292548   2.541080   4.498722   1.462000
    18  H    3.168342   5.254746   2.696756   5.325064   2.077942
    19  H    2.579912   4.653511   3.479696   5.040520   2.144916
    20  H    3.001768   3.851496   2.865782   4.235146   2.081231
                    6          7          8          9         10
     6  H    0.000000
     7  H    4.180546   0.000000
     8  H    2.482291   4.807042   0.000000
     9  H    5.426738   1.747943   6.207938   0.000000
    10  H    3.664820   3.231060   4.459670   3.252845   0.000000
    11  H    1.888664   2.330686   3.135646   3.559791   2.517606
    12  F    3.310009   3.351438   2.018898   4.672191   3.645613
    13  C    4.830897   4.340398   4.399467   4.439984   2.258544
    14  H    5.897139   4.920557   5.466702   4.675057   2.931571
    15  H    4.672675   5.056737   4.345220   5.217148   2.433249
    16  H    4.859711   4.426981   3.884384   4.831377   3.026476
    17  C    5.553791   2.671893   5.194357   2.694584   3.345078
    18  H    6.362098   2.868608   6.201540   2.383716   3.990375
    19  H    6.070534   3.716799   5.417638   3.641059   3.653770
    20  H    5.324697   2.551658   4.703664   3.174306   3.891685
                   11         12         13         14         15
    11  H    0.000000
    12  F    2.650817   0.000000
    13  C    3.925736   3.339246   0.000000
    14  H    4.869823   4.273450   1.102505   0.000000
    15  H    4.160864   3.790034   1.098267   1.782641   0.000000
    16  H    4.044984   2.702833   1.098195   1.783398   1.781771
    17  C    3.914594   3.275564   2.924178   3.066235   3.985010
    18  H    4.594158   4.269711   3.827189   3.769237   4.886461
    19  H    4.613441   3.576001   2.516900   2.395934   3.611669
    20  H    3.776271   2.693450   3.482534   3.835127   4.478843
                   16         17         18         19         20
    16  H    0.000000
    17  C    2.828527   0.000000
    18  H    3.860126   1.097065   0.000000
    19  H    2.323994   1.097185   1.793273   0.000000
    20  H    3.084199   1.098334   1.782811   1.795681   0.000000
 Stoichiometry    C6H12FN
 Framework group  C1[X(C6H12FN)]
 Deg. of freedom    54
 Full point group                 C1      NOp   1
 Largest Abelian subgroup         C1      NOp   1
 Largest concise Abelian subgroup C1      NOp   1
                         Standard orientation:                         
 ---------------------------------------------------------------------
 Center     Atomic      Atomic             Coordinates (Angstroms)
 Number     Number       Type             X           Y           Z
 ---------------------------------------------------------------------
      1          6           0        0.860710    0.486822   -0.940981
      2          6           0       -2.369689    0.129763    0.257649
      3          6           0        1.080446   -1.857547   -0.533031
      4          6           0       -2.211517   -0.729356   -0.737441
      5          7           0        1.263202   -0.434996   -0.146461
      6          1           0       -3.022967   -0.836259   -1.458061
      7          1           0        0.484598   -2.270399    0.307499
      8          1           0       -3.249721    0.753901    0.434489
      9          1           0        2.089468   -2.305724   -0.384201
     10          1           0        0.494961    0.093071   -1.895601
     11          1           0       -1.301985   -1.334514   -0.860551
     12          9           0       -1.425940    0.336776    1.193289
     13          6           0        0.842685    1.947092   -0.653541
     14          1           0        1.865904    2.357225   -0.635351
     15          1           0        0.276604    2.472241   -1.434541
     16          1           0        0.371195    2.155121    0.316229
     17          6           0        1.817381   -0.121065    1.169509
     18          1           0        2.699823   -0.755182    1.320319
     19          1           0        2.098848    0.933856    1.277829
     20          1           0        1.064222   -0.383607    1.924599
 ---------------------------------------------------------------------
 Rotational constants (GHZ):           2.3047580           1.3034645           1.1627735
 Standard basis: def2SVP (5D, 7F)
 There are   180 symmetry adapted cartesian basis functions of A   symmetry.
 There are   172 symmetry adapted basis functions of A   symmetry.
   172 basis functions,   284 primitive gaussians,   180 cartesian basis functions
    32 alpha electrons       32 beta electrons
       nuclear repulsion energy       385.3977332033 Hartrees.
 NAtoms=   20 NActive=   20 NUniq=   20 SFac= 1.00D+00 NAtFMM=   60 NAOKFM=F Big=F
 Integral buffers will be    131072 words long.
 Raffenetti 2 integral format.
 Two-electron integral symmetry is turned on.
 Nuclear repulsion after empirical dispersion term =      385.3852671914 Hartrees.
 ------------------------------------------------------------------------------
 Polarizable Continuum Model (PCM)
 =================================
 Model                : PCM.
 Atomic radii         : UFF (Universal Force Field).
 Polarization charges : Total charges.
 Charge compensation  : None.
 Solution method      : On-the-fly selection.
 Cavity type          : Scaled VdW (van der Waals Surface) (Alpha=1.100).
 Cavity algorithm     : GePol (No added spheres)
                        Default sphere list used, NSphG=   20.
                        Lebedev-Laikov grids with approx.  5.0 points / Ang**2.
                        Smoothing algorithm: York/Karplus (Gamma=1.0000).
                        Polarization charges: spherical gaussians, with
                                              point-specific exponents (IZeta= 3).
                        Self-potential: point-specific (ISelfS= 7).
                        Self-field    : sphere-specific E.n sum rule (ISelfD= 2).
 1st derivatives      : Analytical E(r).r(x)/FMM algorithm (CHGder, D1EAlg=3).
                        Cavity 1st derivative terms included.
 Solvent              : Toluene, Eps=   2.374100 Eps(inf)=   2.238315
 ------------------------------------------------------------------------------
 Spheres list:
 ISph  on   Nord     Re0    Alpha      Xe            Ye            Ze
    1   C      1    1.9255  1.100      0.860710      0.486822     -0.940981
    2   C      2    1.9255  1.100     -2.369689      0.129763      0.257649
    3   C      3    1.9255  1.100      1.080446     -1.857547     -0.533031
    4   C      4    1.9255  1.100     -2.211517     -0.729356     -0.737441
    5   N      5    1.8300  1.100      1.263202     -0.434996     -0.146461
    6   H      6    1.4430  1.100     -3.022967     -0.836259     -1.458061
    7   H      7    1.4430  1.100      0.484598     -2.270399      0.307499
    8   H      8    1.4430  1.100     -3.249721      0.753901      0.434489
    9   H      9    1.4430  1.100      2.089468     -2.305724     -0.384201
   10   H     10    1.4430  1.100      0.494961      0.093071     -1.895601
   11   H     11    1.4430  1.100     -1.301985     -1.334514     -0.860551
   12   F     12    1.6820  1.100     -1.425940      0.336776      1.193289
   13   C     13    1.9255  1.100      0.842685      1.947092     -0.653541
   14   H     14    1.4430  1.100      1.865904      2.357225     -0.635351
   15   H     15    1.4430  1.100      0.276604      2.472241     -1.434541
   16   H     16    1.4430  1.100      0.371195      2.155121      0.316229
   17   C     17    1.9255  1.100      1.817381     -0.121065      1.169509
   18   H     18    1.4430  1.100      2.699823     -0.755182      1.320319
   19   H     19    1.4430  1.100      2.098848      0.933856      1.277829
   20   H     20    1.4430  1.100      1.064222     -0.383607      1.924599
 ------------------------------------------------------------------------------
 One-electron integrals computed using PRISM.
   1 Symmetry operations used in ECPInt.
 ECPInt:  NShTT=    3570 NPrTT=   12386 LenC2=    3547 LenP2D=    9929.
 LDataN:  DoStor=T MaxTD1= 4 Len=   56
 NBasis=   172 RedAO= T EigKep=  2.95D-03  NBF=   172
 NBsUse=   172 1.00D-06 EigRej= -1.00D+00 NBFU=   172
 ExpMin= 1.22D-01 ExpMax= 2.89D+03 ExpMxC= 4.35D+02 IAcc=3 IRadAn=         5 AccDes= 0.00D+00
 Harris functional with IExCor= 4639 and IRadAn=       5 diagonalized for initial guess.
 HarFok:  IExCor= 4639 AccDes= 0.00D+00 IRadAn=         5 IDoV= 1 UseB2=F ITyADJ=14
 ICtDFT=  3500011 ScaDFX=  1.000000  1.000000  1.000000  1.000000
 FoFCou: FMM=F IPFlag=           0 FMFlag=      100000 FMFlg1=           0
         NFxFlg=           0 DoJE=T BraDBF=F KetDBF=T FulRan=T
         wScrn=  0.000000 ICntrl=       500 IOpCl=  0 I1Cent=   200000004 NGrid=           0
         NMat0=    1 NMatS0=      1 NMatT0=    0 NMatD0=    1 NMtDS0=    0 NMtDT0=    0
 Petite list used in FoFCou.
 Requested convergence on RMS density matrix=1.00D-08 within 128 cycles.
 Requested convergence on MAX density matrix=1.00D-06.
 Requested convergence on             energy=1.00D-06.
 No special actions if energy rises.
 Inv3:  Mode=1 IEnd=     6986028.
 Iteration    1 A*A^-1 deviation from unit magnitude is 3.89D-15 for   1389.
 Iteration    1 A*A^-1 deviation from orthogonality  is 2.98D-15 for   1205    244.
 Iteration    1 A^-1*A deviation from unit magnitude is 4.44D-15 for   1389.
 Iteration    1 A^-1*A deviation from orthogonality  is 1.66D-15 for   1022     33.
 Error on total polarization charges =  0.00632
 SCF Done:  E(RwB97XD) =  -389.899261150     A.U. after   16 cycles
            NFock= 16  Conv=0.31D-08     -V/T= 2.0102

 **********************************************************************

            Population analysis using the SCF Density.

 **********************************************************************

 Orbital symmetries:
       Occupied  (A) (A) (A) (A) (A) (A) (A) (A) (A) (A) (A) (A)
                 (A) (A) (A) (A) (A) (A) (A) (A) (A) (A) (A) (A)
                 (A) (A) (A) (A) (A) (A) (A) (A)
       Virtual   (A) (A) (A) (A) (A) (A) (A) (A) (A) (A) (A) (A)
                 (A) (A) (A) (A) (A) (A) (A) (A) (A) (A) (A) (A)
                 (A) (A) (A) (A) (A) (A) (A) (A) (A) (A) (A) (A)
                 (A) (A) (A) (A) (A) (A) (A) (A) (A) (A) (A) (A)
                 (A) (A) (A) (A) (A) (A) (A) (A) (A) (A) (A) (A)
                 (A) (A) (A) (A) (A) (A) (A) (A) (A) (A) (A) (A)
                 (A) (A) (A) (A) (A) (A) (A) (A) (A) (A) (A) (A)
                 (A) (A) (A) (A) (A) (A) (A) (A) (A) (A) (A) (A)
                 (A) (A) (A) (A) (A) (A) (A) (A) (A) (A) (A) (A)
                 (A) (A) (A) (A) (A) (A) (A) (A) (A) (A) (A) (A)
                 (A) (A) (A) (A) (A) (A) (A) (A) (A) (A) (A) (A)
                 (A) (A) (A) (A) (A) (A) (A) (A)
 The electronic state is 1-A.
 Alpha  occ. eigenvalues --  -24.82748 -14.52770 -10.37934 -10.37726 -10.34002
 Alpha  occ. eigenvalues --  -10.32477 -10.29241 -10.23179  -1.31074  -1.08243
 Alpha  occ. eigenvalues --   -0.87390  -0.85656  -0.82203  -0.74811  -0.69449
 Alpha  occ. eigenvalues --   -0.65584  -0.61757  -0.58409  -0.57693  -0.56422
 Alpha  occ. eigenvalues --   -0.56203  -0.55449  -0.51794  -0.49782  -0.48694
 Alpha  occ. eigenvalues --   -0.48398  -0.46034  -0.45279  -0.44265  -0.37062
 Alpha  occ. eigenvalues --   -0.34594  -0.22327
 Alpha virt. eigenvalues --    0.02608   0.08983   0.13205   0.16548   0.16630
 Alpha virt. eigenvalues --    0.17034   0.19626   0.20543   0.20961   0.21583
 Alpha virt. eigenvalues --    0.22107   0.22926   0.24309   0.25095   0.27183
 Alpha virt. eigenvalues --    0.28946   0.31934   0.35979   0.37673   0.41396
 Alpha virt. eigenvalues --    0.43587   0.48587   0.49086   0.51314   0.53742
 Alpha virt. eigenvalues --    0.54906   0.55793   0.57473   0.58771   0.60563
 Alpha virt. eigenvalues --    0.62197   0.65381   0.66578   0.68074   0.69588
 Alpha virt. eigenvalues --    0.70785   0.71868   0.72268   0.72735   0.74256
 Alpha virt. eigenvalues --    0.74902   0.75385   0.75638   0.76429   0.76810
 Alpha virt. eigenvalues --    0.77582   0.80106   0.81731   0.83499   0.84568
 Alpha virt. eigenvalues --    0.88210   0.88760   0.91957   0.93459   1.00197
 Alpha virt. eigenvalues --    1.08334   1.10174   1.15091   1.18928   1.21129
 Alpha virt. eigenvalues --    1.28196   1.29037   1.30745   1.32561   1.33514
 Alpha virt. eigenvalues --    1.35925   1.40411   1.46184   1.49246   1.54300
 Alpha virt. eigenvalues --    1.58968   1.59167   1.60633   1.62225   1.64591
 Alpha virt. eigenvalues --    1.67128   1.68990   1.71593   1.73731   1.76325
 Alpha virt. eigenvalues --    1.77550   1.79341   1.81280   1.81830   1.85121
 Alpha virt. eigenvalues --    1.85271   1.85891   1.88571   1.91770   1.92019
 Alpha virt. eigenvalues --    1.93086   1.96024   1.97395   1.98693   2.02122
 Alpha virt. eigenvalues --    2.04430   2.05333   2.05742   2.09770   2.14122
 Alpha virt. eigenvalues --    2.17307   2.18555   2.19862   2.21428   2.24100
 Alpha virt. eigenvalues --    2.31616   2.34569   2.35649   2.38235   2.40355
 Alpha virt. eigenvalues --    2.42009   2.49841   2.51752   2.52251   2.54978
 Alpha virt. eigenvalues --    2.58414   2.62420   2.72129   2.73840   2.76582
 Alpha virt. eigenvalues --    2.78925   2.81902   2.84212   2.88230   2.91672
 Alpha virt. eigenvalues --    2.93872   2.99108   3.01940   3.02516   3.05581
 Alpha virt. eigenvalues --    3.07935   3.10372   3.14624   3.17313   3.29548
 Alpha virt. eigenvalues --    3.31481   3.39726   3.44732   3.61404   3.94652
          Condensed to atoms (all electrons):
               1          2          3          4          5          6
     1  C    4.918695  -0.000832  -0.089638   0.009828   0.541056  -0.000094
     2  C   -0.000832   4.545879  -0.000019   0.608024  -0.000930  -0.006296
     3  C   -0.089638  -0.000019   5.347325  -0.032006   0.263831   0.000242
     4  C    0.009828   0.608024  -0.032006   5.008499  -0.000157   0.370654
     5  N    0.541056  -0.000930   0.263831  -0.000157   6.288045   0.000076
     6  H   -0.000094  -0.006296   0.000242   0.370654   0.000076   0.591903
     7  H   -0.000390  -0.000233   0.365793   0.002331  -0.033365   0.000082
     8  H    0.000306   0.422238  -0.000048  -0.062726  -0.000028  -0.006869
     9  H    0.004333   0.000007   0.359322   0.000745  -0.032056  -0.000008
    10  H    0.382894  -0.000592   0.033019  -0.004696  -0.026723   0.000222
    11  H   -0.011549  -0.012178   0.079131   0.319071  -0.003462  -0.022938
    12  F    0.008218   0.297124  -0.000849  -0.059738  -0.001932   0.002621
    13  C    0.302598   0.001143   0.010906  -0.002251  -0.043069   0.000023
    14  H   -0.010480   0.000009  -0.000223   0.000022  -0.004017   0.000000
    15  H   -0.008620   0.000613  -0.000244   0.000561   0.004110  -0.000009
    16  H   -0.004279  -0.001741  -0.000338  -0.000780  -0.008584  -0.000028
    17  C   -0.086544  -0.000087  -0.038176  -0.001148   0.306595   0.000005
    18  H    0.006069   0.000001  -0.000347   0.000018  -0.022711  -0.000000
    19  H   -0.009698  -0.000022   0.006330   0.000231  -0.012998  -0.000000
    20  H    0.000360   0.000007  -0.001045  -0.000004  -0.022167  -0.000007
               7          8          9         10         11         12
     1  C   -0.000390   0.000306   0.004333   0.382894  -0.011549   0.008218
     2  C   -0.000233   0.422238   0.000007  -0.000592  -0.012178   0.297124
     3  C    0.365793  -0.000048   0.359322   0.033019   0.079131  -0.000849
     4  C    0.002331  -0.062726   0.000745  -0.004696   0.319071  -0.059738
     5  N   -0.033365  -0.000028  -0.032056  -0.026723  -0.003462  -0.001932
     6  H    0.000082  -0.006869  -0.000008   0.000222  -0.022938   0.002621
     7  H    0.730241   0.000024  -0.040389  -0.001529  -0.005823   0.001084
     8  H    0.000024   0.618190   0.000001  -0.000041   0.004922  -0.031348
     9  H   -0.040389   0.000001   0.743940  -0.000398  -0.002616   0.000001
    10  H   -0.001529  -0.000041  -0.000398   0.556242   0.007888  -0.000012
    11  H   -0.005823   0.004922  -0.002616   0.007888   0.568391  -0.001300
    12  F    0.001084  -0.031348   0.000001  -0.000012  -0.001300   9.005601
    13  C   -0.000914  -0.000177  -0.000863  -0.033975   0.002562  -0.005384
    14  H   -0.000038   0.000001   0.000094   0.002499  -0.000014   0.000079
    15  H    0.000034   0.000012   0.000013  -0.008457  -0.000165  -0.000236
    16  H    0.000144   0.000016  -0.000010   0.002921  -0.000198   0.010306
    17  C   -0.002771  -0.000014  -0.009986   0.009384   0.002102  -0.000204
    18  H   -0.001863   0.000001   0.009194  -0.000342  -0.000095   0.000081
    19  H    0.000963   0.000002   0.000890  -0.000922  -0.000418  -0.000349
    20  H    0.005022   0.000078  -0.001418  -0.000356  -0.000011   0.006822
              13         14         15         16         17         18
     1  C    0.302598  -0.010480  -0.008620  -0.004279  -0.086544   0.006069
     2  C    0.001143   0.000009   0.000613  -0.001741  -0.000087   0.000001
     3  C    0.010906  -0.000223  -0.000244  -0.000338  -0.038176  -0.000347
     4  C   -0.002251   0.000022   0.000561  -0.000780  -0.001148   0.000018
     5  N   -0.043069  -0.004017   0.004110  -0.008584   0.306595  -0.022711
     6  H    0.000023   0.000000  -0.000009  -0.000028   0.000005  -0.000000
     7  H   -0.000914  -0.000038   0.000034   0.000144  -0.002771  -0.001863
     8  H   -0.000177   0.000001   0.000012   0.000016  -0.000014   0.000001
     9  H   -0.000863   0.000094   0.000013  -0.000010  -0.009986   0.009194
    10  H   -0.033975   0.002499  -0.008457   0.002921   0.009384  -0.000342
    11  H    0.002562  -0.000014  -0.000165  -0.000198   0.002102  -0.000095
    12  F   -0.005384   0.000079  -0.000236   0.010306  -0.000204   0.000081
    13  C    4.674887   0.384563   0.386827   0.377760   0.009693  -0.000466
    14  H    0.384563   0.557528  -0.013231  -0.013865  -0.001632   0.000309
    15  H    0.386827  -0.013231   0.577455  -0.016630   0.000343  -0.000022
    16  H    0.377760  -0.013865  -0.016630   0.566957   0.000382   0.000012
    17  C    0.009693  -0.001632   0.000343   0.000382   4.607488   0.394600
    18  H   -0.000466   0.000309  -0.000022   0.000012   0.394600   0.577904
    19  H    0.003915   0.001985   0.000384  -0.000185   0.360980  -0.018088
    20  H   -0.000718  -0.000285   0.000015   0.000741   0.397557  -0.014893
              19         20
     1  C   -0.009698   0.000360
     2  C   -0.000022   0.000007
     3  C    0.006330  -0.001045
     4  C    0.000231  -0.000004
     5  N   -0.012998  -0.022167
     6  H   -0.000000  -0.000007
     7  H    0.000963   0.005022
     8  H    0.000002   0.000078
     9  H    0.000890  -0.001418
    10  H   -0.000922  -0.000356
    11  H   -0.000418  -0.000011
    12  F   -0.000349   0.006822
    13  C    0.003915  -0.000718
    14  H    0.001985  -0.000285
    15  H    0.000384   0.000015
    16  H   -0.000185   0.000741
    17  C    0.360980   0.397557
    18  H   -0.018088  -0.014893
    19  H    0.633802  -0.018262
    20  H   -0.018262   0.566842
 Mulliken charges:
               1
     1  C    0.047767
     2  C    0.147885
     3  C   -0.302967
     4  C   -0.156477
     5  N   -0.191516
     6  H    0.070421
     7  H   -0.018405
     8  H    0.055460
     9  H   -0.030795
    10  H    0.082973
    11  H    0.076698
    12  F   -0.230584
    13  C   -0.067059
    14  H    0.096694
    15  H    0.077248
    16  H    0.087401
    17  C    0.051434
    18  H    0.070640
    19  H    0.051463
    20  H    0.081720
 Sum of Mulliken charges =  -0.00000
 Mulliken charges with hydrogens summed into heavy atoms:
               1
     1  C    0.130740
     2  C    0.203345
     3  C   -0.352167
     4  C   -0.009358
     5  N   -0.191516
    12  F   -0.230584
    13  C    0.194283
    17  C    0.255256
 Electronic spatial extent (au):  <R**2>=           1196.2346
 Charge=             -0.0000 electrons
 Dipole moment (field-independent basis, Debye):
    X=              0.0551    Y=              6.0265    Z=              1.4580  Tot=              6.2006
 Quadrupole moment (field-independent basis, Debye-Ang):
   XX=            -42.5563   YY=            -56.3927   ZZ=            -50.9518
   XY=              3.9627   XZ=              4.6283   YZ=             -6.5308
 Traceless Quadrupole moment (field-independent basis, Debye-Ang):
   XX=              7.4106   YY=             -6.4258   ZZ=             -0.9849
   XY=              3.9627   XZ=              4.6283   YZ=             -6.5308
 Octapole moment (field-independent basis, Debye-Ang**2):
  XXX=            -19.3344  YYY=             38.4627  ZZZ=             13.8470  XYY=             -6.5613
  XXY=             13.3906  XXZ=              6.7156  XZZ=             -3.1850  YZZ=             11.9974
  YYZ=             13.4472  XYZ=             -8.4357
 Hexadecapole moment (field-independent basis, Debye-Ang**3):
 XXXX=           -767.1310 YYYY=           -499.2376 ZZZZ=           -270.6983 XXXY=             -9.6690
 XXXZ=              9.1308 YYYX=             21.6971 YYYZ=            -32.4321 ZZZX=              1.8120
 ZZZY=            -18.0117 XXYY=           -220.2239 XXZZ=           -181.0945 YYZZ=           -136.5912
 XXYZ=             -0.4501 YYXZ=              6.1297 ZZXY=             10.6122
 N-N= 3.853852671914D+02 E-N=-1.679180287486D+03  KE= 3.859500006538D+02
   1 Symmetry operations used in ECPInt.
 ECPInt:  NShTT=    3570 NPrTT=   12386 LenC2=    3547 LenP2D=    9929.
 LDataN:  DoStor=T MaxTD1= 5 Len=  102
 D1PCM: PCM CHGder 1st derivatives, ID1Alg=3 FixD1E=F DoIter=F DoCFld=F I1PDM=0.
 Calling FoFJK, ICntrl=      2127 FMM=F ISym2X=0 I1Cent= 0 IOpClX= 0 NMat=1 NMatS=1 NMatT=0.
 ***** Axes restored to original set *****
 -------------------------------------------------------------------
 Center     Atomic                   Forces (Hartrees/Bohr)
 Number     Number              X              Y              Z
 -------------------------------------------------------------------
      1        6           0.000593952    0.001548437   -0.000625011
      2        6           0.000183232   -0.000179793   -0.000005837
      3        6          -0.003387122   -0.000010460   -0.001594949
      4        6          -0.000025154    0.000283726    0.000624126
      5        7          -0.000051456    0.000279065    0.000822487
      6        1           0.000455830    0.000004765   -0.000235469
      7        1           0.000959400    0.000015807    0.001090619
      8        1           0.000189764   -0.000067819   -0.000154766
      9        1           0.001809689   -0.000352815   -0.000353469
     10        1           0.000207129   -0.000786422    0.001011869
     11        1          -0.000301055   -0.000142793   -0.000133116
     12        9          -0.000687740    0.000238963   -0.000219400
     13        6          -0.000088642   -0.001348785   -0.002010722
     14        1           0.000375510   -0.000158808    0.000042680
     15        1          -0.001169823    0.000629480    0.000625594
     16        1           0.000223855    0.000389105    0.000942412
     17        6           0.000272279    0.000428453   -0.000149668
     18        1           0.000253390   -0.000135252   -0.000090424
     19        1           0.000123438   -0.000465802    0.000102335
     20        1           0.000063525   -0.000169051    0.000310709
 -------------------------------------------------------------------
 Cartesian Forces:  Max     0.003387122 RMS     0.000783500

 GradGradGradGradGradGradGradGradGradGradGradGradGradGradGradGradGradGrad
 Berny optimization.
 FormGI is forming the generalized inverse of G from B-inverse, IUseBI=4.
 Internal  Forces:  Max     0.001827252 RMS     0.000527973
 Search for a saddle point.
 Step number   1 out of a maximum of   50
 All quantities printed in internal units (Hartrees-Bohrs-Radians)
 Swapping is turned off.
 Second derivative matrix not updated -- first step.
 ITU=  0
     Eigenvalues ---   -0.00491  -0.00120  -0.00051   0.00014   0.00068
     Eigenvalues ---    0.00284   0.01371   0.01653   0.01733   0.02048
     Eigenvalues ---    0.02292   0.02554   0.02715   0.02900   0.04420
     Eigenvalues ---    0.04480   0.04484   0.04614   0.04915   0.07890
     Eigenvalues ---    0.08432   0.10227   0.10659   0.11060   0.11706
     Eigenvalues ---    0.12086   0.12368   0.12718   0.13031   0.14233
     Eigenvalues ---    0.14864   0.15242   0.15828   0.18425   0.21396
     Eigenvalues ---    0.23463   0.25094   0.25575   0.25882   0.26126
     Eigenvalues ---    0.26275   0.26444   0.26673   0.27202   0.27828
     Eigenvalues ---    0.28023   0.30642   0.36062   0.40167   0.44606
     Eigenvalues ---    0.46763   0.50550   0.80866   0.91140
 Eigenvectors required to have negative eigenvalues:
                          D18       D16       D17       D15       R14
   1                    0.42875   0.42234   0.39000   0.38359  -0.31158
                          A32       R10       D20       D21       D23
   1                    0.29128   0.26032   0.13747  -0.12462  -0.11189
 RFO step:  Lambda0=2.767669920D-07 Lambda=-1.23713854D-03.
 Linear search not attempted -- option 19 set.
 Maximum step size (   0.100) exceeded in Quadratic search.
    -- Step size scaled by   0.701
 Iteration  1 RMS(Cart)=  0.06175727 RMS(Int)=  0.00157043
 Iteration  2 RMS(Cart)=  0.00247902 RMS(Int)=  0.00010198
 Iteration  3 RMS(Cart)=  0.00000346 RMS(Int)=  0.00010196
 Iteration  4 RMS(Cart)=  0.00000000 RMS(Int)=  0.00010196
 Variable       Old X    -DE/DX   Delta X   Delta X   Delta X     New X
                                 (Linear)    (Quad)   (Total)
    R1        2.42225  -0.00012   0.00000  -0.00006  -0.00006   2.42219
    R2        2.07019  -0.00109   0.00000  -0.00301  -0.00301   2.06718
    R3        2.81267   0.00039   0.00000   0.00174   0.00174   2.81441
    R4        2.50224  -0.00031   0.00000  -0.00017  -0.00017   2.50206
    R5        2.06601   0.00017   0.00000   0.00022   0.00022   2.06623
    R6        2.54162   0.00030   0.00000   0.00014   0.00014   2.54176
    R7        2.80705  -0.00004   0.00000   0.00046   0.00046   2.80751
    R8        2.09749   0.00121   0.00000   0.00498   0.00524   2.10273
    R9        2.10527  -0.00183   0.00000  -0.00658  -0.00658   2.09870
   R10        4.65073   0.00011   0.00000   0.00765   0.00764   4.65837
   R11        2.06073   0.00049   0.00000   0.00160   0.00160   2.06233
   R12        2.07751  -0.00006   0.00000   0.00005   0.00005   2.07756
   R13        2.76278  -0.00005   0.00000  -0.00094  -0.00094   2.76184
   R14        4.40436  -0.00027   0.00000  -0.08154  -0.08166   4.32270
   R15        2.08343  -0.00029   0.00000  -0.00091  -0.00091   2.08253
   R16        2.07542  -0.00134   0.00000  -0.00407  -0.00407   2.07135
   R17        2.07529   0.00085   0.00000   0.00250   0.00250   2.07779
   R18        2.07315  -0.00029   0.00000  -0.00097  -0.00097   2.07219
   R19        2.07338   0.00043   0.00000   0.00102   0.00102   2.07439
   R20        2.07555   0.00021   0.00000   0.00100   0.00100   2.07655
    A1        1.96762   0.00058   0.00000   0.00248   0.00247   1.97009
    A2        2.20144  -0.00020   0.00000   0.00141   0.00141   2.20285
    A3        2.11399  -0.00038   0.00000  -0.00382  -0.00382   2.11017
    A4        2.19952   0.00032   0.00000   0.00007   0.00007   2.19959
    A5        2.13985  -0.00100   0.00000  -0.00186  -0.00186   2.13800
    A6        1.94381   0.00068   0.00000   0.00178   0.00178   1.94559
    A7        1.79793  -0.00072   0.00000  -0.00469  -0.00453   1.79340
    A8        1.81220   0.00078   0.00000   0.00414   0.00416   1.81636
    A9        1.52098  -0.00066   0.00000   0.00922   0.00915   1.53014
   A10        1.80844   0.00005   0.00000   0.00026   0.00018   1.80862
   A11        2.06159   0.00049   0.00000  -0.00123  -0.00124   2.06036
   A12        2.14139  -0.00123   0.00000   0.00090   0.00089   2.14228
   A13        2.08020   0.00074   0.00000   0.00035   0.00035   2.08055
   A14        2.08148  -0.00030   0.00000  -0.00463  -0.00464   2.07685
   A15        2.12062  -0.00054   0.00000   0.00241   0.00240   2.12302
   A16        2.07890   0.00084   0.00000   0.00249   0.00248   2.08139
   A17        2.69743  -0.00111   0.00000   0.01252   0.01272   2.71015
   A18        2.49658  -0.00077   0.00000  -0.00519  -0.00462   2.49196
   A19        1.93576   0.00048   0.00000   0.00200   0.00200   1.93777
   A20        1.91562   0.00001   0.00000   0.00097   0.00097   1.91660
   A21        1.94076  -0.00080   0.00000  -0.00441  -0.00441   1.93635
   A22        1.88833  -0.00031   0.00000  -0.00293  -0.00293   1.88540
   A23        1.88959   0.00005   0.00000  -0.00099  -0.00099   1.88860
   A24        1.89240   0.00059   0.00000   0.00545   0.00545   1.89785
   A25        1.88023  -0.00007   0.00000  -0.00081  -0.00081   1.87942
   A26        1.97421  -0.00013   0.00000   0.00242   0.00242   1.97663
   A27        1.88342   0.00035   0.00000  -0.00013  -0.00013   1.88330
   A28        1.91328   0.00013   0.00000   0.00298   0.00298   1.91626
   A29        1.89537  -0.00002   0.00000   0.00031   0.00031   1.89568
   A30        1.91545  -0.00025   0.00000  -0.00480  -0.00480   1.91065
   A31        3.33318   0.00013   0.00000   0.01336   0.01332   3.34650
   A32        3.19997   0.00026   0.00000   0.04107   0.04101   3.24098
    D1       -0.09524   0.00041   0.00000   0.02062   0.02062  -0.07462
    D2        3.11793   0.00038   0.00000   0.01628   0.01627   3.13421
    D3        3.02886   0.00047   0.00000   0.02533   0.02533   3.05419
    D4       -0.04116   0.00044   0.00000   0.02098   0.02099  -0.02017
    D5        1.24064  -0.00016   0.00000  -0.04060  -0.04059   1.20005
    D6       -2.95693  -0.00024   0.00000  -0.04235  -0.04235  -2.99927
    D7       -0.86307  -0.00001   0.00000  -0.03773  -0.03773  -0.90080
    D8       -1.91980  -0.00009   0.00000  -0.03546  -0.03547  -1.95527
    D9        0.16582  -0.00017   0.00000  -0.03722  -0.03722   0.12860
   D10        2.25967   0.00006   0.00000  -0.03260  -0.03260   2.22707
   D11        0.00211   0.00005   0.00000   0.00186   0.00186   0.00397
   D12       -3.13662  -0.00014   0.00000  -0.00304  -0.00304  -3.13966
   D13       -3.13706   0.00033   0.00000   0.00345   0.00345  -3.13361
   D14        0.00740   0.00015   0.00000  -0.00145  -0.00145   0.00595
   D15       -2.14019  -0.00000   0.00000  -0.00348  -0.00353  -2.14372
   D16        0.93155  -0.00003   0.00000   0.00077   0.00072   0.93227
   D17        2.26148  -0.00007   0.00000  -0.00354  -0.00354   2.25794
   D18       -0.94996  -0.00010   0.00000   0.00071   0.00070  -0.94925
   D19       -0.93848  -0.00033   0.00000  -0.04461  -0.04455  -0.98303
   D20        2.13326  -0.00036   0.00000  -0.04036  -0.04031   2.09295
   D21       -0.30354   0.00098   0.00000  -0.03410  -0.03395  -0.33749
   D22       -0.39197   0.00069   0.00000   0.10055   0.10085  -0.29112
   D23        0.44751   0.00018   0.00000   0.09721   0.09692   0.54443
   D24        2.75252   0.00050   0.00000   0.09560   0.09590   2.84842
   D25       -2.69119  -0.00001   0.00000   0.09226   0.09196  -2.59922
   D26       -2.39181   0.00004   0.00000   0.07303   0.07303  -2.31878
   D27       -0.27440   0.00007   0.00000   0.07775   0.07776  -0.19664
   D28        1.84798  -0.00008   0.00000   0.07315   0.07316   1.92114
   D29        0.82125   0.00006   0.00000   0.06897   0.06896   0.89021
   D30        2.93867   0.00009   0.00000   0.07369   0.07369   3.01236
   D31       -1.22214  -0.00006   0.00000   0.06910   0.06909  -1.15305
         Item               Value     Threshold  Converged?
 Maximum Force            0.001827     0.000450     NO 
 RMS     Force            0.000528     0.000300     NO 
 Maximum Displacement     0.207221     0.001800     NO 
 RMS     Displacement     0.061949     0.001200     NO 
 Predicted change in Energy=-2.400249D-04
 GradGradGradGradGradGradGradGradGradGradGradGradGradGradGradGradGradGrad

                          Input orientation:                          
 ---------------------------------------------------------------------
 Center     Atomic      Atomic             Coordinates (Angstroms)
 Number     Number       Type             X           Y           Z
 ---------------------------------------------------------------------
      1          6           0       -0.887247   -0.505628   -0.951658
      2          6           0        2.384718   -0.118519    0.267704
      3          6           0       -1.081921    1.840888   -0.561508
      4          6           0        2.241947    0.772541   -0.701159
      5          7           0       -1.263524    0.423959   -0.153405
      6          1           0        3.084110    0.936742   -1.375559
      7          1           0       -0.462194    2.256737    0.263808
      8          1           0        3.279278   -0.715144    0.466031
      9          1           0       -2.079763    2.299514   -0.396073
     10          1           0       -0.526573   -0.122488   -1.910693
     11          1           0        1.315503    1.345320   -0.850486
     12          9           0        1.402437   -0.397959    1.143020
     13          6           0       -0.895856   -1.967342   -0.666371
     14          1           0       -1.926755   -2.350795   -0.598035
     15          1           0       -0.386266   -2.506385   -1.473348
     16          1           0       -0.384480   -2.185683    0.282187
     17          6           0       -1.788250    0.125708    1.177647
     18          1           0       -2.704158    0.713056    1.313902
     19          1           0       -2.003888   -0.939829    1.329720
     20          1           0       -1.045329    0.458096    1.915946
 ---------------------------------------------------------------------
                    Distance matrix (angstroms):
                    1          2          3          4          5
     1  C    0.000000
     2  C    3.513183   0.000000
     3  C    2.386682   4.067487   0.000000
     4  C    3.389443   1.324035   3.494133   0.000000
     5  N    1.281766   3.712315   1.485670   3.565091   0.000000
     6  H    4.246386   2.074377   4.340043   1.091336   4.545165
     7  H    3.047735   3.707663   1.112717   3.232086   2.043348
     8  H    4.406095   1.093404   5.158409   2.156755   4.724225
     9  H    3.098320   5.120456   1.110583   4.593680   2.059815
    10  H    1.093905   3.636076   2.446131   3.150993   1.982363
    11  H    2.878950   2.129881   2.465104   1.099396   2.825988
    12  F    3.105145   1.345042   3.753650   2.340052   3.076299
    13  C    1.489319   3.879794   3.814214   4.165810   2.473183
    14  H    2.147153   4.931669   4.276129   5.209984   2.887357
    15  H    2.127480   4.051113   4.496017   4.272603   3.331478
    16  H    2.144233   3.455695   4.172711   4.076294   2.787954
    17  C    2.396734   4.278003   2.542716   4.493417   1.461503
    18  H    3.149463   5.261436   2.724119   5.341158   2.076534
    19  H    2.576840   4.589367   3.486998   5.008373   2.146559
    20  H    3.029341   3.848949   2.837470   4.213585   2.081103
                    6          7          8          9         10
     6  H    0.000000
     7  H    4.123855   0.000000
     8  H    2.481586   4.782424   0.000000
     9  H    5.429744   1.747513   6.208921   0.000000
    10  H    3.800706   3.223866   4.525987   3.251548   0.000000
    11  H    1.889605   2.287474   3.136102   3.555954   2.582972
    12  F    3.309484   3.361142   2.020260   4.665927   3.622448
    13  C    4.977627   4.346969   4.503562   4.436299   2.255702
    14  H    6.043277   4.910912   5.559709   4.657206   2.940906
    15  H    4.889600   5.070582   4.517294   5.208177   2.427739
    16  H    4.952652   4.443138   3.952139   4.842624   3.014247
    17  C    5.560263   2.671107   5.185872   2.699446   3.345336
    18  H    6.386492   2.917542   6.209682   2.414691   3.979701
    19  H    6.060344   3.705540   5.358011   3.671166   3.653872
    20  H    5.302393   2.510920   4.709668   3.131502   3.905042
                   11         12         13         14         15
    11  H    0.000000
    12  F    2.649650   0.000000
    13  C    3.987196   3.319489   0.000000
    14  H    4.923132   4.234190   1.102025   0.000000
    15  H    4.256713   3.806613   1.096112   1.778619   0.000000
    16  H    4.079322   2.670218   1.099518   1.783442   1.784588
    17  C    3.903084   3.233560   2.928759   3.050458   3.990143
    18  H    4.608906   4.257661   3.791566   3.694190   4.848317
    19  H    4.581873   3.454205   2.503577   2.390191   3.595551
    20  H    3.743506   2.705883   3.545907   3.871290   4.550805
                   16         17         18         19         20
    16  H    0.000000
    17  C    2.848675   0.000000
    18  H    3.853314   1.096554   0.000000
    19  H    2.296075   1.097722   1.795176   0.000000
    20  H    3.177335   1.098863   1.783025   1.793514   0.000000
 Stoichiometry    C6H12FN
 Framework group  C1[X(C6H12FN)]
 Deg. of freedom    54
 Full point group                 C1      NOp   1
 Largest Abelian subgroup         C1      NOp   1
 Largest concise Abelian subgroup C1      NOp   1
                         Standard orientation:                         
 ---------------------------------------------------------------------
 Center     Atomic      Atomic             Coordinates (Angstroms)
 Number     Number       Type             X           Y           Z
 ---------------------------------------------------------------------
      1          6           0        0.904524    0.463828   -0.942246
      2          6           0       -2.387014    0.173461    0.251036
      3          6           0        1.036191   -1.882196   -0.523815
      4          6           0       -2.258164   -0.732030   -0.706331
      5          7           0        1.249952   -0.465687   -0.130085
      6          1           0       -3.098125   -0.882702   -1.386608
      7          1           0        0.398744   -2.272736    0.300368
      8          1           0       -3.267920    0.794707    0.434307
      9          1           0        2.020571   -2.363907   -0.343966
     10          1           0        0.542888    0.078874   -1.900191
     11          1           0       -1.345221   -1.329679   -0.840582
     12          9           0       -1.405871    0.438110    1.132204
     13          6           0        0.947589    1.928053   -0.673428
     14          1           0        1.987214    2.286143   -0.599878
     15          1           0        0.459083    2.470436   -1.491134
     16          1           0        0.433410    2.170147    0.267821
     17          6           0        1.770090   -0.165437    1.202317
     18          1           0        2.669568   -0.774090    1.353684
     19          1           0        2.011272    0.896005    1.344331
     20          1           0        1.012389   -0.470444    1.937409
 ---------------------------------------------------------------------
 Rotational constants (GHZ):           2.3006969           1.3022557           1.1502813
 Standard basis: def2SVP (5D, 7F)
 There are   180 symmetry adapted cartesian basis functions of A   symmetry.
 There are   172 symmetry adapted basis functions of A   symmetry.
   172 basis functions,   284 primitive gaussians,   180 cartesian basis functions
    32 alpha electrons       32 beta electrons
       nuclear repulsion energy       385.0238600800 Hartrees.
 NAtoms=   20 NActive=   20 NUniq=   20 SFac= 1.00D+00 NAtFMM=   60 NAOKFM=F Big=F
 Integral buffers will be    131072 words long.
 Raffenetti 2 integral format.
 Two-electron integral symmetry is turned on.
 Nuclear repulsion after empirical dispersion term =      385.0115022346 Hartrees.
 ------------------------------------------------------------------------------
 Polarizable Continuum Model (PCM)
 =================================
 Model                : PCM.
 Atomic radii         : UFF (Universal Force Field).
 Polarization charges : Total charges.
 Charge compensation  : None.
 Solution method      : On-the-fly selection.
 Cavity type          : Scaled VdW (van der Waals Surface) (Alpha=1.100).
 Cavity algorithm     : GePol (No added spheres)
                        Default sphere list used, NSphG=   20.
                        Lebedev-Laikov grids with approx.  5.0 points / Ang**2.
                        Smoothing algorithm: York/Karplus (Gamma=1.0000).
                        Polarization charges: spherical gaussians, with
                                              point-specific exponents (IZeta= 3).
                        Self-potential: point-specific (ISelfS= 7).
                        Self-field    : sphere-specific E.n sum rule (ISelfD= 2).
 1st derivatives      : Analytical E(r).r(x)/FMM algorithm (CHGder, D1EAlg=3).
                        Cavity 1st derivative terms included.
 Solvent              : Toluene, Eps=   2.374100 Eps(inf)=   2.238315
 ------------------------------------------------------------------------------
 Spheres list:
 ISph  on   Nord     Re0    Alpha      Xe            Ye            Ze
    1   C      1    1.9255  1.100      0.904524      0.463828     -0.942246
    2   C      2    1.9255  1.100     -2.387014      0.173461      0.251036
    3   C      3    1.9255  1.100      1.036191     -1.882196     -0.523815
    4   C      4    1.9255  1.100     -2.258164     -0.732030     -0.706331
    5   N      5    1.8300  1.100      1.249952     -0.465687     -0.130085
    6   H      6    1.4430  1.100     -3.098125     -0.882702     -1.386608
    7   H      7    1.4430  1.100      0.398744     -2.272736      0.300368
    8   H      8    1.4430  1.100     -3.267920      0.794707      0.434307
    9   H      9    1.4430  1.100      2.020571     -2.363907     -0.343966
   10   H     10    1.4430  1.100      0.542888      0.078874     -1.900191
   11   H     11    1.4430  1.100     -1.345221     -1.329679     -0.840582
   12   F     12    1.6820  1.100     -1.405871      0.438110      1.132204
   13   C     13    1.9255  1.100      0.947589      1.928053     -0.673428
   14   H     14    1.4430  1.100      1.987214      2.286143     -0.599878
   15   H     15    1.4430  1.100      0.459083      2.470436     -1.491134
   16   H     16    1.4430  1.100      0.433410      2.170147      0.267821
   17   C     17    1.9255  1.100      1.770090     -0.165437      1.202317
   18   H     18    1.4430  1.100      2.669568     -0.774090      1.353684
   19   H     19    1.4430  1.100      2.011272      0.896005      1.344331
   20   H     20    1.4430  1.100      1.012389     -0.470444      1.937409
 ------------------------------------------------------------------------------
 One-electron integrals computed using PRISM.
   1 Symmetry operations used in ECPInt.
 ECPInt:  NShTT=    3570 NPrTT=   12386 LenC2=    3546 LenP2D=    9922.
 LDataN:  DoStor=T MaxTD1= 4 Len=   56
 NBasis=   172 RedAO= T EigKep=  2.99D-03  NBF=   172
 NBsUse=   172 1.00D-06 EigRej= -1.00D+00 NBFU=   172
 Initial guess from the checkpoint file:  "allylic-1_1_opt_sqm_re.chk"
 B after Tr=    -0.000000   -0.000000   -0.000000
         Rot=    0.999863    0.008056    0.004498    0.013709 Ang=   1.89 deg.
 ExpMin= 1.22D-01 ExpMax= 2.89D+03 ExpMxC= 4.35D+02 IAcc=3 IRadAn=         5 AccDes= 0.00D+00
 Harris functional with IExCor= 4639 and IRadAn=       5 diagonalized for initial guess.
 HarFok:  IExCor= 4639 AccDes= 0.00D+00 IRadAn=         5 IDoV= 1 UseB2=F ITyADJ=14
 ICtDFT=  3500011 ScaDFX=  1.000000  1.000000  1.000000  1.000000
 FoFCou: FMM=F IPFlag=           0 FMFlag=      100000 FMFlg1=           0
         NFxFlg=           0 DoJE=T BraDBF=F KetDBF=T FulRan=T
         wScrn=  0.000000 ICntrl=       500 IOpCl=  0 I1Cent=   200000004 NGrid=           0
         NMat0=    1 NMatS0=      1 NMatT0=    0 NMatD0=    1 NMtDS0=    0 NMtDT0=    0
 Petite list used in FoFCou.
 Requested convergence on RMS density matrix=1.00D-08 within 128 cycles.
 Requested convergence on MAX density matrix=1.00D-06.
 Requested convergence on             energy=1.00D-06.
 No special actions if energy rises.
 Inv3:  Mode=1 IEnd=     7105563.
 Iteration    1 A*A^-1 deviation from unit magnitude is 2.66D-15 for    124.
 Iteration    1 A*A^-1 deviation from orthogonality  is 1.70D-15 for   1162    412.
 Iteration    1 A^-1*A deviation from unit magnitude is 3.11D-15 for    767.
 Iteration    1 A^-1*A deviation from orthogonality  is 2.66D-15 for   1348    740.
 Error on total polarization charges =  0.00609
 SCF Done:  E(RwB97XD) =  -389.899392121     A.U. after   13 cycles
            NFock= 13  Conv=0.55D-08     -V/T= 2.0102
   1 Symmetry operations used in ECPInt.
 ECPInt:  NShTT=    3570 NPrTT=   12386 LenC2=    3546 LenP2D=    9922.
 LDataN:  DoStor=T MaxTD1= 5 Len=  102
 D1PCM: PCM CHGder 1st derivatives, ID1Alg=3 FixD1E=F DoIter=F DoCFld=F I1PDM=0.
 Calling FoFJK, ICntrl=      2127 FMM=F ISym2X=0 I1Cent= 0 IOpClX= 0 NMat=1 NMatS=1 NMatT=0.
 ***** Axes restored to original set *****
 -------------------------------------------------------------------
 Center     Atomic                   Forces (Hartrees/Bohr)
 Number     Number              X              Y              Z
 -------------------------------------------------------------------
      1        6          -0.000230063   -0.000107182    0.000384836
      2        6          -0.000033189    0.000004274   -0.000412012
      3        6           0.000030186    0.000125297    0.000463712
      4        6           0.000242332    0.000094139   -0.000122721
      5        7           0.000816539   -0.000164564   -0.000337756
      6        1          -0.000001219    0.000121527    0.000177453
      7        1          -0.000214572    0.000076786   -0.000081908
      8        1           0.000039479   -0.000007147   -0.000018075
      9        1          -0.000183042    0.000053677   -0.000013343
     10        1           0.000293955    0.000079168    0.000079276
     11        1          -0.000181715   -0.000427118   -0.000200343
     12        9          -0.000425230    0.000086678    0.000375160
     13        6          -0.000377062   -0.000317007   -0.000264982
     14        1           0.000023339    0.000062849    0.000208716
     15        1          -0.000000391    0.000006228    0.000007442
     16        1           0.000173668    0.000076885   -0.000007710
     17        6           0.000648717    0.000102959    0.000047537
     18        1          -0.000319324    0.000099339    0.000300816
     19        1          -0.000113509    0.000093162   -0.000264480
     20        1          -0.000188897   -0.000059952   -0.000321617
 -------------------------------------------------------------------
 Cartesian Forces:  Max     0.000816539 RMS     0.000244950

 GradGradGradGradGradGradGradGradGradGradGradGradGradGradGradGradGradGrad
 Berny optimization.
 FormGI is forming the generalized inverse of G from B-inverse, IUseBI=4.
 Internal  Forces:  Max     0.000878324 RMS     0.000258018
 Search for a saddle point.
 Step number   2 out of a maximum of   50
 All quantities printed in internal units (Hartrees-Bohrs-Radians)
 Swapping is turned off.
 Update second derivatives using D2CorX and points    1    2
 ITU=  0  0
     Eigenvalues ---   -0.00491  -0.00119  -0.00079   0.00003   0.00119
     Eigenvalues ---    0.00354   0.01450   0.01652   0.01733   0.02066
     Eigenvalues ---    0.02293   0.02555   0.02715   0.02902   0.04424
     Eigenvalues ---    0.04484   0.04490   0.04617   0.04927   0.07890
     Eigenvalues ---    0.08433   0.10229   0.10663   0.11060   0.11713
     Eigenvalues ---    0.12089   0.12368   0.12737   0.13054   0.14239
     Eigenvalues ---    0.14866   0.15254   0.15832   0.18429   0.21406
     Eigenvalues ---    0.23468   0.25092   0.25593   0.25882   0.26132
     Eigenvalues ---    0.26278   0.26466   0.26675   0.27205   0.27828
     Eigenvalues ---    0.28023   0.30641   0.36061   0.40178   0.44605
     Eigenvalues ---    0.46781   0.50560   0.80866   0.91140
 Eigenvectors required to have negative eigenvalues:
                          D18       D16       D17       D15       R14
   1                    0.42802   0.42104   0.39004   0.38306  -0.30463
                          A32       R10       D20       D23       D25
   1                    0.28745   0.26333   0.14057  -0.12677  -0.11819
 RFO step:  Lambda0=1.574771277D-06 Lambda=-1.25306195D-03.
 Linear search not attempted -- option 19 set.
 Iteration  1 RMS(Cart)=  0.07648401 RMS(Int)=  0.00368669
 Iteration  2 RMS(Cart)=  0.00440716 RMS(Int)=  0.00004690
 Iteration  3 RMS(Cart)=  0.00001212 RMS(Int)=  0.00004602
 Iteration  4 RMS(Cart)=  0.00000000 RMS(Int)=  0.00004602
 Variable       Old X    -DE/DX   Delta X   Delta X   Delta X     New X
                                 (Linear)    (Quad)   (Total)
    R1        2.42219  -0.00012   0.00000  -0.00043  -0.00043   2.42176
    R2        2.06718   0.00006   0.00000   0.00114   0.00114   2.06832
    R3        2.81441   0.00015   0.00000   0.00048   0.00048   2.81489
    R4        2.50206  -0.00013   0.00000   0.00014   0.00014   2.50220
    R5        2.06623   0.00003   0.00000   0.00013   0.00013   2.06636
    R6        2.54176   0.00054   0.00000   0.00147   0.00147   2.54323
    R7        2.80751  -0.00001   0.00000  -0.00185  -0.00185   2.80566
    R8        2.10273  -0.00015   0.00000  -0.00220  -0.00223   2.10050
    R9        2.09870   0.00019   0.00000   0.00315   0.00315   2.10185
   R10        4.65837  -0.00038   0.00000  -0.00249  -0.00262   4.65575
   R11        2.06233  -0.00010   0.00000  -0.00139  -0.00139   2.06094
   R12        2.07756  -0.00031   0.00000  -0.00008  -0.00008   2.07747
   R13        2.76184  -0.00028   0.00000  -0.00022  -0.00022   2.76162
   R14        4.32270   0.00008   0.00000   0.04362   0.04377   4.36647
   R15        2.08253  -0.00004   0.00000  -0.00127  -0.00127   2.08125
   R16        2.07135  -0.00000   0.00000   0.00056   0.00056   2.07191
   R17        2.07779   0.00005   0.00000   0.00114   0.00114   2.07892
   R18        2.07219   0.00036   0.00000   0.00239   0.00239   2.07458
   R19        2.07439  -0.00010   0.00000  -0.00106  -0.00106   2.07334
   R20        2.07655  -0.00037   0.00000  -0.00251  -0.00251   2.07404
    A1        1.97009  -0.00006   0.00000  -0.00156  -0.00157   1.96852
    A2        2.20285   0.00002   0.00000   0.00067   0.00066   2.20351
    A3        2.11017   0.00004   0.00000   0.00084   0.00083   2.11101
    A4        2.19959   0.00008   0.00000   0.00006   0.00006   2.19965
    A5        2.13800  -0.00022   0.00000   0.00030   0.00029   2.13829
    A6        1.94559   0.00013   0.00000  -0.00035  -0.00035   1.94524
    A7        1.79340   0.00033   0.00000   0.00656   0.00646   1.79985
    A8        1.81636   0.00040   0.00000  -0.00202  -0.00203   1.81433
    A9        1.53014  -0.00088   0.00000  -0.03480  -0.03473   1.49540
   A10        1.80862  -0.00014   0.00000  -0.00172  -0.00160   1.80702
   A11        2.06036   0.00043   0.00000   0.00186   0.00186   2.06222
   A12        2.14228  -0.00087   0.00000  -0.00551  -0.00552   2.13676
   A13        2.08055   0.00044   0.00000   0.00366   0.00365   2.08420
   A14        2.07685   0.00054   0.00000   0.00637   0.00634   2.08318
   A15        2.12302  -0.00039   0.00000  -0.00107  -0.00110   2.12193
   A16        2.08139  -0.00014   0.00000  -0.00447  -0.00450   2.07688
   A17        2.71015  -0.00076   0.00000  -0.00782  -0.00797   2.70218
   A18        2.49196  -0.00025   0.00000  -0.03327  -0.03319   2.45877
   A19        1.93777   0.00004   0.00000   0.00691   0.00690   1.94467
   A20        1.91660   0.00002   0.00000   0.00171   0.00169   1.91828
   A21        1.93635  -0.00019   0.00000  -0.01014  -0.01014   1.92621
   A22        1.88540   0.00009   0.00000   0.00271   0.00268   1.88808
   A23        1.88860   0.00004   0.00000   0.00124   0.00125   1.88985
   A24        1.89785   0.00000   0.00000  -0.00228  -0.00230   1.89555
   A25        1.87942   0.00047   0.00000   0.00316   0.00316   1.88258
   A26        1.97663  -0.00036   0.00000   0.00005   0.00005   1.97668
   A27        1.88330  -0.00012   0.00000  -0.00126  -0.00126   1.88204
   A28        1.91626  -0.00011   0.00000  -0.00243  -0.00243   1.91383
   A29        1.89568  -0.00008   0.00000  -0.00289  -0.00289   1.89279
   A30        1.91065   0.00022   0.00000   0.00322   0.00322   1.91386
   A31        3.34650  -0.00048   0.00000  -0.03682  -0.03676   3.30973
   A32        3.24098  -0.00002   0.00000  -0.01228  -0.01218   3.22879
    D1       -0.07462   0.00014   0.00000   0.01103   0.01105  -0.06357
    D2        3.13421   0.00007   0.00000  -0.00322  -0.00324   3.13096
    D3        3.05419   0.00013   0.00000   0.00579   0.00581   3.06001
    D4       -0.02017   0.00006   0.00000  -0.00846  -0.00848  -0.02864
    D5        1.20005  -0.00017   0.00000  -0.13345  -0.13347   1.06658
    D6       -2.99927  -0.00002   0.00000  -0.12463  -0.12463  -3.12390
    D7       -0.90080  -0.00013   0.00000  -0.13285  -0.13284  -1.03364
    D8       -1.95527  -0.00018   0.00000  -0.13909  -0.13911  -2.09438
    D9        0.12860  -0.00003   0.00000  -0.13027  -0.13027  -0.00167
   D10        2.22707  -0.00014   0.00000  -0.13849  -0.13848   2.08859
   D11        0.00397  -0.00002   0.00000  -0.00611  -0.00611  -0.00214
   D12       -3.13966   0.00003   0.00000  -0.00043  -0.00043  -3.14008
   D13       -3.13361  -0.00018   0.00000  -0.01062  -0.01062   3.13896
   D14        0.00595  -0.00013   0.00000  -0.00494  -0.00494   0.00101
   D15       -2.14372  -0.00004   0.00000   0.00368   0.00376  -2.13996
   D16        0.93227   0.00002   0.00000   0.01771   0.01780   0.95007
   D17        2.25794  -0.00013   0.00000   0.00398   0.00398   2.26192
   D18       -0.94925  -0.00007   0.00000   0.01800   0.01802  -0.93124
   D19       -0.98303  -0.00011   0.00000   0.01626   0.01616  -0.96687
   D20        2.09295  -0.00005   0.00000   0.03028   0.03020   2.12315
   D21       -0.33749   0.00013   0.00000  -0.11187  -0.11196  -0.44944
   D22       -0.29112   0.00019   0.00000   0.04185   0.04180  -0.24932
   D23        0.54443  -0.00011   0.00000  -0.01708  -0.01702   0.52740
   D24        2.84842   0.00024   0.00000   0.04759   0.04754   2.89596
   D25       -2.59922  -0.00006   0.00000  -0.01133  -0.01128  -2.61050
   D26       -2.31878   0.00003   0.00000   0.07131   0.07129  -2.24750
   D27       -0.19664  -0.00002   0.00000   0.07049   0.07047  -0.12617
   D28        1.92114  -0.00006   0.00000   0.07370   0.07368   1.99482
   D29        0.89021  -0.00006   0.00000   0.05662   0.05664   0.94685
   D30        3.01236  -0.00012   0.00000   0.05580   0.05582   3.06818
   D31       -1.15305  -0.00015   0.00000   0.05901   0.05903  -1.09402
         Item               Value     Threshold  Converged?
 Maximum Force            0.000878     0.000450     NO 
 RMS     Force            0.000258     0.000300     YES
 Maximum Displacement     0.266744     0.001800     NO 
 RMS     Displacement     0.075863     0.001200     NO 
 Predicted change in Energy=-2.078220D-04
 GradGradGradGradGradGradGradGradGradGradGradGradGradGradGradGradGradGrad

                          Input orientation:                          
 ---------------------------------------------------------------------
 Center     Atomic      Atomic             Coordinates (Angstroms)
 Number     Number       Type             X           Y           Z
 ---------------------------------------------------------------------
      1          6           0       -0.874707   -0.488852   -0.966654
      2          6           0        2.351753   -0.106945    0.314224
      3          6           0       -1.083146    1.854987   -0.548019
      4          6           0        2.212773    0.718750   -0.711529
      5          7           0       -1.247724    0.432111   -0.157315
      6          1           0        3.049852    0.826927   -1.402184
      7          1           0       -0.455308    2.270289    0.269822
      8          1           0        3.238087   -0.705102    0.542924
      9          1           0       -2.084133    2.302133   -0.360428
     10          1           0       -0.516786   -0.093753   -1.922549
     11          1           0        1.292177    1.294198   -0.884556
     12          9           0        1.377046   -0.304720    1.220902
     13          6           0       -0.877383   -1.953606   -0.695877
     14          1           0       -1.894248   -2.322533   -0.488866
     15          1           0       -0.487672   -2.494877   -1.566084
     16          1           0       -0.243325   -2.183397    0.173277
     17          6           0       -1.772094    0.118063    1.170109
     18          1           0       -2.726141    0.647956    1.289344
     19          1           0       -1.923826   -0.956292    1.332910
     20          1           0       -1.063406    0.507453    1.912217
 ---------------------------------------------------------------------
                    Distance matrix (angstroms):
                    1          2          3          4          5
     1  C    0.000000
     2  C    3.492355   0.000000
     3  C    2.390039   4.048602   0.000000
     4  C    3.325045   1.324107   3.490108   0.000000
     5  N    1.281540   3.670036   1.484693   3.516298   0.000000
     6  H    4.162106   2.074974   4.343752   1.090600   4.491630
     7  H    3.052478   3.678696   1.111539   3.238669   2.046769
     8  H    4.386418   1.093473   5.139773   2.156914   4.680394
     9  H    3.101583   5.092730   1.112252   4.592796   2.058595
    10  H    1.094507   3.637560   2.451058   3.094709   1.981630
    11  H    2.807381   2.126729   2.463717   1.099352   2.779059
    12  F    3.144788   1.345821   3.721017   2.340987   3.054803
    13  C    1.489574   3.854580   3.817012   4.085437   2.473631
    14  H    2.151774   4.856162   4.255944   5.115330   2.848857
    15  H    2.129143   4.159342   4.506925   4.283699   3.336102
    16  H    2.137655   3.326553   4.187376   3.903557   2.821169
    17  C    2.395706   4.217735   2.538409   4.447534   1.461384
    18  H    3.132039   5.225490   2.744496   5.329294   2.079694
    19  H    2.570437   4.476571   3.485388   4.908865   2.146054
    20  H    3.052234   3.820259   2.805174   4.202624   2.079089
                    6          7          8          9         10
     6  H    0.000000
     7  H    4.143072   0.000000
     8  H    2.483142   4.750652   0.000000
     9  H    5.442361   1.746797   6.179444   0.000000
    10  H    3.720126   3.224742   4.533362   3.261452   0.000000
    11  H    1.890953   2.310637   3.133922   3.562318   2.505231
    12  F    3.310512   3.300416   2.020750   4.612596   3.675920
    13  C    4.863477   4.353390   4.475543   4.436224   2.256946
    14  H    5.932737   4.872388   5.479191   4.630344   2.986688
    15  H    4.855443   5.106702   4.640312   5.197461   2.427614
    16  H    4.731717   4.459773   3.800293   4.877847   2.972184
    17  C    5.510930   2.678903   5.115943   2.685157   3.344428
    18  H    6.374830   2.971207   6.161162   2.422854   3.968330
    19  H    5.949629   3.701017   5.228051   3.675652   3.649897
    20  H    5.292090   2.484922   4.674195   3.070452   3.919908
                   11         12         13         14         15
    11  H    0.000000
    12  F    2.645127   0.000000
    13  C    3.910348   3.387524   0.000000
    14  H    4.836385   4.206690   1.101351   0.000000
    15  H    4.241396   4.005154   1.096408   1.780044   0.000000
    16  H    3.945940   2.693055   1.100119   1.784192   1.783845
    17  C    3.872299   3.177800   2.928178   2.953579   3.995492
    18  H    4.614147   4.212887   3.758608   3.560601   4.800169
    19  H    4.508274   3.366430   2.491115   2.277358   3.582451
    20  H    3.740278   2.663335   3.590762   3.803199   4.630771
                   16         17         18         19         20
    16  H    0.000000
    17  C    2.937266   0.000000
    18  H    3.927664   1.097820   0.000000
    19  H    2.382146   1.097163   1.794218   0.000000
    20  H    3.307132   1.097537   1.781123   1.794009   0.000000
 Stoichiometry    C6H12FN
 Framework group  C1[X(C6H12FN)]
 Deg. of freedom    54
 Full point group                 C1      NOp   1
 Largest Abelian subgroup         C1      NOp   1
 Largest concise Abelian subgroup C1      NOp   1
                         Standard orientation:                         
 ---------------------------------------------------------------------
 Center     Atomic      Atomic             Coordinates (Angstroms)
 Number     Number       Type             X           Y           Z
 ---------------------------------------------------------------------
      1          6           0        0.902415    0.506933   -0.929621
      2          6           0       -2.362279    0.152137    0.258840
      3          6           0        1.049975   -1.854347   -0.590701
      4          6           0       -2.215688   -0.639586   -0.792323
      5          7           0        1.235364   -0.450250   -0.145218
      6          1           0       -3.037516   -0.704463   -1.506325
      7          1           0        0.393267   -2.284226    0.196356
      8          1           0       -3.240947    0.761490    0.487563
      9          1           0        2.036159   -2.330139   -0.395336
     10          1           0        0.559896    0.154068   -1.907432
     11          1           0       -1.303668   -1.228988   -0.963785
     12          9           0       -1.406328    0.295800    1.195191
     13          6           0        0.929864    1.960743   -0.606334
     14          1           0        1.948979    2.299262   -0.361826
     15          1           0        0.573577    2.541099   -1.465612
     16          1           0        0.279535    2.173711    0.255048
     17          6           0        1.733287   -0.195256    1.204855
     18          1           0        2.672472   -0.750250    1.327823
     19          1           0        1.903996    0.868991    1.409800
     20          1           0        0.998209   -0.594753    1.915241
 ---------------------------------------------------------------------
 Rotational constants (GHZ):           2.2869371           1.3108303           1.1772029
 Standard basis: def2SVP (5D, 7F)
 There are   180 symmetry adapted cartesian basis functions of A   symmetry.
 There are   172 symmetry adapted basis functions of A   symmetry.
   172 basis functions,   284 primitive gaussians,   180 cartesian basis functions
    32 alpha electrons       32 beta electrons
       nuclear repulsion energy       385.9282270876 Hartrees.
 NAtoms=   20 NActive=   20 NUniq=   20 SFac= 1.00D+00 NAtFMM=   60 NAOKFM=F Big=F
 Integral buffers will be    131072 words long.
 Raffenetti 2 integral format.
 Two-electron integral symmetry is turned on.
 Nuclear repulsion after empirical dispersion term =      385.9157299501 Hartrees.
 ------------------------------------------------------------------------------
 Polarizable Continuum Model (PCM)
 =================================
 Model                : PCM.
 Atomic radii         : UFF (Universal Force Field).
 Polarization charges : Total charges.
 Charge compensation  : None.
 Solution method      : On-the-fly selection.
[...]
     10          1           0       -0.512289   -0.135470   -1.910428
     11          1           0        1.312213    1.320683   -0.889388
     12          9           0        1.389740   -0.391597    1.129181
     13          6           0       -0.917836   -1.977964   -0.672347
     14          1           0       -1.939003   -2.334081   -0.465454
     15          1           0       -0.524938   -2.534402   -1.530819
     16          1           0       -0.294497   -2.201283    0.206977
     17          6           0       -1.799487    0.117620    1.165939
     18          1           0       -2.689405    0.740011    1.320030
     19          1           0       -2.058324   -0.940630    1.299285
     20          1           0       -1.038863    0.403984    1.904850
 ---------------------------------------------------------------------
                    Distance matrix (angstroms):
                    1          2          3          4          5
     1  C    0.000000
     2  C    3.540467   0.000000
     3  C    2.388524   4.047248   0.000000
     4  C    3.415648   1.323869   3.485625   0.000000
     5  N    1.281794   3.721275   1.484931   3.580499   0.000000
     6  H    4.294449   2.074224   4.340729   1.091187   4.572397
     7  H    3.043077   3.657584   1.112244   3.200177   2.043939
     8  H    4.451803   1.093423   5.139750   2.157010   4.740084
     9  H    3.105132   5.096395   1.110767   4.582108   2.058958
    10  H    1.094101   3.642101   2.450124   3.156136   1.982795
    11  H    2.871569   2.128646   2.456489   1.099605   2.828176
    12  F    3.096449   1.346069   3.720382   2.340836   3.061827
    13  C    1.489559   3.931136   3.814978   4.206319   2.472567
    14  H    2.153978   4.937490   4.257687   5.230921   2.847341
    15  H    2.129895   4.219092   4.506121   4.407685   3.336122
    16  H    2.134546   3.420247   4.178284   4.029251   2.816227
    17  C    2.394729   4.289158   2.541075   4.512067   1.461297
    18  H    3.161253   5.252533   2.712929   5.340470   2.079553
    19  H    2.575469   4.644649   3.482870   5.056857   2.145107
    20  H    3.010967   3.826799   2.849557   4.216145   2.079028
                    6          7          8          9         10
     6  H    0.000000
     7  H    4.091659   0.000000
     8  H    2.482185   4.724034   0.000000
     9  H    5.426081   1.747841   6.184585   0.000000
    10  H    3.835506   3.214032   4.554165   3.267404   0.000000
    11  H    1.890763   2.280399   3.135520   3.546667   2.547883
    12  F    3.310302   3.312480   2.020650   4.629630   3.594793
    13  C    5.043224   4.341044   4.583390   4.440771   2.256568
    14  H    6.104394   4.864316   5.593626   4.640625   2.992884
    15  H    5.059690   5.094332   4.736189   5.203951   2.428814
    16  H    4.910963   4.437804   3.930189   4.873860   2.966214
    17  C    5.584186   2.677305   5.197285   2.691432   3.344393
    18  H    6.390519   2.906540   6.200199   2.396467   3.992763
    19  H    6.116876   3.714991   5.423014   3.654569   3.652501
    20  H    5.303872   2.534360   4.673618   3.142877   3.889040
                   11         12         13         14         15
    11  H    0.000000
    12  F    2.648119   0.000000
    13  C    3.987643   3.329711   0.000000
    14  H    4.909931   4.170927   1.101093   0.000000
    15  H    4.318360   3.915763   1.095885   1.781772   0.000000
    16  H    4.023404   2.638575   1.100743   1.781628   1.784378
    17  C    3.918470   3.229833   2.923709   2.948176   3.991265
    18  H    4.607782   4.237498   3.807284   3.633331   4.851189
    19  H    4.611328   3.495644   2.502820   2.251720   3.591778
    20  H    3.765058   2.670716   3.511449   3.731701   4.549950
                   16         17         18         19         20
    16  H    0.000000
    17  C    2.926075   0.000000
    18  H    3.952933   1.096845   0.000000
    19  H    2.427647   1.097575   1.795341   0.000000
    20  H    3.197541   1.098428   1.783036   1.792763   0.000000
 Stoichiometry    C6H12FN
 Framework group  C1[X(C6H12FN)]
 Deg. of freedom    54
 Full point group                 C1      NOp   1
 Largest Abelian subgroup         C1      NOp   1
 Largest concise Abelian subgroup C1      NOp   1
                         Standard orientation:                         
 ---------------------------------------------------------------------
 Center     Atomic      Atomic             Coordinates (Angstroms)
 Number     Number       Type             X           Y           Z
 ---------------------------------------------------------------------
      1          6           0        0.923334    0.458295   -0.940450
      2          6           0       -2.395556    0.199275    0.264866
      3          6           0        0.976597   -1.893703   -0.527754
      4          6           0       -2.287379   -0.684911   -0.714492
      5          7           0        1.240184   -0.486373   -0.134097
      6          1           0       -3.149015   -0.836559   -1.366623
      7          1           0        0.312995   -2.258608    0.286840
      8          1           0       -3.277699    0.804328    0.491380
      9          1           0        1.939483   -2.412566   -0.334274
     10          1           0        0.534967    0.090888   -1.895039
     11          1           0       -1.371181   -1.267512   -0.888532
     12          9           0       -1.388501    0.458762    1.119505
     13          6           0        1.015889    1.918703   -0.662196
     14          1           0        2.050800    2.225410   -0.444721
     15          1           0        0.661216    2.488559   -1.528473
     16          1           0        0.393792    2.177763    0.208160
     17          6           0        1.771098   -0.206486    1.198262
     18          1           0        2.627361   -0.870950    1.366696
     19          1           0        2.080132    0.838543    1.328971
     20          1           0        0.988472   -0.450585    1.929327
 ---------------------------------------------------------------------
 Rotational constants (GHZ):           2.3075954           1.2978251           1.1452016

 **********************************************************************

            Population analysis using the SCF Density.

 **********************************************************************

 Orbital symmetries:
       Occupied  (A) (A) (A) (A) (A) (A) (A) (A) (A) (A) (A) (A)
                 (A) (A) (A) (A) (A) (A) (A) (A) (A) (A) (A) (A)
                 (A) (A) (A) (A) (A) (A) (A) (A)
       Virtual   (A) (A) (A) (A) (A) (A) (A) (A) (A) (A) (A) (A)
                 (A) (A) (A) (A) (A) (A) (A) (A) (A) (A) (A) (A)
                 (A) (A) (A) (A) (A) (A) (A) (A) (A) (A) (A) (A)
                 (A) (A) (A) (A) (A) (A) (A) (A) (A) (A) (A) (A)
                 (A) (A) (A) (A) (A) (A) (A) (A) (A) (A) (A) (A)
                 (A) (A) (A) (A) (A) (A) (A) (A) (A) (A) (A) (A)
                 (A) (A) (A) (A) (A) (A) (A) (A) (A) (A) (A) (A)
                 (A) (A) (A) (A) (A) (A) (A) (A) (A) (A) (A) (A)
                 (A) (A) (A) (A) (A) (A) (A) (A) (A) (A) (A) (A)
                 (A) (A) (A) (A) (A) (A) (A) (A) (A) (A) (A) (A)
                 (A) (A) (A) (A) (A) (A) (A) (A) (A) (A) (A) (A)
                 (A) (A) (A) (A) (A) (A) (A) (A)
 The electronic state is 1-A.
 Alpha  occ. eigenvalues --  -24.82785 -14.52797 -10.37909 -10.37702 -10.34000
 Alpha  occ. eigenvalues --  -10.32438 -10.29225 -10.23170  -1.31074  -1.08262
 Alpha  occ. eigenvalues --   -0.87366  -0.85643  -0.82209  -0.74816  -0.69453
 Alpha  occ. eigenvalues --   -0.65607  -0.61754  -0.58437  -0.57669  -0.56362
 Alpha  occ. eigenvalues --   -0.56199  -0.55562  -0.51703  -0.49765  -0.48712
 Alpha  occ. eigenvalues --   -0.48441  -0.46088  -0.45171  -0.44299  -0.37055
 Alpha  occ. eigenvalues --   -0.34608  -0.22340
 Alpha virt. eigenvalues --    0.02601   0.09009   0.13262   0.16438   0.16691
 Alpha virt. eigenvalues --    0.17040   0.19364   0.20794   0.21179   0.21585
 Alpha virt. eigenvalues --    0.22621   0.22912   0.24365   0.25106   0.27207
 Alpha virt. eigenvalues --    0.28947   0.32326   0.36034   0.37480   0.41356
 Alpha virt. eigenvalues --    0.44215   0.48875   0.48884   0.51134   0.53635
 Alpha virt. eigenvalues --    0.54841   0.55843   0.56975   0.58500   0.59906
 Alpha virt. eigenvalues --    0.61947   0.65427   0.66629   0.67968   0.69423
 Alpha virt. eigenvalues --    0.71093   0.71678   0.72160   0.72961   0.74283
 Alpha virt. eigenvalues --    0.74858   0.75000   0.75379   0.76495   0.76721
 Alpha virt. eigenvalues --    0.77662   0.80105   0.82146   0.83467   0.84381
 Alpha virt. eigenvalues --    0.88471   0.88710   0.91741   0.92132   1.00308
 Alpha virt. eigenvalues --    1.08430   1.11062   1.15051   1.19209   1.20735
 Alpha virt. eigenvalues --    1.27922   1.28141   1.30715   1.32779   1.33742
 Alpha virt. eigenvalues --    1.36106   1.39727   1.46058   1.49162   1.55168
 Alpha virt. eigenvalues --    1.58999   1.59656   1.60421   1.61824   1.64840
 Alpha virt. eigenvalues --    1.66954   1.68410   1.71483   1.73679   1.76469
 Alpha virt. eigenvalues --    1.77569   1.79568   1.81603   1.82643   1.84933
 Alpha virt. eigenvalues --    1.85228   1.85503   1.88300   1.91248   1.91685
 Alpha virt. eigenvalues --    1.93103   1.96490   1.97550   1.98393   2.02669
 Alpha virt. eigenvalues --    2.04532   2.05144   2.05592   2.10414   2.13689
 Alpha virt. eigenvalues --    2.17332   2.18298   2.18577   2.21406   2.24060
 Alpha virt. eigenvalues --    2.31820   2.34485   2.35625   2.38056   2.40210
 Alpha virt. eigenvalues --    2.41887   2.49956   2.51755   2.52353   2.55012
 Alpha virt. eigenvalues --    2.58118   2.63202   2.72238   2.73715   2.76715
 Alpha virt. eigenvalues --    2.78919   2.81522   2.84346   2.88205   2.91705
 Alpha virt. eigenvalues --    2.94355   2.98839   3.01744   3.02465   3.05639
 Alpha virt. eigenvalues --    3.08106   3.10348   3.14707   3.17346   3.29379
 Alpha virt. eigenvalues --    3.31487   3.39556   3.44920   3.61269   3.94561
          Condensed to atoms (all electrons):
               1          2          3          4          5          6
     1  C    4.922897  -0.000984  -0.090099   0.007566   0.539427  -0.000026
     2  C   -0.000984   4.545362  -0.000167   0.611095  -0.000848  -0.005775
     3  C   -0.090099  -0.000167   5.349333  -0.031787   0.264220   0.000241
     4  C    0.007566   0.611095  -0.031787   5.002923   0.000282   0.370468
     5  N    0.539427  -0.000848   0.264220   0.000282   6.285762   0.000057
     6  H   -0.000026  -0.005775   0.000241   0.370468   0.000057   0.591410
     7  H   -0.000040  -0.000114   0.363493   0.002741  -0.033862   0.000108
     8  H    0.000274   0.421857  -0.000048  -0.061824  -0.000029  -0.006868
     9  H    0.004247   0.000009   0.358750   0.000790  -0.031875  -0.000008
    10  H    0.383960  -0.000289   0.032398  -0.004012  -0.026538   0.000117
    11  H   -0.010795  -0.013949   0.079223   0.319687  -0.003098  -0.023059
    12  F    0.009873   0.295218  -0.000878  -0.059385  -0.002404   0.002615
    13  C    0.299533   0.001246   0.011000  -0.001282  -0.042364   0.000012
    14  H   -0.010479  -0.000004  -0.000212   0.000012  -0.004747   0.000000
    15  H   -0.008801   0.000138  -0.000244   0.000201   0.004130  -0.000003
    16  H   -0.003178  -0.001533  -0.000361  -0.000682  -0.007910  -0.000027
    17  C   -0.086755  -0.000023  -0.037539  -0.001108   0.307602   0.000004
    18  H    0.005759   0.000001  -0.000650   0.000020  -0.022714  -0.000000
    19  H   -0.009605  -0.000024   0.006346   0.000221  -0.013231  -0.000000
    20  H    0.000456  -0.000038  -0.001096  -0.000059  -0.022182  -0.000007
               7          8          9         10         11         12
     1  C   -0.000040   0.000274   0.004247   0.383960  -0.010795   0.009873
     2  C   -0.000114   0.421857   0.000009  -0.000289  -0.013949   0.295218
     3  C    0.363493  -0.000048   0.358750   0.032398   0.079223  -0.000878
     4  C    0.002741  -0.061824   0.000790  -0.004012   0.319687  -0.059385
     5  N   -0.033862  -0.000029  -0.031875  -0.026538  -0.003098  -0.002404
     6  H    0.000108  -0.006868  -0.000008   0.000117  -0.023059   0.002615
     7  H    0.733612   0.000029  -0.039520  -0.001559  -0.007273   0.001151
     8  H    0.000029   0.616751   0.000001  -0.000031   0.004837  -0.031047
     9  H   -0.039520   0.000001   0.743807  -0.000462  -0.002735   0.000002
    10  H   -0.001559  -0.000031  -0.000462   0.555337   0.008463  -0.000122
    11  H   -0.007273   0.004837  -0.002735   0.008463   0.572130  -0.001796
    12  F    0.001151  -0.031047   0.000002  -0.000122  -0.001796   9.005919
    13  C   -0.000969  -0.000140  -0.000850  -0.034325   0.002363  -0.006933
    14  H   -0.000038   0.000001   0.000082   0.002948  -0.000009   0.000091
    15  H    0.000023   0.000004   0.000019  -0.008475  -0.000124  -0.000077
    16  H    0.000182   0.000029  -0.000015   0.002418  -0.000232   0.011946
    17  C   -0.003393  -0.000008  -0.009255   0.009249   0.002197   0.000141
    18  H   -0.001927   0.000001   0.008795  -0.000351  -0.000086   0.000096
    19  H    0.000966   0.000001   0.000939  -0.000894  -0.000432  -0.000334
    20  H    0.005434   0.000072  -0.001524  -0.000318  -0.000062   0.006916
              13         14         15         16         17         18
     1  C    0.299533  -0.010479  -0.008801  -0.003178  -0.086755   0.005759
     2  C    0.001246  -0.000004   0.000138  -0.001533  -0.000023   0.000001
     3  C    0.011000  -0.000212  -0.000244  -0.000361  -0.037539  -0.000650
     4  C   -0.001282   0.000012   0.000201  -0.000682  -0.001108   0.000020
     5  N   -0.042364  -0.004747   0.004130  -0.007910   0.307602  -0.022714
     6  H    0.000012   0.000000  -0.000003  -0.000027   0.000004  -0.000000
     7  H   -0.000969  -0.000038   0.000023   0.000182  -0.003393  -0.001927
     8  H   -0.000140   0.000001   0.000004   0.000029  -0.000008   0.000001
     9  H   -0.000850   0.000082   0.000019  -0.000015  -0.009255   0.008795
    10  H   -0.034325   0.002948  -0.008475   0.002418   0.009249  -0.000351
    11  H    0.002363  -0.000009  -0.000124  -0.000232   0.002197  -0.000086
    12  F   -0.006933   0.000091  -0.000077   0.011946   0.000141   0.000096
    13  C    4.679538   0.386584   0.387243   0.373126   0.009291  -0.000477
    14  H    0.386584   0.559253  -0.014362  -0.013561  -0.002152   0.000351
    15  H    0.387243  -0.014362   0.577701  -0.014625   0.000429  -0.000014
    16  H    0.373126  -0.013561  -0.014625   0.564072  -0.000041  -0.000032
    17  C    0.009291  -0.002152   0.000429  -0.000041   4.605762   0.395040
    18  H   -0.000477   0.000351  -0.000014  -0.000032   0.395040   0.578356
    19  H    0.004184   0.002485   0.000353  -0.000142   0.360162  -0.018339
    20  H   -0.000496  -0.000320  -0.000013   0.000668   0.397523  -0.014974
              19         20
     1  C   -0.009605   0.000456
     2  C   -0.000024  -0.000038
     3  C    0.006346  -0.001096
     4  C    0.000221  -0.000059
     5  N   -0.013231  -0.022182
     6  H   -0.000000  -0.000007
     7  H    0.000966   0.005434
     8  H    0.000001   0.000072
     9  H    0.000939  -0.001524
    10  H   -0.000894  -0.000318
    11  H   -0.000432  -0.000062
    12  F   -0.000334   0.006916
    13  C    0.004184  -0.000496
    14  H    0.002485  -0.000320
    15  H    0.000353  -0.000013
    16  H   -0.000142   0.000668
    17  C    0.360162   0.397523
    18  H   -0.018339  -0.014974
    19  H    0.635831  -0.017999
    20  H   -0.017999   0.566730
 Mulliken charges:
               1
     1  C    0.046769
     2  C    0.148822
     3  C   -0.301923
     4  C   -0.155869
     5  N   -0.189682
     6  H    0.070741
     7  H   -0.019046
     8  H    0.056138
     9  H   -0.031195
    10  H    0.082485
    11  H    0.074750
    12  F   -0.230994
    13  C   -0.066283
    14  H    0.094075
    15  H    0.076498
    16  H    0.089898
    17  C    0.052872
    18  H    0.071147
    19  H    0.049511
    20  H    0.081286
 Sum of Mulliken charges =  -0.00000
 Mulliken charges with hydrogens summed into heavy atoms:
               1
     1  C    0.129254
     2  C    0.204960
     3  C   -0.352164
     4  C   -0.010378
     5  N   -0.189682
    12  F   -0.230994
    13  C    0.194187
    17  C    0.254816
 Electronic spatial extent (au):  <R**2>=           1205.1516
 Charge=             -0.0000 electrons
 Dipole moment (field-independent basis, Debye):
    X=              0.2831    Y=              5.8881    Z=              1.6039  Tot=              6.1092
 Quadrupole moment (field-independent basis, Debye-Ang):
   XX=            -41.7900   YY=            -56.7086   ZZ=            -50.8907
   XY=              3.7469   XZ=              4.0329   YZ=             -6.6452
 Traceless Quadrupole moment (field-independent basis, Debye-Ang):
   XX=              8.0064   YY=             -6.9121   ZZ=             -1.0943
   XY=              3.7469   XZ=              4.0329   YZ=             -6.6452
 Octapole moment (field-independent basis, Debye-Ang**2):
  XXX=            -19.9289  YYY=             39.3057  ZZZ=             13.7484  XYY=             -5.4987
  XXY=             12.6891  XXZ=              6.8381  XZZ=             -2.2242  YZZ=             12.3926
  YYZ=             13.5916  XYZ=             -8.5630
 Hexadecapole moment (field-independent basis, Debye-Ang**3):
 XXXX=           -772.2987 YYYY=           -506.4700 ZZZZ=           -266.9067 XXXY=            -11.0034
 XXXZ=              9.2269 YYYX=             18.7121 YYYZ=            -32.1499 ZZZX=             -0.2303
 ZZZY=            -18.8430 XXYY=           -220.7795 XXZZ=           -182.8066 YYZZ=           -137.0109
 XXYZ=              2.0497 YYXZ=              5.6224 ZZXY=              9.6044
 N-N= 3.849260935180D+02 E-N=-1.678274224893D+03  KE= 3.859528170353D+02
 Unable to Open any file for archive entry.
 1\1\GINC-NODE-006\FTS\RwB97XD\def2SVP\C6H12F1N1\JP2658\22-Dec-2023\0\\
 # wb97xd def2svp geom=allchk scrf=(iefpcm,solvent=toluene) opt=(readfc
 ,ts,noeigen,maxcycles=50,maxstep=10)\\allylic-1_1_opt_sqm.out\\0,1\C,-
 0.8938188388,-0.5163181198,-0.9583524427\C,2.3932421676,-0.0875091746,
 0.285133829\C,-1.0677837689,1.8324295341,-0.560648263\C,2.2537506149,0
 .784886819,-0.7008153383\N,-1.2666434936,0.4160049622,-0.1616275569\H,
 3.1148361193,0.9752145481,-1.3434628303\H,-0.4330002777,2.2340466916,0
 .2596198667\H,3.3012291248,-0.647119944,0.5259036873\H,-2.0573334304,2
 .3042831751,-0.3819073226\H,-0.5122890017,-0.1354696138,-1.9104276345\
 H,1.3122128248,1.3206832449,-0.8893880916\F,1.3897402985,-0.3915966504
 ,1.1291810783\C,-0.9178362141,-1.9779641272,-0.67234745\H,-1.939002609
 3,-2.3340810104,-0.4654538042\H,-0.5249376814,-2.5344015827,-1.5308185
 064\H,-0.294496778,-2.20128331,0.2069774074\C,-1.7994869175,0.11761994
 07,1.165938743\H,-2.6894050887,0.7400106389,1.320029797\H,-2.058324436
 2,-0.9406304238,1.2992848728\H,-1.0388626137,0.403984402,1.9048499591\
 \Version=ES64L-G16RevC.01\State=1-A\HF=-389.8994874\RMSD=2.996e-09\RMS
 F=4.969e-06\Dipole=-0.0050346,-2.3157466,0.6437373\Quadrupole=5.730597
 9,-4.7852887,-0.9453091,3.240775,-3.1751779,4.8488657\PG=C01 [X(C6H12F
 1N1)]\\@
 The archive entry for this job was punched.


 THE TRULY SUCCESSFUL PERFORMANCE OF RESEARCHES IN
 INORGANIC CHEMISTRY IS POSSIBLE ONLY TO ONE WHO IS NOT
 ONLY A THEORETICAL CHEMIST, BUT ALSO AN ACCOMPLISHED
 ANALYST AND, MOREOVER, NOT MERELY A PRACTICALLY TRAINED,
 MECHANICAL WORKER, BUT A THINKING CREATIVE ARTIST.
   --  CLEMENS WINKLER, BER. 33, 1697(1900)
 Job cpu time:       0 days  1 hours 39 minutes 42.6 seconds.
 Elapsed time:       0 days  0 hours  8 minutes 32.0 seconds.
 File lengths (MBytes):  RWF=    101 Int=      0 D2E=      0 Chk=      8 Scr=      1
 Normal termination of Gaussian 16 at Fri Dec 22 23:51:17 2023.
