Unloading slurm/anatra/current
  ERROR: No such file or directory on
    '/cm/local/modulefiles/slurm/anatra/current'
environment: line 0: unalias: gv: not found
environment: line 0: unalias: sl: not found
 Entering Gaussian System, Link 0=g16
 Initial command:
 /apps/gaussian/g16/C.01/g16/l1.exe "/local/jobs/1151645/Gau-1984191.inp" -scrdir="/local/jobs/1151645/"
 Entering Link 1 = /apps/gaussian/g16/C.01/g16/l1.exe PID=   1984193.
  
 Copyright (c) 1988-2019, Gaussian, Inc.  All Rights Reserved.
  
 This is part of the Gaussian(R) 16 program.  It is based on
 the Gaussian(R) 09 system (copyright 2009, Gaussian, Inc.),
 the Gaussian(R) 03 system (copyright 2003, Gaussian, Inc.),
 the Gaussian(R) 98 system (copyright 1998, Gaussian, Inc.),
 the Gaussian(R) 94 system (copyright 1995, Gaussian, Inc.),
 the Gaussian 92(TM) system (copyright 1992, Gaussian, Inc.),
 the Gaussian 90(TM) system (copyright 1990, Gaussian, Inc.),
 the Gaussian 88(TM) system (copyright 1988, Gaussian, Inc.),
 the Gaussian 86(TM) system (copyright 1986, Carnegie Mellon
 University), and the Gaussian 82(TM) system (copyright 1983,
 Carnegie Mellon University). Gaussian is a federally registered
 trademark of Gaussian, Inc.
  
 This software contains proprietary and confidential information,
 including trade secrets, belonging to Gaussian, Inc.
  
 This software is provided under written license and may be
 used, copied, transmitted, or stored only in accord with that
 written license.
  
 The following legend is applicable only to US Government
 contracts under FAR:
  
                    RESTRICTED RIGHTS LEGEND
  
 Use, reproduction and disclosure by the US Government is
 subject to restrictions as set forth in subparagraphs (a)
 and (c) of the Commercial Computer Software - Restricted
 Rights clause in FAR 52.227-19.
  
 Gaussian, Inc.
 340 Quinnipiac St., Bldg. 40, Wallingford CT 06492
  
  
 ---------------------------------------------------------------
 Warning -- This program may not be used in any manner that
 competes with the business of Gaussian, Inc. or will provide
 assistance to any competitor of Gaussian, Inc.  The licensee
 of this program is prohibited from giving any competitor of
 Gaussian, Inc. access to this program.  By using this program,
 the user acknowledges that Gaussian, Inc. is engaged in the
 business of creating and licensing software in the field of
 computational chemistry and represents and warrants to the
 licensee that it is not a competitor of Gaussian, Inc. and that
 it will not use this program in any manner prohibited above.
 ---------------------------------------------------------------
  

 Cite this work as:
 Gaussian 16, Revision C.01,
 M. J. Frisch, G. W. Trucks, H. B. Schlegel, G. E. Scuseria, 
 M. A. Robb, J. R. Cheeseman, G. Scalmani, V. Barone, 
 G. A. Petersson, H. Nakatsuji, X. Li, M. Caricato, A. V. Marenich, 
 J. Bloino, B. G. Janesko, R. Gomperts, B. Mennucci, H. P. Hratchian, 
 J. V. Ortiz, A. F. Izmaylov, J. L. Sonnenberg, D. Williams-Young, 
 F. Ding, F. Lipparini, F. Egidi, J. Goings, B. Peng, A. Petrone, 
 T. Henderson, D. Ranasinghe, V. G. Zakrzewski, J. Gao, N. Rega, 
 G. Zheng, W. Liang, M. Hada, M. Ehara, K. Toyota, R. Fukuda, 
 J. Hasegawa, M. Ishida, T. Nakajima, Y. Honda, O. Kitao, H. Nakai, 
 T. Vreven, K. Throssell, J. A. Montgomery, Jr., J. E. Peralta, 
 F. Ogliaro, M. J. Bearpark, J. J. Heyd, E. N. Brothers, K. N. Kudin, 
 V. N. Staroverov, T. A. Keith, R. Kobayashi, J. Normand, 
 K. Raghavachari, A. P. Rendell, J. C. Burant, S. S. Iyengar, 
 J. Tomasi, M. Cossi, J. M. Millam, M. Klene, C. Adamo, R. Cammi, 
 J. W. Ochterski, R. L. Martin, K. Morokuma, O. Farkas, 
 J. B. Foresman, and D. J. Fox, Gaussian, Inc., Wallingford CT, 2019.
 
 ******************************************
 Gaussian 16:  ES64L-G16RevC.01  3-Jul-2019
                21-Dec-2023 
 ******************************************
 %chk=da-1_1_sqm.chk
 ----------------------------------------------------------------------
 # wb97xd def2svp geom=allchk scrf=(iefpcm,solvent=toluene) opt=(readfc
 ,ts,noeigen,maxcycles=50,maxstep=10)
 ----------------------------------------------------------------------
 1/5=1,6=50,8=10,10=3,11=1,18=20,26=3,29=7,38=1/1,3;
 2/9=110,12=2,40=1/2;
 3/5=43,7=101,11=2,14=-4,25=1,30=1,70=2201,71=1,72=13,74=-58/1,2,3;
 4//1;
 5/5=2,38=5,53=13/2;
 6/7=2,8=2,9=2,10=2,28=1/1;
 7//1,2,3,16;
 1/5=1,6=50,8=10,11=1,18=20,26=3/3(2);
 2/9=110/2;
 99//99;
 2/9=110/2;
 3/5=43,7=101,11=2,14=-2,25=1,30=1,70=2205,71=1,72=13,74=-58/1,2,3;
 4/5=5,16=3,69=1/1;
 5/5=2,38=5,53=13/2;
 7//1,2,3,16;
 1/5=1,6=50,8=10,11=1,18=20,26=3/3(-5);
 2/9=110/2;
 6/7=2,8=2,9=2,10=2,19=2,28=1/1;
 99/9=1/99;
 Structure from the checkpoint file:  "da-1_1_sqm.chk"
 ---------------------------
 1c_2m_endo_adj_1_reopt2.out
 ---------------------------
 Charge =  0 Multiplicity = 1
 Redundant internal coordinates found in file.  (old form).
 O,0,0.9346,-0.6353,2.0237
 C,0,-0.3445,1.4708,0.8958
 C,0,1.282,-0.9501,-0.8102
 C,0,-0.6079,1.2324,-0.4036
 C,0,0.7776,-1.7236,1.4678
 C,0,0.7699,-1.8786,0.0223
 H,0,0.6012,-2.6291,2.049
 H,0,1.7511,-0.0476,-0.4408
 H,0,0.3254,-2.7863,-0.3572
 H,0,0.5629,1.9769,1.1935
 H,0,-1.0115,1.1659,1.6916
 H,0,0.0618,1.5427,-1.1919
 C,0,-1.8155,0.5552,-0.824
 O,0,-2.0177,0.2793,-2.0037
 H,0,1.2458,-1.0838,-1.8823
 H,0,-2.5351,0.2906,-0.0481
 Recover connectivity data from disk.

 GradGradGradGradGradGradGradGradGradGradGradGradGradGradGradGradGradGrad
 Berny optimization.
 Initialization pass.
 Force constant matrix read from checkpoint file:
 "da-1_1_sqm.chk"
                           ----------------------------
                           !    Initial Parameters    !
                           ! (Angstroms and Degrees)  !
 --------------------------                            --------------------------
 ! Name  Definition              Value          Derivative Info.                !
 --------------------------------------------------------------------------------
 ! R1    R(1,5)                  1.2321         D2E/DX2 =    0.7809             !
 ! R2    R(2,4)                  1.3471         D2E/DX2 =    0.711              !
 ! R3    R(2,10)                 1.0808         D2E/DX2 =    0.2704             !
 ! R4    R(2,11)                 1.0822         D2E/DX2 =    0.2687             !
 ! R5    R(3,6)                  1.3481         D2E/DX2 =    0.7092             !
 ! R6    R(3,8)                  1.0821         D2E/DX2 =    0.2699             !
 ! R7    R(3,15)                 1.081          D2E/DX2 =    0.2695             !
 ! R8    R(4,12)                 1.0799         D2E/DX2 =    0.2814             !
 ! R9    R(4,13)                 1.4469         D2E/DX2 =    0.4675             !
 ! R10   R(5,6)                  1.4538         D2E/DX2 =    0.4463             !
 ! R11   R(5,7)                  1.0903         D2E/DX2 =    0.2614             !
 ! R12   R(6,9)                  1.0796         D2E/DX2 =    0.2789             !
 ! R13   R(8,12)                 2.4386         D2E/DX2 =    0.0091             !
 ! R14   R(13,14)                1.2283         D2E/DX2 =    0.8027             !
 ! R15   R(13,16)                1.0908         D2E/DX2 =    0.2612             !
 ! A1    A(4,2,10)             120.8454         D2E/DX2 =    0.0755             !
 ! A2    A(4,2,11)             122.612          D2E/DX2 =    0.0766             !
 ! A3    A(10,2,11)            116.5407         D2E/DX2 =    0.0596             !
 ! A4    A(6,3,8)              121.889          D2E/DX2 =    0.0817             !
 ! A5    A(6,3,15)             120.9663         D2E/DX2 =    0.0767             !
 ! A6    A(8,3,15)             117.1431         D2E/DX2 =    0.0607             !
 ! A7    A(2,4,12)             122.1418         D2E/DX2 =    0.0856             !
 ! A8    A(2,4,13)             121.7541         D2E/DX2 =    0.1026             !
 ! A9    A(12,4,13)            116.1013         D2E/DX2 =    0.085              !
 ! A10   A(1,5,6)              122.9189         D2E/DX2 =    0.1243             !
 ! A11   A(1,5,7)              120.9083         D2E/DX2 =    0.0972             !
 ! A12   A(6,5,7)              116.1422         D2E/DX2 =    0.0891             !
 ! A13   A(3,6,5)              122.5855         D2E/DX2 =    0.1021             !
 ! A14   A(3,6,9)              121.2253         D2E/DX2 =    0.0837             !
 ! A15   A(5,6,9)              116.1891         D2E/DX2 =    0.0834             !
 ! A16   A(3,8,12)              97.9577         D2E/DX2 =    0.0252             !
 ! A17   A(4,12,8)              90.9957         D2E/DX2 =    0.0472             !
 ! A18   A(4,13,14)            121.4375         D2E/DX2 =    0.1209             !
 ! A19   A(4,13,16)            117.2219         D2E/DX2 =    0.091              !
 ! A20   A(14,13,16)           121.3379         D2E/DX2 =    0.0967             !
 ! D1    D(10,2,4,12)           -0.7066         D2E/DX2 =    0.0182             !
 ! D2    D(10,2,4,13)          179.9246         D2E/DX2 =    0.0216             !
 ! D3    D(11,2,4,12)          179.8143         D2E/DX2 =    0.021              !
 ! D4    D(11,2,4,13)            0.4455         D2E/DX2 =    0.0178             !
 ! D5    D(8,3,6,5)              1.6225         D2E/DX2 =    0.014              !
 ! D6    D(8,3,6,9)           -178.5134         D2E/DX2 =    0.0165             !
 ! D7    D(15,3,6,5)          -178.8447         D2E/DX2 =    0.017              !
 ! D8    D(15,3,6,9)             1.0194         D2E/DX2 =    0.0133             !
 ! D9    D(6,3,8,12)          -111.1255         D2E/DX2 =    0.0134             !
 ! D10   D(15,3,8,12)           69.3247         D2E/DX2 =    0.0096             !
 ! D11   D(2,4,12,8)            67.3241         D2E/DX2 =    0.0075             !
 ! D12   D(13,4,12,8)         -113.2735         D2E/DX2 =    0.0053             !
 ! D13   D(2,4,13,14)         -176.1866         D2E/DX2 =    0.0198             !
 ! D14   D(2,4,13,16)            3.2171         D2E/DX2 =    0.0201             !
 ! D15   D(12,4,13,14)           4.4086         D2E/DX2 =    0.0219             !
 ! D16   D(12,4,13,16)        -176.1877         D2E/DX2 =    0.0194             !
 ! D17   D(1,5,6,3)             18.4823         D2E/DX2 =    0.0222             !
 ! D18   D(1,5,6,9)           -161.3882         D2E/DX2 =    0.0208             !
 ! D19   D(7,5,6,3)           -163.5194         D2E/DX2 =    0.02               !
 ! D20   D(7,5,6,9)             16.6101         D2E/DX2 =    0.0216             !
 ! D21   D(3,8,12,4)            74.676          D2E/DX2 =    0.0161             !
 --------------------------------------------------------------------------------
 Trust Radius=1.00D-01 FncErr=1.00D-07 GrdErr=1.00D-06 EigMax=2.50D+02 EigMin=1.00D-04
 Number of steps in this run=     50 maximum allowed number of steps=    100.
 Search for a saddle point of order  1.
 GradGradGradGradGradGradGradGradGradGradGradGradGradGradGradGradGradGrad

                          Input orientation:                          
 ---------------------------------------------------------------------
 Center     Atomic      Atomic             Coordinates (Angstroms)
 Number     Number       Type             X           Y           Z
 ---------------------------------------------------------------------
      1          8           0        0.934600   -0.635300    2.023700
      2          6           0       -0.344500    1.470800    0.895800
      3          6           0        1.282000   -0.950100   -0.810200
      4          6           0       -0.607900    1.232400   -0.403600
      5          6           0        0.777600   -1.723600    1.467800
      6          6           0        0.769900   -1.878600    0.022300
      7          1           0        0.601200   -2.629100    2.049000
      8          1           0        1.751100   -0.047600   -0.440800
      9          1           0        0.325400   -2.786300   -0.357200
     10          1           0        0.562900    1.976900    1.193500
     11          1           0       -1.011500    1.165900    1.691600
     12          1           0        0.061800    1.542700   -1.191900
     13          6           0       -1.815500    0.555200   -0.824000
     14          8           0       -2.017700    0.279300   -2.003700
     15          1           0        1.245800   -1.083800   -1.882300
     16          1           0       -2.535100    0.290600   -0.048100
 ---------------------------------------------------------------------
                    Distance matrix (angstroms):
                    1          2          3          4          5
     1  O    0.000000
     2  C    2.709965   0.000000
     3  C    2.872416   3.378860   0.000000
     4  C    3.429197   1.347091   2.915536   0.000000
     5  C    1.232100   3.433727   2.458049   3.762936   0.000000
     6  C    2.361890   3.636395   1.348115   3.429001   1.453807
     7  H    2.021641   4.362728   3.384901   4.731633   1.090340
     8  H    2.661921   2.912658   1.082136   2.684151   2.720190
     9  H    3.265978   4.487948   2.119416   4.125912   2.159732
    10  H    2.766041   1.080804   3.619288   2.115604   3.716858
    11  H    2.672437   1.082197   3.999575   2.134755   3.405903
    12  H    3.980647   2.128084   2.801541   1.079908   4.272598
    13  C    4.133973   2.441286   3.443926   1.446939   4.143603
    14  O    5.076664   3.553360   3.718049   2.335863   4.886371
    15  H    3.943962   4.095470   1.081011   3.314746   3.442633
    16  H    4.145897   2.661306   4.085387   2.174274   4.162804
                    6          7          8          9         10
     6  C    0.000000
     7  H    2.167769   0.000000
     8  H    2.128327   3.766366   0.000000
     9  H    1.079592   2.427051   3.088703   0.000000
    10  H    4.034779   4.684931   2.860307   5.014893   0.000000
    11  H    3.902426   4.138908   3.694817   4.648093   1.839717
    12  H    3.698781   5.310207   2.438635   4.416611   2.475836
    13  C    3.650192   4.922838   3.637423   3.995870   3.427583
    14  O    4.065947   5.633987   4.093088   4.195114   4.445608
    15  H    2.117945   4.273006   1.845795   2.464056   4.392583
    16  H    3.953911   4.770624   4.317419   4.212519   3.739356
                   11         12         13         14         15
    11  H    0.000000
    12  H    3.099762   0.000000
    13  C    2.710648   2.152850   0.000000
    14  O    3.931125   2.565057   1.228291   0.000000
    15  H    4.788456   2.962602   3.630135   3.538815   0.000000
    16  H    2.472663   3.101600   1.090806   2.022919   4.421365
                   16
    16  H    0.000000
 Stoichiometry    C6H8O2
 Framework group  C1[X(C6H8O2)]
 Deg. of freedom    42
 Full point group                 C1      NOp   1
 Largest Abelian subgroup         C1      NOp   1
 Largest concise Abelian subgroup C1      NOp   1
                         Standard orientation:                         
 ---------------------------------------------------------------------
 Center     Atomic      Atomic             Coordinates (Angstroms)
 Number     Number       Type             X           Y           Z
 ---------------------------------------------------------------------
      1          8           0       -2.033069    1.005330   -0.191091
      2          6           0        0.511100    1.788202    0.317072
      3          6           0       -0.768065   -1.249568    1.060297
      4          6           0        1.309949    0.722415    0.518546
      5          6           0       -2.169460   -0.139187   -0.626461
      6          6           0       -1.404520   -1.270513   -0.127937
      7          1           0       -2.860266   -0.348980   -1.443538
      8          1           0       -0.815902   -0.392649    1.719402
      9          1           0       -1.369029   -2.140216   -0.766589
     10          1           0        0.024535    2.280803    1.146973
     11          1           0        0.313855    2.191398   -0.667651
     12          1           0        1.503903    0.328099    1.505004
     13          6           0        1.969668    0.047136   -0.577995
     14          8           0        2.641075   -0.965181   -0.395992
     15          1           0       -0.191075   -2.099339    1.397280
     16          1           0        1.837900    0.468774   -1.575350
 ---------------------------------------------------------------------
 Rotational constants (GHZ):           2.8439553           1.2758459           1.0406489
 Standard basis: def2SVP (5D, 7F)
 There are   160 symmetry adapted cartesian basis functions of A   symmetry.
 There are   152 symmetry adapted basis functions of A   symmetry.
   152 basis functions,   256 primitive gaussians,   160 cartesian basis functions
    30 alpha electrons       30 beta electrons
       nuclear repulsion energy       336.1014029232 Hartrees.
 NAtoms=   16 NActive=   16 NUniq=   16 SFac= 1.00D+00 NAtFMM=   60 NAOKFM=F Big=F
 Integral buffers will be    131072 words long.
 Raffenetti 2 integral format.
 Two-electron integral symmetry is turned on.
 Nuclear repulsion after empirical dispersion term =      336.0929408797 Hartrees.
 ------------------------------------------------------------------------------
 Polarizable Continuum Model (PCM)
 =================================
 Model                : PCM.
 Atomic radii         : UFF (Universal Force Field).
 Polarization charges : Total charges.
 Charge compensation  : None.
 Solution method      : On-the-fly selection.
 Cavity type          : Scaled VdW (van der Waals Surface) (Alpha=1.100).
 Cavity algorithm     : GePol (No added spheres)
                        Default sphere list used, NSphG=   16.
                        Lebedev-Laikov grids with approx.  5.0 points / Ang**2.
                        Smoothing algorithm: York/Karplus (Gamma=1.0000).
                        Polarization charges: spherical gaussians, with
                                              point-specific exponents (IZeta= 3).
                        Self-potential: point-specific (ISelfS= 7).
                        Self-field    : sphere-specific E.n sum rule (ISelfD= 2).
 1st derivatives      : Analytical E(r).r(x)/FMM algorithm (CHGder, D1EAlg=3).
                        Cavity 1st derivative terms included.
 Solvent              : Toluene, Eps=   2.374100 Eps(inf)=   2.238315
 ------------------------------------------------------------------------------
 Spheres list:
 ISph  on   Nord     Re0    Alpha      Xe            Ye            Ze
    1   O      1    1.7500  1.100     -2.033069      1.005330     -0.191091
    2   C      2    1.9255  1.100      0.511100      1.788202      0.317072
    3   C      3    1.9255  1.100     -0.768065     -1.249568      1.060297
    4   C      4    1.9255  1.100      1.309949      0.722415      0.518546
    5   C      5    1.9255  1.100     -2.169460     -0.139187     -0.626461
    6   C      6    1.9255  1.100     -1.404520     -1.270513     -0.127937
    7   H      7    1.4430  1.100     -2.860266     -0.348980     -1.443538
    8   H      8    1.4430  1.100     -0.815902     -0.392649      1.719402
    9   H      9    1.4430  1.100     -1.369029     -2.140216     -0.766589
   10   H     10    1.4430  1.100      0.024535      2.280803      1.146973
   11   H     11    1.4430  1.100      0.313855      2.191398     -0.667651
   12   H     12    1.4430  1.100      1.503903      0.328099      1.505004
   13   C     13    1.9255  1.100      1.969668      0.047136     -0.577995
   14   O     14    1.7500  1.100      2.641075     -0.965181     -0.395992
   15   H     15    1.4430  1.100     -0.191075     -2.099339      1.397280
   16   H     16    1.4430  1.100      1.837900      0.468774     -1.575350
 ------------------------------------------------------------------------------
 One-electron integrals computed using PRISM.
   1 Symmetry operations used in ECPInt.
 ECPInt:  NShTT=    2628 NPrTT=    9444 LenC2=    2601 LenP2D=    7501.
 LDataN:  DoStor=T MaxTD1= 4 Len=   56
 NBasis=   152 RedAO= T EigKep=  1.92D-03  NBF=   152
 NBsUse=   152 1.00D-06 EigRej= -1.00D+00 NBFU=   152
 ExpMin= 1.22D-01 ExpMax= 2.27D+03 ExpMxC= 3.41D+02 IAcc=3 IRadAn=         5 AccDes= 0.00D+00
 Harris functional with IExCor= 4639 and IRadAn=       5 diagonalized for initial guess.
 HarFok:  IExCor= 4639 AccDes= 0.00D+00 IRadAn=         5 IDoV= 1 UseB2=F ITyADJ=14
 ICtDFT=  3500011 ScaDFX=  1.000000  1.000000  1.000000  1.000000
 FoFCou: FMM=F IPFlag=           0 FMFlag=      100000 FMFlg1=           0
         NFxFlg=           0 DoJE=T BraDBF=F KetDBF=T FulRan=T
         wScrn=  0.000000 ICntrl=       500 IOpCl=  0 I1Cent=   200000004 NGrid=           0
         NMat0=    1 NMatS0=      1 NMatT0=    0 NMatD0=    1 NMtDS0=    0 NMtDT0=    0
 Petite list used in FoFCou.
 Requested convergence on RMS density matrix=1.00D-08 within 128 cycles.
 Requested convergence on MAX density matrix=1.00D-06.
 Requested convergence on             energy=1.00D-06.
 No special actions if energy rises.
 Inv3:  Mode=1 IEnd=     6186288.
 Iteration    1 A*A^-1 deviation from unit magnitude is 2.89D-15 for    204.
 Iteration    1 A*A^-1 deviation from orthogonality  is 1.33D-15 for   1217    379.
 Iteration    1 A^-1*A deviation from unit magnitude is 2.89D-15 for    204.
 Iteration    1 A^-1*A deviation from orthogonality  is 1.23D-14 for   1282   1180.
 Error on total polarization charges =  0.00509
 SCF Done:  E(RwB97XD) =  -383.406463713     A.U. after   15 cycles
            NFock= 15  Conv=0.69D-08     -V/T= 2.0095

 **********************************************************************

            Population analysis using the SCF Density.

 **********************************************************************

 Orbital symmetries:
       Occupied  (A) (A) (A) (A) (A) (A) (A) (A) (A) (A) (A) (A)
                 (A) (A) (A) (A) (A) (A) (A) (A) (A) (A) (A) (A)
                 (A) (A) (A) (A) (A) (A)
       Virtual   (A) (A) (A) (A) (A) (A) (A) (A) (A) (A) (A) (A)
                 (A) (A) (A) (A) (A) (A) (A) (A) (A) (A) (A) (A)
                 (A) (A) (A) (A) (A) (A) (A) (A) (A) (A) (A) (A)
                 (A) (A) (A) (A) (A) (A) (A) (A) (A) (A) (A) (A)
                 (A) (A) (A) (A) (A) (A) (A) (A) (A) (A) (A) (A)
                 (A) (A) (A) (A) (A) (A) (A) (A) (A) (A) (A) (A)
                 (A) (A) (A) (A) (A) (A) (A) (A) (A) (A) (A) (A)
                 (A) (A) (A) (A) (A) (A) (A) (A) (A) (A) (A) (A)
                 (A) (A) (A) (A) (A) (A) (A) (A) (A) (A) (A) (A)
                 (A) (A) (A) (A) (A) (A) (A) (A) (A) (A) (A) (A)
                 (A) (A)
 The electronic state is 1-A.
 Alpha  occ. eigenvalues --  -19.26196 -19.24772 -10.39211 -10.38190 -10.33073
 Alpha  occ. eigenvalues --  -10.32436 -10.31479 -10.30598  -1.13306  -1.12251
 Alpha  occ. eigenvalues --   -0.89292  -0.88561  -0.75851  -0.73398  -0.66265
 Alpha  occ. eigenvalues --   -0.63743  -0.60504  -0.56466  -0.55750  -0.54122
 Alpha  occ. eigenvalues --   -0.52041  -0.49862  -0.49443  -0.48072  -0.47194
 Alpha  occ. eigenvalues --   -0.46735  -0.37918  -0.36076  -0.34141  -0.34020
 Alpha virt. eigenvalues --   -0.00660   0.00994   0.11563   0.14930   0.15517
 Alpha virt. eigenvalues --    0.15822   0.16742   0.19798   0.21632   0.22237
 Alpha virt. eigenvalues --    0.23902   0.24962   0.30499   0.31330   0.37145
 Alpha virt. eigenvalues --    0.38226   0.39877   0.41445   0.43041   0.49056
 Alpha virt. eigenvalues --    0.51140   0.52518   0.54029   0.56736   0.58041
 Alpha virt. eigenvalues --    0.59437   0.60053   0.62654   0.65713   0.69028
 Alpha virt. eigenvalues --    0.69928   0.69939   0.71848   0.72772   0.73679
 Alpha virt. eigenvalues --    0.74045   0.74745   0.77022   0.77440   0.78101
 Alpha virt. eigenvalues --    0.79035   0.80700   0.83192   0.88394   0.91214
 Alpha virt. eigenvalues --    0.93826   0.95666   1.00792   1.04099   1.10533
 Alpha virt. eigenvalues --    1.11706   1.14190   1.18566   1.22719   1.23681
 Alpha virt. eigenvalues --    1.27789   1.31250   1.32165   1.33409   1.35353
 Alpha virt. eigenvalues --    1.38235   1.39409   1.48832   1.52452   1.53949
 Alpha virt. eigenvalues --    1.56929   1.67676   1.69842   1.72171   1.73500
 Alpha virt. eigenvalues --    1.76955   1.79087   1.80361   1.81213   1.84744
 Alpha virt. eigenvalues --    1.85687   1.87754   1.90141   1.91440   1.93268
 Alpha virt. eigenvalues --    1.95512   1.95811   1.99567   2.02849   2.05874
 Alpha virt. eigenvalues --    2.13304   2.14215   2.17440   2.20774   2.21815
 Alpha virt. eigenvalues --    2.23168   2.26332   2.32224   2.38682   2.44552
 Alpha virt. eigenvalues --    2.45515   2.50972   2.54604   2.56801   2.57589
 Alpha virt. eigenvalues --    2.59072   2.61723   2.68645   2.70660   2.79467
 Alpha virt. eigenvalues --    2.80651   2.84304   2.85004   2.88441   2.89567
 Alpha virt. eigenvalues --    2.95568   3.00331   3.08453   3.16370   3.21216
 Alpha virt. eigenvalues --    3.21457   3.24822   3.41860   3.54129   3.57725
 Alpha virt. eigenvalues --    3.67816   3.69558
          Condensed to atoms (all electrons):
               1          2          3          4          5          6
     1  O    7.763146   0.018375   0.012219  -0.007823   0.629703  -0.123679
     2  C    0.018375   4.746278  -0.007923   0.462919   0.000259  -0.010141
     3  C    0.012219  -0.007923   4.658979  -0.016199  -0.023316   0.571487
     4  C   -0.007823   0.462919  -0.016199   5.332049  -0.003155   0.011281
     5  C    0.629703   0.000259  -0.023316  -0.003155   4.561503   0.249677
     6  C   -0.123679  -0.010141   0.571487   0.011281   0.249677   5.227734
     7  H   -0.035808   0.000538   0.011850  -0.000305   0.422982  -0.118909
     8  H    0.009600  -0.000752   0.398949   0.003053  -0.015092  -0.024226
     9  H    0.003468   0.000138  -0.029760  -0.000163  -0.026079   0.385896
    10  H    0.000631   0.381391  -0.000501  -0.001257  -0.000356   0.000356
    11  H    0.001681   0.398998  -0.000210  -0.022740   0.000839   0.000430
    12  H   -0.000148  -0.024121   0.002618   0.372031   0.000181  -0.000877
    13  C   -0.000476  -0.007150   0.003120   0.252135  -0.000483  -0.000184
    14  O    0.000001   0.007639   0.000792  -0.105330   0.000011  -0.000786
    15  H    0.000284   0.000473   0.394665  -0.001840   0.007574  -0.016018
    16  H   -0.000023   0.014516   0.000554  -0.135907   0.000108  -0.000414
               7          8          9         10         11         12
     1  O   -0.035808   0.009600   0.003468   0.000631   0.001681  -0.000148
     2  C    0.000538  -0.000752   0.000138   0.381391   0.398998  -0.024121
     3  C    0.011850   0.398949  -0.029760  -0.000501  -0.000210   0.002618
     4  C   -0.000305   0.003053  -0.000163  -0.001257  -0.022740   0.372031
     5  C    0.422982  -0.015092  -0.026079  -0.000356   0.000839   0.000181
     6  C   -0.118909  -0.024226   0.385896   0.000356   0.000430  -0.000877
     7  H    0.688844   0.000811  -0.000633  -0.000002  -0.000196  -0.000006
     8  H    0.000811   0.591034   0.007137   0.001216  -0.000326  -0.003593
     9  H   -0.000633   0.007137   0.618076  -0.000002  -0.000045  -0.000051
    10  H   -0.000002   0.001216  -0.000002   0.589180  -0.035320  -0.011863
    11  H   -0.000196  -0.000326  -0.000045  -0.035320   0.593492   0.006553
    12  H   -0.000006  -0.003593  -0.000051  -0.011863   0.006553   0.622066
    13  C   -0.000040  -0.001010  -0.000046   0.005686  -0.013725  -0.024783
    14  O    0.000001  -0.000110   0.000062  -0.000161   0.000125   0.008614
    15  H   -0.000173  -0.036696  -0.011027   0.000004  -0.000011   0.000650
    16  H    0.000002  -0.000098  -0.000036  -0.000387   0.005874   0.008515
              13         14         15         16
     1  O   -0.000476   0.000001   0.000284  -0.000023
     2  C   -0.007150   0.007639   0.000473   0.014516
     3  C    0.003120   0.000792   0.394665   0.000554
     4  C    0.252135  -0.105330  -0.001840  -0.135907
     5  C   -0.000483   0.000011   0.007574   0.000108
     6  C   -0.000184  -0.000786  -0.016018  -0.000414
     7  H   -0.000040   0.000001  -0.000173   0.000002
     8  H   -0.001010  -0.000110  -0.036696  -0.000098
     9  H   -0.000046   0.000062  -0.011027  -0.000036
    10  H    0.005686  -0.000161   0.000004  -0.000387
    11  H   -0.013725   0.000125  -0.000011   0.005874
    12  H   -0.024783   0.008614   0.000650   0.008515
    13  C    4.537415   0.637531   0.000713   0.428077
    14  O    0.637531   7.774584   0.000899  -0.037033
    15  H    0.000713   0.000899   0.579477   0.000097
    16  H    0.428077  -0.037033   0.000097   0.703220
 Mulliken charges:
               1
     1  O   -0.271153
     2  C    0.018566
     3  C    0.022676
     4  C   -0.138750
     5  C    0.195643
     6  C   -0.151627
     7  H    0.031045
     8  H    0.070102
     9  H    0.053065
    10  H    0.071387
    11  H    0.064583
    12  H    0.044213
    13  C    0.183221
    14  O   -0.286837
    15  H    0.080930
    16  H    0.012937
 Sum of Mulliken charges =  -0.00000
 Mulliken charges with hydrogens summed into heavy atoms:
               1
     1  O   -0.271153
     2  C    0.154536
     3  C    0.173708
     4  C   -0.094537
     5  C    0.226688
     6  C   -0.098562
    13  C    0.196158
    14  O   -0.286837
 Electronic spatial extent (au):  <R**2>=           1143.5454
 Charge=             -0.0000 electrons
 Dipole moment (field-independent basis, Debye):
    X=             -2.2523    Y=              0.0363    Z=              0.0180  Tot=              2.2527
 Quadrupole moment (field-independent basis, Debye-Ang):
   XX=            -56.9504   YY=            -47.1426   ZZ=            -42.0010
   XY=              9.4440   XZ=              2.6532   YZ=             -0.6218
 Traceless Quadrupole moment (field-independent basis, Debye-Ang):
   XX=             -8.2524   YY=              1.5554   ZZ=              6.6970
   XY=              9.4440   XZ=              2.6532   YZ=             -0.6218
 Octapole moment (field-independent basis, Debye-Ang**2):
  XXX=            -27.6467  YYY=             -0.6355  ZZZ=             -0.6272  XYY=             -2.6498
  XXY=              4.7674  XXZ=             -5.0251  XZZ=             -1.3721  YZZ=              0.6552
  YYZ=              1.0411  XYZ=             -7.1647
 Hexadecapole moment (field-independent basis, Debye-Ang**3):
 XXXX=           -943.2786 YYYY=           -384.4446 ZZZZ=           -166.9653 XXXY=             38.8815
 XXXZ=             23.6666 YYYX=            -11.8450 YYYZ=              0.6047 ZZZX=              1.6276
 ZZZY=              0.1122 XXYY=           -248.1409 XXZZ=           -166.7252 YYZZ=            -89.3440
 XXYZ=             -1.1406 YYXZ=              2.4532 ZZXY=             -3.4216
 N-N= 3.360929408797D+02 E-N=-1.566195805601D+03  KE= 3.798170851111D+02
   1 Symmetry operations used in ECPInt.
 ECPInt:  NShTT=    2628 NPrTT=    9444 LenC2=    2601 LenP2D=    7501.
 LDataN:  DoStor=T MaxTD1= 5 Len=  102
 D1PCM: PCM CHGder 1st derivatives, ID1Alg=3 FixD1E=F DoIter=F DoCFld=F I1PDM=0.
 Calling FoFJK, ICntrl=      2127 FMM=F ISym2X=0 I1Cent= 0 IOpClX= 0 NMat=1 NMatS=1 NMatT=0.
 ***** Axes restored to original set *****
 -------------------------------------------------------------------
 Center     Atomic                   Forces (Hartrees/Bohr)
 Number     Number              X              Y              Z
 -------------------------------------------------------------------
      1        8           0.000675284   -0.028256899   -0.007199493
      2        6          -0.001808814    0.001352282   -0.018105797
      3        6          -0.005730344   -0.014438789    0.009512115
      4        6          -0.000165129    0.009769801    0.026569944
      5        6           0.003769209    0.043270051    0.011417912
      6        6           0.009196997    0.010443484   -0.013715221
      7        1          -0.002744872   -0.011317933    0.009774231
      8        1           0.003938441    0.003188062    0.004805778
      9        1          -0.002754092   -0.008818339   -0.005819935
     10        1           0.006067054    0.003347327    0.003081602
     11        1          -0.006061529   -0.002428745    0.004316641
     12        1           0.005745774    0.003169179   -0.006736709
     13        6           0.003421379   -0.006839460   -0.045587958
     14        8          -0.002332573    0.003044353    0.024292151
     15        1          -0.000539784   -0.001403286   -0.008216884
     16        1          -0.010677000   -0.004081087    0.011611623
 -------------------------------------------------------------------
 Cartesian Forces:  Max     0.045587958 RMS     0.013227758

 GradGradGradGradGradGradGradGradGradGradGradGradGradGradGradGradGradGrad
 Berny optimization.
 FormGI is forming the generalized inverse of G from B-inverse, IUseBI=4.
 Internal  Forces:  Max     0.028123943 RMS     0.008546451
 Search for a saddle point.
 Step number   1 out of a maximum of   50
 All quantities printed in internal units (Hartrees-Bohrs-Radians)
 Swapping is turned off.
 Second derivative matrix not updated -- first step.
 ITU=  0
     Eigenvalues ---    0.00091   0.00137   0.00166   0.00310   0.00748
     Eigenvalues ---    0.00874   0.01186   0.01838   0.02078   0.02264
     Eigenvalues ---    0.02540   0.03787   0.05062   0.06908   0.07082
     Eigenvalues ---    0.07806   0.08565   0.08852   0.10828   0.10870
     Eigenvalues ---    0.11247   0.11603   0.11778   0.12051   0.13918
     Eigenvalues ---    0.14336   0.16402   0.16705   0.26716   0.26979
     Eigenvalues ---    0.27090   0.27185   0.27766   0.27836   0.28321
     Eigenvalues ---    0.28661   0.43301   0.45498   0.73458   0.73899
     Eigenvalues ---    0.81113   0.83162
 Eigenvectors required to have negative eigenvalues:
                          R13       A17       D11       D12       A16
   1                   -0.83569   0.35408  -0.20756  -0.19858   0.13111
                          D17       D19       D18       D20       D21
   1                   -0.10756  -0.10742  -0.10182  -0.10167  -0.08380
 RFO step:  Lambda0=1.723799670D-03 Lambda=-2.16525813D-02.
 Linear search not attempted -- option 19 set.
 Maximum step size (   0.100) exceeded in Quadratic search.
    -- Step size scaled by   0.166
 Iteration  1 RMS(Cart)=  0.09111167 RMS(Int)=  0.00170676
 Iteration  2 RMS(Cart)=  0.00269870 RMS(Int)=  0.00000359
 Iteration  3 RMS(Cart)=  0.00000310 RMS(Int)=  0.00000337
 Iteration  4 RMS(Cart)=  0.00000000 RMS(Int)=  0.00000337
 Variable       Old X    -DE/DX   Delta X   Delta X   Delta X     New X
                                 (Linear)    (Quad)   (Total)
    R1        2.32833  -0.02812   0.00000  -0.00877  -0.00877   2.31956
    R2        2.54563  -0.01027   0.00000  -0.00553  -0.00553   2.54011
    R3        2.04242   0.00751   0.00000   0.00453   0.00453   2.04696
    R4        2.04506   0.00759   0.00000   0.00409   0.00409   2.04915
    R5        2.54757  -0.01017   0.00000  -0.00412  -0.00412   2.54345
    R6        2.04494   0.00943   0.00000   0.00415   0.00415   2.04909
    R7        2.04281   0.00834   0.00000   0.00466   0.00466   2.04748
    R8        2.04073   0.01047   0.00000   0.00625   0.00625   2.04698
    R9        2.73432   0.01449   0.00000   0.00717   0.00717   2.74149
   R10        2.74730   0.01431   0.00000   0.00623   0.00623   2.75353
   R11        2.06044   0.01506   0.00000   0.01057   0.01057   2.07102
   R12        2.04013   0.01060   0.00000   0.00557   0.00557   2.04571
   R13        4.60835   0.00898   0.00000  -0.05678  -0.05678   4.55157
   R14        2.32113  -0.02363   0.00000  -0.00744  -0.00744   2.31369
   R15        2.06132   0.01629   0.00000   0.01144   0.01144   2.07276
    A1        2.10915   0.00268   0.00000   0.00326   0.00326   2.11241
    A2        2.13998  -0.00321   0.00000  -0.00350  -0.00350   2.13648
    A3        2.03402   0.00053   0.00000   0.00025   0.00025   2.03427
    A4        2.12737   0.00165   0.00000  -0.00056  -0.00057   2.12680
    A5        2.11126  -0.00132   0.00000   0.00057   0.00057   2.11183
    A6        2.04453  -0.00033   0.00000   0.00001   0.00001   2.04454
    A7        2.13178   0.00027   0.00000   0.00049   0.00049   2.13227
    A8        2.12501   0.00001   0.00000   0.00075   0.00075   2.12576
    A9        2.02635  -0.00029   0.00000  -0.00123  -0.00123   2.02512
   A10        2.14534   0.00808   0.00000   0.00935   0.00934   2.15468
   A11        2.11025  -0.00611   0.00000  -0.00313  -0.00314   2.10710
   A12        2.02706  -0.00183   0.00000  -0.00592  -0.00594   2.02113
   A13        2.13952   0.00173   0.00000   0.00090   0.00090   2.14042
   A14        2.11578  -0.00322   0.00000  -0.00167  -0.00167   2.11411
   A15        2.02788   0.00149   0.00000   0.00078   0.00078   2.02866
   A16        1.70968   0.00637   0.00000   0.00183   0.00183   1.71151
   A17        1.58817   0.02078   0.00000   0.07582   0.07582   1.66400
   A18        2.11948   0.01050   0.00000   0.00927   0.00927   2.12875
   A19        2.04591  -0.00525   0.00000  -0.00767  -0.00767   2.03823
   A20        2.11775  -0.00524   0.00000  -0.00159  -0.00159   2.11616
    D1       -0.01233  -0.00059   0.00000  -0.00230  -0.00230  -0.01463
    D2        3.14028   0.00039   0.00000  -0.00455  -0.00455   3.13573
    D3        3.13835  -0.00091   0.00000  -0.00318  -0.00318   3.13517
    D4        0.00777   0.00007   0.00000  -0.00544  -0.00544   0.00234
    D5        0.02832  -0.00332   0.00000  -0.01380  -0.01380   0.01452
    D6       -3.11565  -0.00167   0.00000  -0.01006  -0.01006  -3.12571
    D7       -3.12143  -0.00409   0.00000  -0.01119  -0.01118  -3.13261
    D8        0.01779  -0.00244   0.00000  -0.00745  -0.00745   0.01034
    D9       -1.93950  -0.00763   0.00000  -0.02467  -0.02467  -1.96417
   D10        1.20994  -0.00688   0.00000  -0.02719  -0.02719   1.18276
   D11        1.17503   0.00531   0.00000  -0.00220  -0.00220   1.17283
   D12       -1.97700   0.00438   0.00000  -0.00005  -0.00005  -1.97705
   D13       -3.07504  -0.00108   0.00000   0.00575   0.00575  -3.06928
   D14        0.05615  -0.00057   0.00000   0.00639   0.00639   0.06254
   D15        0.07694  -0.00016   0.00000   0.00362   0.00362   0.08056
   D16       -3.07506   0.00035   0.00000   0.00426   0.00426  -3.07080
   D17        0.32258  -0.00398   0.00000  -0.03198  -0.03198   0.29059
   D18       -2.81675  -0.00554   0.00000  -0.03554  -0.03555  -2.85230
   D19       -2.85395   0.00042   0.00000  -0.02227  -0.02227  -2.87623
   D20        0.28990  -0.00115   0.00000  -0.02584  -0.02584   0.26406
   D21        1.30334   0.00527   0.00000  -0.00433  -0.00433   1.29901
         Item               Value     Threshold  Converged?
 Maximum Force            0.028124     0.000450     NO 
 RMS     Force            0.008546     0.000300     NO 
 Maximum Displacement     0.285477     0.001800     NO 
 RMS     Displacement     0.092088     0.001200     NO 
 Predicted change in Energy=-3.270079D-03
 GradGradGradGradGradGradGradGradGradGradGradGradGradGradGradGradGradGrad

                          Input orientation:                          
 ---------------------------------------------------------------------
 Center     Atomic      Atomic             Coordinates (Angstroms)
 Number     Number       Type             X           Y           Z
 ---------------------------------------------------------------------
      1          8           0        1.085668   -0.710082    2.053725
      2          6           0       -0.410211    1.510973    0.896335
      3          6           0        1.282430   -0.979221   -0.805590
      4          6           0       -0.628624    1.248793   -0.403796
      5          6           0        0.870167   -1.776080    1.484632
      6          6           0        0.802171   -1.913690    0.035635
      7          1           0        0.690825   -2.691625    2.059685
      8          1           0        1.760018   -0.075214   -0.444396
      9          1           0        0.340491   -2.818783   -0.337938
     10          1           0        0.510252    1.978050    1.224839
     11          1           0       -1.130953    1.264332    1.668048
     12          1           0        0.091634    1.502169   -1.172161
     13          6           0       -1.852020    0.617395   -0.861255
     14          8           0       -2.023389    0.309552   -2.033819
     15          1           0        1.210430   -1.105085   -1.879321
     16          1           0       -2.618789    0.417916   -0.102724
 ---------------------------------------------------------------------
                    Distance matrix (angstroms):
                    1          2          3          4          5
     1  O    0.000000
     2  C    2.917241   0.000000
     3  C    2.878686   3.458706   0.000000
     4  C    3.579860   1.344167   2.962703   0.000000
     5  C    1.227460   3.576336   2.459687   3.868125   0.000000
     6  C    2.366798   3.733496   1.345935   3.498796   1.457105
     7  H    2.020507   4.497499   3.390004   4.830795   1.095934
     8  H    2.664285   3.003905   1.084334   2.731347   2.721384
     9  H    3.274441   4.564403   2.118947   4.181949   2.165537
    10  H    2.871273   1.083203   3.669381   2.116910   3.780281
    11  H    2.993404   1.084362   4.120296   2.131928   3.644479
    12  H    4.035902   2.128522   2.776629   1.083216   4.290872
    13  C    4.346184   2.442625   3.518104   1.450734   4.317662
    14  O    5.235829   3.554091   3.754720   2.341905   5.010193
    15  H    3.954800   4.144214   1.083478   3.331672   3.447056
    16  H    4.432342   2.659081   4.203037   2.177558   4.416575
                    6          7          8          9         10
     6  C    0.000000
     7  H    2.171258   0.000000
     8  H    2.127885   3.776136   0.000000
     9  H    1.082542   2.426418   3.090884   0.000000
    10  H    4.079837   4.747151   2.926458   5.047842   0.000000
    11  H    4.062213   4.372854   3.822894   4.781314   1.843741
    12  H    3.692118   5.328393   2.408586   4.407776   2.479378
    13  C    3.775650   5.093875   3.701391   4.109536   3.432710
    14  O    4.148402   5.755936   4.121709   4.272052   4.452199
    15  H    2.118390   4.278185   1.849782   2.463619   4.430777
    16  H    4.142282   5.029792   4.419714   4.391912   3.739965
                   11         12         13         14         15
    11  H    0.000000
    12  H    3.101303   0.000000
    13  C    2.708475   2.158073   0.000000
    14  O    3.925796   2.576454   1.224354   0.000000
    15  H    4.866215   2.923963   3.658142   3.533081   0.000000
    16  H    2.462866   3.108971   1.096858   2.023703   4.487623
                   16
    16  H    0.000000
 Stoichiometry    C6H8O2
 Framework group  C1[X(C6H8O2)]
 Deg. of freedom    42
 Full point group                 C1      NOp   1
 Largest Abelian subgroup         C1      NOp   1
 Largest concise Abelian subgroup C1      NOp   1
                         Standard orientation:                         
 ---------------------------------------------------------------------
 Center     Atomic      Atomic             Coordinates (Angstroms)
 Number     Number       Type             X           Y           Z
 ---------------------------------------------------------------------
      1          8           0       -2.149288    1.012471   -0.148091
      2          6           0        0.622810    1.814341    0.279422
      3          6           0       -0.805633   -1.245295    1.028307
      4          6           0        1.356954    0.711954    0.508686
      5          6           0       -2.250493   -0.119015   -0.613014
      6          6           0       -1.463162   -1.252690   -0.146061
      7          1           0       -2.940264   -0.325287   -1.439295
      8          1           0       -0.839626   -0.393072    1.697890
      9          1           0       -1.432921   -2.115650   -0.798966
     10          1           0        0.095277    2.311328    1.084431
     11          1           0        0.518829    2.248239   -0.708891
     12          1           0        1.462892    0.285152    1.498622
     13          6           0        2.064280    0.029077   -0.558084
     14          8           0        2.672585   -1.016184   -0.367198
     15          1           0       -0.220947   -2.100411    1.345865
     16          1           0        2.021849    0.489168   -1.552877
 ---------------------------------------------------------------------
 Rotational constants (GHZ):           2.8477460           1.2028168           0.9822373
 Standard basis: def2SVP (5D, 7F)
 There are   160 symmetry adapted cartesian basis functions of A   symmetry.
 There are   152 symmetry adapted basis functions of A   symmetry.
   152 basis functions,   256 primitive gaussians,   160 cartesian basis functions
    30 alpha electrons       30 beta electrons
       nuclear repulsion energy       332.1208164052 Hartrees.
 NAtoms=   16 NActive=   16 NUniq=   16 SFac= 1.00D+00 NAtFMM=   60 NAOKFM=F Big=F
 Integral buffers will be    131072 words long.
 Raffenetti 2 integral format.
 Two-electron integral symmetry is turned on.
 Nuclear repulsion after empirical dispersion term =      332.1126480397 Hartrees.
 ------------------------------------------------------------------------------
 Polarizable Continuum Model (PCM)
 =================================
 Model                : PCM.
 Atomic radii         : UFF (Universal Force Field).
 Polarization charges : Total charges.
 Charge compensation  : None.
 Solution method      : On-the-fly selection.
 Cavity type          : Scaled VdW (van der Waals Surface) (Alpha=1.100).
 Cavity algorithm     : GePol (No added spheres)
                        Default sphere list used, NSphG=   16.
                        Lebedev-Laikov grids with approx.  5.0 points / Ang**2.
                        Smoothing algorithm: York/Karplus (Gamma=1.0000).
                        Polarization charges: spherical gaussians, with
                                              point-specific exponents (IZeta= 3).
                        Self-potential: point-specific (ISelfS= 7).
                        Self-field    : sphere-specific E.n sum rule (ISelfD= 2).
 1st derivatives      : Analytical E(r).r(x)/FMM algorithm (CHGder, D1EAlg=3).
                        Cavity 1st derivative terms included.
 Solvent              : Toluene, Eps=   2.374100 Eps(inf)=   2.238315
 ------------------------------------------------------------------------------
 Spheres list:
 ISph  on   Nord     Re0    Alpha      Xe            Ye            Ze
    1   O      1    1.7500  1.100     -2.149288      1.012471     -0.148091
    2   C      2    1.9255  1.100      0.622810      1.814341      0.279422
    3   C      3    1.9255  1.100     -0.805633     -1.245295      1.028307
    4   C      4    1.9255  1.100      1.356954      0.711954      0.508686
    5   C      5    1.9255  1.100     -2.250493     -0.119015     -0.613014
    6   C      6    1.9255  1.100     -1.463162     -1.252690     -0.146061
    7   H      7    1.4430  1.100     -2.940264     -0.325287     -1.439295
    8   H      8    1.4430  1.100     -0.839626     -0.393072      1.697890
    9   H      9    1.4430  1.100     -1.432921     -2.115650     -0.798966
   10   H     10    1.4430  1.100      0.095277      2.311328      1.084431
   11   H     11    1.4430  1.100      0.518829      2.248239     -0.708891
   12   H     12    1.4430  1.100      1.462892      0.285152      1.498622
   13   C     13    1.9255  1.100      2.064280      0.029077     -0.558084
   14   O     14    1.7500  1.100      2.672585     -1.016184     -0.367198
   15   H     15    1.4430  1.100     -0.220947     -2.100411      1.345865
   16   H     16    1.4430  1.100      2.021849      0.489168     -1.552877
 ------------------------------------------------------------------------------
 One-electron integrals computed using PRISM.
   1 Symmetry operations used in ECPInt.
 ECPInt:  NShTT=    2628 NPrTT=    9444 LenC2=    2598 LenP2D=    7459.
 LDataN:  DoStor=T MaxTD1= 4 Len=   56
 NBasis=   152 RedAO= T EigKep=  2.00D-03  NBF=   152
 NBsUse=   152 1.00D-06 EigRej= -1.00D+00 NBFU=   152
 Initial guess from the checkpoint file:  "da-1_1_sqm.chk"
 B after Tr=    -0.000000   -0.000000    0.000000
         Rot=    0.999973    0.000022    0.000592    0.007305 Ang=   0.84 deg.
 ExpMin= 1.22D-01 ExpMax= 2.27D+03 ExpMxC= 3.41D+02 IAcc=3 IRadAn=         5 AccDes= 0.00D+00
 Harris functional with IExCor= 4639 and IRadAn=       5 diagonalized for initial guess.
 HarFok:  IExCor= 4639 AccDes= 0.00D+00 IRadAn=         5 IDoV= 1 UseB2=F ITyADJ=14
 ICtDFT=  3500011 ScaDFX=  1.000000  1.000000  1.000000  1.000000
 FoFCou: FMM=F IPFlag=           0 FMFlag=      100000 FMFlg1=           0
         NFxFlg=           0 DoJE=T BraDBF=F KetDBF=T FulRan=T
         wScrn=  0.000000 ICntrl=       500 IOpCl=  0 I1Cent=   200000004 NGrid=           0
         NMat0=    1 NMatS0=      1 NMatT0=    0 NMatD0=    1 NMtDS0=    0 NMtDT0=    0
 Petite list used in FoFCou.
 Requested convergence on RMS density matrix=1.00D-08 within 128 cycles.
 Requested convergence on MAX density matrix=1.00D-06.
 Requested convergence on             energy=1.00D-06.
 No special actions if energy rises.
 Inv3:  Mode=1 IEnd=     6324912.
 Iteration    1 A*A^-1 deviation from unit magnitude is 2.66D-15 for    231.
 Iteration    1 A*A^-1 deviation from orthogonality  is 1.65D-15 for    953    254.
 Iteration    1 A^-1*A deviation from unit magnitude is 2.44D-15 for    231.
 Iteration    1 A^-1*A deviation from orthogonality  is 7.16D-15 for   1298   1198.
 Error on total polarization charges =  0.00493
 SCF Done:  E(RwB97XD) =  -383.409082710     A.U. after   13 cycles
            NFock= 13  Conv=0.99D-08     -V/T= 2.0095
   1 Symmetry operations used in ECPInt.
 ECPInt:  NShTT=    2628 NPrTT=    9444 LenC2=    2598 LenP2D=    7459.
 LDataN:  DoStor=T MaxTD1= 5 Len=  102
 D1PCM: PCM CHGder 1st derivatives, ID1Alg=3 FixD1E=F DoIter=F DoCFld=F I1PDM=0.
 Calling FoFJK, ICntrl=      2127 FMM=F ISym2X=0 I1Cent= 0 IOpClX= 0 NMat=1 NMatS=1 NMatT=0.
 ***** Axes restored to original set *****
 -------------------------------------------------------------------
 Center     Atomic                   Forces (Hartrees/Bohr)
 Number     Number              X              Y              Z
 -------------------------------------------------------------------
      1        8          -0.001540230   -0.021719286   -0.007438294
      2        6           0.000688770    0.000574767   -0.013980376
      3        6          -0.004409308   -0.012080327    0.007462760
      4        6           0.000395909    0.009007737    0.020815009
      5        6           0.004521493    0.035209608    0.012038483
      6        6           0.006564805    0.008604811   -0.012984392
      7        1          -0.002046527   -0.008933446    0.007588525
      8        1           0.003446066    0.002205778    0.004366064
      9        1          -0.002088606   -0.007021779   -0.004736002
     10        1           0.004871250    0.002264771    0.002575433
     11        1          -0.005431519   -0.002368807    0.003553469
     12        1           0.004543882    0.002248394   -0.004769462
     13        6           0.002188780   -0.008173389   -0.036822698
     14        8          -0.002193843    0.003577141    0.020035588
     15        1          -0.000847345   -0.000949856   -0.006423012
     16        1          -0.008663578   -0.002446118    0.008718905
 -------------------------------------------------------------------
 Cartesian Forces:  Max     0.036822698 RMS     0.010785571

 GradGradGradGradGradGradGradGradGradGradGradGradGradGradGradGradGradGrad
 Berny optimization.
 FormGI is forming the generalized inverse of G from B-inverse, IUseBI=4.
 Internal  Forces:  Max     0.022582201 RMS     0.006456817
 Search for a saddle point.
 Step number   2 out of a maximum of   50
 All quantities printed in internal units (Hartrees-Bohrs-Radians)
 Swapping is turned off.
 Update second derivatives using D2CorX and points    1    2
 ITU=  0  0
     Eigenvalues ---   -0.03111   0.00164   0.00166   0.00323   0.00790
     Eigenvalues ---    0.00959   0.01565   0.01859   0.02166   0.02437
     Eigenvalues ---    0.03774   0.04142   0.05057   0.07073   0.07087
     Eigenvalues ---    0.08461   0.08565   0.10109   0.10831   0.11127
     Eigenvalues ---    0.11465   0.11601   0.11814   0.12893   0.13933
     Eigenvalues ---    0.15883   0.16528   0.23161   0.26719   0.27078
     Eigenvalues ---    0.27155   0.27313   0.27799   0.28119   0.28539
     Eigenvalues ---    0.29139   0.43240   0.45472   0.73625   0.73904
     Eigenvalues ---    0.81131   0.83161
 Eigenvectors required to have negative eigenvalues:
                          R13       D19       D17       A17       D20
   1                    0.77946   0.24045   0.22529  -0.22066   0.21039
                          D11       D18       A16       D12       D9
   1                    0.19913   0.19523  -0.15836   0.13905  -0.10178
 RFO step:  Lambda0=4.796294461D-05 Lambda=-8.45905753D-03.
 Linear search not attempted -- option 19 set.
 Maximum step size (   0.100) exceeded in Quadratic search.
    -- Step size scaled by   0.421
 Iteration  1 RMS(Cart)=  0.04980235 RMS(Int)=  0.00073786
 Iteration  2 RMS(Cart)=  0.00213609 RMS(Int)=  0.00001099
 Iteration  3 RMS(Cart)=  0.00000162 RMS(Int)=  0.00001095
 Iteration  4 RMS(Cart)=  0.00000000 RMS(Int)=  0.00001095
 Variable       Old X    -DE/DX   Delta X   Delta X   Delta X     New X
                                 (Linear)    (Quad)   (Total)
    R1        2.31956  -0.02258   0.00000  -0.01487  -0.01487   2.30469
    R2        2.54011  -0.00748   0.00000  -0.00715  -0.00715   2.53296
    R3        2.04696   0.00590   0.00000   0.00722   0.00722   2.05417
    R4        2.04915   0.00668   0.00000   0.01172   0.01172   2.06087
    R5        2.54345  -0.00965   0.00000  -0.00758  -0.00758   2.53587
    R6        2.04909   0.00718   0.00000   0.01080   0.01080   2.05989
    R7        2.04748   0.00653   0.00000   0.00820   0.00820   2.05568
    R8        2.04698   0.00832   0.00000   0.00989   0.00989   2.05687
    R9        2.74149   0.01292   0.00000   0.01190   0.01190   2.75339
   R10        2.75353   0.01259   0.00000   0.01356   0.01356   2.76709
   R11        2.07102   0.01178   0.00000   0.02001   0.02001   2.09103
   R12        2.04571   0.00840   0.00000   0.01029   0.01029   2.05600
   R13        4.55157   0.00552   0.00000   0.04724   0.04724   4.59881
   R14        2.31369  -0.01978   0.00000  -0.01438  -0.01438   2.29931
   R15        2.07276   0.01253   0.00000   0.02246   0.02246   2.09522
    A1        2.11241   0.00229   0.00000   0.00817   0.00817   2.12058
    A2        2.13648  -0.00295   0.00000  -0.00960  -0.00961   2.12687
    A3        2.03427   0.00066   0.00000   0.00141   0.00141   2.03568
    A4        2.12680  -0.00208   0.00000  -0.01194  -0.01195   2.11485
    A5        2.11183   0.00066   0.00000   0.00597   0.00597   2.11780
    A6        2.04454   0.00142   0.00000   0.00600   0.00599   2.05054
    A7        2.13227  -0.00006   0.00000   0.00068   0.00064   2.13290
    A8        2.12576   0.00004   0.00000   0.00070   0.00066   2.12642
    A9        2.02512   0.00002   0.00000  -0.00126  -0.00130   2.02382
   A10        2.15468   0.00431   0.00000   0.01119   0.01118   2.16586
   A11        2.10710  -0.00383   0.00000  -0.00472  -0.00473   2.10237
   A12        2.02113  -0.00043   0.00000  -0.00627  -0.00628   2.01485
   A13        2.14042  -0.00208   0.00000  -0.00784  -0.00784   2.13258
   A14        2.11411  -0.00097   0.00000   0.00116   0.00116   2.11527
   A15        2.02866   0.00304   0.00000   0.00668   0.00668   2.03534
   A16        1.71151   0.00546   0.00000   0.06200   0.06200   1.77351
   A17        1.66400   0.00901   0.00000   0.00239   0.00239   1.66639
   A18        2.12875   0.00811   0.00000   0.02086   0.02086   2.14961
   A19        2.03823  -0.00408   0.00000  -0.01674  -0.01674   2.02150
   A20        2.11616  -0.00402   0.00000  -0.00411  -0.00411   2.11204
    D1       -0.01463  -0.00008   0.00000   0.00811   0.00811  -0.00651
    D2        3.13573  -0.00042   0.00000  -0.01014  -0.01014   3.12559
    D3        3.13517   0.00035   0.00000   0.01175   0.01176  -3.13626
    D4        0.00234   0.00001   0.00000  -0.00649  -0.00650  -0.00416
    D5        0.01452  -0.00046   0.00000   0.00279   0.00279   0.01731
    D6       -3.12571  -0.00025   0.00000   0.00172   0.00172  -3.12399
    D7       -3.13261  -0.00060   0.00000   0.00748   0.00748  -3.12513
    D8        0.01034  -0.00040   0.00000   0.00641   0.00641   0.01675
    D9       -1.96417  -0.00169   0.00000   0.02885   0.02885  -1.93532
   D10        1.18276  -0.00154   0.00000   0.02433   0.02433   1.20708
   D11        1.17283   0.00219   0.00000   0.02618   0.02618   1.19901
   D12       -1.97705   0.00251   0.00000   0.04344   0.04344  -1.93361
   D13       -3.06928  -0.00037   0.00000  -0.00129  -0.00129  -3.07057
   D14        0.06254  -0.00001   0.00000  -0.00065  -0.00066   0.06188
   D15        0.08056  -0.00069   0.00000  -0.01848  -0.01848   0.06209
   D16       -3.07080  -0.00033   0.00000  -0.01785  -0.01784  -3.08864
   D17        0.29059  -0.00254   0.00000  -0.05947  -0.05947   0.23113
   D18       -2.85230  -0.00274   0.00000  -0.05845  -0.05845  -2.91075
   D19       -2.87623  -0.00018   0.00000  -0.05003  -0.05003  -2.92625
   D20        0.26406  -0.00038   0.00000  -0.04901  -0.04901   0.21506
   D21        1.29901   0.00288   0.00000   0.00980   0.00980   1.30881
         Item               Value     Threshold  Converged?
 Maximum Force            0.022582     0.000450     NO 
 RMS     Force            0.006457     0.000300     NO 
 Maximum Displacement     0.126275     0.001800     NO 
 RMS     Displacement     0.049980     0.001200     NO 
 Predicted change in Energy=-2.906502D-03
 GradGradGradGradGradGradGradGradGradGradGradGradGradGradGradGradGradGrad

                          Input orientation:                          
 ---------------------------------------------------------------------
 Center     Atomic      Atomic             Coordinates (Angstroms)
 Number     Number       Type             X           Y           Z
 ---------------------------------------------------------------------
      1          8           0        1.082207   -0.697678    2.018793
      2          6           0       -0.425548    1.541904    0.909859
      3          6           0        1.306472   -1.025352   -0.829817
      4          6           0       -0.638732    1.284752   -0.388238
      5          6           0        0.857337   -1.763620    1.470519
      6          6           0        0.831691   -1.950454    0.018433
      7          1           0        0.639640   -2.667809    2.070055
      8          1           0        1.747640   -0.098058   -0.464169
      9          1           0        0.406039   -2.883213   -0.345563
     10          1           0        0.491224    2.015284    1.251993
     11          1           0       -1.155200    1.278317    1.676322
     12          1           0        0.087652    1.540954   -1.157294
     13          6           0       -1.856191    0.632852   -0.852745
     14          8           0       -2.043808    0.323325   -2.014405
     15          1           0        1.266745   -1.171907   -1.906986
     16          1           0       -2.617068    0.420104   -0.074857
 ---------------------------------------------------------------------
                    Distance matrix (angstroms):
                    1          2          3          4          5
     1  O    0.000000
     2  C    2.918696   0.000000
     3  C    2.876151   3.552065   0.000000
     4  C    3.561664   1.340384   3.052112   0.000000
     5  C    1.219591   3.589795   2.457297   3.871146   0.000000
     6  C    2.373529   3.817309   1.341924   3.576881   1.464281
     7  H    2.019879   4.494704   3.398763   4.827026   1.106523
     8  H    2.639592   3.049619   1.090047   2.759111   2.703656
     9  H    3.289976   4.674322   2.120597   4.297127   2.180668
    10  H    2.880521   1.087022   3.774126   2.121517   3.802882
    11  H    3.004635   1.090567   4.200887   2.128190   3.653224
    12  H    4.011002   2.129905   2.859840   1.088448   4.291623
    13  C    4.318589   2.445380   3.571078   1.457033   4.301613
    14  O    5.203950   3.557389   3.800862   2.354357   4.991661
    15  H    3.958622   4.261835   1.087819   3.460146   3.453300
    16  H    4.395161   2.651577   4.248938   2.181659   4.385012
                    6          7          8          9         10
     6  C    0.000000
     7  H    2.181888   0.000000
     8  H    2.122083   3.775391   0.000000
     9  H    1.087986   2.436427   3.093712   0.000000
    10  H    4.167092   4.756323   2.998334   5.153127   0.000000
    11  H    4.137788   4.352975   3.860387   4.883014   1.853075
    12  H    3.758438   5.332369   2.433586   4.509272   2.488478
    13  C    3.828463   5.066192   3.697677   4.211607   3.442585
    14  O    4.191777   5.729799   4.117750   4.366769   4.467490
    15  H    2.121944   4.295095   1.861755   2.471321   4.553984
    16  H    4.185951   4.974134   4.412565   4.486018   3.737193
                   11         12         13         14         15
    11  H    0.000000
    12  H    3.105324   0.000000
    13  C    2.702627   2.167007   0.000000
    14  O    3.914473   2.600073   1.216742   0.000000
    15  H    4.970867   3.051543   3.757833   3.634146   0.000000
    16  H    2.437256   3.121455   1.108740   2.024806   4.579869
                   16
    16  H    0.000000
 Stoichiometry    C6H8O2
 Framework group  C1[X(C6H8O2)]
 Deg. of freedom    42
 Full point group                 C1      NOp   1
 Largest Abelian subgroup         C1      NOp   1
 Largest concise Abelian subgroup C1      NOp   1
                         Standard orientation:                         
 ---------------------------------------------------------------------
 Center     Atomic      Atomic             Coordinates (Angstroms)
 Number     Number       Type             X           Y           Z
 ---------------------------------------------------------------------
      1          8           0       -2.095913    1.056749   -0.138891
      2          6           0        0.687064    1.825557    0.288606
      3          6           0       -0.879293   -1.277373    1.020399
      4          6           0        1.386296    0.706064    0.521932
      5          6           0       -2.232028   -0.053150   -0.625717
      6          6           0       -1.532389   -1.248880   -0.151527
      7          1           0       -2.905116   -0.207716   -1.490271
      8          1           0       -0.858977   -0.406982    1.676302
      9          1           0       -1.566554   -2.122552   -0.799017
     10          1           0        0.167876    2.347938    1.088092
     11          1           0        0.600520    2.252366   -0.711234
     12          1           0        1.472348    0.272547    1.516606
     13          6           0        2.068663   -0.010796   -0.547382
     14          8           0        2.649376   -1.066224   -0.376190
     15          1           0       -0.351267   -2.168634    1.352350
     16          1           0        2.023593    0.460307   -1.550046
 ---------------------------------------------------------------------
 Rotational constants (GHZ):           2.7706892           1.2017287           0.9733607
 Standard basis: def2SVP (5D, 7F)
 There are   160 symmetry adapted cartesian basis functions of A   symmetry.
 There are   152 symmetry adapted basis functions of A   symmetry.
   152 basis functions,   256 primitive gaussians,   160 cartesian basis functions
    30 alpha electrons       30 beta electrons
       nuclear repulsion energy       330.9733265551 Hartrees.
 NAtoms=   16 NActive=   16 NUniq=   16 SFac= 1.00D+00 NAtFMM=   60 NAOKFM=F Big=F
 Integral buffers will be    131072 words long.
 Raffenetti 2 integral format.
 Two-electron integral symmetry is turned on.
 Nuclear repulsion after empirical dispersion term =      330.9653169904 Hartrees.
 ------------------------------------------------------------------------------
 Polarizable Continuum Model (PCM)
 =================================
 Model                : PCM.
 Atomic radii         : UFF (Universal Force Field).
 Polarization charges : Total charges.
 Charge compensation  : None.
 Solution method      : On-the-fly selection.
 Cavity type          : Scaled VdW (van der Waals Surface) (Alpha=1.100).
 Cavity algorithm     : GePol (No added spheres)
                        Default sphere list used, NSphG=   16.
                        Lebedev-Laikov grids with approx.  5.0 points / Ang**2.
                        Smoothing algorithm: York/Karplus (Gamma=1.0000).
                        Polarization charges: spherical gaussians, with
                                              point-specific exponents (IZeta= 3).
                        Self-potential: point-specific (ISelfS= 7).
                        Self-field    : sphere-specific E.n sum rule (ISelfD= 2).
 1st derivatives      : Analytical E(r).r(x)/FMM algorithm (CHGder, D1EAlg=3).
                        Cavity 1st derivative terms included.
 Solvent              : Toluene, Eps=   2.374100 Eps(inf)=   2.238315
 ------------------------------------------------------------------------------
 Spheres list:
 ISph  on   Nord     Re0    Alpha      Xe            Ye            Ze
    1   O      1    1.7500  1.100     -2.095913      1.056749     -0.138891
    2   C      2    1.9255  1.100      0.687064      1.825557      0.288606
    3   C      3    1.9255  1.100     -0.879293     -1.277373      1.020399
    4   C      4    1.9255  1.100      1.386296      0.706064      0.521932
    5   C      5    1.9255  1.100     -2.232028     -0.053150     -0.625717
    6   C      6    1.9255  1.100     -1.532389     -1.248880     -0.151527
    7   H      7    1.4430  1.100     -2.905116     -0.207716     -1.490271
    8   H      8    1.4430  1.100     -0.858977     -0.406982      1.676302
    9   H      9    1.4430  1.100     -1.566554     -2.122552     -0.799017
   10   H     10    1.4430  1.100      0.167876      2.347938      1.088092
   11   H     11    1.4430  1.100      0.600520      2.252366     -0.711234
   12   H     12    1.4430  1.100      1.472348      0.272547      1.516606
   13   C     13    1.9255  1.100      2.068663     -0.010796     -0.547382
   14   O     14    1.7500  1.100      2.649376     -1.066224     -0.376190
   15   H     15    1.4430  1.100     -0.351267     -2.168634      1.352350
   16   H     16    1.4430  1.100      2.023593      0.460307     -1.550046
 ------------------------------------------------------------------------------
 One-electron integrals computed using PRISM.
   1 Symmetry operations used in ECPInt.
 ECPInt:  NShTT=    2628 NPrTT=    9444 LenC2=    2598 LenP2D=    7435.
 LDataN:  DoStor=T MaxTD1= 4 Len=   56
 NBasis=   152 RedAO= T EigKep=  2.01D-03  NBF=   152
 NBsUse=   152 1.00D-06 EigRej= -1.00D+00 NBFU=   152
 Initial guess from the checkpoint file:  "da-1_1_sqm.chk"
 B after Tr=    -0.000000    0.000000   -0.000000
         Rot=    0.999913   -0.004058    0.001713    0.012421 Ang=  -1.51 deg.
 ExpMin= 1.22D-01 ExpMax= 2.27D+03 ExpMxC= 3.41D+02 IAcc=3 IRadAn=         5 AccDes= 0.00D+00
 Harris functional with IExCor= 4639 and IRadAn=       5 diagonalized for initial guess.
 HarFok:  IExCor= 4639 AccDes= 0.00D+00 IRadAn=         5 IDoV= 1 UseB2=F ITyADJ=14
 ICtDFT=  3500011 ScaDFX=  1.000000  1.000000  1.000000  1.000000
 FoFCou: FMM=F IPFlag=           0 FMFlag=      100000 FMFlg1=           0
         NFxFlg=           0 DoJE=T BraDBF=F KetDBF=T FulRan=T
         wScrn=  0.000000 ICntrl=       500 IOpCl=  0 I1Cent=   200000004 NGrid=           0
         NMat0=    1 NMatS0=      1 NMatT0=    0 NMatD0=    1 NMtDS0=    0 NMtDT0=    0
 Petite list used in FoFCou.
 Requested convergence on RMS density matrix=1.00D-08 within 128 cycles.
 Requested convergence on MAX density matrix=1.00D-06.
 Requested convergence on             energy=1.00D-06.
 No special actions if energy rises.
 Inv3:  Mode=1 IEnd=     6386043.
 Iteration    1 A*A^-1 deviation from unit magnitude is 3.33D-15 for   1270.
 Iteration    1 A*A^-1 deviation from orthogonality  is 3.40D-15 for   1132   1057.
 Iteration    1 A^-1*A deviation from unit magnitude is 2.89D-15 for   1270.
 Iteration    1 A^-1*A deviation from orthogonality  is 2.17D-15 for    983    601.
 Error on total polarization charges =  0.00510
 SCF Done:  E(RwB97XD) =  -383.411850925     A.U. after   13 cycles
            NFock= 13  Conv=0.55D-08     -V/T= 2.0096
   1 Symmetry operations used in ECPInt.
 ECPInt:  NShTT=    2628 NPrTT=    9444 LenC2=    2598 LenP2D=    7435.
 LDataN:  DoStor=T MaxTD1= 5 Len=  102
 D1PCM: PCM CHGder 1st derivatives, ID1Alg=3 FixD1E=F DoIter=F DoCFld=F I1PDM=0.
 Calling FoFJK, ICntrl=      2127 FMM=F ISym2X=0 I1Cent= 0 IOpClX= 0 NMat=1 NMatS=1 NMatT=0.
 ***** Axes restored to original set *****
 -------------------------------------------------------------------
 Center     Atomic                   Forces (Hartrees/Bohr)
 Number     Number              X              Y              Z
 -------------------------------------------------------------------
      1        8          -0.000440402   -0.012559276   -0.004125970
      2        6          -0.000461936    0.000389598   -0.006741462
      3        6          -0.001834630   -0.005561058    0.003940272
      4        6           0.001881997    0.006355859    0.010865087
      5        6           0.002532363    0.018752794    0.009155820
      6        6           0.003381575    0.004458706   -0.009080198
      7        1          -0.001413216   -0.003913134    0.003826801
      8        1           0.001413151   -0.000320779    0.002168612
      9        1          -0.000795795   -0.003698547   -0.002437594
     10        1           0.002447615    0.001170093    0.001380399
     11        1          -0.002292380   -0.001096269    0.001016012
     12        1           0.002283236    0.001794274   -0.002298202
     13        6          -0.001793491   -0.006084453   -0.019550847
     14        8          -0.000849747    0.002175287    0.010851737
     15        1          -0.000127155   -0.000648760   -0.003232216
     16        1          -0.003931186   -0.001214333    0.004261749
 -------------------------------------------------------------------
 Cartesian Forces:  Max     0.019550847 RMS     0.005897366

 GradGradGradGradGradGradGradGradGradGradGradGradGradGradGradGradGradGrad
 Berny optimization.
 FormGI is forming the generalized inverse of G from B-inverse, IUseBI=4.
 Internal  Forces:  Max     0.012912434 RMS     0.003702017
 Search for a saddle point.
 Step number   3 out of a maximum of   50
 All quantities printed in internal units (Hartrees-Bohrs-Radians)
 Swapping is turned off.
 Update second derivatives using D2CorX and points    1    2    3
 ITU=  0  0  0
     Eigenvalues ---   -0.02911  -0.00308   0.00166   0.00312   0.00780
     Eigenvalues ---    0.00977   0.01569   0.01859   0.02121   0.02442
     Eigenvalues ---    0.03779   0.04542   0.05060   0.07060   0.07080
     Eigenvalues ---    0.08421   0.08566   0.09995   0.10835   0.11128
     Eigenvalues ---    0.11453   0.11599   0.11783   0.12826   0.13909
     Eigenvalues ---    0.16461   0.16659   0.22666   0.26716   0.27078
     Eigenvalues ---    0.27263   0.27356   0.27820   0.28400   0.28534
     Eigenvalues ---    0.29574   0.43021   0.45409   0.73636   0.73913
     Eigenvalues ---    0.81189   0.83237
 Eigenvectors required to have negative eigenvalues:
                          R13       A17       D19       D17       D11
   1                   -0.78539   0.24281  -0.23096  -0.21668  -0.20893
                          D20       D18       D12       A16       D21
   1                   -0.20497  -0.19069  -0.15064   0.11816  -0.11658
 RFO step:  Lambda0=1.114527785D-04 Lambda=-5.56540524D-03.
 Linear search not attempted -- option 19 set.
 Maximum step size (   0.100) exceeded in Quadratic search.
    -- Step size scaled by   0.317
 Iteration  1 RMS(Cart)=  0.06755403 RMS(Int)=  0.00367384
 Iteration  2 RMS(Cart)=  0.00404242 RMS(Int)=  0.00002195
 Iteration  3 RMS(Cart)=  0.00001414 RMS(Int)=  0.00001800
 Iteration  4 RMS(Cart)=  0.00000000 RMS(Int)=  0.00001800
 Variable       Old X    -DE/DX   Delta X   Delta X   Delta X     New X
                                 (Linear)    (Quad)   (Total)
    R1        2.30469  -0.01291   0.00000  -0.00588  -0.00588   2.29881
    R2        2.53296  -0.00417   0.00000  -0.00197  -0.00197   2.53099
    R3        2.05417   0.00301   0.00000   0.00085   0.00085   2.05502
    R4        2.06087   0.00251   0.00000  -0.00326  -0.00326   2.05761
    R5        2.53587  -0.00494   0.00000  -0.00158  -0.00158   2.53429
    R6        2.05989   0.00282   0.00000  -0.00364  -0.00364   2.05625
    R7        2.05568   0.00329   0.00000   0.00050   0.00050   2.05618
    R8        2.05687   0.00441   0.00000  -0.00084  -0.00084   2.05603
    R9        2.75339   0.00920   0.00000   0.01596   0.01596   2.76935
   R10        2.76709   0.00909   0.00000   0.01505   0.01505   2.78214
   R11        2.09103   0.00555   0.00000  -0.00249  -0.00249   2.08854
   R12        2.05600   0.00430   0.00000  -0.00058  -0.00058   2.05542
   R13        4.59881   0.00427   0.00000   0.08843   0.08843   4.68724
   R14        2.29931  -0.01078   0.00000  -0.00557  -0.00557   2.29374
   R15        2.09522   0.00592   0.00000  -0.00223  -0.00223   2.09299
    A1        2.12058   0.00135   0.00000   0.00251   0.00251   2.12308
    A2        2.12687  -0.00179   0.00000  -0.00508  -0.00508   2.12179
    A3        2.03568   0.00044   0.00000   0.00257   0.00257   2.03825
    A4        2.11485  -0.00076   0.00000  -0.00500  -0.00500   2.10985
    A5        2.11780   0.00019   0.00000   0.00198   0.00197   2.11977
    A6        2.05054   0.00058   0.00000   0.00302   0.00301   2.05355
    A7        2.13290   0.00013   0.00000  -0.00007  -0.00011   2.13279
    A8        2.12642  -0.00076   0.00000  -0.00909  -0.00913   2.11729
    A9        2.02382   0.00063   0.00000   0.00901   0.00896   2.03278
   A10        2.16586   0.00217   0.00000  -0.00387  -0.00387   2.16199
   A11        2.10237  -0.00210   0.00000   0.00336   0.00335   2.10573
   A12        2.01485  -0.00005   0.00000   0.00057   0.00057   2.01541
   A13        2.13258  -0.00049   0.00000  -0.00470  -0.00471   2.12787
   A14        2.11527  -0.00088   0.00000   0.00139   0.00139   2.11666
   A15        2.03534   0.00137   0.00000   0.00331   0.00331   2.03865
   A16        1.77351   0.00254   0.00000   0.01791   0.01791   1.79142
   A17        1.66639   0.00637   0.00000  -0.01315  -0.01315   1.65323
   A18        2.14961   0.00407   0.00000  -0.00024  -0.00024   2.14937
   A19        2.02150  -0.00216   0.00000  -0.00629  -0.00629   2.01521
   A20        2.11204  -0.00191   0.00000   0.00654   0.00654   2.11858
    D1       -0.00651  -0.00003   0.00000   0.00897   0.00893   0.00242
    D2        3.12559  -0.00021   0.00000  -0.00975  -0.00971   3.11588
    D3       -3.13626   0.00017   0.00000   0.01013   0.01009  -3.12617
    D4       -0.00416  -0.00001   0.00000  -0.00859  -0.00855  -0.01271
    D5        0.01731  -0.00116   0.00000  -0.01612  -0.01612   0.00119
    D6       -3.12399  -0.00073   0.00000  -0.01155  -0.01155  -3.13555
    D7       -3.12513  -0.00114   0.00000  -0.00916  -0.00916  -3.13429
    D8        0.01675  -0.00071   0.00000  -0.00460  -0.00460   0.01216
    D9       -1.93532  -0.00174   0.00000   0.03107   0.03107  -1.90425
   D10        1.20708  -0.00176   0.00000   0.02437   0.02437   1.23145
   D11        1.19901   0.00178   0.00000   0.04753   0.04747   1.24649
   D12       -1.93361   0.00195   0.00000   0.06530   0.06536  -1.86825
   D13       -3.07057  -0.00034   0.00000  -0.00794  -0.00793  -3.07851
   D14        0.06188  -0.00004   0.00000  -0.00684  -0.00684   0.05505
   D15        0.06209  -0.00051   0.00000  -0.02559  -0.02560   0.03649
   D16       -3.08864  -0.00021   0.00000  -0.02449  -0.02450  -3.11314
   D17        0.23113  -0.00189   0.00000  -0.12199  -0.12199   0.10914
   D18       -2.91075  -0.00230   0.00000  -0.12636  -0.12636  -3.03711
   D19       -2.92625  -0.00020   0.00000  -0.11776  -0.11776  -3.04402
   D20        0.21506  -0.00061   0.00000  -0.12213  -0.12213   0.09292
   D21        1.30881   0.00130   0.00000  -0.03564  -0.03564   1.27317
         Item               Value     Threshold  Converged?
 Maximum Force            0.012912     0.000450     NO 
 RMS     Force            0.003702     0.000300     NO 
 Maximum Displacement     0.271240     0.001800     NO 
 RMS     Displacement     0.067791     0.001200     NO 
 Predicted change in Energy=-1.515755D-03
 GradGradGradGradGradGradGradGradGradGradGradGradGradGradGradGradGradGrad

                          Input orientation:                          
 ---------------------------------------------------------------------
 Center     Atomic      Atomic             Coordinates (Angstroms)
 Number     Number       Type             X           Y           Z
 ---------------------------------------------------------------------
      1          8           0        1.225741   -0.715766    1.996735
      2          6           0       -0.442808    1.556176    0.924396
      3          6           0        1.307511   -1.039204   -0.848328
      4          6           0       -0.637355    1.307880   -0.377272
      5          6           0        0.853293   -1.744389    1.464719
      6          6           0        0.813689   -1.946485    0.006947
      7          1           0        0.505396   -2.599218    2.072762
      8          1           0        1.757952   -0.117295   -0.486114
      9          1           0        0.367117   -2.872604   -0.347908
     10          1           0        0.451504    2.061511    1.281375
     11          1           0       -1.167508    1.250848    1.677497
     12          1           0        0.086392    1.595783   -1.136911
     13          6           0       -1.830224    0.598074   -0.847237
     14          8           0       -2.009910    0.299500   -2.009932
     15          1           0        1.268232   -1.193277   -1.924733
     16          1           0       -2.568922    0.337866   -0.064095
 ---------------------------------------------------------------------
                    Distance matrix (angstroms):
                    1          2          3          4          5
     1  O    0.000000
     2  C    3.015905   0.000000
     3  C    2.864556   3.597521   0.000000
     4  C    3.633480   1.339343   3.084347   0.000000
     5  C    1.216480   3.586859   2.460444   3.864106   0.000000
     6  C    2.375650   3.832640   1.341087   3.583859   1.472247
     7  H    2.017937   4.414197   3.407315   4.751206   1.105206
     8  H    2.608823   3.103770   1.088123   2.789349   2.696589
     9  H    3.299476   4.678550   2.120405   4.299567   2.189716
    10  H    2.970598   1.087470   3.857825   2.122424   3.831440
    11  H    3.114021   1.088842   4.213057   2.122826   3.619442
    12  H    4.057229   2.128522   2.918487   1.088002   4.302716
    13  C    4.376445   2.445724   3.539217   1.465478   4.246592
    14  O    5.249150   3.556027   3.761214   2.359304   4.944554
    15  H    3.950662   4.313315   1.088085   3.504523   3.458943
[...]
 ! A1    A(4,2,10)             121.9584         -DE/DX =    0.0                 !
 ! A2    A(4,2,11)             120.9157         -DE/DX =    0.0                 !
 ! A3    A(10,2,11)            117.122          -DE/DX =    0.0                 !
 ! A4    A(6,3,8)              119.9242         -DE/DX =    0.0                 !
 ! A5    A(6,3,15)             122.0686         -DE/DX =    0.0                 !
 ! A6    A(8,3,15)             118.0052         -DE/DX =    0.0                 !
 ! A7    A(2,4,12)             122.1286         -DE/DX =    0.0                 !
 ! A8    A(2,4,13)             121.0364         -DE/DX =    0.0                 !
 ! A9    A(12,4,13)            116.8261         -DE/DX =    0.0                 !
 ! A10   A(1,5,6)              124.4438         -DE/DX =    0.0                 !
 ! A11   A(1,5,7)              120.4154         -DE/DX =    0.0                 !
 ! A12   A(6,5,7)              115.1404         -DE/DX =    0.0                 !
 ! A13   A(3,6,5)              121.3421         -DE/DX =    0.0                 !
 ! A14   A(3,6,9)              121.4829         -DE/DX =    0.0                 !
 ! A15   A(5,6,9)              117.1749         -DE/DX =    0.0                 !
 ! A16   A(3,8,12)             115.0083         -DE/DX =    0.0                 !
 ! A17   A(4,12,8)              96.9114         -DE/DX =    0.0                 !
 ! A18   A(4,13,14)            124.4423         -DE/DX =    0.0                 !
 ! A19   A(4,13,16)            114.5427         -DE/DX =    0.0                 !
 ! A20   A(14,13,16)           121.0143         -DE/DX =    0.0                 !
 ! D1    D(10,2,4,12)           -0.3441         -DE/DX =    0.0                 !
 ! D2    D(10,2,4,13)          178.5369         -DE/DX =    0.0                 !
 ! D3    D(11,2,4,12)         -179.6069         -DE/DX =    0.0                 !
 ! D4    D(11,2,4,13)           -0.7259         -DE/DX =    0.0                 !
 ! D5    D(8,3,6,5)              0.2905         -DE/DX =    0.0                 !
 ! D6    D(8,3,6,9)           -179.8442         -DE/DX =    0.0                 !
 ! D7    D(15,3,6,5)          -179.1935         -DE/DX =    0.0                 !
 ! D8    D(15,3,6,9)             0.6718         -DE/DX =    0.0                 !
 ! D9    D(6,3,8,12)           -88.3172         -DE/DX =    0.0                 !
 ! D10   D(15,3,8,12)           91.1875         -DE/DX =    0.0                 !
 ! D11   D(2,4,12,8)           101.3827         -DE/DX =    0.0                 !
 ! D12   D(13,4,12,8)          -77.5429         -DE/DX =    0.0                 !
 ! D13   D(2,4,13,14)         -177.6383         -DE/DX =    0.0                 !
 ! D14   D(2,4,13,16)            2.0489         -DE/DX =    0.0                 !
 ! D15   D(12,4,13,14)           1.2998         -DE/DX =    0.0                 !
 ! D16   D(12,4,13,16)        -179.013          -DE/DX =    0.0                 !
 ! D17   D(1,5,6,3)              1.2435         -DE/DX =    0.0                 !
 ! D18   D(1,5,6,9)           -178.6274         -DE/DX =    0.0                 !
 ! D19   D(7,5,6,3)           -178.9732         -DE/DX =    0.0                 !
 ! D20   D(7,5,6,9)              1.1559         -DE/DX =    0.0                 !
 ! D21   D(3,8,12,4)            28.2881         -DE/DX =    0.0                 !
 --------------------------------------------------------------------------------
 GradGradGradGradGradGradGradGradGradGradGradGradGradGradGradGradGradGrad

                          Input orientation:                          
 ---------------------------------------------------------------------
 Center     Atomic      Atomic             Coordinates (Angstroms)
 Number     Number       Type             X           Y           Z
 ---------------------------------------------------------------------
      1          8           0        1.812705   -0.565364    1.595577
      2          6           0       -0.775552    1.537002    1.170292
      3          6           0        1.101868   -1.377752   -1.059311
      4          6           0       -0.610399    1.457295   -0.152812
      5          6           0        1.167628   -1.566766    1.392214
      6          6           0        0.754130   -2.040004    0.048458
      7          1           0        0.835420   -2.208253    2.244269
      8          1           0        1.707412   -0.469917   -0.984883
      9          1           0        0.151364   -2.951856    0.003496
     10          1           0       -0.053928    2.044807    1.813160
     11          1           0       -1.643705    1.079998    1.657672
     12          1           0        0.251975    1.900766   -0.659261
     13          6           0       -1.581820    0.738716   -0.998440
     14          8           0       -1.472272    0.593768   -2.191980
     15          1           0        0.793320   -1.708102   -2.053060
     16          1           0       -2.458047    0.315061   -0.443492
 ---------------------------------------------------------------------
                    Distance matrix (angstroms):
                    1          2          3          4          5
     1  O    0.000000
     2  C    3.361530   0.000000
     3  C    2.865954   4.122090   0.000000
     4  C    3.608247   1.335752   3.433816   0.000000
     5  C    1.208424   3.668594   2.459680   3.833202   0.000000
     6  C    2.385105   4.048878   1.336657   3.759462   1.483448
     7  H    2.018656   4.216111   3.416777   4.612226   1.117079
     8  H    2.584371   3.851963   1.093795   3.127097   2.673021
     9  H    3.315136   4.729740   2.123869   4.477201   2.209028
    10  H    3.216310   1.091735   4.615285   2.126000   3.835734
    11  H    3.828556   1.095482   4.578285   2.118473   3.870326
    12  H    3.688085   2.129648   3.410431   1.094004   4.131677
    13  C    4.466805   2.447596   3.418380   1.474823   4.311605
    14  O    5.145896   3.560896   3.434534   2.376281   4.948073
    15  H    3.956962   4.835500   1.091728   3.949824   3.468429
    16  H    4.813759   2.632153   3.989718   2.191575   4.478462
                    6          7          8          9         10
     6  C    0.000000
     7  H    2.203748   0.000000
     8  H    2.107538   3.769563   0.000000
     9  H    1.093994   2.458037   3.091634   0.000000
    10  H    4.522479   4.366384   4.153938   5.318239   0.000000
    11  H    4.251305   4.159657   4.540409   4.713217   1.866126
    12  H    4.035182   5.065069   2.800797   4.898705   2.495433
    13  C    3.778087   5.004281   3.504287   4.198586   3.456215
    14  O    4.112563   5.732108   3.563551   4.475238   4.489806
    15  H    2.127926   4.326542   1.873411   2.487660   5.454338
    16  H    4.013282   4.943491   4.273213   4.204946   3.723478
                   11         12         13         14         15
    11  H    0.000000
    12  H    3.104100   0.000000
    13  C    2.678662   2.197318   0.000000
    14  O    3.884022   2.651509   1.207290   0.000000
    15  H    5.242339   3.906361   3.569374   3.232771   0.000000
    16  H    2.379741   3.147259   1.120368   2.026485   4.153948
                   16
    16  H    0.000000
 Stoichiometry    C6H8O2
 Framework group  C1[X(C6H8O2)]
 Deg. of freedom    42
 Full point group                 C1      NOp   1
 Largest Abelian subgroup         C1      NOp   1
 Largest concise Abelian subgroup C1      NOp   1
                         Standard orientation:                         
 ---------------------------------------------------------------------
 Center     Atomic      Atomic             Coordinates (Angstroms)
 Number     Number       Type             X           Y           Z
 ---------------------------------------------------------------------
      1          8           0       -2.156345    0.980255    0.523677
      2          6           0        0.975502    1.988771   -0.165025
      3          6           0       -0.917121   -1.603851    0.543968
      4          6           0        1.448837    0.881325    0.412687
      5          6           0       -2.235623    0.233601   -0.423166
      6          6           0       -1.610364   -1.110136   -0.486716
      7          1           0       -2.805255    0.535607   -1.335403
      8          1           0       -0.806548   -1.015196    1.459198
      9          1           0       -1.739112   -1.677821   -1.412989
     10          1           0        0.503276    2.785475    0.413033
     11          1           0        1.036657    2.127824   -1.249924
     12          1           0        1.392448    0.719085    1.493123
     13          6           0        2.054358   -0.196524   -0.391483
     14          8           0        2.463567   -1.238400    0.060834
     15          1           0       -0.441278   -2.585661    0.505320
     16          1           0        2.108498    0.016740   -1.490033
 ---------------------------------------------------------------------
 Rotational constants (GHZ):           2.5711163           1.2344741           0.9242727

 **********************************************************************

            Population analysis using the SCF Density.

 **********************************************************************

 Orbital symmetries:
       Occupied  (A) (A) (A) (A) (A) (A) (A) (A) (A) (A) (A) (A)
                 (A) (A) (A) (A) (A) (A) (A) (A) (A) (A) (A) (A)
                 (A) (A) (A) (A) (A) (A)
       Virtual   (A) (A) (A) (A) (A) (A) (A) (A) (A) (A) (A) (A)
                 (A) (A) (A) (A) (A) (A) (A) (A) (A) (A) (A) (A)
                 (A) (A) (A) (A) (A) (A) (A) (A) (A) (A) (A) (A)
                 (A) (A) (A) (A) (A) (A) (A) (A) (A) (A) (A) (A)
                 (A) (A) (A) (A) (A) (A) (A) (A) (A) (A) (A) (A)
                 (A) (A) (A) (A) (A) (A) (A) (A) (A) (A) (A) (A)
                 (A) (A) (A) (A) (A) (A) (A) (A) (A) (A) (A) (A)
                 (A) (A) (A) (A) (A) (A) (A) (A) (A) (A) (A) (A)
                 (A) (A) (A) (A) (A) (A) (A) (A) (A) (A) (A) (A)
                 (A) (A) (A) (A) (A) (A) (A) (A) (A) (A) (A) (A)
                 (A) (A)
 The electronic state is 1-A.
 Alpha  occ. eigenvalues --  -19.26012 -19.25736 -10.39263 -10.39130 -10.32871
 Alpha  occ. eigenvalues --  -10.32636 -10.31512 -10.31476  -1.14245  -1.14073
 Alpha  occ. eigenvalues --   -0.89345  -0.88604  -0.74710  -0.73303  -0.65933
 Alpha  occ. eigenvalues --   -0.63021  -0.60166  -0.56660  -0.56122  -0.54104
 Alpha  occ. eigenvalues --   -0.51409  -0.50859  -0.50145  -0.48990  -0.47282
 Alpha  occ. eigenvalues --   -0.46593  -0.37337  -0.36959  -0.34801  -0.34564
 Alpha virt. eigenvalues --   -0.00193   0.00713   0.12734   0.14147   0.15053
 Alpha virt. eigenvalues --    0.15985   0.16261   0.18775   0.21074   0.21384
 Alpha virt. eigenvalues --    0.23349   0.25586   0.29946   0.31070   0.37166
 Alpha virt. eigenvalues --    0.38023   0.38389   0.41050   0.42305   0.47716
 Alpha virt. eigenvalues --    0.49373   0.51932   0.53488   0.55147   0.55996
 Alpha virt. eigenvalues --    0.57851   0.59813   0.62326   0.65370   0.67808
 Alpha virt. eigenvalues --    0.69058   0.69923   0.71103   0.71252   0.73119
 Alpha virt. eigenvalues --    0.73931   0.74662   0.76149   0.76997   0.78121
 Alpha virt. eigenvalues --    0.78702   0.80486   0.82014   0.86222   0.89326
 Alpha virt. eigenvalues --    0.90717   0.94548   0.97851   1.07284   1.09339
 Alpha virt. eigenvalues --    1.13553   1.14832   1.18218   1.22023   1.22787
 Alpha virt. eigenvalues --    1.25004   1.26353   1.27842   1.32085   1.32734
 Alpha virt. eigenvalues --    1.33671   1.35648   1.51792   1.52392   1.53563
 Alpha virt. eigenvalues --    1.55654   1.65351   1.67460   1.70749   1.71408
 Alpha virt. eigenvalues --    1.75179   1.77170   1.79873   1.80342   1.81062
 Alpha virt. eigenvalues --    1.83173   1.85384   1.86475   1.89939   1.91711
 Alpha virt. eigenvalues --    1.92799   1.95724   1.97191   2.00956   2.03466
 Alpha virt. eigenvalues --    2.11094   2.12094   2.14645   2.17187   2.18202
 Alpha virt. eigenvalues --    2.21498   2.26140   2.31634   2.36420   2.42588
 Alpha virt. eigenvalues --    2.43724   2.52836   2.53710   2.54014   2.56017
 Alpha virt. eigenvalues --    2.58002   2.59548   2.66994   2.67483   2.79065
 Alpha virt. eigenvalues --    2.79626   2.81068   2.82176   2.85050   2.88416
 Alpha virt. eigenvalues --    2.93821   2.96832   3.05833   3.15313   3.22794
 Alpha virt. eigenvalues --    3.23154   3.24742   3.39538   3.53274   3.58432
 Alpha virt. eigenvalues --    3.69790   3.70674
          Condensed to atoms (all electrons):
               1          2          3          4          5          6
     1  O    7.711304   0.001920   0.011902  -0.000301   0.663939  -0.121952
     2  C    0.001920   4.763396  -0.002506   0.496845   0.001268   0.000334
     3  C    0.011902  -0.002506   4.681917  -0.004782  -0.019838   0.559778
     4  C   -0.000301   0.496845  -0.004782   5.255070  -0.000085   0.001267
     5  C    0.663939   0.001268  -0.019838  -0.000085   4.567745   0.222606
     6  C   -0.121952   0.000334   0.559778   0.001267   0.222606   5.293503
     7  H   -0.041135  -0.000248   0.012811   0.000121   0.418417  -0.126292
     8  H    0.015672  -0.000175   0.401225   0.002800  -0.015334  -0.034997
     9  H    0.003156  -0.000027  -0.031640   0.000143  -0.026416   0.385081
    10  H    0.001145   0.383785  -0.000016  -0.002753   0.000048   0.000017
    11  H   -0.000009   0.401627   0.000010  -0.030825   0.000096  -0.000057
    12  H   -0.000036  -0.022267  -0.000420   0.377436  -0.000036   0.000104
    13  C   -0.000179  -0.010041   0.004487   0.254038  -0.000461   0.000397
    14  O    0.000000   0.006520   0.001099  -0.093945  -0.000002  -0.000799
    15  H    0.000268  -0.000025   0.392276  -0.000423   0.007320  -0.017387
    16  H    0.000001   0.015947   0.000013  -0.139045  -0.000021   0.000162
               7          8          9         10         11         12
     1  O   -0.041135   0.015672   0.003156   0.001145  -0.000009  -0.000036
     2  C   -0.000248  -0.000175  -0.000027   0.383785   0.401627  -0.022267
     3  C    0.012811   0.401225  -0.031640  -0.000016   0.000010  -0.000420
     4  C    0.000121   0.002800   0.000143  -0.002753  -0.030825   0.377436
     5  C    0.418417  -0.015334  -0.026416   0.000048   0.000096  -0.000036
     6  C   -0.126292  -0.034997   0.385081   0.000017  -0.000057   0.000104
     7  H    0.710419   0.001309   0.000087  -0.000010   0.000040  -0.000002
     8  H    0.001309   0.578880   0.007149  -0.000028   0.000021   0.000919
     9  H    0.000087   0.007149   0.620494  -0.000005   0.000000  -0.000004
    10  H   -0.000010  -0.000028  -0.000005   0.574389  -0.035998  -0.011001
    11  H    0.000040   0.000021   0.000000  -0.035998   0.595873   0.006527
    12  H   -0.000002   0.000919  -0.000004  -0.011001   0.006527   0.601446
    13  C   -0.000025  -0.001059  -0.000137   0.005327  -0.013796  -0.026773
    14  O    0.000000  -0.000091   0.000003  -0.000132   0.000150   0.006494
    15  H   -0.000166  -0.034413  -0.010594   0.000001  -0.000000   0.000088
    16  H    0.000002   0.000047   0.000004  -0.000415   0.007800   0.007647
              13         14         15         16
     1  O   -0.000179   0.000000   0.000268   0.000001
     2  C   -0.010041   0.006520  -0.000025   0.015947
     3  C    0.004487   0.001099   0.392276   0.000013
     4  C    0.254038  -0.093945  -0.000423  -0.139045
     5  C   -0.000461  -0.000002   0.007320  -0.000021
     6  C    0.000397  -0.000799  -0.017387   0.000162
     7  H   -0.000025   0.000000  -0.000166   0.000002
     8  H   -0.001059  -0.000091  -0.034413   0.000047
     9  H   -0.000137   0.000003  -0.010594   0.000004
    10  H    0.005327  -0.000132   0.000001  -0.000415
    11  H   -0.013796   0.000150  -0.000000   0.007800
    12  H   -0.026773   0.006494   0.000088   0.007647
    13  C    4.550967   0.646554   0.000858   0.417751
    14  O    0.646554   7.727070   0.001228  -0.039110
    15  H    0.000858   0.001228   0.577387   0.000049
    16  H    0.417751  -0.039110   0.000049   0.714333
 Mulliken charges:
               1
     1  O   -0.245696
     2  C   -0.036356
     3  C   -0.006316
     4  C   -0.115561
     5  C    0.180754
     6  C   -0.161764
     7  H    0.024670
     8  H    0.078074
     9  H    0.052705
    10  H    0.085646
    11  H    0.068542
    12  H    0.059878
    13  C    0.172092
    14  O   -0.255040
    15  H    0.083534
    16  H    0.014837
 Sum of Mulliken charges =  -0.00000
 Mulliken charges with hydrogens summed into heavy atoms:
               1
     1  O   -0.245696
     2  C    0.117833
     3  C    0.155292
     4  C   -0.055682
     5  C    0.205424
     6  C   -0.109059
    13  C    0.186929
    14  O   -0.255040
 Electronic spatial extent (au):  <R**2>=           1235.2773
 Charge=             -0.0000 electrons
 Dipole moment (field-independent basis, Debye):
    X=             -1.0066    Y=              0.7499    Z=             -2.1358  Tot=              2.4774
 Quadrupole moment (field-independent basis, Debye-Ang):
   XX=            -54.6023   YY=            -46.7577   ZZ=            -43.6199
   XY=              8.9164   XZ=              2.8263   YZ=             -1.4997
 Traceless Quadrupole moment (field-independent basis, Debye-Ang):
   XX=             -6.2757   YY=              1.5689   ZZ=              4.7067
   XY=              8.9164   XZ=              2.8263   YZ=             -1.4997
 Octapole moment (field-independent basis, Debye-Ang**2):
  XXX=            -15.4170  YYY=              2.8710  ZZZ=              1.0640  XYY=             -3.8181
  XXY=              6.6090  XXZ=            -14.2247  XZZ=              1.1070  YZZ=             -0.1273
  YYZ=             -1.1749  XYZ=              1.8375
 Hexadecapole moment (field-independent basis, Debye-Ang**3):
 XXXX=           -999.0392 YYYY=           -456.4812 ZZZZ=           -129.2441 XXXY=             17.4165
 XXXZ=             13.1196 YYYX=             -5.7912 YYYZ=              0.6614 ZZZX=             -0.2116
 ZZZY=              1.1904 XXYY=           -283.1960 XXZZ=           -174.0467 YYZZ=            -99.3437
 XXYZ=             -4.2067 YYXZ=              2.3486 ZZXY=             -1.3767
 N-N= 3.273516674772D+02 E-N=-1.548571263006D+03  KE= 3.797301074032D+02
 Unable to Open any file for archive entry.
 1\1\GINC-NODE-008\FTS\RwB97XD\def2SVP\C6H8O2\JP2658\21-Dec-2023\0\\# w
 b97xd def2svp geom=allchk scrf=(iefpcm,solvent=toluene) opt=(readfc,ts
 ,noeigen,maxcycles=50,maxstep=10)\\1c_2m_endo_adj_1_reopt2.out\\0,1\O,
 1.8127049639,-0.5653636492,1.5955773995\C,-0.7755519203,1.5370022845,1
 .1702923283\C,1.1018683256,-1.3777518027,-1.0593106225\C,-0.6103985048
 ,1.4572954784,-0.1528120779\C,1.1676282575,-1.5667664607,1.3922144295\
 C,0.7541296369,-2.0400041034,0.0484575432\H,0.8354196216,-2.2082526052
 ,2.2442693269\H,1.7074123351,-0.4699169386,-0.9848832161\H,0.151363899
 3,-2.951856197,0.0034957552\H,-0.0539279852,2.0448069273,1.8131597508\
 H,-1.6437049896,1.0799975356,1.6576715637\H,0.251975168,1.9007660042,-
 0.6592606791\C,-1.5818198083,0.7387159154,-0.9984398075\O,-1.472271643
 9,0.5937681944,-2.191979728\H,0.793319999,-1.7081018721,-2.0530599285\
 H,-2.4580473549,0.315061289,-0.4434920376\\Version=ES64L-G16RevC.01\St
 ate=1-A\HF=-383.4143564\RMSD=8.958e-09\RMSF=4.457e-06\Dipole=-0.390129
 ,-0.5042891,0.7372073\Quadrupole=-1.7079254,5.1332636,-3.4253382,0.203
 9173,-6.7310959,1.200889\PG=C01 [X(C6H8O2)]\\@
 The archive entry for this job was punched.


 MUD THROWN IS GROUND LOST -- FROM A TEA BAG
 Job cpu time:       0 days  0 hours 56 minutes 12.0 seconds.
 Elapsed time:       0 days  0 hours 56 minutes 24.8 seconds.
 File lengths (MBytes):  RWF=     89 Int=      0 D2E=      0 Chk=      7 Scr=      1
 Normal termination of Gaussian 16 at Thu Dec 21 23:06:07 2023.
