Unloading slurm/anatra/current
  ERROR: No such file or directory on
    '/cm/local/modulefiles/slurm/anatra/current'
environment: line 0: unalias: gv: not found
environment: line 0: unalias: sl: not found
 Entering Gaussian System, Link 0=g16
 Initial command:
 /apps/gaussian/g16/C.01/g16/l1.exe "/local/jobs/1153267/Gau-2017112.inp" -scrdir="/local/jobs/1153267/"
 Entering Link 1 = /apps/gaussian/g16/C.01/g16/l1.exe PID=   2017114.
  
 Copyright (c) 1988-2019, Gaussian, Inc.  All Rights Reserved.
  
 This is part of the Gaussian(R) 16 program.  It is based on
 the Gaussian(R) 09 system (copyright 2009, Gaussian, Inc.),
 the Gaussian(R) 03 system (copyright 2003, Gaussian, Inc.),
 the Gaussian(R) 98 system (copyright 1998, Gaussian, Inc.),
 the Gaussian(R) 94 system (copyright 1995, Gaussian, Inc.),
 the Gaussian 92(TM) system (copyright 1992, Gaussian, Inc.),
 the Gaussian 90(TM) system (copyright 1990, Gaussian, Inc.),
 the Gaussian 88(TM) system (copyright 1988, Gaussian, Inc.),
 the Gaussian 86(TM) system (copyright 1986, Carnegie Mellon
 University), and the Gaussian 82(TM) system (copyright 1983,
 Carnegie Mellon University). Gaussian is a federally registered
 trademark of Gaussian, Inc.
  
 This software contains proprietary and confidential information,
 including trade secrets, belonging to Gaussian, Inc.
  
 This software is provided under written license and may be
 used, copied, transmitted, or stored only in accord with that
 written license.
  
 The following legend is applicable only to US Government
 contracts under FAR:
  
                    RESTRICTED RIGHTS LEGEND
  
 Use, reproduction and disclosure by the US Government is
 subject to restrictions as set forth in subparagraphs (a)
 and (c) of the Commercial Computer Software - Restricted
 Rights clause in FAR 52.227-19.
  
 Gaussian, Inc.
 340 Quinnipiac St., Bldg. 40, Wallingford CT 06492
  
  
 ---------------------------------------------------------------
 Warning -- This program may not be used in any manner that
 competes with the business of Gaussian, Inc. or will provide
 assistance to any competitor of Gaussian, Inc.  The licensee
 of this program is prohibited from giving any competitor of
 Gaussian, Inc. access to this program.  By using this program,
 the user acknowledges that Gaussian, Inc. is engaged in the
 business of creating and licensing software in the field of
 computational chemistry and represents and warrants to the
 licensee that it is not a competitor of Gaussian, Inc. and that
 it will not use this program in any manner prohibited above.
 ---------------------------------------------------------------
  

 Cite this work as:
 Gaussian 16, Revision C.01,
 M. J. Frisch, G. W. Trucks, H. B. Schlegel, G. E. Scuseria, 
 M. A. Robb, J. R. Cheeseman, G. Scalmani, V. Barone, 
 G. A. Petersson, H. Nakatsuji, X. Li, M. Caricato, A. V. Marenich, 
 J. Bloino, B. G. Janesko, R. Gomperts, B. Mennucci, H. P. Hratchian, 
 J. V. Ortiz, A. F. Izmaylov, J. L. Sonnenberg, D. Williams-Young, 
 F. Ding, F. Lipparini, F. Egidi, J. Goings, B. Peng, A. Petrone, 
 T. Henderson, D. Ranasinghe, V. G. Zakrzewski, J. Gao, N. Rega, 
 G. Zheng, W. Liang, M. Hada, M. Ehara, K. Toyota, R. Fukuda, 
 J. Hasegawa, M. Ishida, T. Nakajima, Y. Honda, O. Kitao, H. Nakai, 
 T. Vreven, K. Throssell, J. A. Montgomery, Jr., J. E. Peralta, 
 F. Ogliaro, M. J. Bearpark, J. J. Heyd, E. N. Brothers, K. N. Kudin, 
 V. N. Staroverov, T. A. Keith, R. Kobayashi, J. Normand, 
 K. Raghavachari, A. P. Rendell, J. C. Burant, S. S. Iyengar, 
 J. Tomasi, M. Cossi, J. M. Millam, M. Klene, C. Adamo, R. Cammi, 
 J. W. Ochterski, R. L. Martin, K. Morokuma, O. Farkas, 
 J. B. Foresman, and D. J. Fox, Gaussian, Inc., Wallingford CT, 2019.
 
 ******************************************
 Gaussian 16:  ES64L-G16RevC.01  3-Jul-2019
                 1-Jan-2024 
 ******************************************
 %chk=da-2_2_sqm.chk
 %nprocshared=12
 Will use up to   12 processors via shared memory.
 %mem=48GB
 ----------------------------------------------------------------------
 # wb97xd def2svp geom=allchk scrf=(iefpcm,solvent=toluene) opt=(readfc
 ,ts,noeigen,maxcycles=50,maxstep=10)
 ----------------------------------------------------------------------
 1/5=1,6=50,8=10,10=3,11=1,18=20,26=3,29=7,38=1/1,3;
 2/9=110,12=2,40=1/2;
 3/5=43,7=101,11=2,14=-4,25=1,30=1,70=2201,71=1,72=13,74=-58/1,2,3;
 4//1;
 5/5=2,38=5,53=13/2;
 6/7=2,8=2,9=2,10=2,28=1/1;
 7//1,2,3,16;
 1/5=1,6=50,8=10,11=1,18=20,26=3/3(2);
 2/9=110/2;
 99//99;
 2/9=110/2;
 3/5=43,7=101,11=2,14=-2,25=1,30=1,70=2205,71=1,72=13,74=-58/1,2,3;
 4/5=5,16=3,69=1/1;
 5/5=2,38=5,53=13/2;
 7//1,2,3,16;
 1/5=1,6=50,8=10,11=1,18=20,26=3/3(-5);
 2/9=110/2;
 6/7=2,8=2,9=2,10=2,19=2,28=1/1;
 99/9=1/99;
 Structure from the checkpoint file:  "da-2_2_sqm.chk"
 --------------
 da-2_2_sqm.out
 --------------
 Charge =  0 Multiplicity = 1
 Redundant internal coordinates found in file.  (old form).
 C,0,-1.81319,0.82392,0.18388
 C,0,-0.14826,-0.57877,1.16405
 C,0,0.77434,2.11328,0.38548
 C,0,1.05554,0.11017,1.1569
 C,0,-1.09318,1.2283,-0.92279
 C,0,0.15532,1.86876,-0.82857
 H,0,1.79182,2.51133,0.39857
 H,0,0.18228,2.32088,1.27858
 H,0,0.74271,1.97607,-1.74457
 H,0,-1.41492,0.8767,-1.90831
 H,0,-1.64874,1.34446,1.13057
 H,0,-0.81417,-0.73312,2.01017
 H,0,1.57118,0.50798,2.02938
 O,0,1.01743,-1.25356,-0.70487
 C,0,-0.14737,-1.49403,0.01304
 C,0,1.84144,-0.41521,0.00713
 O,0,-0.92756,-2.32809,-0.33589
 O,0,2.9671,-0.20259,-0.32426
 C,0,-3.06744,0.01587,0.09155
 H,0,-3.94396,0.68522,0.10347
 H,0,-3.09677,-0.58265,-0.82859
 H,0,-3.16856,-0.66663,0.94696
 Recover connectivity data from disk.

 GradGradGradGradGradGradGradGradGradGradGradGradGradGradGradGradGradGrad
 Berny optimization.
 Initialization pass.
 Force constant matrix read from checkpoint file:
 "da-2_2_sqm.chk"
                           ----------------------------
                           !    Initial Parameters    !
                           ! (Angstroms and Degrees)  !
 --------------------------                            --------------------------
 ! Name  Definition              Value          Derivative Info.                !
 --------------------------------------------------------------------------------
 ! R1    R(1,5)                  1.3808         D2E/DX2 =    0.5816             !
 ! R2    R(1,11)                 1.0928         D2E/DX2 =    0.2655             !
 ! R3    R(1,19)                 1.4949         D2E/DX2 =    0.3963             !
 ! R4    R(2,4)                  1.387          D2E/DX2 =    0.4587             !
 ! R5    R(2,12)                 1.0877         D2E/DX2 =    0.2663             !
 ! R6    R(2,15)                 1.4706         D2E/DX2 =    0.3271             !
 ! R7    R(3,4)                  2.1649         D2E/DX2 =    0.0067             !
 ! R8    R(3,6)                  1.3845         D2E/DX2 =    0.5947             !
 ! R9    R(3,7)                  1.0926         D2E/DX2 =    0.2627             !
 ! R10   R(3,8)                  1.0914         D2E/DX2 =    0.2616             !
 ! R11   R(4,13)                 1.0887         D2E/DX2 =    0.2654             !
 ! R12   R(4,16)                 1.4885         D2E/DX2 =    0.3119             !
 ! R13   R(5,6)                  1.4063         D2E/DX2 =    0.5167             !
 ! R14   R(5,10)                 1.0947         D2E/DX2 =    0.2703             !
 ! R15   R(6,9)                  1.0934         D2E/DX2 =    0.2697             !
 ! R16   R(14,15)                1.3892         D2E/DX2 =    0.3114             !
 ! R17   R(14,16)                1.3743         D2E/DX2 =    0.3485             !
 ! R18   R(15,17)                1.1942         D2E/DX2 =    0.9245             !
 ! R19   R(16,18)                1.1925         D2E/DX2 =    0.9366             !
 ! R20   R(19,20)                1.1029         D2E/DX2 =    0.2623             !
 ! R21   R(19,21)                1.0981         D2E/DX2 =    0.2657             !
 ! R22   R(19,22)                1.099          D2E/DX2 =    0.2652             !
 ! A1    A(5,1,11)             118.4462         D2E/DX2 =    0.0829             !
 ! A2    A(5,1,19)             123.1141         D2E/DX2 =    0.1103             !
 ! A3    A(11,1,19)            115.9286         D2E/DX2 =    0.0802             !
 ! A4    A(4,2,12)             127.2878         D2E/DX2 =    0.0537             !
 ! A5    A(4,2,15)             107.7332         D2E/DX2 =    0.0663             !
 ! A6    A(12,2,15)            121.3924         D2E/DX2 =    0.0541             !
 ! A7    A(4,3,6)              101.9539         D2E/DX2 =    0.1403             !
 ! A8    A(4,3,7)              102.231          D2E/DX2 =    0.0646             !
 ! A9    A(4,3,8)               87.4137         D2E/DX2 =    0.0336             !
 ! A10   A(6,3,7)              119.4186         D2E/DX2 =    0.0273             !
 ! A11   A(6,3,8)              120.5694         D2E/DX2 =    0.0226             !
 ! A12   A(7,3,8)              115.2166         D2E/DX2 =    0.014              !
 ! A13   A(2,4,3)              110.4076         D2E/DX2 =    0.0556             !
 ! A14   A(2,4,13)             126.044          D2E/DX2 =    0.0189             !
 ! A15   A(2,4,16)             106.6726         D2E/DX2 =    0.0374             !
 ! A16   A(3,4,13)              90.5151         D2E/DX2 =    0.0195             !
 ! A17   A(3,4,16)              96.8876         D2E/DX2 =    0.0289             !
 ! A18   A(13,4,16)            119.8619         D2E/DX2 =    0.0181             !
 ! A19   A(1,5,6)              122.8598         D2E/DX2 =    0.1526             !
 ! A20   A(1,5,10)             118.3078         D2E/DX2 =    0.0971             !
 ! A21   A(6,5,10)             117.872          D2E/DX2 =    0.0955             !
 ! A22   A(3,6,5)              122.4182         D2E/DX2 =    0.1579             !
 ! A23   A(3,6,9)              118.4941         D2E/DX2 =    0.0974             !
 ! A24   A(5,6,9)              117.7407         D2E/DX2 =    0.0955             !
 ! A25   A(15,14,16)           109.9121         D2E/DX2 =    0.1067             !
 ! A26   A(2,15,14)            107.2925         D2E/DX2 =    0.0876             !
 ! A27   A(2,15,17)            131.5289         D2E/DX2 =    0.0951             !
 ! A28   A(14,15,17)           121.1763         D2E/DX2 =    0.1149             !
 ! A29   A(4,16,14)            107.3929         D2E/DX2 =    0.0756             !
 ! A30   A(4,16,18)            130.5486         D2E/DX2 =    0.0934             !
 ! A31   A(14,16,18)           122.0559         D2E/DX2 =    0.1108             !
 ! A32   A(1,19,20)            109.7601         D2E/DX2 =    0.0872             !
 ! A33   A(1,19,21)            111.642          D2E/DX2 =    0.0988             !
 ! A34   A(1,19,22)            111.3968         D2E/DX2 =    0.0933             !
 ! A35   A(20,19,21)           108.5796         D2E/DX2 =    0.0429             !
 ! A36   A(20,19,22)           107.1789         D2E/DX2 =    0.0416             !
 ! A37   A(21,19,22)           108.1366         D2E/DX2 =    0.0453             !
 ! D1    D(11,1,5,6)            25.4326         D2E/DX2 =    0.0116             !
 ! D2    D(11,1,5,10)         -166.0306         D2E/DX2 =    0.0203             !
 ! D3    D(19,1,5,6)          -173.2927         D2E/DX2 =    0.0199             !
 ! D4    D(19,1,5,10)           -4.7558         D2E/DX2 =    0.0141             !
 ! D5    D(5,1,19,20)          -94.4114         D2E/DX2 =    0.0125             !
 ! D6    D(5,1,19,21)           26.0374         D2E/DX2 =    0.0131             !
 ! D7    D(5,1,19,22)          147.045          D2E/DX2 =    0.0128             !
 ! D8    D(11,1,19,20)          67.2963         D2E/DX2 =    0.0124             !
 ! D9    D(11,1,19,21)        -172.2549         D2E/DX2 =    0.0128             !
 ! D10   D(11,1,19,22)         -51.2473         D2E/DX2 =    0.0129             !
 ! D11   D(12,2,4,3)           -99.083          D2E/DX2 =    0.0143             !
 ! D12   D(12,2,4,13)            7.3329         D2E/DX2 =    0.0083             !
 ! D13   D(12,2,4,16)          156.7356         D2E/DX2 =    0.0104             !
 ! D14   D(15,2,4,3)           102.3447         D2E/DX2 =    0.016              !
 ! D15   D(15,2,4,13)         -151.2394         D2E/DX2 =    0.0102             !
 ! D16   D(15,2,4,16)           -1.8367         D2E/DX2 =    0.0089             !
 ! D17   D(4,2,15,14)           -4.3026         D2E/DX2 =    0.0099             !
 ! D18   D(4,2,15,17)          175.1377         D2E/DX2 =    0.0119             !
 ! D19   D(12,2,15,14)        -164.3954         D2E/DX2 =    0.0121             !
 ! D20   D(12,2,15,17)          15.0448         D2E/DX2 =    0.0135             !
 ! D21   D(6,3,4,2)            -53.6501         D2E/DX2 =    0.019              !
 ! D22   D(6,3,4,13)           177.2126         D2E/DX2 =    0.0136             !
 ! D23   D(6,3,4,16)            57.038          D2E/DX2 =    0.0201             !
 ! D24   D(7,3,4,2)           -177.6803         D2E/DX2 =    0.015              !
 ! D25   D(7,3,4,13)            53.1824         D2E/DX2 =    0.0098             !
 ! D26   D(7,3,4,16)           -66.9922         D2E/DX2 =    0.015              !
 ! D27   D(8,3,4,2)             67.0684         D2E/DX2 =    0.0145             !
 ! D28   D(8,3,4,13)           -62.0688         D2E/DX2 =    0.0099             !
 ! D29   D(8,3,4,16)           177.7566         D2E/DX2 =    0.015              !
 ! D30   D(4,3,6,5)             61.5656         D2E/DX2 =    0.0549             !
 ! D31   D(4,3,6,9)           -104.8756         D2E/DX2 =    0.0362             !
 ! D32   D(7,3,6,5)            173.1574         D2E/DX2 =    0.0299             !
 ! D33   D(7,3,6,9)              6.7162         D2E/DX2 =    0.0176             !
 ! D34   D(8,3,6,5)            -32.5337         D2E/DX2 =    0.0171             !
 ! D35   D(8,3,6,9)            161.0251         D2E/DX2 =    0.0195             !
 ! D36   D(2,4,16,14)            7.4424         D2E/DX2 =    0.0095             !
 ! D37   D(2,4,16,18)         -173.1491         D2E/DX2 =    0.0124             !
 ! D38   D(3,4,16,14)         -106.3122         D2E/DX2 =    0.0361             !
 ! D39   D(3,4,16,18)           73.0963         D2E/DX2 =    0.0265             !
 ! D40   D(13,4,16,14)         159.111          D2E/DX2 =    0.0095             !
 ! D41   D(13,4,16,18)         -21.4804         D2E/DX2 =    0.0099             !
 ! D42   D(1,5,6,3)              1.6473         D2E/DX2 =    0.0262             !
 ! D43   D(1,5,6,9)            168.1852         D2E/DX2 =    0.0341             !
 ! D44   D(10,5,6,3)          -166.9366         D2E/DX2 =    0.015              !
 ! D45   D(10,5,6,9)            -0.3986         D2E/DX2 =    0.0153             !
 ! D46   D(16,14,15,2)           9.253          D2E/DX2 =    0.0102             !
 ! D47   D(16,14,15,17)       -170.2572         D2E/DX2 =    0.0098             !
 ! D48   D(15,14,16,4)         -10.3735         D2E/DX2 =    0.0105             !
 ! D49   D(15,14,16,18)        170.1568         D2E/DX2 =    0.012              !
 --------------------------------------------------------------------------------
 Trust Radius=1.00D-01 FncErr=1.00D-07 GrdErr=1.00D-06 EigMax=2.50D+02 EigMin=1.00D-04
 Number of steps in this run=     50 maximum allowed number of steps=    132.
 Search for a saddle point of order  1.
 GradGradGradGradGradGradGradGradGradGradGradGradGradGradGradGradGradGrad

                          Input orientation:                          
 ---------------------------------------------------------------------
 Center     Atomic      Atomic             Coordinates (Angstroms)
 Number     Number       Type             X           Y           Z
 ---------------------------------------------------------------------
      1          6           0       -1.813190    0.823920    0.183880
      2          6           0       -0.148260   -0.578770    1.164050
      3          6           0        0.774340    2.113280    0.385480
      4          6           0        1.055540    0.110170    1.156900
      5          6           0       -1.093180    1.228300   -0.922790
      6          6           0        0.155320    1.868760   -0.828570
      7          1           0        1.791820    2.511330    0.398570
      8          1           0        0.182280    2.320880    1.278580
      9          1           0        0.742710    1.976070   -1.744570
     10          1           0       -1.414920    0.876700   -1.908310
     11          1           0       -1.648740    1.344460    1.130570
     12          1           0       -0.814170   -0.733120    2.010170
     13          1           0        1.571180    0.507980    2.029380
     14          8           0        1.017430   -1.253560   -0.704870
     15          6           0       -0.147370   -1.494030    0.013040
     16          6           0        1.841440   -0.415210    0.007130
     17          8           0       -0.927560   -2.328090   -0.335890
     18          8           0        2.967100   -0.202590   -0.324260
     19          6           0       -3.067440    0.015870    0.091550
     20          1           0       -3.943960    0.685220    0.103470
     21          1           0       -3.096770   -0.582650   -0.828590
     22          1           0       -3.168560   -0.666630    0.946960
 ---------------------------------------------------------------------
                    Distance matrix (angstroms):
                    1          2          3          4          5
     1  C    0.000000
     2  C    2.387523   0.000000
     3  C    2.898000   2.950338   0.000000
     4  C    3.112205   1.387020   2.164858   0.000000
     5  C    1.380817   2.917752   2.445893   3.192542   0.000000
     6  C    2.447811   3.170662   1.384519   2.800915   1.406349
     7  H    3.986169   3.728081   1.092648   2.623498   3.422774
     8  H    2.724180   2.920675   1.091449   2.380048   2.768855
     9  H    3.402792   3.972544   2.134699   3.463809   2.145920
    10  H    2.130414   3.627977   3.403449   4.010767   1.094709
    11  H    1.092807   2.439544   2.649068   2.972759   2.130359
    12  H    2.599567   1.087740   3.642111   2.221491   3.539388
    13  H    3.867770   2.210497   2.431944   1.088742   4.041409
    14  O    3.621907   2.303701   3.547332   2.308116   3.265240
    15  C    2.859551   1.470553   3.741784   2.308434   3.030085
    16  C    3.863030   2.307406   2.770399   1.488501   3.489681
    17  O    3.315067   2.432540   4.810676   3.479399   3.608295
    18  O    4.915598   3.473046   3.267290   2.438384   4.346442
    19  C    1.494862   3.166301   4.386889   4.259440   2.529145
    20  H    2.136793   4.138821   4.937736   5.141536   3.078164
    21  H    2.156644   3.558699   4.871088   4.654444   2.702367
    22  H    2.154312   3.029366   4.856915   4.300060   3.375489
                    6          7          8          9         10
     6  C    0.000000
     7  H    2.144038   0.000000
     8  H    2.155277   1.844263   0.000000
     9  H    1.093434   2.445441   3.093931   0.000000
    10  H    2.148412   4.275148   3.846163   2.427095   0.000000
    11  H    2.714360   3.706058   2.080369   3.792676   3.083547
    12  H    3.970911   4.462611   3.294701   4.884840   4.278657
    13  H    3.467601   2.592612   2.404028   4.133322   4.955618
    14  O    3.241515   3.998957   4.172310   3.403962   3.450015
    15  C    3.479696   4.466766   4.032840   3.990367   3.304335
    16  C    2.959377   2.953019   3.443194   3.161310   3.992721
    17  O    4.362214   5.599504   5.044916   4.827005   3.602874
    18  O    3.528587   3.044524   4.085611   3.422244   4.782905
    19  C    3.829622   5.471196   4.157258   4.661648   2.733366
    20  H    4.367329   6.026685   4.591527   5.200617   3.237278
    21  H    4.072530   5.914131   4.860331   4.704006   2.474695
    22  H    4.541904   5.916547   4.501479   5.433804   3.689131
                   11         12         13         14         15
    11  H    0.000000
    12  H    2.405523   0.000000
    13  H    3.446076   2.688976   0.000000
    14  O    4.150543   3.316181   3.299361   0.000000
    15  C    3.400002   2.238780   3.320706   1.389237   0.000000
    16  C    4.066929   3.341482   2.239378   1.374324   2.262577
    17  O    4.019730   2.839152   4.458867   2.252498   1.194196
    18  O    5.080932   4.475380   2.827211   2.247357   3.388438
    19  C    2.203956   3.052755   5.051154   4.351080   3.288278
    20  H    2.599532   3.929730   5.844426   5.387733   4.378516
    21  H    3.106260   3.645746   5.580970   4.170380   3.199674
    22  H    2.527459   2.584180   5.001647   4.538231   3.268698
                   16         17         18         19         20
    16  C    0.000000
    17  O    3.382918   0.000000
    18  O    1.192534   4.436920   0.000000
    19  C    4.928495   3.202490   6.052792   0.000000
    20  H    5.889913   4.286227   6.980968   1.102932   0.000000
    21  H    5.011226   2.827505   6.096664   1.098064   1.787166
    22  H    5.103586   3.070543   6.283125   1.098980   1.772066
                   21         22
    21  H    0.000000
    22  H    1.778984   0.000000
 Stoichiometry    C9H10O3
 Framework group  C1[X(C9H10O3)]
 Deg. of freedom    60
 Full point group                 C1      NOp   1
 Largest Abelian subgroup         C1      NOp   1
 Largest concise Abelian subgroup C1      NOp   1
                         Standard orientation:                         
 ---------------------------------------------------------------------
 Center     Atomic      Atomic             Coordinates (Angstroms)
 Number     Number       Type             X           Y           Z
 ---------------------------------------------------------------------
      1          6           0       -1.813189    0.823917    0.183879
      2          6           0       -0.148257   -0.578771    1.164049
      3          6           0        0.774339    2.113280    0.385479
      4          6           0        1.055542    0.110171    1.156899
      5          6           0       -1.093180    1.228298   -0.922791
      6          6           0        0.155320    1.868760   -0.828571
      7          1           0        1.791819    2.511332    0.398569
      8          1           0        0.182279    2.320880    1.278579
      9          1           0        0.742709    1.976070   -1.744571
     10          1           0       -1.414919    0.876698   -1.908311
     11          1           0       -1.648740    1.344457    1.130569
     12          1           0       -0.814167   -0.733122    2.010169
     13          1           0        1.571181    0.507981    2.029379
     14          8           0        1.017434   -1.253559   -0.704871
     15          6           0       -0.147366   -1.494031    0.013039
     16          6           0        1.841442   -0.415208    0.007129
     17          8           0       -0.927555   -2.328092   -0.335891
     18          8           0        2.967102   -0.202587   -0.324261
     19          6           0       -3.067438    0.015865    0.091549
     20          1           0       -3.943959    0.685214    0.103469
     21          1           0       -3.096767   -0.582655   -0.828591
     22          1           0       -3.168557   -0.666635    0.946959
 ---------------------------------------------------------------------
 Rotational constants (GHZ):           1.3615733           0.9521222           0.6887378
 Standard basis: def2SVP (5D, 7F)
 There are   230 symmetry adapted cartesian basis functions of A   symmetry.
 There are   218 symmetry adapted basis functions of A   symmetry.
   218 basis functions,   370 primitive gaussians,   230 cartesian basis functions
    44 alpha electrons       44 beta electrons
       nuclear repulsion energy       716.5227308678 Hartrees.
 NAtoms=   22 NActive=   22 NUniq=   22 SFac= 1.00D+00 NAtFMM=   60 NAOKFM=F Big=F
 Integral buffers will be    131072 words long.
 Raffenetti 2 integral format.
 Two-electron integral symmetry is turned on.
 Nuclear repulsion after empirical dispersion term =      716.5056511032 Hartrees.
 ------------------------------------------------------------------------------
 Polarizable Continuum Model (PCM)
 =================================
 Model                : PCM.
 Atomic radii         : UFF (Universal Force Field).
 Polarization charges : Total charges.
 Charge compensation  : None.
 Solution method      : On-the-fly selection.
 Cavity type          : Scaled VdW (van der Waals Surface) (Alpha=1.100).
 Cavity algorithm     : GePol (No added spheres)
                        Default sphere list used, NSphG=   22.
                        Lebedev-Laikov grids with approx.  5.0 points / Ang**2.
                        Smoothing algorithm: York/Karplus (Gamma=1.0000).
                        Polarization charges: spherical gaussians, with
                                              point-specific exponents (IZeta= 3).
                        Self-potential: point-specific (ISelfS= 7).
                        Self-field    : sphere-specific E.n sum rule (ISelfD= 2).
 1st derivatives      : Analytical E(r).r(x)/FMM algorithm (CHGder, D1EAlg=3).
                        Cavity 1st derivative terms included.
 Solvent              : Toluene, Eps=   2.374100 Eps(inf)=   2.238315
 ------------------------------------------------------------------------------
 One-electron integrals computed using PRISM.
   1 Symmetry operations used in ECPInt.
 ECPInt:  NShTT=    5253 NPrTT=   19101 LenC2=    5171 LenP2D=   14595.
 LDataN:  DoStor=T MaxTD1= 4 Len=   56
 NBasis=   218 RedAO= T EigKep=  3.47D-04  NBF=   218
 NBsUse=   218 1.00D-06 EigRej= -1.00D+00 NBFU=   218
 ExpMin= 1.22D-01 ExpMax= 2.27D+03 ExpMxC= 3.41D+02 IAcc=3 IRadAn=         5 AccDes= 0.00D+00
 Harris functional with IExCor= 4639 and IRadAn=       5 diagonalized for initial guess.
 HarFok:  IExCor= 4639 AccDes= 0.00D+00 IRadAn=         5 IDoV= 1 UseB2=F ITyADJ=14
 ICtDFT=  3500011 ScaDFX=  1.000000  1.000000  1.000000  1.000000
 FoFCou: FMM=F IPFlag=           0 FMFlag=      100000 FMFlg1=           0
         NFxFlg=           0 DoJE=T BraDBF=F KetDBF=T FulRan=T
         wScrn=  0.000000 ICntrl=       500 IOpCl=  0 I1Cent=   200000004 NGrid=           0
         NMat0=    1 NMatS0=      1 NMatT0=    0 NMatD0=    1 NMtDS0=    0 NMtDT0=    0
 Petite list used in FoFCou.
 Requested convergence on RMS density matrix=1.00D-08 within 128 cycles.
 Requested convergence on MAX density matrix=1.00D-06.
 Requested convergence on             energy=1.00D-06.
 No special actions if energy rises.
 Inv3:  Mode=1 IEnd=     8396787.
 Iteration    1 A*A^-1 deviation from unit magnitude is 2.66D-15 for   1263.
 Iteration    1 A*A^-1 deviation from orthogonality  is 1.89D-15 for   1609    113.
 Iteration    1 A^-1*A deviation from unit magnitude is 2.66D-15 for   1263.
 Iteration    1 A^-1*A deviation from orthogonality  is 1.44D-15 for   1470    428.
 Error on total polarization charges =  0.00637
 SCF Done:  E(RwB97XD) =  -573.980330295     A.U. after   15 cycles
            NFock= 15  Conv=0.62D-08     -V/T= 2.0098

 **********************************************************************

            Population analysis using the SCF Density.

 **********************************************************************

 Orbital symmetries:
       Occupied  (A) (A) (A) (A) (A) (A) (A) (A) (A) (A) (A) (A)
                 (A) (A) (A) (A) (A) (A) (A) (A) (A) (A) (A) (A)
                 (A) (A) (A) (A) (A) (A) (A) (A) (A) (A) (A) (A)
                 (A) (A) (A) (A) (A) (A) (A) (A)
       Virtual   (A) (A) (A) (A) (A) (A) (A) (A) (A) (A) (A) (A)
                 (A) (A) (A) (A) (A) (A) (A) (A) (A) (A) (A) (A)
                 (A) (A) (A) (A) (A) (A) (A) (A) (A) (A) (A) (A)
                 (A) (A) (A) (A) (A) (A) (A) (A) (A) (A) (A) (A)
                 (A) (A) (A) (A) (A) (A) (A) (A) (A) (A) (A) (A)
                 (A) (A) (A) (A) (A) (A) (A) (A) (A) (A) (A) (A)
                 (A) (A) (A) (A) (A) (A) (A) (A) (A) (A) (A) (A)
                 (A) (A) (A) (A) (A) (A) (A) (A) (A) (A) (A) (A)
                 (A) (A) (A) (A) (A) (A) (A) (A) (A) (A) (A) (A)
                 (A) (A) (A) (A) (A) (A) (A) (A) (A) (A) (A) (A)
                 (A) (A) (A) (A) (A) (A) (A) (A) (A) (A) (A) (A)
                 (A) (A) (A) (A) (A) (A) (A) (A) (A) (A) (A) (A)
                 (A) (A) (A) (A) (A) (A) (A) (A) (A) (A) (A) (A)
                 (A) (A) (A) (A) (A) (A) (A) (A) (A) (A) (A) (A)
                 (A) (A) (A) (A) (A) (A)
 The electronic state is 1-A.
 Alpha  occ. eigenvalues --  -19.32109 -19.26268 -19.25922 -10.44697 -10.44394
 Alpha  occ. eigenvalues --  -10.34649 -10.34435 -10.33563 -10.33521 -10.32469
 Alpha  occ. eigenvalues --  -10.31900 -10.30798  -1.23635  -1.16225  -1.12360
 Alpha  occ. eigenvalues --   -0.94700  -0.91224  -0.87129  -0.79659  -0.77897
 Alpha  occ. eigenvalues --   -0.72399  -0.71569  -0.66782  -0.63615  -0.59857
 Alpha  occ. eigenvalues --   -0.59564  -0.58444  -0.55923  -0.55316  -0.53757
 Alpha  occ. eigenvalues --   -0.52441  -0.51625  -0.50203  -0.49648  -0.48847
 Alpha  occ. eigenvalues --   -0.48439  -0.45981  -0.45276  -0.44615  -0.41434
 Alpha  occ. eigenvalues --   -0.39607  -0.36952  -0.34921  -0.32224
 Alpha virt. eigenvalues --   -0.01271   0.01707   0.09074   0.12281   0.13062
 Alpha virt. eigenvalues --    0.14598   0.15551   0.17395   0.18712   0.19647
 Alpha virt. eigenvalues --    0.20301   0.22336   0.22879   0.23989   0.25395
 Alpha virt. eigenvalues --    0.27527   0.28069   0.31192   0.31938   0.33848
 Alpha virt. eigenvalues --    0.34869   0.37198   0.39358   0.42867   0.43541
 Alpha virt. eigenvalues --    0.45124   0.47322   0.49167   0.50205   0.50837
 Alpha virt. eigenvalues --    0.51949   0.53706   0.54840   0.56774   0.57467
 Alpha virt. eigenvalues --    0.59751   0.60238   0.63321   0.64723   0.68079
 Alpha virt. eigenvalues --    0.69065   0.70923   0.71369   0.72050   0.72660
 Alpha virt. eigenvalues --    0.72874   0.73400   0.74035   0.74850   0.75255
 Alpha virt. eigenvalues --    0.75492   0.76845   0.77724   0.78202   0.78873
 Alpha virt. eigenvalues --    0.79232   0.80306   0.81613   0.84098   0.85414
 Alpha virt. eigenvalues --    0.87017   0.88495   0.90710   0.95599   0.96554
 Alpha virt. eigenvalues --    1.00329   1.01397   1.03174   1.05595   1.09894
 Alpha virt. eigenvalues --    1.11500   1.13345   1.14990   1.15400   1.19820
 Alpha virt. eigenvalues --    1.21461   1.23944   1.27156   1.29572   1.30539
 Alpha virt. eigenvalues --    1.34085   1.37663   1.39917   1.40840   1.43681
 Alpha virt. eigenvalues --    1.46472   1.49510   1.50958   1.55980   1.59768
 Alpha virt. eigenvalues --    1.61225   1.62672   1.65781   1.66288   1.68662
 Alpha virt. eigenvalues --    1.71537   1.72501   1.74045   1.75587   1.78394
 Alpha virt. eigenvalues --    1.78971   1.79618   1.80805   1.84098   1.85657
 Alpha virt. eigenvalues --    1.87508   1.88425   1.89816   1.91275   1.91700
 Alpha virt. eigenvalues --    1.93302   1.95676   1.96370   1.96909   1.98800
 Alpha virt. eigenvalues --    1.99875   2.01017   2.05116   2.07029   2.07911
 Alpha virt. eigenvalues --    2.09106   2.11910   2.12892   2.15594   2.19003
 Alpha virt. eigenvalues --    2.20865   2.23017   2.24717   2.27427   2.28677
 Alpha virt. eigenvalues --    2.30179   2.31659   2.36225   2.38053   2.40000
 Alpha virt. eigenvalues --    2.44433   2.46581   2.48950   2.50258   2.52729
 Alpha virt. eigenvalues --    2.57923   2.59031   2.62572   2.67808   2.69304
 Alpha virt. eigenvalues --    2.71497   2.72502   2.73218   2.76480   2.80205
 Alpha virt. eigenvalues --    2.80388   2.82022   2.82363   2.85193   2.88900
 Alpha virt. eigenvalues --    2.90202   2.93824   2.97980   3.02086   3.03826
 Alpha virt. eigenvalues --    3.06455   3.10770   3.13577   3.24396   3.25423
 Alpha virt. eigenvalues --    3.28277   3.30046   3.35912   3.38527   3.47449
 Alpha virt. eigenvalues --    3.53920   3.73495   3.77258   3.79804
          Condensed to atoms (all electrons):
               1          2          3          4          5          6
     1  C    4.909648   0.144757  -0.014646  -0.039601   0.474231  -0.032650
     2  C    0.144757   5.786410  -0.068921  -0.048277   0.026629  -0.070069
     3  C   -0.014646  -0.068921   4.742649   0.143211  -0.050958   0.512156
     4  C   -0.039601  -0.048277   0.143211   5.931985  -0.064263   0.029053
     5  C    0.474231   0.026629  -0.050958  -0.064263   4.973694   0.403723
     6  C   -0.032650  -0.070069   0.512156   0.029053   0.403723   4.900832
     7  H   -0.000218   0.005456   0.392580  -0.018862   0.010986  -0.021796
     8  H    0.014688  -0.014530   0.370876  -0.000402  -0.032503   0.011361
     9  H    0.010753   0.000197  -0.047949  -0.001863  -0.041878   0.421659
    10  H   -0.058380   0.000222   0.010477  -0.000028   0.431432  -0.042236
    11  H    0.364182   0.009161   0.020380  -0.018427   0.002816  -0.031275
    12  H    0.000159   0.399795  -0.000296  -0.027510   0.000173   0.001311
    13  H    0.000112  -0.018469  -0.005696   0.384558   0.001319   0.000104
    14  O   -0.005828  -0.108979  -0.005460  -0.122299   0.007751   0.009056
    15  C   -0.011278   0.162672   0.004628   0.064972  -0.014945   0.004756
    16  C    0.003165   0.070264  -0.022332   0.088505   0.003744  -0.014961
    17  O   -0.005675  -0.085121   0.000074   0.004378  -0.003009   0.000184
    18  O    0.000019   0.005529   0.000181  -0.094182   0.000233  -0.004477
    19  C    0.392939  -0.035075   0.000454   0.004287  -0.060248   0.010878
    20  H   -0.012808   0.001663  -0.000012  -0.000194  -0.002681  -0.000521
    21  H   -0.017510  -0.001477   0.000118  -0.000231  -0.012704   0.000471
    22  H   -0.017080  -0.005886   0.000064   0.001070   0.006627  -0.000312
               7          8          9         10         11         12
     1  C   -0.000218   0.014688   0.010753  -0.058380   0.364182   0.000159
     2  C    0.005456  -0.014530   0.000197   0.000222   0.009161   0.399795
     3  C    0.392580   0.370876  -0.047949   0.010477   0.020380  -0.000296
     4  C   -0.018862  -0.000402  -0.001863  -0.000028  -0.018427  -0.027510
     5  C    0.010986  -0.032503  -0.041878   0.431432   0.002816   0.000173
     6  C   -0.021796   0.011361   0.421659  -0.042236  -0.031275   0.001311
     7  H    0.583094  -0.030666  -0.010542  -0.000156  -0.000032  -0.000077
     8  H   -0.030666   0.607687   0.006145  -0.000187   0.000780   0.000739
     9  H   -0.010542   0.006145   0.609005  -0.011312  -0.000068   0.000014
    10  H   -0.000156  -0.000187  -0.011312   0.618342   0.006742  -0.000157
    11  H   -0.000032   0.000780  -0.000068   0.006742   0.635791  -0.006857
    12  H   -0.000077   0.000739   0.000014  -0.000157  -0.006857   0.572799
    13  H   -0.000230  -0.007469  -0.000185   0.000016   0.000331  -0.005300
    14  O    0.000254  -0.000055  -0.000892  -0.000328  -0.000037   0.003084
    15  C   -0.000283   0.000158  -0.000297   0.001520  -0.001916  -0.021147
    16  C    0.002133   0.001675   0.004558  -0.000189   0.000805   0.006388
    17  O    0.000001   0.000003   0.000006   0.000050   0.000018   0.001182
    18  O    0.003841   0.000075   0.000699  -0.000001   0.000003  -0.000040
    19  C   -0.000018   0.000425  -0.000167  -0.010083  -0.033954  -0.002088
    20  H    0.000002   0.000008   0.000003   0.000098  -0.002590   0.000057
    21  H    0.000001  -0.000003  -0.000002   0.005050   0.005719  -0.000344
    22  H   -0.000002  -0.000004   0.000007   0.000138  -0.005984   0.003701
              13         14         15         16         17         18
     1  C    0.000112  -0.005828  -0.011278   0.003165  -0.005675   0.000019
     2  C   -0.018469  -0.108979   0.162672   0.070264  -0.085121   0.005529
     3  C   -0.005696  -0.005460   0.004628  -0.022332   0.000074   0.000181
     4  C    0.384558  -0.122299   0.064972   0.088505   0.004378  -0.094182
     5  C    0.001319   0.007751  -0.014945   0.003744  -0.003009   0.000233
     6  C    0.000104   0.009056   0.004756  -0.014961   0.000184  -0.004477
     7  H   -0.000230   0.000254  -0.000283   0.002133   0.000001   0.003841
     8  H   -0.007469  -0.000055   0.000158   0.001675   0.000003   0.000075
     9  H   -0.000185  -0.000892  -0.000297   0.004558   0.000006   0.000699
    10  H    0.000016  -0.000328   0.001520  -0.000189   0.000050  -0.000001
    11  H    0.000331  -0.000037  -0.001916   0.000805   0.000018   0.000003
    12  H   -0.005300   0.003084  -0.021147   0.006388   0.001182  -0.000040
    13  H    0.565448   0.003292   0.005471  -0.015591  -0.000037   0.002489
    14  O    0.003292   8.052447   0.288927   0.306356  -0.066319  -0.066993
    15  C    0.005471   0.288927   4.517783  -0.065253   0.759964   0.000572
    16  C   -0.015591   0.306356  -0.065253   4.547013   0.000334   0.775671
    17  O   -0.000037  -0.066319   0.759964   0.000334   7.585835  -0.000014
    18  O    0.002489  -0.066993   0.000572   0.775671  -0.000014   7.572693
    19  C   -0.000066   0.000251   0.002488  -0.000225   0.004121   0.000000
    20  H    0.000001  -0.000000   0.000095   0.000009   0.000122   0.000000
    21  H    0.000002  -0.000125   0.001457   0.000053   0.004370   0.000000
    22  H   -0.000015   0.000073   0.001168  -0.000041   0.002142   0.000000
              19         20         21         22
     1  C    0.392939  -0.012808  -0.017510  -0.017080
     2  C   -0.035075   0.001663  -0.001477  -0.005886
     3  C    0.000454  -0.000012   0.000118   0.000064
     4  C    0.004287  -0.000194  -0.000231   0.001070
     5  C   -0.060248  -0.002681  -0.012704   0.006627
     6  C    0.010878  -0.000521   0.000471  -0.000312
     7  H   -0.000018   0.000002   0.000001  -0.000002
     8  H    0.000425   0.000008  -0.000003  -0.000004
     9  H   -0.000167   0.000003  -0.000002   0.000007
    10  H   -0.010083   0.000098   0.005050   0.000138
    11  H   -0.033954  -0.002590   0.005719  -0.005984
    12  H   -0.002088   0.000057  -0.000344   0.003701
    13  H   -0.000066   0.000001   0.000002  -0.000015
    14  O    0.000251  -0.000000  -0.000125   0.000073
    15  C    0.002488   0.000095   0.001457   0.001168
    16  C   -0.000225   0.000009   0.000053  -0.000041
    17  O    0.004121   0.000122   0.004370   0.002142
    18  O    0.000000   0.000000   0.000000   0.000000
    19  C    4.535539   0.383602   0.399976   0.389603
    20  H    0.383602   0.598974  -0.018308  -0.017053
    21  H    0.399976  -0.018308   0.592187  -0.020411
    22  H    0.389603  -0.017053  -0.020411   0.609860
 Mulliken charges:
               1
     1  C   -0.098978
     2  C   -0.155952
     3  C    0.018420
     4  C   -0.215881
     5  C   -0.060168
     6  C   -0.087249
     7  H    0.084533
     8  H    0.071199
     9  H    0.062108
    10  H    0.048967
    11  H    0.054411
    12  H    0.074413
    13  H    0.089915
    14  O   -0.294177
    15  C    0.298488
    16  C    0.307919
    17  O   -0.202610
    18  O   -0.196298
    19  C    0.017360
    20  H    0.069531
    21  H    0.061712
    22  H    0.052336
 Sum of Mulliken charges =  -0.00000
 Mulliken charges with hydrogens summed into heavy atoms:
               1
     1  C   -0.044567
     2  C   -0.081539
     3  C    0.174153
     4  C   -0.125966
     5  C   -0.011201
     6  C   -0.025141
    14  O   -0.294177
    15  C    0.298488
    16  C    0.307919
    17  O   -0.202610
    18  O   -0.196298
    19  C    0.200940
 Electronic spatial extent (au):  <R**2>=           1776.3330
 Charge=              0.0000 electrons
 Dipole moment (field-independent basis, Debye):
    X=             -2.9785    Y=              4.2233    Z=              3.2900  Tot=              6.1264
 Quadrupole moment (field-independent basis, Debye-Ang):
   XX=            -75.5708   YY=            -76.1659   ZZ=            -64.3091
   XY=             -0.1582   XZ=              2.2944   YZ=             -2.1342
 Traceless Quadrupole moment (field-independent basis, Debye-Ang):
   XX=             -3.5555   YY=             -4.1506   ZZ=              7.7062
   XY=             -0.1582   XZ=              2.2944   YZ=             -2.1342
 Octapole moment (field-independent basis, Debye-Ang**2):
  XXX=            -42.8444  YYY=              4.4246  ZZZ=             -0.4440  XYY=             18.1055
  XXY=              5.4152  XXZ=              9.7660  XZZ=              0.5782  YZZ=              2.3401
  YYZ=              8.4150  XYZ=             -1.0758
 Hexadecapole moment (field-independent basis, Debye-Ang**3):
 XXXX=          -1272.4565 YYYY=           -844.1316 ZZZZ=           -279.3305 XXXY=              6.5883
 XXXZ=             13.8059 YYYX=             -3.7996 YYYZ=              5.3141 ZZZX=             -2.1826
 ZZZY=              5.0666 XXYY=           -329.9763 XXZZ=           -239.8879 YYZZ=           -176.0589
 XXYZ=              0.8532 YYXZ=             -7.3446 ZZXY=              9.6481
 N-N= 7.165056511032D+02 E-N=-2.770146096557D+03  KE= 5.684120716842D+02
   1 Symmetry operations used in ECPInt.
 ECPInt:  NShTT=    5253 NPrTT=   19101 LenC2=    5171 LenP2D=   14595.
 LDataN:  DoStor=T MaxTD1= 5 Len=  102
 D1PCM: PCM CHGder 1st derivatives, ID1Alg=3 FixD1E=F DoIter=F DoCFld=F I1PDM=0.
 Calling FoFJK, ICntrl=      2127 FMM=F ISym2X=0 I1Cent= 0 IOpClX= 0 NMat=1 NMatS=1 NMatT=0.
 ***** Axes restored to original set *****
 -------------------------------------------------------------------
 Center     Atomic                   Forces (Hartrees/Bohr)
 Number     Number              X              Y              Z
 -------------------------------------------------------------------
      1        6           0.000026423    0.000027917    0.000180808
      2        6          -0.000170487    0.000032396    0.000190914
      3        6          -0.000024338    0.000007594   -0.000005103
      4        6          -0.000002087   -0.000060450   -0.000059471
      5        6          -0.000009083   -0.000020904   -0.000141618
      6        6          -0.000091405   -0.000029611    0.000170565
      7        1           0.000036464    0.000006407   -0.000012725
      8        1          -0.000000457   -0.000001209    0.000002162
      9        1           0.000067374    0.000009251   -0.000110755
     10        1           0.000012962    0.000028356    0.000054193
     11        1          -0.000016767   -0.000041708   -0.000086536
     12        1           0.000125860    0.000005003   -0.000144144
     13        1           0.000018785    0.000028087    0.000053985
     14        8          -0.000002629   -0.000020274   -0.000016199
     15        6          -0.000020795    0.000012599   -0.000025973
     16        6           0.000027061    0.000056986   -0.000002640
     17        8           0.000026169   -0.000006924   -0.000006978
     18        8           0.000000231   -0.000024223   -0.000001427
     19        6          -0.000036912    0.000106324   -0.000012120
     20        1           0.000042037   -0.000046817    0.000009119
     21        1          -0.000010759   -0.000040675   -0.000076981
     22        1           0.000002352   -0.000028123    0.000040923
 -------------------------------------------------------------------
 Cartesian Forces:  Max     0.000190914 RMS     0.000064477

 GradGradGradGradGradGradGradGradGradGradGradGradGradGradGradGradGradGrad
 Berny optimization.
 FormGI is forming the generalized inverse of G from B-inverse, IUseBI=4.
 Internal  Forces:  Max     0.000188512 RMS     0.000031968
 Search for a saddle point.
 Step number   1 out of a maximum of   50
 All quantities printed in internal units (Hartrees-Bohrs-Radians)
 Swapping is turned off.
 Second derivative matrix not updated -- first step.
 ITU=  0
     Eigenvalues ---   -0.09324  -0.00049   0.00250   0.00853   0.00927
     Eigenvalues ---    0.01047   0.01171   0.02008   0.02160   0.02493
     Eigenvalues ---    0.02613   0.02871   0.03332   0.03545   0.03717
     Eigenvalues ---    0.04143   0.04247   0.04428   0.04433   0.04821
     Eigenvalues ---    0.05568   0.06090   0.07837   0.09169   0.09810
     Eigenvalues ---    0.10342   0.10730   0.10989   0.11265   0.11626
     Eigenvalues ---    0.12506   0.13137   0.13834   0.14268   0.15602
     Eigenvalues ---    0.15661   0.20580   0.23267   0.24549   0.25430
     Eigenvalues ---    0.25790   0.25969   0.26029   0.26164   0.26918
     Eigenvalues ---    0.27235   0.27667   0.27881   0.29669   0.31566
     Eigenvalues ---    0.32781   0.37576   0.41907   0.43155   0.54207
     Eigenvalues ---    0.61248   0.62697   0.75503   0.95582   0.97369
 Eigenvectors required to have negative eigenvalues:
                          R7        R4        R13       R1        D1
   1                    0.68500  -0.18848   0.17097  -0.16871  -0.16818
                          D15       A22       R8        D34       D13
   1                   -0.15864   0.15280  -0.14878   0.14831   0.14716
 RFO step:  Lambda0=8.509684006D-09 Lambda=-4.90633965D-04.
 Linear search not attempted -- option 19 set.
 Iteration  1 RMS(Cart)=  0.03573631 RMS(Int)=  0.00163537
 Iteration  2 RMS(Cart)=  0.00169882 RMS(Int)=  0.00000409
 Iteration  3 RMS(Cart)=  0.00000312 RMS(Int)=  0.00000329
 Iteration  4 RMS(Cart)=  0.00000000 RMS(Int)=  0.00000329
 Variable       Old X    -DE/DX   Delta X   Delta X   Delta X     New X
                                 (Linear)    (Quad)   (Total)
    R1        2.60937   0.00004   0.00000  -0.00091  -0.00091   2.60846
    R2        2.06511  -0.00010   0.00000  -0.00053  -0.00053   2.06458
    R3        2.82488   0.00001   0.00000  -0.00031  -0.00031   2.82457
    R4        2.62109   0.00002   0.00000   0.00038   0.00038   2.62147
    R5        2.05553  -0.00019   0.00000  -0.00123  -0.00123   2.05430
    R6        2.77894   0.00003   0.00000  -0.00213  -0.00213   2.77681
    R7        4.09099  -0.00002   0.00000  -0.01790  -0.01790   4.07309
    R8        2.61636  -0.00001   0.00000   0.00068   0.00068   2.61704
    R9        2.06481   0.00004   0.00000   0.00049   0.00049   2.06529
   R10        2.06254  -0.00000   0.00000   0.00028   0.00028   2.06282
   R11        2.05742   0.00006   0.00000   0.00080   0.00080   2.05822
   R12        2.81286   0.00001   0.00000   0.00170   0.00171   2.81456
   R13        2.65762  -0.00000   0.00000   0.00003   0.00003   2.65765
   R14        2.06870  -0.00006   0.00000  -0.00014  -0.00014   2.06857
   R15        2.06629   0.00013   0.00000   0.00074   0.00074   2.06703
   R16        2.62528   0.00000   0.00000   0.00142   0.00142   2.62670
   R17        2.59710   0.00001   0.00000  -0.00112  -0.00112   2.59597
   R18        2.25670  -0.00001   0.00000  -0.00005  -0.00005   2.25665
   R19        2.25356  -0.00000   0.00000   0.00004   0.00004   2.25361
   R20        2.08424  -0.00006   0.00000  -0.00050  -0.00050   2.08373
   R21        2.07504   0.00009   0.00000  -0.00061  -0.00061   2.07443
   R22        2.07677   0.00005   0.00000   0.00122   0.00122   2.07799
    A1        2.06728   0.00002   0.00000   0.00156   0.00155   2.06883
    A2        2.14875  -0.00005   0.00000   0.00062   0.00061   2.14936
    A3        2.02334   0.00003   0.00000  -0.00050  -0.00050   2.02283
    A4        2.22159   0.00001   0.00000  -0.00015  -0.00016   2.22143
    A5        1.88030  -0.00003   0.00000   0.00090   0.00091   1.88121
    A6        2.11870   0.00001   0.00000   0.00051   0.00050   2.11920
    A7        1.77943  -0.00003   0.00000   0.00323   0.00323   1.78266
    A8        1.78427   0.00002   0.00000  -0.00184  -0.00183   1.78243
    A9        1.52566  -0.00000   0.00000   0.00522   0.00522   1.53087
   A10        2.08425  -0.00001   0.00000  -0.00142  -0.00142   2.08282
   A11        2.10433   0.00001   0.00000  -0.00083  -0.00085   2.10348
   A12        2.01091   0.00000   0.00000  -0.00057  -0.00057   2.01034
   A13        1.92698  -0.00003   0.00000   0.00167   0.00167   1.92865
   A14        2.19988  -0.00001   0.00000  -0.00156  -0.00156   2.19832
   A15        1.86179   0.00002   0.00000  -0.00101  -0.00102   1.86077
   A16        1.57979   0.00002   0.00000   0.00012   0.00013   1.57991
   A17        1.69101  -0.00000   0.00000   0.00475   0.00475   1.69575
   A18        2.09198  -0.00000   0.00000  -0.00069  -0.00070   2.09129
   A19        2.14431  -0.00001   0.00000   0.00077   0.00077   2.14508
   A20        2.06486   0.00000   0.00000   0.00010   0.00010   2.06496
   A21        2.05725   0.00000   0.00000  -0.00061  -0.00061   2.05664
   A22        2.13660   0.00005   0.00000   0.00153   0.00153   2.13813
   A23        2.06811  -0.00002   0.00000  -0.00066  -0.00066   2.06745
   A24        2.05496  -0.00004   0.00000  -0.00062  -0.00062   2.05434
   A25        1.91833   0.00000   0.00000  -0.00024  -0.00024   1.91808
   A26        1.87261   0.00001   0.00000  -0.00005  -0.00005   1.87255
   A27        2.29561   0.00002   0.00000   0.00060   0.00060   2.29621
   A28        2.11493  -0.00003   0.00000  -0.00058  -0.00058   2.11435
   A29        1.87436  -0.00001   0.00000   0.00013   0.00013   1.87449
   A30        2.27850   0.00002   0.00000  -0.00092  -0.00093   2.27758
   A31        2.13028  -0.00001   0.00000   0.00080   0.00080   2.13108
   A32        1.91567   0.00001   0.00000   0.00094   0.00094   1.91662
   A33        1.94852   0.00001   0.00000   0.00276   0.00276   1.95128
   A34        1.94424  -0.00002   0.00000  -0.00272  -0.00272   1.94152
   A35        1.89507  -0.00001   0.00000   0.00024   0.00024   1.89531
   A36        1.87062  -0.00000   0.00000  -0.00056  -0.00056   1.87006
   A37        1.88734   0.00001   0.00000  -0.00076  -0.00076   1.88658
    D1        0.44388   0.00001   0.00000  -0.00692  -0.00692   0.43696
    D2       -2.89778  -0.00000   0.00000  -0.00546  -0.00546  -2.90324
    D3       -3.02453   0.00000   0.00000  -0.00092  -0.00092  -3.02544
    D4       -0.08301  -0.00001   0.00000   0.00054   0.00054  -0.08246
    D5       -1.64779  -0.00001   0.00000  -0.10497  -0.10497  -1.75276
    D6        0.45444  -0.00000   0.00000  -0.10223  -0.10223   0.35221
    D7        2.56642  -0.00000   0.00000  -0.10319  -0.10319   2.46323
    D8        1.17454  -0.00001   0.00000  -0.09876  -0.09876   1.07578
    D9       -3.00641  -0.00001   0.00000  -0.09602  -0.09602  -3.10244
   D10       -0.89443  -0.00000   0.00000  -0.09698  -0.09698  -0.99141
   D11       -1.72932  -0.00001   0.00000   0.01035   0.01035  -1.71897
   D12        0.12798  -0.00002   0.00000   0.01104   0.01103   0.13902
   D13        2.73555  -0.00001   0.00000   0.00473   0.00473   2.74028
   D14        1.78625  -0.00000   0.00000   0.00660   0.00660   1.79285
   D15       -2.63963  -0.00001   0.00000   0.00728   0.00728  -2.63235
   D16       -0.03206   0.00000   0.00000   0.00097   0.00097  -0.03108
   D17       -0.07509  -0.00000   0.00000  -0.00170  -0.00170  -0.07680
   D18        3.05673  -0.00001   0.00000  -0.00528  -0.00529   3.05144
   D19       -2.86924   0.00001   0.00000  -0.00501  -0.00502  -2.87426
   D20        0.26258  -0.00001   0.00000  -0.00860  -0.00860   0.25398
   D21       -0.93637  -0.00001   0.00000  -0.01085  -0.01086  -0.94723
   D22        3.09294  -0.00000   0.00000  -0.00971  -0.00971   3.08323
   D23        0.99550   0.00000   0.00000  -0.00941  -0.00941   0.98609
   D24       -3.10111  -0.00000   0.00000  -0.00986  -0.00986  -3.11097
   D25        0.92821   0.00001   0.00000  -0.00871  -0.00871   0.91950
   D26       -1.16923   0.00001   0.00000  -0.00842  -0.00842  -1.17765
   D27        1.17057  -0.00001   0.00000  -0.01032  -0.01032   1.16024
   D28       -1.08331   0.00000   0.00000  -0.00918  -0.00917  -1.09248
   D29        3.10244   0.00000   0.00000  -0.00888  -0.00887   3.09356
   D30        1.07452  -0.00003   0.00000   0.00598   0.00598   1.08050
   D31       -1.83042  -0.00002   0.00000   0.00481   0.00481  -1.82561
   D32        3.02217  -0.00002   0.00000   0.00530   0.00530   3.02747
   D33        0.11722  -0.00001   0.00000   0.00414   0.00413   0.12136
   D34       -0.56782  -0.00001   0.00000  -0.00198  -0.00198  -0.56980
   D35        2.81042   0.00000   0.00000  -0.00314  -0.00314   2.80728
   D36        0.12989  -0.00001   0.00000   0.00019   0.00019   0.13008
   D37       -3.02202   0.00000   0.00000   0.00040   0.00040  -3.02162
   D38       -1.85550   0.00002   0.00000  -0.00315  -0.00315  -1.85865
   D39        1.27577   0.00003   0.00000  -0.00294  -0.00294   1.27283
   D40        2.77701  -0.00000   0.00000  -0.00596  -0.00596   2.77105
   D41       -0.37490   0.00001   0.00000  -0.00575  -0.00575  -0.38065
   D42        0.02875  -0.00002   0.00000  -0.00187  -0.00187   0.02689
   D43        2.93539  -0.00002   0.00000  -0.00072  -0.00072   2.93467
   D44       -2.91359  -0.00001   0.00000  -0.00339  -0.00339  -2.91698
   D45       -0.00696  -0.00001   0.00000  -0.00224  -0.00224  -0.00920
   D46        0.16150  -0.00000   0.00000   0.00189   0.00189   0.16338
   D47       -2.97155   0.00001   0.00000   0.00501   0.00501  -2.96654
   D48       -0.18105   0.00001   0.00000  -0.00127  -0.00127  -0.18232
   D49        2.96980   0.00000   0.00000  -0.00145  -0.00145   2.96835
         Item               Value     Threshold  Converged?
 Maximum Force            0.000189     0.000450     YES
 RMS     Force            0.000032     0.000300     YES
 Maximum Displacement     0.168592     0.001800     NO 
 RMS     Displacement     0.035772     0.001200     NO 
 Predicted change in Energy=-1.836034D-05
 GradGradGradGradGradGradGradGradGradGradGradGradGradGradGradGradGradGrad

                          Input orientation:                          
 ---------------------------------------------------------------------
 Center     Atomic      Atomic             Coordinates (Angstroms)
 Number     Number       Type             X           Y           Z
 ---------------------------------------------------------------------
      1          6           0       -1.817615    0.823184    0.173036
      2          6           0       -0.141953   -0.573353    1.178110
      3          6           0        0.773292    2.109813    0.385900
      4          6           0        1.060462    0.118157    1.158259
      5          6           0       -1.091978    1.226997   -0.929559
      6          6           0        0.157580    1.864633   -0.830106
      7          1           0        1.790042    2.510386    0.400139
      8          1           0        0.177947    2.321972    1.275923
      9          1           0        0.748728    1.970413   -1.744334
     10          1           0       -1.410782    0.878373   -1.917010
     11          1           0       -1.652692    1.336858    1.123067
     12          1           0       -0.804196   -0.718318    2.027922
     13          1           0        1.581919    0.519226    2.026308
     14          8           0        1.013476   -1.261924   -0.691696
     15          6           0       -0.146260   -1.499018    0.036912
     16          6           0        1.840291   -0.416556    0.007490
     17          8           0       -0.924320   -2.341011   -0.297318
     18          8           0        2.963738   -0.204770   -0.331929
     19          6           0       -3.073782    0.019095    0.075062
     20          1           0       -3.949747    0.678428    0.192685
     21          1           0       -3.152312   -0.498466   -0.889822
     22          1           0       -3.126796   -0.735831    0.872841
 ---------------------------------------------------------------------
                    Distance matrix (angstroms):
                    1          2          3          4          5
     1  C    0.000000
     2  C    2.401736   0.000000
     3  C    2.900608   2.943578   0.000000
     4  C    3.122668   1.387221   2.155388   0.000000
     5  C    1.380337   2.930201   2.447249   3.197109   0.000000
     6  C    2.447919   3.172764   1.384878   2.796242   1.406366
     7  H    3.989162   3.721195   1.092905   2.613387   3.423627
     8  H    2.728552   2.914586   1.091599   2.376863   2.770530
     9  H    3.402729   3.975518   2.134932   3.457322   2.145862
    10  H    2.129988   3.646533   3.404411   4.017742   1.094638
    11  H    1.092528   2.436036   2.650712   2.974504   2.130668
    12  H    2.616075   1.087088   3.630844   2.221025   3.551586
    13  H    3.883792   2.210182   2.423795   1.089166   4.048186
    14  O    3.620845   2.303329   3.547888   2.308499   3.268675
    15  C    2.864364   1.469424   3.740458   2.308431   3.042959
    16  C    3.865830   2.307429   2.768433   1.489403   3.489631
    17  O    3.321346   2.431790   4.812329   3.479307   3.627467
    18  O    4.916607   3.472952   3.266593   2.438730   4.342344
    19  C    1.494696   3.187998   4.389499   4.274939   2.529000
    20  H    2.137130   4.127628   4.938956   5.133072   3.118847
    21  H    2.158203   3.652973   4.882720   4.724651   2.687708
    22  H    2.152722   3.004809   4.852370   4.282977   3.352883
                    6          7          8          9         10
     6  C    0.000000
     7  H    2.143697   0.000000
     8  H    2.155211   1.844274   0.000000
     9  H    1.093828   2.444314   3.093759   0.000000
    10  H    2.147981   4.275268   3.847448   2.426077   0.000000
    11  H    2.714870   3.708397   2.084479   3.793442   3.083957
    12  H    3.970513   4.450200   3.282296   4.885772   4.298820
    13  H    3.463807   2.579235   2.405017   4.125274   4.963365
    14  O    3.244544   4.003184   4.173002   3.409712   3.458220
    15  C    3.486859   4.467272   4.029916   4.001348   3.326982
    16  C    2.955826   2.953589   3.445555   3.155632   3.993746
    17  O    4.375135   5.602701   5.043163   4.845753   3.636547
    18  O    3.522092   3.047222   4.090263   3.410656   4.777249
    19  C    3.829757   5.474395   4.161617   4.661484   2.733547
    20  H    4.395829   6.028622   4.573019   5.243752   3.307134
    21  H    4.067331   5.928242   4.871955   4.695069   2.446166
    22  H    4.522120   5.910725   4.520394   5.403060   3.651524
                   11         12         13         14         15
    11  H    0.000000
    12  H    2.400512   0.000000
    13  H    3.456455   2.687948   0.000000
    14  O    4.141918   3.315986   3.298965   0.000000
    15  C    3.389877   2.237520   3.319278   1.389989   0.000000
    16  C    4.064469   3.341634   2.240105   1.373729   2.262515
    17  O    4.009331   2.838011   4.456616   2.252780   1.194169
    18  O    5.079868   4.475484   2.827521   2.247339   3.388689
    19  C    2.203250   3.083579   5.072775   4.351391   3.297955
    20  H    2.564293   3.900447   5.829824   5.401914   4.385436
    21  H    3.109500   3.751694   5.652650   4.239801   3.300953
    22  H    2.555707   2.594029   5.007760   4.457174   3.188233
                   16         17         18         19         20
    16  C    0.000000
    17  O    3.382234   0.000000
    18  O    1.192557   4.436409   0.000000
    19  C    4.933809   3.213869   6.055362   0.000000
    20  H    5.895577   4.302362   6.989388   1.102665   0.000000
    21  H    5.073259   2.951268   6.148461   1.097741   1.786841
    22  H    5.052002   2.965936   6.231221   1.099625   1.772002
                   21         22
    21  H    0.000000
    22  H    1.778756   0.000000
 Stoichiometry    C9H10O3
 Framework group  C1[X(C9H10O3)]
 Deg. of freedom    60
 Full point group                 C1      NOp   1
 Largest Abelian subgroup         C1      NOp   1
 Largest concise Abelian subgroup C1      NOp   1
                         Standard orientation:                         
 ---------------------------------------------------------------------
 Center     Atomic      Atomic             Coordinates (Angstroms)
 Number     Number       Type             X           Y           Z
 ---------------------------------------------------------------------
      1          6           0       -1.818159    0.821088    0.180388
      2          6           0       -0.139059   -0.583051    1.169000
      3          6           0        0.771543    2.108794    0.401257
      4          6           0        1.062477    0.110104    1.153784
      5          6           0       -1.094923    1.236460   -0.919488
      6          6           0        0.154027    1.874646   -0.816009
      7          1           0        1.787827    2.510466    0.417630
      8          1           0        0.177481    2.311584    1.294316
      9          1           0        0.743463    1.990009   -1.730183
     10          1           0       -1.415010    0.897026   -1.909721
     11          1           0       -1.652218    1.325736    1.135067
     12          1           0       -0.799653   -0.737060    2.018504
     13          1           0        1.584946    0.503388    2.024781
     14          8           0        1.013971   -1.252045   -0.709376
     15          6           0       -0.144213   -1.497620    0.018893
     16          6           0        1.840964   -0.412470   -0.003452
     17          8           0       -0.921823   -2.337296   -0.322143
     18          8           0        2.963563   -0.196018   -0.342733
     19          6           0       -3.073513    0.016434    0.076785
     20          1           0       -3.950075    0.673514    0.202298
     21          1           0       -3.153081   -0.491850   -0.892932
     22          1           0       -3.124226   -0.746251    0.867301
 ---------------------------------------------------------------------
 Rotational constants (GHZ):           1.3579671           0.9515652           0.6875656
 Standard basis: def2SVP (5D, 7F)
 There are   230 symmetry adapted cartesian basis functions of A   symmetry.
 There are   218 symmetry adapted basis functions of A   symmetry.
   218 basis functions,   370 primitive gaussians,   230 cartesian basis functions
    44 alpha electrons       44 beta electrons
       nuclear repulsion energy       716.1692234049 Hartrees.
 NAtoms=   22 NActive=   22 NUniq=   22 SFac= 1.00D+00 NAtFMM=   60 NAOKFM=F Big=F
 Integral buffers will be    131072 words long.
 Raffenetti 2 integral format.
 Two-electron integral symmetry is turned on.
 Nuclear repulsion after empirical dispersion term =      716.1521684193 Hartrees.
 ------------------------------------------------------------------------------
 Polarizable Continuum Model (PCM)
 =================================
 Model                : PCM.
 Atomic radii         : UFF (Universal Force Field).
 Polarization charges : Total charges.
 Charge compensation  : None.
 Solution method      : On-the-fly selection.
 Cavity type          : Scaled VdW (van der Waals Surface) (Alpha=1.100).
 Cavity algorithm     : GePol (No added spheres)
                        Default sphere list used, NSphG=   22.
                        Lebedev-Laikov grids with approx.  5.0 points / Ang**2.
                        Smoothing algorithm: York/Karplus (Gamma=1.0000).
                        Polarization charges: spherical gaussians, with
                                              point-specific exponents (IZeta= 3).
                        Self-potential: point-specific (ISelfS= 7).
                        Self-field    : sphere-specific E.n sum rule (ISelfD= 2).
 1st derivatives      : Analytical E(r).r(x)/FMM algorithm (CHGder, D1EAlg=3).
                        Cavity 1st derivative terms included.
 Solvent              : Toluene, Eps=   2.374100 Eps(inf)=   2.238315
 ------------------------------------------------------------------------------
 One-electron integrals computed using PRISM.
   1 Symmetry operations used in ECPInt.
 ECPInt:  NShTT=    5253 NPrTT=   19101 LenC2=    5171 LenP2D=   14589.
 LDataN:  DoStor=T MaxTD1= 4 Len=   56
 NBasis=   218 RedAO= T EigKep=  3.50D-04  NBF=   218
 NBsUse=   218 1.00D-06 EigRej= -1.00D+00 NBFU=   218
 Initial guess from the checkpoint file:  "da-2_2_sqm.chk"
 B after Tr=     0.000000   -0.000000   -0.000000
         Rot=    0.999998   -0.001876   -0.000869   -0.000605 Ang=  -0.25 deg.
 ExpMin= 1.22D-01 ExpMax= 2.27D+03 ExpMxC= 3.41D+02 IAcc=3 IRadAn=         5 AccDes= 0.00D+00
 Harris functional with IExCor= 4639 and IRadAn=       5 diagonalized for initial guess.
 HarFok:  IExCor= 4639 AccDes= 0.00D+00 IRadAn=         5 IDoV= 1 UseB2=F ITyADJ=14
 ICtDFT=  3500011 ScaDFX=  1.000000  1.000000  1.000000  1.000000
 FoFCou: FMM=F IPFlag=           0 FMFlag=      100000 FMFlg1=           0
         NFxFlg=           0 DoJE=T BraDBF=F KetDBF=T FulRan=T
         wScrn=  0.000000 ICntrl=       500 IOpCl=  0 I1Cent=   200000004 NGrid=           0
         NMat0=    1 NMatS0=      1 NMatT0=    0 NMatD0=    1 NMtDS0=    0 NMtDT0=    0
 Petite list used in FoFCou.
 Requested convergence on RMS density matrix=1.00D-08 within 128 cycles.
 Requested convergence on MAX density matrix=1.00D-06.
 Requested convergence on             energy=1.00D-06.
 No special actions if energy rises.
 Inv3:  Mode=1 IEnd=     8457123.
 Iteration    1 A*A^-1 deviation from unit magnitude is 3.00D-15 for    371.
 Iteration    1 A*A^-1 deviation from orthogonality  is 2.39D-15 for   1205    210.
 Iteration    1 A^-1*A deviation from unit magnitude is 3.22D-15 for    371.
 Iteration    1 A^-1*A deviation from orthogonality  is 1.64D-15 for   1621     89.
 Error on total polarization charges =  0.00631
 SCF Done:  E(RwB97XD) =  -573.980294436     A.U. after   12 cycles
            NFock= 12  Conv=0.42D-08     -V/T= 2.0098
   1 Symmetry operations used in ECPInt.
 ECPInt:  NShTT=    5253 NPrTT=   19101 LenC2=    5171 LenP2D=   14589.
 LDataN:  DoStor=T MaxTD1= 5 Len=  102
 D1PCM: PCM CHGder 1st derivatives, ID1Alg=3 FixD1E=F DoIter=F DoCFld=F I1PDM=0.
 Calling FoFJK, ICntrl=      2127 FMM=F ISym2X=0 I1Cent= 0 IOpClX= 0 NMat=1 NMatS=1 NMatT=0.
 ***** Axes restored to original set *****
 -------------------------------------------------------------------
 Center     Atomic                   Forces (Hartrees/Bohr)
 Number     Number              X              Y              Z
 -------------------------------------------------------------------
      1        6          -0.000325997    0.000337814   -0.000256045
      2        6           0.000641966   -0.000089220    0.000053418
      3        6          -0.000022048    0.000321638   -0.000224133
      4        6          -0.000310549   -0.000253711    0.000034166
      5        6           0.000016008   -0.000352574    0.000159782
      6        6           0.000458389    0.000182952    0.000058681
      7        1          -0.000113593   -0.000057528   -0.000004721
      8        1           0.000021830   -0.000046970   -0.000032726
      9        1          -0.000069110    0.000006198    0.000101153
     10        1          -0.000078277    0.000077660    0.000057137
     11        1          -0.000027616    0.000054590   -0.000008463
     12        1          -0.000220775    0.000052716    0.000137885
     13        1          -0.000090342   -0.000021001   -0.000155721
     14        8           0.000134614    0.000055272   -0.000028805
     15        6           0.000008038   -0.000029764   -0.000084799
     16        6           0.000048027   -0.000030356    0.000000407
     17        8          -0.000194149    0.000009304   -0.000061143
     18        8          -0.000103939    0.000005834    0.000011062
     19        6           0.000141201   -0.000070202    0.000581591
     20        1           0.000007332    0.000014869    0.000006851
     21        1           0.000233983   -0.000226378   -0.000145931
     22        1          -0.000154991    0.000058854   -0.000199647
 -------------------------------------------------------------------
 Cartesian Forces:  Max     0.000641966 RMS     0.000183557

 GradGradGradGradGradGradGradGradGradGradGradGradGradGradGradGradGradGrad
 Berny optimization.
 FormGI is forming the generalized inverse of G from B-inverse, IUseBI=4.
 Internal  Forces:  Max     0.000769805 RMS     0.000157681
 Search for a saddle point.
 Step number   2 out of a maximum of   50
 All quantities printed in internal units (Hartrees-Bohrs-Radians)
 Swapping is turned off.
 Update second derivatives using D2CorX and points    1    2
 ITU=  0  0
     Eigenvalues ---   -0.09324   0.00061   0.00250   0.00855   0.00927
     Eigenvalues ---    0.01048   0.01172   0.02015   0.02160   0.02494
     Eigenvalues ---    0.02619   0.02872   0.03336   0.03551   0.03724
     Eigenvalues ---    0.04148   0.04247   0.04428   0.04433   0.04824
     Eigenvalues ---    0.05568   0.06093   0.07837   0.09169   0.09815
     Eigenvalues ---    0.10344   0.10730   0.10991   0.11272   0.11627
     Eigenvalues ---    0.12542   0.13137   0.13834   0.14271   0.15617
     Eigenvalues ---    0.15673   0.20580   0.23274   0.24550   0.25430
     Eigenvalues ---    0.25790   0.25970   0.26032   0.26166   0.26918
     Eigenvalues ---    0.27235   0.27667   0.27881   0.29672   0.31567
     Eigenvalues ---    0.32781   0.37577   0.41907   0.43157   0.54218
     Eigenvalues ---    0.61248   0.62711   0.75513   0.95584   0.97369
 Eigenvectors required to have negative eigenvalues:
                          R7        R4        R13       R1        D1
   1                    0.68468  -0.18846   0.17096  -0.16873  -0.16846
                          D15       A22       R8        D34       D13
   1                   -0.15850   0.15282  -0.14876   0.14818   0.14724
 RFO step:  Lambda0=8.235892777D-08 Lambda=-5.71363737D-05.
 Linear search not attempted -- option 19 set.
 Iteration  1 RMS(Cart)=  0.03173535 RMS(Int)=  0.00124831
 Iteration  2 RMS(Cart)=  0.00129617 RMS(Int)=  0.00000364
 Iteration  3 RMS(Cart)=  0.00000181 RMS(Int)=  0.00000336
 Iteration  4 RMS(Cart)=  0.00000000 RMS(Int)=  0.00000336
 Variable       Old X    -DE/DX   Delta X   Delta X   Delta X     New X
                                 (Linear)    (Quad)   (Total)
    R1        2.60846  -0.00001   0.00000   0.00112   0.00112   2.60958
    R2        2.06458   0.00001   0.00000   0.00008   0.00008   2.06466
    R3        2.82457  -0.00009   0.00000   0.00037   0.00037   2.82494
    R4        2.62147  -0.00027   0.00000  -0.00033  -0.00033   2.62114
    R5        2.05430   0.00024   0.00000   0.00060   0.00060   2.05490
    R6        2.77681   0.00010   0.00000   0.00234   0.00234   2.77915
    R7        4.07309   0.00024   0.00000   0.01776   0.01776   4.09086
    R8        2.61704  -0.00041   0.00000  -0.00074  -0.00074   2.61630
    R9        2.06529  -0.00013   0.00000  -0.00038  -0.00038   2.06491
   R10        2.06282  -0.00005   0.00000  -0.00034  -0.00034   2.06249
   R11        2.05822  -0.00017   0.00000  -0.00062  -0.00062   2.05760
   R12        2.81456   0.00001   0.00000  -0.00181  -0.00180   2.81276
   R13        2.65765   0.00020   0.00000  -0.00012  -0.00012   2.65753
   R14        2.06857  -0.00005   0.00000  -0.00013  -0.00013   2.06844
   R15        2.06703  -0.00012   0.00000  -0.00025  -0.00025   2.06679
   R16        2.62670   0.00008   0.00000  -0.00144  -0.00145   2.62525
   R17        2.59597  -0.00003   0.00000   0.00122   0.00122   2.59719
   R18        2.25665   0.00014   0.00000   0.00006   0.00006   2.25671
   R19        2.25361  -0.00010   0.00000  -0.00007  -0.00007   2.25354
   R20        2.08373   0.00000   0.00000   0.00016   0.00016   2.08390
   R21        2.07443   0.00022   0.00000   0.00098   0.00098   2.07541
   R22        2.07799  -0.00018   0.00000  -0.00102  -0.00102   2.07697
    A1        2.06883  -0.00010   0.00000  -0.00137  -0.00138   2.06745
    A2        2.14936   0.00007   0.00000  -0.00105  -0.00106   2.14830
    A3        2.02283   0.00005   0.00000   0.00077   0.00076   2.02359
    A4        2.22143   0.00001   0.00000   0.00019   0.00018   2.22162
    A5        1.88121   0.00007   0.00000  -0.00109  -0.00109   1.88012
    A6        2.11920  -0.00003   0.00000  -0.00052  -0.00052   2.11868
    A7        1.78266  -0.00077   0.00000  -0.00358  -0.00358   1.77909
    A8        1.78243   0.00030   0.00000   0.00193   0.00193   1.78437
    A9        1.53087   0.00025   0.00000  -0.00504  -0.00504   1.52583
   A10        2.08282   0.00013   0.00000   0.00125   0.00124   2.08407
   A11        2.10348   0.00002   0.00000   0.00095   0.00093   2.10442
   A12        2.01034  -0.00004   0.00000   0.00073   0.00072   2.01106
   A13        1.92865   0.00002   0.00000  -0.00156  -0.00155   1.92709
   A14        2.19832  -0.00001   0.00000   0.00134   0.00134   2.19966
   A15        1.86077   0.00001   0.00000   0.00119   0.00118   1.86195
   A16        1.57991   0.00002   0.00000  -0.00025  -0.00025   1.57967
   A17        1.69575  -0.00006   0.00000  -0.00471  -0.00471   1.69105
   A18        2.09129   0.00000   0.00000   0.00077   0.00076   2.09204
   A19        2.14508  -0.00002   0.00000  -0.00073  -0.00073   2.14434
   A20        2.06496   0.00001   0.00000  -0.00014  -0.00014   2.06481
   A21        2.05664   0.00001   0.00000   0.00067   0.00067   2.05732
   A22        2.13813  -0.00042   0.00000  -0.00116  -0.00116   2.13697
   A23        2.06745   0.00015   0.00000   0.00050   0.00050   2.06795
   A24        2.05434   0.00023   0.00000   0.00038   0.00038   2.05473
   A25        1.91808  -0.00004   0.00000   0.00024   0.00024   1.91832
   A26        1.87255  -0.00007   0.00000   0.00011   0.00011   1.87266
   A27        2.29621  -0.00004   0.00000  -0.00067  -0.00067   2.29554
   A28        2.11435   0.00011   0.00000   0.00060   0.00059   2.11494
   A29        1.87449   0.00003   0.00000  -0.00019  -0.00019   1.87430
   A30        2.27758  -0.00002   0.00000   0.00111   0.00110   2.27868
   A31        2.13108  -0.00002   0.00000  -0.00091  -0.00091   2.13016
   A32        1.91662   0.00001   0.00000  -0.00055  -0.00056   1.91606
   A33        1.95128  -0.00029   0.00000  -0.00275  -0.00275   1.94853
   A34        1.94152   0.00030   0.00000   0.00260   0.00260   1.94412
   A35        1.89531   0.00017   0.00000   0.00009   0.00009   1.89540
   A36        1.87006  -0.00008   0.00000   0.00033   0.00033   1.87039
   A37        1.88658  -0.00010   0.00000   0.00037   0.00037   1.88695
    D1        0.43696   0.00021   0.00000   0.00770   0.00770   0.44466
    D2       -2.90324   0.00023   0.00000   0.00656   0.00656  -2.89668
    D3       -3.02544   0.00032   0.00000   0.00169   0.00170  -3.02375
    D4       -0.08246   0.00034   0.00000   0.00056   0.00056  -0.08190
    D5       -1.75276   0.00006   0.00000   0.09059   0.09059  -1.66217
    D6        0.35221   0.00008   0.00000   0.08853   0.08854   0.44074
    D7        2.46323  -0.00004   0.00000   0.08892   0.08892   2.55215
    D8        1.07578   0.00014   0.00000   0.08438   0.08438   1.16016
    D9       -3.10244   0.00016   0.00000   0.08232   0.08232  -3.02011
   D10       -0.99141   0.00004   0.00000   0.08271   0.08271  -0.90870
   D11       -1.71897   0.00002   0.00000  -0.01086  -0.01086  -1.72983
   D12        0.13902   0.00006   0.00000  -0.01174  -0.01174   0.12727
   D13        2.74028   0.00007   0.00000  -0.00541  -0.00541   2.73488
   D14        1.79285  -0.00013   0.00000  -0.00658  -0.00658   1.78626
   D15       -2.63235  -0.00009   0.00000  -0.00746  -0.00747  -2.63981
   D16       -0.03108  -0.00008   0.00000  -0.00113  -0.00113  -0.03221
   D17       -0.07680   0.00008   0.00000   0.00174   0.00174  -0.07506
   D18        3.05144   0.00014   0.00000   0.00498   0.00498   3.05642
   D19       -2.87426  -0.00007   0.00000   0.00552   0.00552  -2.86874
   D20        0.25398  -0.00000   0.00000   0.00877   0.00876   0.26275
   D21       -0.94723  -0.00002   0.00000   0.01102   0.01101  -0.93622
   D22        3.08323  -0.00003   0.00000   0.01014   0.01014   3.09337
   D23        0.98609  -0.00003   0.00000   0.00979   0.00979   0.99588
   D24       -3.11097   0.00003   0.00000   0.01032   0.01031  -3.10066
   D25        0.91950   0.00002   0.00000   0.00944   0.00944   0.92893
   D26       -1.17765   0.00002   0.00000   0.00909   0.00909  -1.16856
   D27        1.16024   0.00000   0.00000   0.01057   0.01057   1.17081
   D28       -1.09248  -0.00001   0.00000   0.00969   0.00969  -1.08278
   D29        3.09356  -0.00001   0.00000   0.00934   0.00935   3.10291
   D30        1.08050  -0.00011   0.00000  -0.00626  -0.00626   1.07424
   D31       -1.82561   0.00007   0.00000  -0.00491  -0.00491  -1.83052
   D32        3.02747  -0.00021   0.00000  -0.00578  -0.00578   3.02169
   D33        0.12136  -0.00004   0.00000  -0.00443  -0.00443   0.11693
   D34       -0.56980   0.00006   0.00000   0.00167   0.00167  -0.56812
   D35        2.80728   0.00023   0.00000   0.00302   0.00303   2.81030
   D36        0.13008   0.00006   0.00000   0.00003   0.00003   0.13011
   D37       -3.02162  -0.00000   0.00000   0.00016   0.00016  -3.02146
   D38       -1.85865   0.00006   0.00000   0.00318   0.00318  -1.85547
   D39        1.27283  -0.00000   0.00000   0.00331   0.00331   1.27614
   D40        2.77105   0.00007   0.00000   0.00610   0.00610   2.77715
   D41       -0.38065   0.00001   0.00000   0.00623   0.00623  -0.37442
   D42        0.02689   0.00032   0.00000   0.00186   0.00186   0.02875
   D43        2.93467   0.00014   0.00000   0.00054   0.00054   2.93521
   D44       -2.91698   0.00029   0.00000   0.00308   0.00308  -2.91390
   D45       -0.00920   0.00011   0.00000   0.00176   0.00176  -0.00744
   D46        0.16338  -0.00005   0.00000  -0.00178  -0.00178   0.16160
   D47       -2.96654  -0.00010   0.00000  -0.00461  -0.00461  -2.97115
   D48       -0.18232  -0.00000   0.00000   0.00108   0.00108  -0.18124
   D49        2.96835   0.00005   0.00000   0.00095   0.00095   2.96930
         Item               Value     Threshold  Converged?
 Maximum Force            0.000770     0.000450     NO 
 RMS     Force            0.000158     0.000300     YES
 Maximum Displacement     0.144557     0.001800     NO 
 RMS     Displacement     0.031753     0.001200     NO 
 Predicted change in Energy=-2.986369D-05
 GradGradGradGradGradGradGradGradGradGradGradGradGradGradGradGradGradGrad

                          Input orientation:                          
 ---------------------------------------------------------------------
 Center     Atomic      Atomic             Coordinates (Angstroms)
 Number     Number       Type             X           Y           Z
 ---------------------------------------------------------------------
      1          6           0       -1.813245    0.824237    0.183573
      2          6           0       -0.149082   -0.577620    1.164793
      3          6           0        0.774827    2.113626    0.384745
      4          6           0        1.054982    0.110906    1.157358
      5          6           0       -1.092787    1.227891   -0.923212
      6          6           0        0.155729    1.868224   -0.829052
      7          1           0        1.792572    2.511168    0.397271
      8          1           0        0.182936    2.322276    1.277679
      9          1           0        0.743411    1.974645   -1.745284
     10          1           0       -1.414455    0.876009   -1.908501
     11          1           0       -1.649717    1.345581    1.129706
     12          1           0       -0.814741   -0.731560    2.010757
     13          1           0        1.570440    0.509169    2.029857
     14          8           0        1.016900   -1.253876   -0.703572
     15          6           0       -0.148131   -1.493577    0.014195
     16          6           0        1.841078   -0.415446    0.008235
     17          8           0       -0.928359   -2.327804   -0.334259
     18          8           0        2.967014   -0.203860   -0.322831
     19          6           0       -3.067023    0.015455    0.090727
[...]
    15  C    3.478945   4.466285   4.033313   3.989261   3.303926
    16  C    2.959745   2.952316   3.442973   3.161797   3.993922
    17  O    4.361390   5.599004   5.045633   4.825607   3.602226
    18  O    3.529759   3.043971   4.085399   3.423835   4.784918
    19  C    3.829506   5.471491   4.158017   4.661497   2.733057
    20  H    4.071973   5.914753   4.861448   4.703072   2.472701
    21  H    4.541174   5.916768   4.503309   5.432528   3.687335
    22  H    4.368495   6.026911   4.590998   5.202544   3.240227
                   11         12         13         14         15
    11  H    0.000000
    12  H    2.405337   0.000000
    13  H    3.444955   2.688680   0.000000
    14  O    4.150457   3.315879   3.299562   0.000000
    15  C    3.399900   2.238601   3.320861   1.389178   0.000000
    16  C    4.066771   3.341132   2.239512   1.374415   2.262599
    17  O    4.019966   2.839050   4.458978   2.252408   1.194181
    18  O    5.081051   4.474966   2.827419   2.247372   3.388370
    19  C    2.203928   3.051999   5.050416   4.351642   3.288448
    20  H    3.106580   3.648461   5.583094   4.174206   3.203731
    21  H    2.529097   2.582233   4.999942   4.535287   3.265335
    22  H    2.597603   3.926475   5.841837   5.388957   4.378644
                   16         17         18         19         20
    16  C    0.000000
    17  O    3.382890   0.000000
    18  O    1.192525   4.436745   0.000000
    19  C    4.928939   3.203026   6.053543   0.000000
    20  H    5.014616   2.832419   6.100137   1.098171   0.000000
    21  H    5.101285   3.066802   6.281002   1.099074   1.779137
    22  H    5.890386   4.287106   6.982068   1.102834   1.787183
                   21         22
    21  H    0.000000
    22  H    1.771951   0.000000
 Stoichiometry    C9H10O3
 Framework group  C1[X(C9H10O3)]
 Deg. of freedom    60
 Full point group                 C1      NOp   1
 Largest Abelian subgroup         C1      NOp   1
 Largest concise Abelian subgroup C1      NOp   1
                         Standard orientation:                         
 ---------------------------------------------------------------------
 Center     Atomic      Atomic             Coordinates (Angstroms)
 Number     Number       Type             X           Y           Z
 ---------------------------------------------------------------------
      1          6           0       -1.813330    0.823219    0.184500
      2          6           0       -0.148596   -0.578488    1.163651
      3          6           0        0.774029    2.113753    0.384286
      4          6           0        1.055251    0.110395    1.157077
      5          6           0       -1.094081    1.227771   -0.922721
      6          6           0        0.154364    1.868368   -0.829203
      7          1           0        1.791681    2.511513    0.396457
      8          1           0        0.182557    2.321783    1.277670
      9          1           0        0.741409    1.975230   -1.745723
     10          1           0       -1.416347    0.876134   -1.907954
     11          1           0       -1.648794    1.343982    1.130887
     12          1           0       -0.814100   -0.733710    2.009594
     13          1           0        1.570210    0.508731    2.029826
     14          8           0        1.018077   -1.252919   -0.704922
     15          6           0       -0.146894   -1.493756    0.012471
     16          6           0        1.841799   -0.414666    0.007700
     17          8           0       -0.926572   -2.328152   -0.336746
     18          8           0        2.967723   -0.202363   -0.322960
     19          6           0       -3.067633    0.015144    0.092434
     20          1           0       -3.099573   -0.579663   -0.830151
     21          1           0       -3.166009   -0.670957    0.945399
     22          1           0       -3.944319    0.683996    0.109846
 ---------------------------------------------------------------------
 Rotational constants (GHZ):           1.3618200           0.9519583           0.6887063

 **********************************************************************

            Population analysis using the SCF Density.

 **********************************************************************

 Orbital symmetries:
       Occupied  (A) (A) (A) (A) (A) (A) (A) (A) (A) (A) (A) (A)
                 (A) (A) (A) (A) (A) (A) (A) (A) (A) (A) (A) (A)
                 (A) (A) (A) (A) (A) (A) (A) (A) (A) (A) (A) (A)
                 (A) (A) (A) (A) (A) (A) (A) (A)
       Virtual   (A) (A) (A) (A) (A) (A) (A) (A) (A) (A) (A) (A)
                 (A) (A) (A) (A) (A) (A) (A) (A) (A) (A) (A) (A)
                 (A) (A) (A) (A) (A) (A) (A) (A) (A) (A) (A) (A)
                 (A) (A) (A) (A) (A) (A) (A) (A) (A) (A) (A) (A)
                 (A) (A) (A) (A) (A) (A) (A) (A) (A) (A) (A) (A)
                 (A) (A) (A) (A) (A) (A) (A) (A) (A) (A) (A) (A)
                 (A) (A) (A) (A) (A) (A) (A) (A) (A) (A) (A) (A)
                 (A) (A) (A) (A) (A) (A) (A) (A) (A) (A) (A) (A)
                 (A) (A) (A) (A) (A) (A) (A) (A) (A) (A) (A) (A)
                 (A) (A) (A) (A) (A) (A) (A) (A) (A) (A) (A) (A)
                 (A) (A) (A) (A) (A) (A) (A) (A) (A) (A) (A) (A)
                 (A) (A) (A) (A) (A) (A) (A) (A) (A) (A) (A) (A)
                 (A) (A) (A) (A) (A) (A) (A) (A) (A) (A) (A) (A)
                 (A) (A) (A) (A) (A) (A) (A) (A) (A) (A) (A) (A)
                 (A) (A) (A) (A) (A) (A)
 The electronic state is 1-A.
 Alpha  occ. eigenvalues --  -19.32108 -19.26268 -19.25923 -10.44697 -10.44395
 Alpha  occ. eigenvalues --  -10.34648 -10.34435 -10.33565 -10.33521 -10.32467
 Alpha  occ. eigenvalues --  -10.31900 -10.30800  -1.23635  -1.16226  -1.12360
 Alpha  occ. eigenvalues --   -0.94700  -0.91223  -0.87129  -0.79658  -0.77897
 Alpha  occ. eigenvalues --   -0.72398  -0.71569  -0.66783  -0.63616  -0.59857
 Alpha  occ. eigenvalues --   -0.59563  -0.58444  -0.55923  -0.55318  -0.53758
 Alpha  occ. eigenvalues --   -0.52442  -0.51624  -0.50203  -0.49648  -0.48847
 Alpha  occ. eigenvalues --   -0.48438  -0.45979  -0.45276  -0.44616  -0.41435
 Alpha  occ. eigenvalues --   -0.39607  -0.36953  -0.34917  -0.32229
 Alpha virt. eigenvalues --   -0.01265   0.01704   0.09074   0.12280   0.13066
 Alpha virt. eigenvalues --    0.14595   0.15551   0.17391   0.18714   0.19648
 Alpha virt. eigenvalues --    0.20296   0.22329   0.22880   0.23977   0.25393
 Alpha virt. eigenvalues --    0.27543   0.28071   0.31192   0.31939   0.33858
 Alpha virt. eigenvalues --    0.34861   0.37196   0.39362   0.42869   0.43540
 Alpha virt. eigenvalues --    0.45137   0.47324   0.49161   0.50202   0.50839
 Alpha virt. eigenvalues --    0.51939   0.53705   0.54841   0.56772   0.57477
 Alpha virt. eigenvalues --    0.59759   0.60245   0.63321   0.64730   0.68083
 Alpha virt. eigenvalues --    0.69054   0.70922   0.71369   0.72045   0.72662
 Alpha virt. eigenvalues --    0.72878   0.73400   0.74033   0.74849   0.75256
 Alpha virt. eigenvalues --    0.75487   0.76853   0.77733   0.78206   0.78878
 Alpha virt. eigenvalues --    0.79229   0.80296   0.81622   0.84094   0.85417
 Alpha virt. eigenvalues --    0.87002   0.88492   0.90680   0.95592   0.96550
 Alpha virt. eigenvalues --    1.00326   1.01398   1.03183   1.05590   1.09879
 Alpha virt. eigenvalues --    1.11506   1.13340   1.15003   1.15394   1.19827
 Alpha virt. eigenvalues --    1.21469   1.23941   1.27150   1.29569   1.30543
 Alpha virt. eigenvalues --    1.34095   1.37684   1.39913   1.40839   1.43676
 Alpha virt. eigenvalues --    1.46448   1.49517   1.50956   1.55974   1.59760
 Alpha virt. eigenvalues --    1.61222   1.62685   1.65772   1.66292   1.68666
 Alpha virt. eigenvalues --    1.71542   1.72497   1.74049   1.75577   1.78392
 Alpha virt. eigenvalues --    1.78975   1.79616   1.80799   1.84097   1.85654
 Alpha virt. eigenvalues --    1.87500   1.88423   1.89812   1.91273   1.91711
 Alpha virt. eigenvalues --    1.93313   1.95684   1.96372   1.96929   1.98808
 Alpha virt. eigenvalues --    1.99875   2.01019   2.05102   2.07020   2.07919
 Alpha virt. eigenvalues --    2.09108   2.11897   2.12914   2.15588   2.19000
 Alpha virt. eigenvalues --    2.20867   2.23017   2.24728   2.27427   2.28688
 Alpha virt. eigenvalues --    2.30179   2.31660   2.36241   2.38052   2.39995
 Alpha virt. eigenvalues --    2.44438   2.46582   2.48964   2.50258   2.52710
 Alpha virt. eigenvalues --    2.57922   2.59035   2.62580   2.67806   2.69311
 Alpha virt. eigenvalues --    2.71495   2.72498   2.73200   2.76479   2.80184
 Alpha virt. eigenvalues --    2.80387   2.82020   2.82363   2.85186   2.88902
 Alpha virt. eigenvalues --    2.90208   2.93813   2.97975   3.02101   3.03818
 Alpha virt. eigenvalues --    3.06463   3.10769   3.13574   3.24395   3.25429
 Alpha virt. eigenvalues --    3.28287   3.30043   3.35908   3.38533   3.47441
 Alpha virt. eigenvalues --    3.53921   3.73497   3.77258   3.79800
          Condensed to atoms (all electrons):
               1          2          3          4          5          6
     1  C    4.909393   0.145006  -0.014649  -0.039660   0.474451  -0.032737
     2  C    0.145006   5.786482  -0.068859  -0.048270   0.026542  -0.070055
     3  C   -0.014649  -0.068859   4.742689   0.143155  -0.050912   0.512072
     4  C   -0.039660  -0.048270   0.143155   5.931756  -0.064314   0.029069
     5  C    0.474451   0.026542  -0.050912  -0.064314   4.973265   0.403712
     6  C   -0.032737  -0.070055   0.512072   0.029069   0.403712   4.901282
     7  H   -0.000218   0.005444   0.392572  -0.018866   0.010982  -0.021779
     8  H    0.014693  -0.014530   0.370856  -0.000351  -0.032483   0.011342
     9  H    0.010750   0.000197  -0.047947  -0.001852  -0.041857   0.421592
    10  H   -0.058358   0.000218   0.010481  -0.000027   0.431433  -0.042216
    11  H    0.364166   0.009139   0.020372  -0.018432   0.002846  -0.031264
    12  H    0.000163   0.399783  -0.000292  -0.027470   0.000177   0.001312
    13  H    0.000110  -0.018521  -0.005676   0.384620   0.001317   0.000109
    14  O   -0.005818  -0.109035  -0.005483  -0.122246   0.007720   0.009105
    15  C   -0.011396   0.162521   0.004627   0.064940  -0.014914   0.004735
    16  C    0.003164   0.070311  -0.022274   0.088612   0.003777  -0.015006
    17  O   -0.005681  -0.085128   0.000074   0.004381  -0.002997   0.000183
    18  O    0.000019   0.005524   0.000164  -0.094130   0.000234  -0.004470
    19  C    0.392890  -0.035094   0.000454   0.004294  -0.060223   0.010896
    20  H   -0.017554  -0.001439   0.000117  -0.000232  -0.012687   0.000472
    21  H   -0.017124  -0.005959   0.000064   0.001081   0.006588  -0.000312
    22  H   -0.012770   0.001665  -0.000012  -0.000195  -0.002619  -0.000522
               7          8          9         10         11         12
     1  C   -0.000218   0.014693   0.010750  -0.058358   0.364166   0.000163
     2  C    0.005444  -0.014530   0.000197   0.000218   0.009139   0.399783
     3  C    0.392572   0.370856  -0.047947   0.010481   0.020372  -0.000292
     4  C   -0.018866  -0.000351  -0.001852  -0.000027  -0.018432  -0.027470
     5  C    0.010982  -0.032483  -0.041857   0.431433   0.002846   0.000177
     6  C   -0.021779   0.011342   0.421592  -0.042216  -0.031264   0.001312
     7  H    0.583048  -0.030673  -0.010547  -0.000156  -0.000031  -0.000077
     8  H   -0.030673   0.607693   0.006145  -0.000187   0.000780   0.000735
     9  H   -0.010547   0.006145   0.609005  -0.011317  -0.000068   0.000014
    10  H   -0.000156  -0.000187  -0.011317   0.618347   0.006740  -0.000157
    11  H   -0.000031   0.000780  -0.000068   0.006740   0.635754  -0.006867
    12  H   -0.000077   0.000735   0.000014  -0.000157  -0.006867   0.572802
    13  H   -0.000220  -0.007467  -0.000185   0.000016   0.000333  -0.005303
    14  O    0.000255  -0.000055  -0.000892  -0.000329  -0.000037   0.003083
    15  C   -0.000282   0.000160  -0.000298   0.001524  -0.001908  -0.021128
    16  C    0.002147   0.001660   0.004547  -0.000189   0.000803   0.006383
    17  O    0.000001   0.000003   0.000006   0.000051   0.000018   0.001177
    18  O    0.003845   0.000075   0.000694  -0.000001   0.000003  -0.000040
    19  C   -0.000018   0.000423  -0.000167  -0.010112  -0.033911  -0.002112
    20  H    0.000001  -0.000003  -0.000003   0.005065   0.005718  -0.000343
    21  H   -0.000002  -0.000004   0.000007   0.000139  -0.005928   0.003713
    22  H    0.000002   0.000008   0.000003   0.000096  -0.002640   0.000059
              13         14         15         16         17         18
     1  C    0.000110  -0.005818  -0.011396   0.003164  -0.005681   0.000019
     2  C   -0.018521  -0.109035   0.162521   0.070311  -0.085128   0.005524
     3  C   -0.005676  -0.005483   0.004627  -0.022274   0.000074   0.000164
     4  C    0.384620  -0.122246   0.064940   0.088612   0.004381  -0.094130
     5  C    0.001317   0.007720  -0.014914   0.003777  -0.002997   0.000234
     6  C    0.000109   0.009105   0.004735  -0.015006   0.000183  -0.004470
     7  H   -0.000220   0.000255  -0.000282   0.002147   0.000001   0.003845
     8  H   -0.007467  -0.000055   0.000160   0.001660   0.000003   0.000075
     9  H   -0.000185  -0.000892  -0.000298   0.004547   0.000006   0.000694
    10  H    0.000016  -0.000329   0.001524  -0.000189   0.000051  -0.000001
    11  H    0.000333  -0.000037  -0.001908   0.000803   0.000018   0.000003
    12  H   -0.005303   0.003083  -0.021128   0.006383   0.001177  -0.000040
    13  H    0.565455   0.003293   0.005478  -0.015622  -0.000037   0.002488
    14  O    0.003293   8.052540   0.289021   0.306219  -0.066339  -0.067001
    15  C    0.005478   0.289021   4.517814  -0.065245   0.760068   0.000569
    16  C   -0.015622   0.306219  -0.065245   4.546973   0.000332   0.775687
    17  O   -0.000037  -0.066339   0.760068   0.000332   7.585729  -0.000014
    18  O    0.002488  -0.067001   0.000569   0.775687  -0.000014   7.572610
    19  C   -0.000066   0.000249   0.002478  -0.000226   0.004138   0.000000
    20  H    0.000002  -0.000124   0.001445   0.000052   0.004282   0.000000
    21  H   -0.000016   0.000074   0.001189  -0.000041   0.002189   0.000000
    22  H    0.000001  -0.000000   0.000095   0.000009   0.000122   0.000000
              19         20         21         22
     1  C    0.392890  -0.017554  -0.017124  -0.012770
     2  C   -0.035094  -0.001439  -0.005959   0.001665
     3  C    0.000454   0.000117   0.000064  -0.000012
     4  C    0.004294  -0.000232   0.001081  -0.000195
     5  C   -0.060223  -0.012687   0.006588  -0.002619
     6  C    0.010896   0.000472  -0.000312  -0.000522
     7  H   -0.000018   0.000001  -0.000002   0.000002
     8  H    0.000423  -0.000003  -0.000004   0.000008
     9  H   -0.000167  -0.000003   0.000007   0.000003
    10  H   -0.010112   0.005065   0.000139   0.000096
    11  H   -0.033911   0.005718  -0.005928  -0.002640
    12  H   -0.002112  -0.000343   0.003713   0.000059
    13  H   -0.000066   0.000002  -0.000016   0.000001
    14  O    0.000249  -0.000124   0.000074  -0.000000
    15  C    0.002478   0.001445   0.001189   0.000095
    16  C   -0.000226   0.000052  -0.000041   0.000009
    17  O    0.004138   0.004282   0.002189   0.000122
    18  O    0.000000   0.000000   0.000000   0.000000
    19  C    4.535584   0.400031   0.389605   0.383535
    20  H    0.400031   0.592306  -0.020403  -0.018328
    21  H    0.389605  -0.020403   0.609779  -0.017045
    22  H    0.383535  -0.018328  -0.017045   0.599092
 Mulliken charges:
               1
     1  C   -0.098839
     2  C   -0.155943
     3  C    0.018406
     4  C   -0.215862
     5  C   -0.060039
     6  C   -0.087520
     7  H    0.084570
     8  H    0.071180
     9  H    0.062170
    10  H    0.048941
    11  H    0.054417
    12  H    0.074387
    13  H    0.089892
    14  O   -0.294200
    15  C    0.298505
    16  C    0.307926
    17  O   -0.202558
    18  O   -0.196258
    19  C    0.017350
    20  H    0.061625
    21  H    0.052406
    22  H    0.069445
 Sum of Mulliken charges =  -0.00000
 Mulliken charges with hydrogens summed into heavy atoms:
               1
     1  C   -0.044422
     2  C   -0.081556
     3  C    0.174156
     4  C   -0.125970
     5  C   -0.011098
     6  C   -0.025351
    14  O   -0.294200
    15  C    0.298505
    16  C    0.307926
    17  O   -0.202558
    18  O   -0.196258
    19  C    0.200826
 Electronic spatial extent (au):  <R**2>=           1776.3969
 Charge=              0.0000 electrons
 Dipole moment (field-independent basis, Debye):
    X=             -2.9817    Y=              4.2218    Z=              3.2906  Tot=              6.1271
 Quadrupole moment (field-independent basis, Debye-Ang):
   XX=            -75.5785   YY=            -76.1655   ZZ=            -64.3072
   XY=             -0.1518   XZ=              2.2845   YZ=             -2.1360
 Traceless Quadrupole moment (field-independent basis, Debye-Ang):
   XX=             -3.5614   YY=             -4.1484   ZZ=              7.7098
   XY=             -0.1518   XZ=              2.2845   YZ=             -2.1360
 Octapole moment (field-independent basis, Debye-Ang**2):
  XXX=            -42.8662  YYY=              4.4245  ZZZ=             -0.4474  XYY=             18.1009
  XXY=              5.3986  XXZ=              9.7562  XZZ=              0.5793  YZZ=              2.3383
  YYZ=              8.4349  XYZ=             -1.0793
 Hexadecapole moment (field-independent basis, Debye-Ang**3):
 XXXX=          -1272.8415 YYYY=           -843.9878 ZZZZ=           -279.3061 XXXY=              6.6259
 XXXZ=             13.6881 YYYX=             -3.7807 YYYZ=              5.3106 ZZZX=             -2.1427
 ZZZY=              5.0697 XXYY=           -329.9882 XXZZ=           -239.9129 YYZZ=           -176.0357
 XXYZ=              0.8822 YYXZ=             -7.3708 ZZXY=              9.6369
 N-N= 7.165023932087D+02 E-N=-2.770139131296D+03  KE= 5.684119108722D+02
 Unable to Open any file for archive entry.
 1\1\GINC-NODE-001\FTS\RwB97XD\def2SVP\C9H10O3\JP2658\01-Jan-2024\0\\# 
 wb97xd def2svp geom=allchk scrf=(iefpcm,solvent=toluene) opt=(readfc,t
 s,noeigen,maxcycles=50,maxstep=10)\\da-2_2_sqm.out\\0,1\C,-1.811921827
 1,0.8066160626,0.2897176278\C,-0.1001178149,-0.6701584699,1.053734864\
 C,0.776911425,2.0924056565,0.5006822579\C,1.0996647448,0.0257669635,1.
 0615464569\C,-1.1440682746,1.322610222,-0.8032795729\C,0.1048925139,1.
 961113128,-0.7026079044\H,1.7926053049,2.4952757953,0.5069303335\H,0.2
 249211721,2.2078812453,1.4351465764\H,0.650254888,2.1612424487,-1.6292
 031565\H,-1.5084506871,1.0657856544,-1.8030074592\H,-1.6074706956,1.23
 42667878,1.2742118651\H,-0.7268139911,-0.9121913359,1.9088841382\H,1.6
 513778374,0.3415479081,1.9455367421\O,0.9849421104,-1.1504308648,-0.92
 09893885\C,-0.1461136479,-1.4691985626,-0.1801018604\C,1.8363549486,-0
 .3787861406,-0.1668827231\O,-0.9374037061,-2.2719606179,-0.5744373839\
 O,2.9456831785,-0.126307103,-0.5243185951\C,-3.0660442013,0.0012455484
 ,0.1744290092\H,-3.1366964743,-0.501342471,-0.7994252052\H,-3.12387919
 92,-0.7652569268,0.959981838\H,-3.9435876044,0.6581650716,0.2953315403
 \\Version=ES64L-G16RevC.01\State=1-A\HF=-573.9803307\RMSD=6.951e-09\RM
 SF=3.101e-06\Dipole=-1.1206573,1.5178237,1.5004438\Quadrupole=-2.47924
 14,-2.6983136,5.177555,-0.3817539,2.0419843,-2.382649\PG=C01 [X(C9H10O
 3)]\\@
 The archive entry for this job was punched.


 POCKETA-POCKETA
 BARON VON RICHTOFEN
 SLAUGHTERED THE ALLIES WITH
 HARDLY A CARE.
 KILLED EIGHTY-ONE WITH HIS
 BLOOD-COLORED TRIPLANE, THEN
 UN-AEROBATICALLY
 PLUNGED FROM THE AIR.
   -- TONY HOFFMAN
 Job cpu time:       0 days  3 hours 15 minutes 42.1 seconds.
 Elapsed time:       0 days  0 hours 16 minutes 49.0 seconds.
 File lengths (MBytes):  RWF=    127 Int=      0 D2E=      0 Chk=     10 Scr=      1
 Normal termination of Gaussian 16 at Mon Jan  1 14:27:27 2024.
