Unloading slurm/anatra/current
  ERROR: No such file or directory on
    '/cm/local/modulefiles/slurm/anatra/current'
environment: line 0: unalias: gv: not found
environment: line 0: unalias: sl: not found
 Entering Gaussian System, Link 0=g16
 Initial command:
 /apps/gaussian/g16/C.01/g16/l1.exe "/local/jobs/1153107/Gau-2746922.inp" -scrdir="/local/jobs/1153107/"
 Entering Link 1 = /apps/gaussian/g16/C.01/g16/l1.exe PID=   2746924.
  
 Copyright (c) 1988-2019, Gaussian, Inc.  All Rights Reserved.
  
 This is part of the Gaussian(R) 16 program.  It is based on
 the Gaussian(R) 09 system (copyright 2009, Gaussian, Inc.),
 the Gaussian(R) 03 system (copyright 2003, Gaussian, Inc.),
 the Gaussian(R) 98 system (copyright 1998, Gaussian, Inc.),
 the Gaussian(R) 94 system (copyright 1995, Gaussian, Inc.),
 the Gaussian 92(TM) system (copyright 1992, Gaussian, Inc.),
 the Gaussian 90(TM) system (copyright 1990, Gaussian, Inc.),
 the Gaussian 88(TM) system (copyright 1988, Gaussian, Inc.),
 the Gaussian 86(TM) system (copyright 1986, Carnegie Mellon
 University), and the Gaussian 82(TM) system (copyright 1983,
 Carnegie Mellon University). Gaussian is a federally registered
 trademark of Gaussian, Inc.
  
 This software contains proprietary and confidential information,
 including trade secrets, belonging to Gaussian, Inc.
  
 This software is provided under written license and may be
 used, copied, transmitted, or stored only in accord with that
 written license.
  
 The following legend is applicable only to US Government
 contracts under FAR:
  
                    RESTRICTED RIGHTS LEGEND
  
 Use, reproduction and disclosure by the US Government is
 subject to restrictions as set forth in subparagraphs (a)
 and (c) of the Commercial Computer Software - Restricted
 Rights clause in FAR 52.227-19.
  
 Gaussian, Inc.
 340 Quinnipiac St., Bldg. 40, Wallingford CT 06492
  
  
 ---------------------------------------------------------------
 Warning -- This program may not be used in any manner that
 competes with the business of Gaussian, Inc. or will provide
 assistance to any competitor of Gaussian, Inc.  The licensee
 of this program is prohibited from giving any competitor of
 Gaussian, Inc. access to this program.  By using this program,
 the user acknowledges that Gaussian, Inc. is engaged in the
 business of creating and licensing software in the field of
 computational chemistry and represents and warrants to the
 licensee that it is not a competitor of Gaussian, Inc. and that
 it will not use this program in any manner prohibited above.
 ---------------------------------------------------------------
  

 Cite this work as:
 Gaussian 16, Revision C.01,
 M. J. Frisch, G. W. Trucks, H. B. Schlegel, G. E. Scuseria, 
 M. A. Robb, J. R. Cheeseman, G. Scalmani, V. Barone, 
 G. A. Petersson, H. Nakatsuji, X. Li, M. Caricato, A. V. Marenich, 
 J. Bloino, B. G. Janesko, R. Gomperts, B. Mennucci, H. P. Hratchian, 
 J. V. Ortiz, A. F. Izmaylov, J. L. Sonnenberg, D. Williams-Young, 
 F. Ding, F. Lipparini, F. Egidi, J. Goings, B. Peng, A. Petrone, 
 T. Henderson, D. Ranasinghe, V. G. Zakrzewski, J. Gao, N. Rega, 
 G. Zheng, W. Liang, M. Hada, M. Ehara, K. Toyota, R. Fukuda, 
 J. Hasegawa, M. Ishida, T. Nakajima, Y. Honda, O. Kitao, H. Nakai, 
 T. Vreven, K. Throssell, J. A. Montgomery, Jr., J. E. Peralta, 
 F. Ogliaro, M. J. Bearpark, J. J. Heyd, E. N. Brothers, K. N. Kudin, 
 V. N. Staroverov, T. A. Keith, R. Kobayashi, J. Normand, 
 K. Raghavachari, A. P. Rendell, J. C. Burant, S. S. Iyengar, 
 J. Tomasi, M. Cossi, J. M. Millam, M. Klene, C. Adamo, R. Cammi, 
 J. W. Ochterski, R. L. Martin, K. Morokuma, O. Farkas, 
 J. B. Foresman, and D. J. Fox, Gaussian, Inc., Wallingford CT, 2019.
 
 ******************************************
 Gaussian 16:  ES64L-G16RevC.01  3-Jul-2019
                28-Dec-2023 
 ******************************************
 %chk=imda-2_1_opt_sqm_re.chk
 %nprocshared=12
 Will use up to   12 processors via shared memory.
 %mem=48GB
 ----------------------------------------------------------------------
 # wb97xd def2svp geom=allchk scrf=(iefpcm,solvent=toluene) opt=(readfc
 ,ts,noeigen,maxcycles=50,maxstep=10)
 ----------------------------------------------------------------------
 1/5=1,6=50,8=10,10=3,11=1,18=20,26=3,29=7,38=1/1,3;
 2/9=110,12=2,40=1/2;
 3/5=43,7=101,11=2,14=-4,25=1,30=1,70=2201,71=1,72=13,74=-58/1,2,3;
 4//1;
 5/5=2,38=5,53=13/2;
 6/7=2,8=2,9=2,10=2,28=1/1;
 7//1,2,3,16;
 1/5=1,6=50,8=10,11=1,18=20,26=3/3(2);
 2/9=110/2;
 99//99;
 2/9=110/2;
 3/5=43,7=101,11=2,14=-2,25=1,30=1,70=2205,71=1,72=13,74=-58/1,2,3;
 4/5=5,16=3,69=1/1;
 5/5=2,38=5,53=13/2;
 7//1,2,3,16;
 1/5=1,6=50,8=10,11=1,18=20,26=3/3(-5);
 2/9=110/2;
 6/7=2,8=2,9=2,10=2,19=2,28=1/1;
 99/9=1/99;
 Structure from the checkpoint file:  "imda-2_1_opt_sqm_re.chk"
 --------------------
 imda-2_1_opt_sqm.out
 --------------------
 Charge =  0 Multiplicity = 1
 Redundant internal coordinates found in file.  (old form).
 C,0,-2.0564,-2.09567,-0.33585
 C,0,0.38949,-0.58308,1.61315
 C,0,-2.05766,0.12389,-0.67466
 C,0,-0.28132,0.5749,1.56794
 C,0,-3.06361,-1.56872,0.44502
 C,0,-3.06691,-0.16336,0.22973
 C,0,-1.55055,1.43832,-1.18874
 H,0,-0.72648,1.2607,-1.8956
 H,0,-2.33966,1.95329,-1.75804
 C,0,-1.07381,2.38913,-0.07908
 H,0,-0.70563,3.33375,-0.50254
 H,0,-1.92907,2.63185,0.57642
 C,0,0.01965,1.84987,0.8214
 O,0,1.03629,2.45945,1.04964
 H,0,-1.15277,0.65421,2.22659
 H,0,0.0669,-1.35153,2.32068
 C,0,1.57587,-1.02764,0.85938
 O,0,2.29807,-1.90562,1.18781
 N,0,-1.47353,-1.0628,-1.01546
 H,0,-0.665,-1.14609,-1.61895
 H,0,-1.72586,-3.12159,-0.47726
 Br,0,1.92204,-0.1504,-0.88552
 H,0,-3.73036,-2.13404,1.09268
 H,0,-3.73219,0.56668,0.68823
 Recover connectivity data from disk.

 GradGradGradGradGradGradGradGradGradGradGradGradGradGradGradGradGradGrad
 Berny optimization.
 Initialization pass.
 Force constant matrix read from checkpoint file:
 "imda-2_1_opt_sqm_re.chk"
                           ----------------------------
                           !    Initial Parameters    !
                           ! (Angstroms and Degrees)  !
 --------------------------                            --------------------------
 ! Name  Definition              Value          Derivative Info.                !
 --------------------------------------------------------------------------------
 ! R1    R(1,5)                  1.3791         D2E/DX2 =    0.4951             !
 ! R2    R(1,19)                 1.3669         D2E/DX2 =    0.4796             !
 ! R3    R(1,21)                 1.0871         D2E/DX2 =    0.2707             !
 ! R4    R(2,4)                  1.339          D2E/DX2 =    0.7284             !
 ! R5    R(2,16)                 1.0932         D2E/DX2 =    0.2694             !
 ! R6    R(2,17)                 1.4742         D2E/DX2 =    0.382              !
 ! R7    R(3,6)                  1.3853         D2E/DX2 =    0.4812             !
 ! R8    R(3,7)                  1.4997         D2E/DX2 =    0.3958             !
 ! R9    R(3,19)                 1.3659         D2E/DX2 =    0.4873             !
 ! R10   R(4,13)                 1.5078         D2E/DX2 =    0.345              !
 ! R11   R(4,15)                 1.0952         D2E/DX2 =    0.2677             !
 ! R12   R(5,6)                  1.4218         D2E/DX2 =    0.3901             !
 ! R13   R(5,23)                 1.0879         D2E/DX2 =    0.2694             !
 ! R14   R(6,24)                 1.0889         D2E/DX2 =    0.2688             !
 ! R15   R(7,8)                  1.1001         D2E/DX2 =    0.2688             !
 ! R16   R(7,9)                  1.1009         D2E/DX2 =    0.2688             !
 ! R17   R(7,10)                 1.5371         D2E/DX2 =    0.364              !
 ! R18   R(10,11)                1.0987         D2E/DX2 =    0.2692             !
 ! R19   R(10,12)                1.1046         D2E/DX2 =    0.2661             !
 ! R20   R(10,13)                1.5157         D2E/DX2 =    0.3614             !
 ! R21   R(13,14)                1.2072         D2E/DX2 =    0.8701             !
 ! R22   R(17,18)                1.1833         D2E/DX2 =    0.9435             !
 ! R23   R(17,22)                1.9834         D2E/DX2 =    0.1656             !
 ! R24   R(19,20)                1.0124         D2E/DX2 =    0.2791             !
 ! A1    A(5,1,19)             107.7114         D2E/DX2 =    0.0915             !
 ! A2    A(5,1,21)             131.0197         D2E/DX2 =    0.0695             !
 ! A3    A(19,1,21)            121.2503         D2E/DX2 =    0.0797             !
 ! A4    A(4,2,16)             118.8098         D2E/DX2 =    0.0861             !
 ! A5    A(4,2,17)             130.2923         D2E/DX2 =    0.1039             !
 ! A6    A(16,2,17)            110.8796         D2E/DX2 =    0.0891             !
 ! A7    A(6,3,7)              130.6831         D2E/DX2 =    0.0895             !
 ! A8    A(6,3,19)             107.1163         D2E/DX2 =    0.0928             !
 ! A9    A(7,3,19)             122.096          D2E/DX2 =    0.102              !
 ! A10   A(2,4,13)             130.3896         D2E/DX2 =    0.0843             !
 ! A11   A(2,4,15)             116.1634         D2E/DX2 =    0.0841             !
 ! A12   A(13,4,15)            113.2876         D2E/DX2 =    0.0754             !
 ! A13   A(1,5,6)              107.0764         D2E/DX2 =    0.0874             !
 ! A14   A(1,5,23)             125.8823         D2E/DX2 =    0.0703             !
 ! A15   A(6,5,23)             127.0388         D2E/DX2 =    0.0689             !
 ! A16   A(3,6,5)              107.5858         D2E/DX2 =    0.0878             !
 ! A17   A(3,6,24)             125.5191         D2E/DX2 =    0.0706             !
 ! A18   A(5,6,24)             126.8946         D2E/DX2 =    0.0692             !
 ! A19   A(3,7,8)              109.3918         D2E/DX2 =    0.0519             !
 ! A20   A(3,7,9)              110.1737         D2E/DX2 =    0.0485             !
 ! A21   A(3,7,10)             113.5508         D2E/DX2 =    0.1671             !
 ! A22   A(8,7,9)              106.2708         D2E/DX2 =    0.0158             !
 ! A23   A(8,7,10)             109.3534         D2E/DX2 =    0.0565             !
 ! A24   A(9,7,10)             107.8354         D2E/DX2 =    0.059              !
 ! A25   A(7,10,11)            110.9476         D2E/DX2 =    0.0607             !
 ! A26   A(7,10,12)            108.9168         D2E/DX2 =    0.0496             !
 ! A27   A(7,10,13)            115.6308         D2E/DX2 =    0.2121             !
 ! A28   A(11,10,12)           107.4135         D2E/DX2 =    0.0161             !
 ! A29   A(11,10,13)           107.0443         D2E/DX2 =    0.0613             !
 ! A30   A(12,10,13)           106.5116         D2E/DX2 =    0.0528             !
 ! A31   A(4,13,10)            116.8076         D2E/DX2 =    0.1386             !
 ! A32   A(4,13,14)            120.0984         D2E/DX2 =    0.12               !
 ! A33   A(10,13,14)           122.6996         D2E/DX2 =    0.1239             !
 ! A34   A(2,17,18)            124.9583         D2E/DX2 =    0.1098             !
 ! A35   A(2,17,22)            117.1866         D2E/DX2 =    0.1061             !
 ! A36   A(18,17,22)           117.762          D2E/DX2 =    0.1159             !
 ! A37   A(1,19,3)             110.4926         D2E/DX2 =    0.0942             !
 ! A38   A(1,19,20)            125.0844         D2E/DX2 =    0.0834             !
 ! A39   A(3,19,20)            124.1791         D2E/DX2 =    0.0846             !
 ! D1    D(19,1,5,6)            -0.6668         D2E/DX2 =    0.0119             !
 ! D2    D(19,1,5,23)          178.7872         D2E/DX2 =    0.0078             !
 ! D3    D(21,1,5,6)          -179.076          D2E/DX2 =    0.0076             !
 ! D4    D(21,1,5,23)            0.378          D2E/DX2 =    0.0072             !
 ! D5    D(5,1,19,3)             1.2741         D2E/DX2 =    0.0104             !
 ! D6    D(5,1,19,20)          175.7835         D2E/DX2 =    0.0066             !
 ! D7    D(21,1,19,3)          179.8702         D2E/DX2 =    0.0066             !
 ! D8    D(21,1,19,20)          -5.6204         D2E/DX2 =    0.0047             !
 ! D9    D(16,2,4,13)          172.3479         D2E/DX2 =    0.0124             !
 ! D10   D(16,2,4,15)           -2.6977         D2E/DX2 =    0.0114             !
 ! D11   D(17,2,4,13)           -5.9364         D2E/DX2 =    0.0111             !
 ! D12   D(17,2,4,15)          179.0179         D2E/DX2 =    0.0149             !
 ! D13   D(4,2,17,18)          159.6789         D2E/DX2 =    0.0183             !
 ! D14   D(4,2,17,22)          -23.9192         D2E/DX2 =    0.0217             !
 ! D15   D(16,2,17,18)         -18.7122         D2E/DX2 =    0.0199             !
 ! D16   D(16,2,17,22)         157.6897         D2E/DX2 =    0.0204             !
 ! D17   D(7,3,6,5)           -175.3511         D2E/DX2 =    0.007              !
 ! D18   D(7,3,6,24)             4.4033         D2E/DX2 =    0.005              !
 ! D19   D(19,3,6,5)             0.9068         D2E/DX2 =    0.0092             !
 ! D20   D(19,3,6,24)         -179.3388         D2E/DX2 =    0.0062             !
 ! D21   D(6,3,7,8)            179.5623         D2E/DX2 =    0.0132             !
 ! D22   D(6,3,7,9)            -63.9653         D2E/DX2 =    0.0127             !
 ! D23   D(6,3,7,10)            57.1051         D2E/DX2 =    0.0143             !
 ! D24   D(19,3,7,8)             3.7847         D2E/DX2 =    0.0127             !
 ! D25   D(19,3,7,9)           120.2572         D2E/DX2 =    0.0143             !
 ! D26   D(19,3,7,10)         -118.6725         D2E/DX2 =    0.0167             !
 ! D27   D(6,3,19,1)            -1.3606         D2E/DX2 =    0.0085             !
 ! D28   D(6,3,19,20)         -175.9297         D2E/DX2 =    0.0054             !
 ! D29   D(7,3,19,1)           175.2902         D2E/DX2 =    0.0065             !
 ! D30   D(7,3,19,20)            0.721          D2E/DX2 =    0.0035             !
 ! D31   D(2,4,13,10)          125.7241         D2E/DX2 =    0.0162             !
 ! D32   D(2,4,13,14)          -61.2901         D2E/DX2 =    0.0075             !
 ! D33   D(15,4,13,10)         -59.1168         D2E/DX2 =    0.0122             !
 ! D34   D(15,4,13,14)         113.869          D2E/DX2 =    0.0062             !
 ! D35   D(1,5,6,3)             -0.1503         D2E/DX2 =    0.0117             !
 ! D36   D(1,5,6,24)          -179.9004         D2E/DX2 =    0.0075             !
 ! D37   D(23,5,6,3)          -179.5961         D2E/DX2 =    0.0081             !
 ! D38   D(23,5,6,24)            0.6538         D2E/DX2 =    0.0073             !
 ! D39   D(3,7,10,11)          179.6012         D2E/DX2 =    0.0139             !
 ! D40   D(3,7,10,12)          -62.369          D2E/DX2 =    0.0119             !
 ! D41   D(3,7,10,13)           57.4756         D2E/DX2 =    0.0128             !
 ! D42   D(8,7,10,11)           57.1227         D2E/DX2 =    0.0138             !
 ! D43   D(8,7,10,12)          175.1526         D2E/DX2 =    0.0172             !
 ! D44   D(8,7,10,13)          -65.0029         D2E/DX2 =    0.0139             !
 ! D45   D(9,7,10,11)          -58.0255         D2E/DX2 =    0.0144             !
 ! D46   D(9,7,10,12)           60.0044         D2E/DX2 =    0.0138             !
 ! D47   D(9,7,10,13)          179.8489         D2E/DX2 =    0.015              !
 ! D48   D(7,10,13,4)          -58.3191         D2E/DX2 =    0.0133             !
 ! D49   D(7,10,13,14)         128.8933         D2E/DX2 =    0.0127             !
 ! D50   D(11,10,13,4)         177.4977         D2E/DX2 =    0.0154             !
 ! D51   D(11,10,13,14)          4.7101         D2E/DX2 =    0.0135             !
 ! D52   D(12,10,13,4)          62.83           D2E/DX2 =    0.0115             !
 ! D53   D(12,10,13,14)       -109.9576         D2E/DX2 =    0.014              !
 --------------------------------------------------------------------------------
 Trust Radius=1.00D-01 FncErr=1.00D-07 GrdErr=1.00D-06 EigMax=2.50D+02 EigMin=1.00D-04
 Number of steps in this run=     50 maximum allowed number of steps=    144.
 Search for a saddle point of order  1.
 GradGradGradGradGradGradGradGradGradGradGradGradGradGradGradGradGradGrad

                          Input orientation:                          
 ---------------------------------------------------------------------
 Center     Atomic      Atomic             Coordinates (Angstroms)
 Number     Number       Type             X           Y           Z
 ---------------------------------------------------------------------
      1          6           0       -2.056400   -2.095670   -0.335850
      2          6           0        0.389490   -0.583080    1.613150
      3          6           0       -2.057660    0.123890   -0.674660
      4          6           0       -0.281320    0.574900    1.567940
      5          6           0       -3.063610   -1.568720    0.445020
      6          6           0       -3.066910   -0.163360    0.229730
      7          6           0       -1.550550    1.438320   -1.188740
      8          1           0       -0.726480    1.260700   -1.895600
      9          1           0       -2.339660    1.953290   -1.758040
     10          6           0       -1.073810    2.389130   -0.079080
     11          1           0       -0.705630    3.333750   -0.502540
     12          1           0       -1.929070    2.631850    0.576420
     13          6           0        0.019650    1.849870    0.821400
     14          8           0        1.036290    2.459450    1.049640
     15          1           0       -1.152770    0.654210    2.226590
     16          1           0        0.066900   -1.351530    2.320680
     17          6           0        1.575870   -1.027640    0.859380
     18          8           0        2.298070   -1.905620    1.187810
     19          7           0       -1.473530   -1.062800   -1.015460
     20          1           0       -0.665000   -1.146090   -1.618950
     21          1           0       -1.725860   -3.121590   -0.477260
     22         35           0        1.922040   -0.150400   -0.885520
     23          1           0       -3.730360   -2.134040    1.092680
     24          1           0       -3.732190    0.566680    0.688230
 ---------------------------------------------------------------------
                    Distance matrix (angstroms):
                    1          2          3          4          5
     1  C    0.000000
     2  C    3.474033   0.000000
     3  C    2.245271   3.423803   0.000000
     4  C    3.729245   1.339010   2.896213   0.000000
     5  C    1.379096   3.776230   2.265071   3.687437   0.000000
     6  C    2.252739   3.746561   1.385287   3.177317   1.421759
     7  C    3.670476   3.962373   1.499722   3.155269   3.741766
     8  H    3.932776   4.117796   2.134261   3.558736   4.352734
     9  H    4.300807   5.024575   2.144747   4.147151   4.216886
    10  C    4.598352   3.720070   2.540470   2.575295   4.460780
    11  H    5.597407   4.584429   3.487236   3.475368   5.521970
    12  H    4.816419   4.097109   2.805637   2.815890   4.353072
    13  C    4.606137   2.585130   3.087462   1.507798   4.618973
    14  O    5.677449   3.161152   4.242709   2.357172   5.779351
    15  H    3.865810   2.070208   3.085015   1.095233   3.430265
    16  H    3.481278   1.093242   3.957611   2.097381   3.655867
    17  C    3.970220   1.474212   4.108752   2.553301   4.689268
    18  O    4.617258   2.360657   5.153648   3.598712   5.423362
    19  N    1.366904   3.257386   1.365864   3.282892   2.217501
    20  H    2.117556   3.446070   2.108088   3.642154   3.192478
    21  H    1.087090   3.910058   3.268363   4.464703   2.247572
    22  Br   4.462533   2.962984   3.994710   3.376436   5.351511
    23  H    2.200980   4.432779   3.319588   4.411361   1.087936
    24  H    3.308341   4.377861   2.203992   3.561244   2.250796
                    6          7          8          9         10
     6  C    0.000000
     7  C    2.622362   0.000000
     8  H    3.467360   1.100132   0.000000
     9  H    2.993381   1.100905   1.760952   0.000000
    10  C    3.253155   1.537097   2.166503   2.147380   0.000000
    11  H    4.282714   2.185730   2.497716   2.480323   1.098718
    12  H    3.037774   2.164158   3.071996   2.465508   1.104565
    13  C    3.732294   2.583711   2.878527   3.497220   1.515691
    14  O    4.938384   3.569985   3.635767   4.419989   2.394050
    15  H    2.884407   3.526689   4.188318   4.355869   2.886572
    16  H    3.950264   4.766071   5.022969   5.774887   4.588312
    17  C    4.764331   4.477751   4.257609   5.573886   4.424458
    18  O    5.721573   5.625104   5.355455   6.713997   5.605307
    19  N    2.213222   2.508298   2.594491   3.224656   3.598945
    20  H    3.186306   2.765584   2.423418   3.525619   3.877642
    21  H    3.324060   4.618411   4.713270   5.269872   5.563430
    22  Br   5.112101   3.830777   3.166405   4.832069   4.009324
    23  H    2.251317   4.766362   5.429307   5.173675   5.374881
    24  H    1.088934   3.007046   4.023945   3.137844   3.313167
                   11         12         13         14         15
    11  H    0.000000
    12  H    1.775845   0.000000
    13  C    2.116778   2.114005   0.000000
    14  O    2.491576   3.007826   1.207161   0.000000
    15  H    3.850717   2.690123   2.186031   3.071821   0.000000
    16  H    5.524421   4.784731   3.535397   4.132654   2.349349
    17  C    5.107033   5.075090   3.271594   3.533715   3.484732
    18  O    6.271403   6.231464   4.407852   4.545879   4.420417
    19  N    4.492484   4.048708   3.753304   4.792711   3.682648
    20  H    4.617032   4.548665   3.924262   4.797466   4.274012
    21  H    6.535512   5.852658   5.426669   6.411623   4.679306
    22  Br   4.380711   4.970838   3.245573   3.367598   4.448267
    23  H    6.449066   5.121023   5.477929   6.619891   3.962835
    24  H    4.270208   2.743842   3.967444   5.143112   3.004600
                   16         17         18         19         20
    16  H    0.000000
    17  C    2.125392   0.000000
    18  O    2.562914   1.183338   0.000000
    19  N    3.685935   3.579819   4.448563   0.000000
    20  H    4.012302   3.343299   4.151454   1.012353   0.000000
    21  H    3.765046   4.131907   4.521400   2.142883   2.516243
    22  Br   3.894095   1.983446   2.742425   3.518416   2.867419
    23  H    4.066877   5.425369   6.033506   3.268806   4.210156
    24  H    4.558235   5.544966   6.536504   3.264860   4.202894
                   21         22         23         24
    21  H    0.000000
    22  Br   4.722480   0.000000
    23  H    2.730931   6.308544   0.000000
    24  H    4.357415   5.912800   2.730837   0.000000
 Stoichiometry    C10H10BrNO2
 Framework group  C1[X(C10H10BrNO2)]
 Deg. of freedom    66
 Full point group                 C1      NOp   1
 Largest Abelian subgroup         C1      NOp   1
 Largest concise Abelian subgroup C1      NOp   1
                         Standard orientation:                         
 ---------------------------------------------------------------------
 Center     Atomic      Atomic             Coordinates (Angstroms)
 Number     Number       Type             X           Y           Z
 ---------------------------------------------------------------------
      1          6           0       -2.056399   -2.095671   -0.335851
      2          6           0        0.389491   -0.583081    1.613149
      3          6           0       -2.057660    0.123889   -0.674661
      4          6           0       -0.281320    0.574899    1.567939
      5          6           0       -3.063609   -1.568722    0.445019
      6          6           0       -3.066910   -0.163362    0.229729
      7          6           0       -1.550550    1.438319   -1.188741
      8          1           0       -0.726480    1.260699   -1.895601
      9          1           0       -2.339660    1.953289   -1.758041
     10          6           0       -1.073810    2.389129   -0.079081
     11          1           0       -0.705630    3.333749   -0.502541
     12          1           0       -1.929070    2.631849    0.576419
     13          6           0        0.019650    1.849869    0.821399
     14          8           0        1.036290    2.459449    1.049639
     15          1           0       -1.152770    0.654209    2.226589
     16          1           0        0.066901   -1.351531    2.320679
     17          6           0        1.575871   -1.027640    0.859379
     18          8           0        2.298071   -1.905620    1.187809
     19          7           0       -1.473529   -1.062801   -1.015461
     20          1           0       -0.664999   -1.146091   -1.618951
     21          1           0       -1.725859   -3.121591   -0.477261
     22         35           0        1.922040   -0.150400   -0.885521
     23          1           0       -3.730359   -2.134042    1.092679
     24          1           0       -3.732190    0.566678    0.688229
 ---------------------------------------------------------------------
 Rotational constants (GHZ):           0.7271361           0.4563443           0.3836548
 Standard basis: def2SVP (5D, 7F)
 There are   280 symmetry adapted cartesian basis functions of A   symmetry.
 There are   264 symmetry adapted basis functions of A   symmetry.
   264 basis functions,   475 primitive gaussians,   280 cartesian basis functions
    64 alpha electrons       64 beta electrons
       nuclear repulsion energy      1239.9461379176 Hartrees.
 NAtoms=   24 NActive=   24 NUniq=   24 SFac= 1.00D+00 NAtFMM=   60 NAOKFM=F Big=F
 Integral buffers will be    131072 words long.
 Raffenetti 2 integral format.
 Two-electron integral symmetry is turned on.
 Nuclear repulsion after empirical dispersion term =     1239.9257098740 Hartrees.
 ------------------------------------------------------------------------------
 Polarizable Continuum Model (PCM)
 =================================
 Model                : PCM.
 Atomic radii         : UFF (Universal Force Field).
 Polarization charges : Total charges.
 Charge compensation  : None.
 Solution method      : On-the-fly selection.
 Cavity type          : Scaled VdW (van der Waals Surface) (Alpha=1.100).
 Cavity algorithm     : GePol (No added spheres)
                        Default sphere list used, NSphG=   24.
                        Lebedev-Laikov grids with approx.  5.0 points / Ang**2.
                        Smoothing algorithm: York/Karplus (Gamma=1.0000).
                        Polarization charges: spherical gaussians, with
                                              point-specific exponents (IZeta= 3).
                        Self-potential: point-specific (ISelfS= 7).
                        Self-field    : sphere-specific E.n sum rule (ISelfD= 2).
 1st derivatives      : Analytical E(r).r(x)/FMM algorithm (CHGder, D1EAlg=3).
                        Cavity 1st derivative terms included.
 Solvent              : Toluene, Eps=   2.374100 Eps(inf)=   2.238315
 ------------------------------------------------------------------------------
 One-electron integrals computed using PRISM.
   1 Symmetry operations used in ECPInt.
 ECPInt:  NShTT=    7260 NPrTT=   28205 LenC2=    7045 LenP2D=   20152.
 LDataN:  DoStor=T MaxTD1= 4 Len=   56
 NBasis=   264 RedAO= T EigKep=  6.61D-04  NBF=   264
 NBsUse=   264 1.00D-06 EigRej= -1.00D+00 NBFU=   264
 ExpMin= 1.22D-01 ExpMax= 1.13D+05 ExpMxC= 1.70D+04 IAcc=3 IRadAn=         5 AccDes= 0.00D+00
 Harris functional with IExCor= 4639 and IRadAn=       5 diagonalized for initial guess.
 HarFok:  IExCor= 4639 AccDes= 0.00D+00 IRadAn=         5 IDoV= 1 UseB2=F ITyADJ=14
 ICtDFT=  3500011 ScaDFX=  1.000000  1.000000  1.000000  1.000000
 FoFCou: FMM=F IPFlag=           0 FMFlag=      100000 FMFlg1=           0
         NFxFlg=           0 DoJE=T BraDBF=F KetDBF=T FulRan=T
         wScrn=  0.000000 ICntrl=       500 IOpCl=  0 I1Cent=   200000004 NGrid=           0
         NMat0=    1 NMatS0=      1 NMatT0=    0 NMatD0=    1 NMtDS0=    0 NMtDT0=    0
 Petite list used in FoFCou.
 Requested convergence on RMS density matrix=1.00D-08 within 128 cycles.
 Requested convergence on MAX density matrix=1.00D-06.
 Requested convergence on             energy=1.00D-06.
 No special actions if energy rises.
 Inv3:  Mode=1 IEnd=    11419203.
 Iteration    1 A*A^-1 deviation from unit magnitude is 2.89D-15 for   1878.
 Iteration    1 A*A^-1 deviation from orthogonality  is 2.78D-15 for   1343      9.
 Iteration    1 A^-1*A deviation from unit magnitude is 2.55D-15 for   1648.
 Iteration    1 A^-1*A deviation from orthogonality  is 1.33D-15 for   1661   1336.
 Error on total polarization charges =  0.00753
 SCF Done:  E(RwB97XD) =  -3165.54154316     A.U. after   16 cycles
            NFock= 16  Conv=0.53D-08     -V/T= 2.0027

 **********************************************************************

            Population analysis using the SCF Density.

 **********************************************************************

 Orbital symmetries:
       Occupied  (A) (A) (A) (A) (A) (A) (A) (A) (A) (A) (A) (A)
                 (A) (A) (A) (A) (A) (A) (A) (A) (A) (A) (A) (A)
                 (A) (A) (A) (A) (A) (A) (A) (A) (A) (A) (A) (A)
                 (A) (A) (A) (A) (A) (A) (A) (A) (A) (A) (A) (A)
                 (A) (A) (A) (A) (A) (A) (A) (A) (A) (A) (A) (A)
                 (A) (A) (A) (A)
       Virtual   (A) (A) (A) (A) (A) (A) (A) (A) (A) (A) (A) (A)
                 (A) (A) (A) (A) (A) (A) (A) (A) (A) (A) (A) (A)
                 (A) (A) (A) (A) (A) (A) (A) (A) (A) (A) (A) (A)
                 (A) (A) (A) (A) (A) (A) (A) (A) (A) (A) (A) (A)
                 (A) (A) (A) (A) (A) (A) (A) (A) (A) (A) (A) (A)
                 (A) (A) (A) (A) (A) (A) (A) (A) (A) (A) (A) (A)
                 (A) (A) (A) (A) (A) (A) (A) (A) (A) (A) (A) (A)
                 (A) (A) (A) (A) (A) (A) (A) (A) (A) (A) (A) (A)
                 (A) (A) (A) (A) (A) (A) (A) (A) (A) (A) (A) (A)
                 (A) (A) (A) (A) (A) (A) (A) (A) (A) (A) (A) (A)
                 (A) (A) (A) (A) (A) (A) (A) (A) (A) (A) (A) (A)
                 (A) (A) (A) (A) (A) (A) (A) (A) (A) (A) (A) (A)
                 (A) (A) (A) (A) (A) (A) (A) (A) (A) (A) (A) (A)
                 (A) (A) (A) (A) (A) (A) (A) (A) (A) (A) (A) (A)
                 (A) (A) (A) (A) (A) (A) (A) (A) (A) (A) (A) (A)
                 (A) (A) (A) (A) (A) (A) (A) (A) (A) (A) (A) (A)
                 (A) (A) (A) (A) (A) (A) (A) (A)
 The electronic state is 1-A.
 Alpha  occ. eigenvalues -- -483.06642 -62.64873 -56.45599 -56.45317 -56.45282
 Alpha  occ. eigenvalues --  -19.29970 -19.26609 -14.49551 -10.45750 -10.41011
 Alpha  occ. eigenvalues --  -10.34942 -10.34317 -10.33033 -10.32325 -10.32320
 Alpha  occ. eigenvalues --  -10.31913 -10.28806 -10.28775  -8.81821  -6.64233
 Alpha  occ. eigenvalues --   -6.63171  -6.63058  -2.74626  -2.74347  -2.74259
 Alpha  occ. eigenvalues --   -2.73414  -2.73412  -1.19633  -1.15515  -1.08130
 Alpha  occ. eigenvalues --   -0.93084  -0.90653  -0.88337  -0.87011  -0.82599
 Alpha  occ. eigenvalues --   -0.78381  -0.74237  -0.68314  -0.67961  -0.66535
 Alpha  occ. eigenvalues --   -0.62006  -0.60957  -0.59634  -0.58493  -0.56166
 Alpha  occ. eigenvalues --   -0.55141  -0.54307  -0.53580  -0.52195  -0.51881
 Alpha  occ. eigenvalues --   -0.50849  -0.49974  -0.48101  -0.47568  -0.46974
 Alpha  occ. eigenvalues --   -0.45602  -0.44050  -0.39231  -0.38859  -0.38149
 Alpha  occ. eigenvalues --   -0.37201  -0.35019  -0.33366  -0.29253
 Alpha virt. eigenvalues --   -0.02320   0.04111   0.06148   0.09759   0.11655
 Alpha virt. eigenvalues --    0.13408   0.13811   0.14801   0.15699   0.17576
 Alpha virt. eigenvalues --    0.19709   0.20163   0.20581   0.21564   0.23375
 Alpha virt. eigenvalues --    0.23536   0.26887   0.27940   0.28646   0.30616
 Alpha virt. eigenvalues --    0.31331   0.32491   0.33902   0.35570   0.37617
 Alpha virt. eigenvalues --    0.39953   0.40470   0.42303   0.43021   0.46635
 Alpha virt. eigenvalues --    0.48283   0.49608   0.50160   0.50730   0.51954
 Alpha virt. eigenvalues --    0.52790   0.53993   0.54273   0.55792   0.56402
 Alpha virt. eigenvalues --    0.57050   0.57930   0.59885   0.60320   0.60834
 Alpha virt. eigenvalues --    0.61925   0.64766   0.65200   0.65981   0.67243
 Alpha virt. eigenvalues --    0.67696   0.69967   0.70203   0.70936   0.71933
 Alpha virt. eigenvalues --    0.72878   0.73950   0.74689   0.74919   0.75443
 Alpha virt. eigenvalues --    0.75676   0.76664   0.77484   0.78355   0.79101
 Alpha virt. eigenvalues --    0.79581   0.81389   0.81928   0.82527   0.83598
 Alpha virt. eigenvalues --    0.84543   0.87187   0.88504   0.89662   0.89837
 Alpha virt. eigenvalues --    0.91081   0.93575   0.94214   0.96475   0.98817
 Alpha virt. eigenvalues --    1.01863   1.02295   1.03450   1.06457   1.06844
 Alpha virt. eigenvalues --    1.11182   1.11820   1.12361   1.16030   1.19593
 Alpha virt. eigenvalues --    1.21063   1.22635   1.24246   1.26181   1.27983
 Alpha virt. eigenvalues --    1.29041   1.32296   1.34298   1.37362   1.37597
 Alpha virt. eigenvalues --    1.40492   1.42079   1.42723   1.47057   1.49240
 Alpha virt. eigenvalues --    1.51625   1.52056   1.57438   1.60736   1.65419
 Alpha virt. eigenvalues --    1.70285   1.72124   1.72504   1.74182   1.75563
 Alpha virt. eigenvalues --    1.76353   1.79057   1.79216   1.80165   1.82243
 Alpha virt. eigenvalues --    1.83242   1.84092   1.85025   1.86073   1.88046
 Alpha virt. eigenvalues --    1.88394   1.91919   1.92609   1.93152   1.93771
 Alpha virt. eigenvalues --    1.95585   1.97393   1.98488   1.99742   2.01051
 Alpha virt. eigenvalues --    2.02715   2.04258   2.05130   2.07614   2.09170
 Alpha virt. eigenvalues --    2.10535   2.12078   2.14508   2.16506   2.20252
 Alpha virt. eigenvalues --    2.22588   2.23888   2.24671   2.26372   2.31450
 Alpha virt. eigenvalues --    2.34737   2.35639   2.37347   2.40339   2.42287
 Alpha virt. eigenvalues --    2.43600   2.45218   2.46620   2.49884   2.52285
 Alpha virt. eigenvalues --    2.53502   2.55094   2.58441   2.64930   2.69995
 Alpha virt. eigenvalues --    2.73086   2.74402   2.75206   2.75714   2.77162
 Alpha virt. eigenvalues --    2.79080   2.79370   2.81735   2.82813   2.85639
 Alpha virt. eigenvalues --    2.87268   2.88985   2.92247   2.93957   2.96910
 Alpha virt. eigenvalues --    3.02479   3.04693   3.07017   3.10806   3.11911
 Alpha virt. eigenvalues --    3.20139   3.24663   3.27048   3.37656   3.40768
 Alpha virt. eigenvalues --    3.50294   3.53633   3.54754   3.57933   3.59732
 Alpha virt. eigenvalues --    3.67223   3.68959   3.69698   3.71841   3.89322
          Condensed to atoms (all electrons):
               1          2          3          4          5          6
     1  C    4.926554   0.004465  -0.144446  -0.004362   0.447150  -0.023817
     2  C    0.004465   5.102764  -0.010039   0.499963   0.000491  -0.005095
     3  C   -0.144446  -0.010039   5.184568   0.020734  -0.012169   0.418897
     4  C   -0.004362   0.499963   0.020734   5.157045  -0.000724  -0.002688
     5  C    0.447150   0.000491  -0.012169  -0.000724   4.972119   0.368468
     6  C   -0.023817  -0.005095   0.418897  -0.002688   0.368468   5.124744
     7  C    0.008525  -0.001124   0.327340   0.002851   0.010392  -0.098926
     8  H    0.000182   0.001361  -0.010337  -0.004383  -0.000638   0.011488
     9  H   -0.000168  -0.000054   0.004465   0.000091   0.000075  -0.008471
    10  C    0.000057   0.003243  -0.051363  -0.186440   0.000503   0.002431
    11  H   -0.000002  -0.000423   0.008122   0.014944   0.000005   0.000053
    12  H    0.000049   0.001427  -0.015141  -0.000346  -0.000284   0.007367
    13  C    0.000400  -0.004529  -0.016812   0.220262   0.000163  -0.005869
    14  O    0.000000  -0.002397  -0.000171  -0.091907  -0.000001   0.000012
    15  H    0.000112   0.017195  -0.000325   0.359074  -0.000700   0.008701
    16  H    0.002030   0.390602  -0.000338  -0.011453   0.001532  -0.000028
    17  C    0.002225   0.256506  -0.001458  -0.012501  -0.000115   0.000007
    18  O   -0.000066  -0.080270   0.000010   0.005339  -0.000003   0.000000
    19  N    0.394798   0.001019   0.444488  -0.004423  -0.061018  -0.098471
    20  H   -0.027202   0.001130  -0.020503  -0.001110   0.007057   0.010849
    21  H    0.431608  -0.000610   0.003986   0.000090  -0.049789   0.009211
    22  Br  -0.000064  -0.135699  -0.001790   0.014818  -0.000085  -0.000109
    23  H   -0.057770   0.000029   0.012729   0.000013   0.452534  -0.058600
    24  H    0.012171   0.000142  -0.056875  -0.000443  -0.057606   0.453426
               7          8          9         10         11         12
     1  C    0.008525   0.000182  -0.000168   0.000057  -0.000002   0.000049
     2  C   -0.001124   0.001361  -0.000054   0.003243  -0.000423   0.001427
     3  C    0.327340  -0.010337   0.004465  -0.051363   0.008122  -0.015141
     4  C    0.002851  -0.004383   0.000091  -0.186440   0.014944  -0.000346
     5  C    0.010392  -0.000638   0.000075   0.000503   0.000005  -0.000284
     6  C   -0.098926   0.011488  -0.008471   0.002431   0.000053   0.007367
     7  C    4.680343   0.364323   0.353753   0.359057  -0.008600  -0.011901
     8  H    0.364323   0.659543  -0.024125  -0.023819  -0.007017   0.007483
     9  H    0.353753  -0.024125   0.632623  -0.014431  -0.004117  -0.009511
    10  C    0.359057  -0.023819  -0.014431   5.011685   0.333642   0.368505
    11  H   -0.008600  -0.007017  -0.004117   0.333642   0.616853  -0.014070
    12  H   -0.011901   0.007483  -0.009511   0.368505  -0.014070   0.608408
    13  C   -0.028103  -0.004572   0.006655   0.323341  -0.005087  -0.019747
    14  O    0.002881   0.000688  -0.000160  -0.088469   0.009836   0.001805
    15  H   -0.003367   0.000047   0.000041   0.006711  -0.000259   0.000010
    16  H    0.000030   0.000010  -0.000003  -0.000229   0.000007   0.000021
    17  C   -0.000064  -0.000481   0.000008   0.000737  -0.000003  -0.000049
    18  O    0.000000   0.000003   0.000000  -0.000003   0.000000   0.000000
    19  N   -0.049243  -0.008687   0.003228  -0.003368  -0.000078   0.000008
    20  H   -0.012960   0.005099   0.000064   0.000387  -0.000023   0.000005
    21  H   -0.000301  -0.000007   0.000010   0.000007  -0.000000  -0.000000
    22  Br   0.001091   0.007378   0.000155  -0.007748   0.000043   0.000125
    23  H   -0.000263   0.000007   0.000004   0.000003  -0.000000   0.000005
    24  H   -0.007693  -0.000004   0.001363  -0.000065  -0.000036   0.001358
              13         14         15         16         17         18
     1  C    0.000400   0.000000   0.000112   0.002030   0.002225  -0.000066
     2  C   -0.004529  -0.002397   0.017195   0.390602   0.256506  -0.080270
     3  C   -0.016812  -0.000171  -0.000325  -0.000338  -0.001458   0.000010
     4  C    0.220262  -0.091907   0.359074  -0.011453  -0.012501   0.005339
     5  C    0.000163  -0.000001  -0.000700   0.001532  -0.000115  -0.000003
     6  C   -0.005869   0.000012   0.008701  -0.000028   0.000007   0.000000
     7  C   -0.028103   0.002881  -0.003367   0.000030  -0.000064   0.000000
     8  H   -0.004572   0.000688   0.000047   0.000010  -0.000481   0.000003
     9  H    0.006655  -0.000160   0.000041  -0.000003   0.000008   0.000000
    10  C    0.323341  -0.088469   0.006711  -0.000229   0.000737  -0.000003
    11  H   -0.005087   0.009836  -0.000259   0.000007  -0.000003   0.000000
    12  H   -0.019747   0.001805   0.000010   0.000021  -0.000049   0.000000
    13  C    4.798882   0.715579  -0.036167   0.006128  -0.022456  -0.000064
    14  O    0.715579   7.661305   0.001022  -0.000173   0.001595  -0.000002
    15  H   -0.036167   0.001022   0.565755  -0.013450   0.007112  -0.000077
    16  H    0.006128  -0.000173  -0.013450   0.576278  -0.036221   0.002829
    17  C   -0.022456   0.001595   0.007112  -0.036221   4.719454   0.702866
    18  O   -0.000064  -0.000002  -0.000077   0.002829   0.702866   7.585192
    19  N    0.001252   0.000004  -0.000496  -0.000800   0.001109  -0.000017
    20  H   -0.000039   0.000001  -0.000036  -0.000058  -0.001117  -0.000067
    21  H    0.000006   0.000000  -0.000008   0.000084   0.000166   0.000018
    22  Br   0.008027  -0.005160  -0.000017   0.004667   0.261095  -0.073329
    23  H   -0.000006  -0.000000  -0.000037  -0.000001  -0.000008  -0.000000
    24  H    0.000032  -0.000001   0.000717  -0.000010  -0.000003  -0.000000
              19         20         21         22         23         24
     1  C    0.394798  -0.027202   0.431608  -0.000064  -0.057770   0.012171
     2  C    0.001019   0.001130  -0.000610  -0.135699   0.000029   0.000142
     3  C    0.444488  -0.020503   0.003986  -0.001790   0.012729  -0.056875
     4  C   -0.004423  -0.001110   0.000090   0.014818   0.000013  -0.000443
     5  C   -0.061018   0.007057  -0.049789  -0.000085   0.452534  -0.057606
     6  C   -0.098471   0.010849   0.009211  -0.000109  -0.058600   0.453426
     7  C   -0.049243  -0.012960  -0.000301   0.001091  -0.000263  -0.007693
     8  H   -0.008687   0.005099  -0.000007   0.007378   0.000007  -0.000004
     9  H    0.003228   0.000064   0.000010   0.000155   0.000004   0.001363
    10  C   -0.003368   0.000387   0.000007  -0.007748   0.000003  -0.000065
    11  H   -0.000078  -0.000023  -0.000000   0.000043  -0.000000  -0.000036
    12  H    0.000008   0.000005  -0.000000   0.000125   0.000005   0.001358
    13  C    0.001252  -0.000039   0.000006   0.008027  -0.000006   0.000032
    14  O    0.000004   0.000001   0.000000  -0.005160  -0.000000  -0.000001
    15  H   -0.000496  -0.000036  -0.000008  -0.000017  -0.000037   0.000717
    16  H   -0.000800  -0.000058   0.000084   0.004667  -0.000001  -0.000010
    17  C    0.001109  -0.001117   0.000166   0.261095  -0.000008  -0.000003
    18  O   -0.000017  -0.000067   0.000018  -0.073329  -0.000000  -0.000000
    19  N    6.159901   0.365355  -0.034096  -0.004367   0.004396   0.005235
    20  H    0.365355   0.515426  -0.005078   0.014447  -0.000189  -0.000223
    21  H   -0.034096  -0.005078   0.606617   0.000036  -0.004156  -0.000181
    22  Br  -0.004367   0.014447   0.000036  35.061404   0.000000  -0.000000
    23  H    0.004396  -0.000189  -0.004156   0.000000   0.633678  -0.005499
    24  H    0.005235  -0.000223  -0.000181  -0.000000  -0.005499   0.642271
 Mulliken charges:
               1
     1  C    0.027571
     2  C   -0.040095
     3  C   -0.083573
     4  C    0.025557
     5  C   -0.077356
     6  C   -0.113579
     7  C    0.111957
     8  H    0.026459
     9  H    0.058504
    10  C   -0.034373
    11  H    0.056211
    12  H    0.074473
    13  C    0.062725
    14  O   -0.206287
    15  H    0.088443
    16  H    0.078549
    17  C    0.121596
    18  O   -0.142358
    19  N   -0.115732
    20  H    0.148784
    21  H    0.042389
    22  Br  -0.144918
    23  H    0.023130
    24  H    0.011924
 Sum of Mulliken charges =  -0.00000
 Mulliken charges with hydrogens summed into heavy atoms:
               1
     1  C    0.069960
     2  C    0.038454
     3  C   -0.083573
     4  C    0.114000
     5  C   -0.054226
     6  C   -0.101654
     7  C    0.196920
    10  C    0.096311
    13  C    0.062725
    14  O   -0.206287
    17  C    0.121596
    18  O   -0.142358
    19  N    0.033052
    22  Br  -0.144918
 Electronic spatial extent (au):  <R**2>=           3124.2525
 Charge=             -0.0000 electrons
 Dipole moment (field-independent basis, Debye):
    X=             -3.9767    Y=              0.2434    Z=             -0.7810  Tot=              4.0600
 Quadrupole moment (field-independent basis, Debye-Ang):
   XX=           -103.9091   YY=            -94.4165   ZZ=            -88.4537
   XY=             -4.2732   XZ=             -6.6432   YZ=             -1.3778
 Traceless Quadrupole moment (field-independent basis, Debye-Ang):
   XX=             -8.3160   YY=              1.1766   ZZ=              7.1394
   XY=             -4.2732   XZ=             -6.6432   YZ=             -1.3778
 Octapole moment (field-independent basis, Debye-Ang**2):
  XXX=             66.4708  YYY=            -15.2912  ZZZ=            -24.9056  XYY=             -8.1292
  XXY=             18.0388  XXZ=             -0.8078  XZZ=             17.2710  YZZ=             -1.1890
  YYZ=            -21.7297  XYZ=              1.5832
 Hexadecapole moment (field-independent basis, Debye-Ang**3):
 XXXX=          -2078.7821 YYYY=          -1218.4413 ZZZZ=           -624.0867 XXXY=            -25.3789
 XXXZ=           -109.5523 YYYX=            -27.1699 YYYZ=             -6.7730 ZZZX=            -61.7434
 ZZZY=              1.0769 XXYY=           -560.9727 XXZZ=           -446.6088 YYZZ=           -313.3337
 XXYZ=             -8.7677 YYXZ=            -45.8381 ZZXY=            -10.1399
 N-N= 1.239925709874D+03 E-N=-1.000844699704D+04  KE= 3.156864480950D+03
   1 Symmetry operations used in ECPInt.
 ECPInt:  NShTT=    7260 NPrTT=   28205 LenC2=    7045 LenP2D=   20152.
 LDataN:  DoStor=T MaxTD1= 5 Len=  102
 D1PCM: PCM CHGder 1st derivatives, ID1Alg=3 FixD1E=F DoIter=F DoCFld=F I1PDM=0.
 Calling FoFJK, ICntrl=      2127 FMM=F ISym2X=0 I1Cent= 0 IOpClX= 0 NMat=1 NMatS=1 NMatT=0.
 ***** Axes restored to original set *****
 -------------------------------------------------------------------
 Center     Atomic                   Forces (Hartrees/Bohr)
 Number     Number              X              Y              Z
 -------------------------------------------------------------------
      1        6          -0.000006283    0.000019994    0.000004074
      2        6           0.000035014    0.000027973   -0.000032753
      3        6           0.000015697   -0.000002495   -0.000001916
      4        6           0.000000418   -0.000000997   -0.000004533
      5        6           0.000004342    0.000007318    0.000001535
      6        6          -0.000003591   -0.000006129   -0.000004203
      7        6           0.000001811    0.000021461    0.000005611
      8        1          -0.000006375    0.000003434   -0.000004992
      9        1          -0.000008306    0.000000912   -0.000003838
     10        6          -0.000007567   -0.000049713    0.000002053
     11        1           0.000022696    0.000019414   -0.000013771
     12        1          -0.000001697    0.000005928   -0.000001314
     13        6          -0.000004880    0.000006324    0.000007956
     14        8           0.000001578   -0.000003746    0.000011076
     15        1           0.000010762    0.000004762    0.000000775
     16        1          -0.000014597   -0.000033220    0.000025459
     17        6          -0.000033314   -0.000000079   -0.000002401
     18        8           0.000001216    0.000007276    0.000005161
     19        7          -0.000048125   -0.000005249    0.000030890
     20        1           0.000025065   -0.000003185   -0.000016549
     21        1          -0.000003449   -0.000012344   -0.000003790
     22       35           0.000023011   -0.000012589   -0.000014481
     23        1          -0.000001387    0.000003665    0.000009596
     24        1          -0.000002036    0.000001286    0.000000357
 -------------------------------------------------------------------
 Cartesian Forces:  Max     0.000049713 RMS     0.000015472

 GradGradGradGradGradGradGradGradGradGradGradGradGradGradGradGradGradGrad
 Berny optimization.
 FormGI is forming the generalized inverse of G from B-inverse, IUseBI=4.
 Internal  Forces:  Max     0.000067479 RMS     0.000013791
 Search for a saddle point.
 Step number   1 out of a maximum of   50
 All quantities printed in internal units (Hartrees-Bohrs-Radians)
 Swapping is turned off.
 Second derivative matrix not updated -- first step.
 ITU=  0
     Eigenvalues ---   -0.02147   0.00174   0.00241   0.00307   0.00680
     Eigenvalues ---    0.00982   0.01042   0.01334   0.01590   0.02016
     Eigenvalues ---    0.02111   0.02745   0.02840   0.03219   0.03372
     Eigenvalues ---    0.03457   0.03734   0.04210   0.04408   0.04701
     Eigenvalues ---    0.06363   0.07410   0.08089   0.08591   0.08763
     Eigenvalues ---    0.09308   0.09670   0.09930   0.10177   0.11049
     Eigenvalues ---    0.11281   0.11514   0.11752   0.13274   0.13528
     Eigenvalues ---    0.15083   0.15260   0.15941   0.19056   0.19683
     Eigenvalues ---    0.21166   0.22847   0.24619   0.25795   0.25898
     Eigenvalues ---    0.26078   0.26404   0.26998   0.27326   0.27716
     Eigenvalues ---    0.27969   0.28567   0.33858   0.35593   0.36099
     Eigenvalues ---    0.39232   0.40416   0.40460   0.46634   0.50276
     Eigenvalues ---    0.51881   0.54296   0.75106   0.75376   0.89300
     Eigenvalues ---    0.96320
 Eigenvectors required to have negative eigenvalues:
                          D48       D52       D50       D41       D34
   1                    0.30859   0.29645   0.28351   0.23569   0.22821
                          D39       D49       D40       D53       D32
   1                    0.21928   0.21706   0.21157   0.20492   0.19912
 RFO step:  Lambda0=5.401621956D-08 Lambda=-2.73987173D-07.
 Linear search not attempted -- option 19 set.
 Iteration  1 RMS(Cart)=  0.00130832 RMS(Int)=  0.00000060
 Iteration  2 RMS(Cart)=  0.00000182 RMS(Int)=  0.00000001
 Iteration  3 RMS(Cart)=  0.00000000 RMS(Int)=  0.00000001
 Variable       Old X    -DE/DX   Delta X   Delta X   Delta X     New X
                                 (Linear)    (Quad)   (Total)
    R1        2.60611  -0.00001   0.00000   0.00000   0.00000   2.60612
    R2        2.58307  -0.00001   0.00000  -0.00002  -0.00002   2.58305
    R3        2.05430   0.00001   0.00000   0.00005   0.00005   2.05435
    R4        2.53036   0.00001   0.00000  -0.00002  -0.00002   2.53035
    R5        2.06593   0.00004   0.00000   0.00020   0.00020   2.06613
    R6        2.78586  -0.00000   0.00000  -0.00011  -0.00011   2.78574
    R7        2.61781   0.00000   0.00000   0.00003   0.00003   2.61784
    R8        2.83406   0.00001   0.00000   0.00001   0.00001   2.83407
    R9        2.58111  -0.00000   0.00000  -0.00002  -0.00002   2.58109
   R10        2.84932  -0.00001   0.00000  -0.00007  -0.00007   2.84925
   R11        2.06969  -0.00001   0.00000   0.00000   0.00000   2.06969
   R12        2.68673  -0.00001   0.00000  -0.00002  -0.00002   2.68671
   R13        2.05590   0.00000   0.00000   0.00001   0.00001   2.05591
   R14        2.05779  -0.00000   0.00000  -0.00000  -0.00000   2.05779
   R15        2.07895  -0.00000   0.00000  -0.00001  -0.00001   2.07894
   R16        2.08041   0.00001   0.00000   0.00004   0.00004   2.08045
   R17        2.90469  -0.00001   0.00000  -0.00006  -0.00006   2.90463
   R18        2.07628   0.00003   0.00000   0.00016   0.00016   2.07644
   R19        2.08732   0.00000   0.00000   0.00005   0.00005   2.08738
   R20        2.86424   0.00001   0.00000  -0.00003  -0.00003   2.86421
   R21        2.28120   0.00000   0.00000   0.00004   0.00004   2.28124
   R22        2.23618  -0.00000   0.00000  -0.00000  -0.00000   2.23618
   R23        3.74817   0.00001   0.00000   0.00009   0.00009   3.74826
   R24        1.91307   0.00003   0.00000   0.00013   0.00013   1.91320
    A1        1.87992   0.00000   0.00000   0.00001   0.00001   1.87992
    A2        2.28673   0.00000   0.00000  -0.00000  -0.00000   2.28672
    A3        2.11622  -0.00000   0.00000  -0.00001  -0.00001   2.11621
    A4        2.07362  -0.00002   0.00000  -0.00010  -0.00010   2.07352
    A5        2.27403   0.00005   0.00000   0.00020   0.00020   2.27423
    A6        1.93521  -0.00002   0.00000  -0.00010  -0.00010   1.93512
    A7        2.28085  -0.00001   0.00000  -0.00007  -0.00007   2.28078
    A8        1.86953  -0.00001   0.00000  -0.00002  -0.00002   1.86951
    A9        2.13098   0.00002   0.00000   0.00009   0.00009   2.13107
   A10        2.27573   0.00001   0.00000   0.00009   0.00009   2.27582
   A11        2.02743  -0.00001   0.00000  -0.00002  -0.00002   2.02742
   A12        1.97724  -0.00001   0.00000  -0.00010  -0.00010   1.97715
   A13        1.86884  -0.00000   0.00000  -0.00001  -0.00001   1.86882
   A14        2.19706   0.00000   0.00000   0.00002   0.00002   2.19708
   A15        2.21724  -0.00000   0.00000  -0.00000  -0.00000   2.21724
   A16        1.87773   0.00001   0.00000   0.00001   0.00001   1.87774
   A17        2.19072  -0.00000   0.00000  -0.00000  -0.00000   2.19072
   A18        2.21473  -0.00000   0.00000  -0.00001  -0.00001   2.21472
   A19        1.90925   0.00001   0.00000  -0.00002  -0.00002   1.90922
   A20        1.92289  -0.00000   0.00000  -0.00007  -0.00007   1.92282
   A21        1.98184  -0.00002   0.00000   0.00010   0.00010   1.98194
   A22        1.85478  -0.00000   0.00000  -0.00002  -0.00002   1.85475
   A23        1.90858   0.00001   0.00000   0.00001   0.00001   1.90858
   A24        1.88208   0.00001   0.00000  -0.00000  -0.00000   1.88208
   A25        1.93640  -0.00000   0.00000  -0.00014  -0.00014   1.93627
   A26        1.90096  -0.00002   0.00000  -0.00008  -0.00008   1.90088
   A27        2.01814   0.00004   0.00000   0.00060   0.00060   2.01874
   A28        1.87472   0.00001   0.00000  -0.00002  -0.00002   1.87469
   A29        1.86828  -0.00002   0.00000  -0.00021  -0.00021   1.86806
   A30        1.85898  -0.00001   0.00000  -0.00019  -0.00019   1.85879
   A31        2.03868   0.00001   0.00000   0.00026   0.00026   2.03894
   A32        2.09611  -0.00002   0.00000  -0.00018  -0.00018   2.09593
   A33        2.14151   0.00000   0.00000  -0.00011  -0.00011   2.14140
   A34        2.18093  -0.00004   0.00000  -0.00003  -0.00003   2.18090
   A35        2.04529   0.00007   0.00000   0.00016   0.00016   2.04545
   A36        2.05533  -0.00003   0.00000  -0.00011  -0.00011   2.05522
   A37        1.92846   0.00001   0.00000   0.00002   0.00002   1.92848
   A38        2.18313  -0.00000   0.00000  -0.00001  -0.00001   2.18312
   A39        2.16733  -0.00000   0.00000   0.00001   0.00001   2.16734
    D1       -0.01164   0.00000   0.00000   0.00010   0.00010  -0.01154
    D2        3.12043   0.00000   0.00000   0.00016   0.00016   3.12058
    D3       -3.12547   0.00000   0.00000   0.00023   0.00023  -3.12523
    D4        0.00660   0.00000   0.00000   0.00029   0.00029   0.00689
    D5        0.02224  -0.00000   0.00000  -0.00001  -0.00001   0.02222
    D6        3.06800  -0.00000   0.00000   0.00012   0.00012   3.06812
    D7        3.13933  -0.00000   0.00000  -0.00013  -0.00013   3.13919
    D8       -0.09809  -0.00000   0.00000   0.00000   0.00000  -0.09809
    D9        3.00804  -0.00000   0.00000  -0.00000  -0.00000   3.00804
   D10       -0.04708   0.00001   0.00000   0.00031   0.00031  -0.04677
   D11       -0.10361   0.00001   0.00000  -0.00005  -0.00005  -0.10366
   D12        3.12445   0.00001   0.00000   0.00027   0.00027   3.12472
   D13        2.78692  -0.00002   0.00000  -0.00206  -0.00206   2.78487
   D14       -0.41747   0.00000   0.00000  -0.00180  -0.00180  -0.41927
   D15       -0.32659  -0.00001   0.00000  -0.00210  -0.00210  -0.32869
   D16        2.75220   0.00001   0.00000  -0.00184  -0.00184   2.75036
   D17       -3.06045   0.00000   0.00000   0.00010   0.00010  -3.06035
   D18        0.07685  -0.00000   0.00000   0.00011   0.00011   0.07696
   D19        0.01583   0.00000   0.00000   0.00013   0.00013   0.01596
   D20       -3.13005   0.00000   0.00000   0.00014   0.00014  -3.12991
   D21        3.13395   0.00000   0.00000   0.00070   0.00070   3.13465
   D22       -1.11640   0.00000   0.00000   0.00061   0.00061  -1.11579
   D23        0.99667  -0.00000   0.00000   0.00063   0.00063   0.99731
   D24        0.06606   0.00000   0.00000   0.00066   0.00066   0.06672
   D25        2.09888   0.00000   0.00000   0.00058   0.00058   2.09946
   D26       -2.07123  -0.00000   0.00000   0.00060   0.00060  -2.07062
   D27       -0.02375  -0.00000   0.00000  -0.00008  -0.00008  -0.02382
   D28       -3.07055  -0.00000   0.00000  -0.00021  -0.00021  -3.07076
   D29        3.05939  -0.00000   0.00000  -0.00005  -0.00005   3.05934
   D30        0.01258   0.00000   0.00000  -0.00019  -0.00019   0.01240
   D31        2.19430   0.00001   0.00000  -0.00052  -0.00052   2.19378
   D32       -1.06971   0.00001   0.00000  -0.00077  -0.00077  -1.07048
   D33       -1.03178   0.00001   0.00000  -0.00083  -0.00083  -1.03261
   D34        1.98739   0.00000   0.00000  -0.00107  -0.00107   1.98631
   D35       -0.00262  -0.00001   0.00000  -0.00014  -0.00014  -0.00277
   D36       -3.13986  -0.00000   0.00000  -0.00015  -0.00015  -3.14001
   D37       -3.13454  -0.00000   0.00000  -0.00021  -0.00021  -3.13475
   D38        0.01141  -0.00000   0.00000  -0.00021  -0.00021   0.01120
   D39        3.13463   0.00001   0.00000  -0.00207  -0.00207   3.13256
   D40       -1.08854   0.00000   0.00000  -0.00223  -0.00223  -1.09077
   D41        1.00314   0.00001   0.00000  -0.00213  -0.00213   1.00101
   D42        0.99698   0.00000   0.00000  -0.00211  -0.00211   0.99486
   D43        3.05699  -0.00000   0.00000  -0.00227  -0.00227   3.05472
   D44       -1.13451   0.00000   0.00000  -0.00218  -0.00218  -1.13669
   D45       -1.01274  -0.00000   0.00000  -0.00209  -0.00209  -1.01482
   D46        1.04727  -0.00001   0.00000  -0.00225  -0.00225   1.04503
   D47        3.13896  -0.00000   0.00000  -0.00215  -0.00215   3.13681
   D48       -1.01786   0.00001   0.00000   0.00163   0.00163  -1.01623
   D49        2.24961   0.00002   0.00000   0.00189   0.00189   2.25150
   D50        3.09792   0.00000   0.00000   0.00155   0.00155   3.09947
   D51        0.08221   0.00001   0.00000   0.00181   0.00181   0.08402
   D52        1.09659   0.00001   0.00000   0.00177   0.00177   1.09836
   D53       -1.91912   0.00001   0.00000   0.00203   0.00203  -1.91709
         Item               Value     Threshold  Converged?
 Maximum Force            0.000067     0.000450     YES
 RMS     Force            0.000014     0.000300     YES
 Maximum Displacement     0.005283     0.001800     NO 
 RMS     Displacement     0.001308     0.001200     NO 
 Predicted change in Energy=-1.099854D-07
 GradGradGradGradGradGradGradGradGradGradGradGradGradGradGradGradGradGrad

                          Input orientation:                          
 ---------------------------------------------------------------------
 Center     Atomic      Atomic             Coordinates (Angstroms)
 Number     Number       Type             X           Y           Z
 ---------------------------------------------------------------------
      1          6           0       -2.055295   -2.095466   -0.335959
      2          6           0        0.388498   -0.583406    1.612942
      3          6           0       -2.057466    0.124102   -0.674672
      4          6           0       -0.282110    0.574683    1.567767
      5          6           0       -3.062182   -1.568883    0.445577
      6          6           0       -3.066139   -0.163541    0.230261
      7          6           0       -1.551137    1.438783   -1.188891
      8          1           0       -0.727868    1.261496   -1.896760
      9          1           0       -2.341016    1.953749   -1.757171
     10          6           0       -1.073302    2.389406   -0.079589
     11          1           0       -0.703819    3.333384   -0.503565
     12          1           0       -1.928438    2.633616    0.575565
     13          6           0        0.019253    1.849837    0.821780
     14          8           0        1.035544    2.459544    1.051340
     15          1           0       -1.153646    0.654043    2.226298
     16          1           0        0.065374   -1.352008    2.320228
     17          6           0        1.575041   -1.028202    0.859686
     18          8           0        2.297934   -1.905143    1.189364
     19          7           0       -1.473183   -1.062384   -1.015873
     20          1           0       -0.665012   -1.145421   -1.619993
     21          1           0       -1.724579   -3.121309   -0.477723
     22         35           0        1.920785   -0.153195   -0.886472
     23          1           0       -3.728265   -2.134427    1.093737
     24          1           0       -3.731470    0.566243    0.689094
 ---------------------------------------------------------------------
                    Distance matrix (angstroms):
                    1          2          3          4          5
     1  C    0.000000
     2  C    3.472270   0.000000
     3  C    2.245264   3.422935   0.000000
     4  C    3.728009   1.339002   2.895418   0.000000
     5  C    1.379098   3.773738   2.265084   3.685511   0.000000
     6  C    2.252720   3.744678   1.385302   3.175644   1.421747
     7  C    3.670502   3.962537   1.499726   3.155355   3.741764
     8  H    3.932856   4.119216   2.134244   3.559966   4.352770
     9  H    4.300886   5.024446   2.144718   4.146822   4.216765
    10  C    4.598273   3.720098   2.540533   2.575458   4.460885
    11  H    5.597052   4.584103   3.487282   3.475440   5.522225
    12  H    4.817799   4.097996   2.806672   2.816748   4.354684
    13  C    4.605380   2.585140   3.087118   1.507758   4.617837
    14  O    5.676795   3.161267   4.242654   2.357034   5.778108
    15  H    3.864961   2.070192   3.084372   1.095234   3.428538
    16  H    3.479267   1.093349   3.956612   2.097399   3.652802
    17  C    3.968370   1.474151   4.108183   2.553356   4.686968
    18  O    4.616647   2.360583   5.153830   3.598520   5.421912
    19  N    1.366892   3.256677   1.365853   3.282353   2.217497
    20  H    2.117597   3.446391   2.108139   3.642415   3.192542
    21  H    1.087117   3.908571   3.268378   4.463755   2.247597
    22  Br   4.459225   2.963115   3.993524   3.377253   5.348690
    23  H    2.200995   4.429783   3.319607   4.409078   1.087943
    24  H    3.308322   4.375994   2.204004   3.559526   2.250780
                    6          7          8          9         10
     6  C    0.000000
     7  C    2.622339   0.000000
     8  H    3.467342   1.100128   0.000000
     9  H    2.993093   1.100927   1.760951   0.000000
    10  C    3.253451   1.537064   2.166476   2.147366   0.000000
    11  H    4.283403   2.185666   2.496856   2.480996   1.098803
    12  H    3.039356   2.164091   3.071884   2.464569   1.104592
    13  C    3.731385   2.584162   2.880068   3.497522   1.515677
    14  O    4.937463   3.570925   3.638163   4.420941   2.393981
    15  H    2.882748   3.526660   4.189259   4.355124   2.887049
    16  H    3.948012   4.766083   5.024204   5.774421   4.588452
    17  C    4.762811   4.478356   4.259589   5.574538   4.424477
    18  O    5.720693   5.626125   5.357913   6.715130   5.605231
    19  N    2.213205   2.508356   2.594586   3.224859   3.598804
    20  H    3.186368   2.765714   2.423593   3.525998   3.877441
    21  H    3.324067   4.618472   4.713394   5.270028   5.563332
    22  Br   5.110441   3.831461   3.168184   4.833247   4.010042
    23  H    2.251310   4.766352   5.429342   5.173521   5.374997
    24  H    1.088934   3.006992   4.023884   3.137315   3.313707
                   11         12         13         14         15
    11  H    0.000000
    12  H    1.775919   0.000000
    13  C    2.116668   2.113867   0.000000
    14  O    2.491326   3.006967   1.207181   0.000000
    15  H    3.851411   2.691455   2.185929   3.071305   0.000000
    16  H    5.524343   4.785848   3.535433   4.132704   2.349271
    17  C    5.106377   5.075825   3.271853   3.534425   3.484725
    18  O    6.270461   6.232118   4.407650   4.545676   4.420188
    19  N    4.491899   4.049735   3.753048   4.792813   3.682376
    20  H    4.616017   4.549489   3.924544   4.798300   4.274434
    21  H    6.534959   5.854071   5.426044   6.411103   4.678779
    22  Br   4.380798   4.971960   3.247474   3.371227   4.448943
    23  H    6.449466   5.122707   5.476515   6.618175   3.960672
    24  H    4.271554   2.745514   3.966503   5.142006   3.002645
                   16         17         18         19         20
    16  H    0.000000
    17  C    2.125353   0.000000
    18  O    2.563032   1.183337   0.000000
    19  N    3.685189   3.579185   4.449116   0.000000
    20  H    4.012666   3.343709   4.153157   1.012422   0.000000
    21  H    3.763362   4.130044   4.520935   2.142890   2.516267
    22  Br   3.893922   1.983493   2.742381   3.516019   2.865120
    23  H    4.063024   5.422506   6.031317   3.268811   4.210224
    24  H    4.555910   5.543502   6.535421   3.264843   4.202956
                   21         22         23         24
    21  H    0.000000
    22  Br   4.718628   0.000000
    23  H    2.730967   6.305416   0.000000
    24  H    4.357421   5.911682   2.730818   0.000000
 Stoichiometry    C10H10BrNO2
 Framework group  C1[X(C10H10BrNO2)]
 Deg. of freedom    66
 Full point group                 C1      NOp   1
 Largest Abelian subgroup         C1      NOp   1
 Largest concise Abelian subgroup C1      NOp   1
                         Standard orientation:                         
 ---------------------------------------------------------------------
 Center     Atomic      Atomic             Coordinates (Angstroms)
 Number     Number       Type             X           Y           Z
 ---------------------------------------------------------------------
      1          6           0       -2.052395   -2.097452   -0.334695
      2          6           0        0.389449   -0.581214    1.613403
      3          6           0       -2.057223    0.121897   -0.674809
      4          6           0       -0.282553    0.576036    1.567455
      5          6           0       -3.059966   -1.571591    0.446446
      6          6           0       -3.065605   -0.166390    0.230242
      7          6           0       -1.552448    1.436863   -1.189827
      8          1           0       -0.728921    1.260123   -1.897532
      9          1           0       -2.342912    1.950517   -1.758481
     10          6           0       -1.075830    2.388763   -0.081095
     11          1           0       -0.707459    3.332918   -0.505644
     12          1           0       -1.931301    2.632355    0.573851
     13          6           0        0.017318    1.851082    0.820682
     14          8           0        1.032858    2.462159    1.049920
     15          1           0       -1.154226    0.654760    2.225881
     16          1           0        0.067208   -1.349759    2.321155
     17          6           0        1.576575   -1.025053    0.860503
     18          8           0        2.300505   -1.900913    1.190778
     19          7           0       -1.471487   -1.064098   -1.015225
     20          1           0       -0.663179   -1.146541   -1.619242
     21          1           0       -1.720433   -3.122985   -0.475791
     22         35           0        1.921373   -0.150733   -0.886187
     23          1           0       -3.725407   -2.137529    1.094922
     24          1           0       -3.731845    0.562880    0.688573
 ---------------------------------------------------------------------
 Rotational constants (GHZ):           0.7267652           0.4565119           0.3838247
 Standard basis: def2SVP (5D, 7F)
 There are   280 symmetry adapted cartesian basis functions of A   symmetry.
 There are   264 symmetry adapted basis functions of A   symmetry.
   264 basis functions,   475 primitive gaussians,   280 cartesian basis functions
    64 alpha electrons       64 beta electrons
       nuclear repulsion energy      1239.9673123414 Hartrees.
 NAtoms=   24 NActive=   24 NUniq=   24 SFac= 1.00D+00 NAtFMM=   60 NAOKFM=F Big=F
 Integral buffers will be    131072 words long.
 Raffenetti 2 integral format.
 Two-electron integral symmetry is turned on.
 Nuclear repulsion after empirical dispersion term =     1239.9468793096 Hartrees.
 ------------------------------------------------------------------------------
 Polarizable Continuum Model (PCM)
 =================================
 Model                : PCM.
 Atomic radii         : UFF (Universal Force Field).
 Polarization charges : Total charges.
 Charge compensation  : None.
 Solution method      : On-the-fly selection.
 Cavity type          : Scaled VdW (van der Waals Surface) (Alpha=1.100).
 Cavity algorithm     : GePol (No added spheres)
                        Default sphere list used, NSphG=   24.
                        Lebedev-Laikov grids with approx.  5.0 points / Ang**2.
                        Smoothing algorithm: York/Karplus (Gamma=1.0000).
                        Polarization charges: spherical gaussians, with
                                              point-specific exponents (IZeta= 3).
                        Self-potential: point-specific (ISelfS= 7).
                        Self-field    : sphere-specific E.n sum rule (ISelfD= 2).
 1st derivatives      : Analytical E(r).r(x)/FMM algorithm (CHGder, D1EAlg=3).
                        Cavity 1st derivative terms included.
 Solvent              : Toluene, Eps=   2.374100 Eps(inf)=   2.238315
 ------------------------------------------------------------------------------
 One-electron integrals computed using PRISM.
   1 Symmetry operations used in ECPInt.
 ECPInt:  NShTT=    7260 NPrTT=   28205 LenC2=    7044 LenP2D=   20151.
 LDataN:  DoStor=T MaxTD1= 4 Len=   56
 NBasis=   264 RedAO= T EigKep=  6.60D-04  NBF=   264
 NBsUse=   264 1.00D-06 EigRej= -1.00D+00 NBFU=   264
 Initial guess from the checkpoint file:  "imda-2_1_opt_sqm_re.chk"
 B after Tr=     0.000000   -0.000000    0.000000
         Rot=    1.000000    0.000406   -0.000008   -0.000487 Ang=   0.07 deg.
 Requested convergence on RMS density matrix=1.00D-08 within 128 cycles.
 Requested convergence on MAX density matrix=1.00D-06.
 Requested convergence on             energy=1.00D-06.
 No special actions if energy rises.
 Inv3:  Mode=1 IEnd=    11454348.
 Iteration    1 A*A^-1 deviation from unit magnitude is 2.89D-15 for    566.
 Iteration    1 A*A^-1 deviation from orthogonality  is 1.87D-15 for   1591    348.
 Iteration    1 A^-1*A deviation from unit magnitude is 3.11D-15 for    753.
 Iteration    1 A^-1*A deviation from orthogonality  is 1.34D-15 for   1172    760.
 Error on total polarization charges =  0.00754
 SCF Done:  E(RwB97XD) =  -3165.54154263     A.U. after    9 cycles
            NFock=  9  Conv=0.86D-08     -V/T= 2.0027
   1 Symmetry operations used in ECPInt.
 ECPInt:  NShTT=    7260 NPrTT=   28205 LenC2=    7044 LenP2D=   20151.
 LDataN:  DoStor=T MaxTD1= 5 Len=  102
 D1PCM: PCM CHGder 1st derivatives, ID1Alg=3 FixD1E=F DoIter=F DoCFld=F I1PDM=0.
 Calling FoFJK, ICntrl=      2127 FMM=F ISym2X=0 I1Cent= 0 IOpClX= 0 NMat=1 NMatS=1 NMatT=0.
 ***** Axes restored to original set *****
 -------------------------------------------------------------------
 Center     Atomic                   Forces (Hartrees/Bohr)
 Number     Number              X              Y              Z
 -------------------------------------------------------------------
      1        6           0.000002368   -0.000001547    0.000005977
      2        6          -0.000035730   -0.000044984    0.000008167
      3        6          -0.000015464   -0.000001845   -0.000002036
      4        6          -0.000016933    0.000003908   -0.000005560
      5        6          -0.000009369    0.000009181    0.000000228
      6        6          -0.000003163   -0.000007861   -0.000001115
      7        6           0.000013495   -0.000007475   -0.000007799
      8        1           0.000004435   -0.000003832   -0.000001412
      9        1           0.000008757   -0.000002333    0.000002723
     10        6          -0.000011441    0.000024952   -0.000021211
     11        1          -0.000015308   -0.000012375    0.000018292
     12        1           0.000014332    0.000004341    0.000004932
     13        6           0.000044643   -0.000023457   -0.000010580
     14        8           0.000007187   -0.000021028   -0.000020471
     15        1           0.000013240    0.000001316   -0.000000066
     16        1           0.000016992    0.000025025   -0.000008030
     17        6           0.000030197    0.000004924    0.000022105
     18        8          -0.000012456   -0.000005552   -0.000010547
     19        7          -0.000012731   -0.000005569   -0.000019176
     20        1          -0.000025855    0.000001450    0.000026966
     21        1          -0.000005629    0.000006068    0.000002725
     22       35           0.000009069    0.000047741    0.000010479
     23        1          -0.000002760    0.000004393    0.000000973
     24        1           0.000002123    0.000004560    0.000004437
 -------------------------------------------------------------------
 Cartesian Forces:  Max     0.000047741 RMS     0.000015749

 GradGradGradGradGradGradGradGradGradGradGradGradGradGradGradGradGradGrad
 Berny optimization.
 FormGI is forming the generalized inverse of G from B-inverse, IUseBI=4.
 Internal  Forces:  Max     0.000151576 RMS     0.000035931
 Search for a saddle point.
 Step number   2 out of a maximum of   50
 All quantities printed in internal units (Hartrees-Bohrs-Radians)
 Swapping is turned off.
 Update second derivatives using D2CorX and points    1    2
 ITU=  0  0
     Eigenvalues ---   -0.02936   0.00017   0.00235   0.00664   0.00731
     Eigenvalues ---    0.00988   0.01043   0.01340   0.01593   0.02086
     Eigenvalues ---    0.02468   0.02746   0.02872   0.03219   0.03374
     Eigenvalues ---    0.03459   0.03803   0.04211   0.04437   0.04981
     Eigenvalues ---    0.06413   0.07410   0.08090   0.08591   0.08792
     Eigenvalues ---    0.09308   0.09670   0.09965   0.10182   0.11063
     Eigenvalues ---    0.11280   0.11540   0.11758   0.13369   0.13617
     Eigenvalues ---    0.15101   0.15323   0.16169   0.19370   0.19711
     Eigenvalues ---    0.21166   0.22886   0.24623   0.25798   0.25901
     Eigenvalues ---    0.26080   0.26405   0.27028   0.27341   0.27720
     Eigenvalues ---    0.27985   0.28575   0.33860   0.35598   0.36100
     Eigenvalues ---    0.39248   0.40416   0.40462   0.46634   0.50276
     Eigenvalues ---    0.51898   0.54317   0.75109   0.75386   0.89302
     Eigenvalues ---    0.96320
 Eigenvectors required to have negative eigenvalues:
                          D48       D52       D50       D49       D53
   1                    0.37826   0.37821   0.34629   0.31673   0.31668
                          D51       D11       D12       D34       D21
   1                    0.28476   0.16669   0.15974   0.13814   0.13709
 RFO step:  Lambda0=1.045010126D-06 Lambda=-2.45934684D-06.
 Linear search not attempted -- option 19 set.
 Iteration  1 RMS(Cart)=  0.01966878 RMS(Int)=  0.00007420
 Iteration  2 RMS(Cart)=  0.00020475 RMS(Int)=  0.00000073
 Iteration  3 RMS(Cart)=  0.00000002 RMS(Int)=  0.00000073
 Variable       Old X    -DE/DX   Delta X   Delta X   Delta X     New X
                                 (Linear)    (Quad)   (Total)
    R1        2.60612  -0.00000   0.00000  -0.00013  -0.00013   2.60599
    R2        2.58305  -0.00000   0.00000   0.00002   0.00002   2.58307
    R3        2.05435  -0.00001   0.00000   0.00005   0.00005   2.05441
    R4        2.53035  -0.00003   0.00000  -0.00025  -0.00025   2.53010
    R5        2.06613  -0.00003   0.00000   0.00092   0.00092   2.06705
    R6        2.78574  -0.00001   0.00000   0.00024   0.00024   2.78598
    R7        2.61784   0.00001   0.00000  -0.00013  -0.00013   2.61771
    R8        2.83407   0.00002   0.00000   0.00018   0.00018   2.83426
    R9        2.58109  -0.00001   0.00000   0.00008   0.00008   2.58117
   R10        2.84925  -0.00003   0.00000  -0.00022  -0.00022   2.84903
   R11        2.06969  -0.00001   0.00000   0.00061   0.00061   2.07030
   R12        2.68671  -0.00001   0.00000   0.00017   0.00017   2.68688
   R13        2.05591  -0.00000   0.00000   0.00002   0.00002   2.05594
   R14        2.05779   0.00000   0.00000  -0.00001  -0.00001   2.05778
   R15        2.07894   0.00000   0.00000  -0.00003  -0.00003   2.07891
   R16        2.08045  -0.00001   0.00000   0.00005   0.00005   2.08050
   R17        2.90463   0.00002   0.00000  -0.00014  -0.00014   2.90448
   R18        2.07644  -0.00002   0.00000   0.00012   0.00012   2.07655
   R19        2.08738  -0.00000   0.00000   0.00012   0.00012   2.08750
   R20        2.86421   0.00003   0.00000  -0.00020  -0.00020   2.86401
   R21        2.28124  -0.00001   0.00000  -0.00008  -0.00008   2.28116
   R22        2.23618  -0.00001   0.00000   0.00029   0.00029   2.23647
   R23        3.74826   0.00001   0.00000  -0.00152  -0.00152   3.74674
   R24        1.91320  -0.00003   0.00000   0.00032   0.00032   1.91352
    A1        1.87992   0.00000   0.00000  -0.00010  -0.00010   1.87983
    A2        2.28672   0.00000   0.00000   0.00012   0.00012   2.28684
    A3        2.11621  -0.00000   0.00000  -0.00001  -0.00001   2.11620
    A4        2.07352   0.00007   0.00000  -0.00178  -0.00178   2.07174
    A5        2.27423  -0.00014   0.00000   0.00366   0.00366   2.27789
    A6        1.93512   0.00007   0.00000  -0.00188  -0.00188   1.93323
    A7        2.28078  -0.00003   0.00000   0.00034   0.00034   2.28112
    A8        1.86951  -0.00001   0.00000  -0.00011  -0.00011   1.86940
    A9        2.13107   0.00005   0.00000  -0.00020  -0.00020   2.13087
   A10        2.27582  -0.00015   0.00000   0.00249   0.00249   2.27831
   A11        2.02742   0.00007   0.00000  -0.00101  -0.00101   2.02641
   A12        1.97715   0.00008   0.00000  -0.00136  -0.00136   1.97578
   A13        1.86882  -0.00000   0.00000   0.00004   0.00004   1.86886
   A14        2.19708   0.00000   0.00000   0.00003   0.00003   2.19710
   A15        2.21724   0.00000   0.00000  -0.00007  -0.00007   2.21717
   A16        1.87774   0.00001   0.00000   0.00004   0.00004   1.87778
   A17        2.19072  -0.00000   0.00000   0.00024   0.00024   2.19096
   A18        2.21472  -0.00000   0.00000  -0.00027  -0.00027   2.21445
   A19        1.90922   0.00002   0.00000   0.00007   0.00007   1.90929
   A20        1.92282  -0.00003   0.00000   0.00053   0.00053   1.92335
   A21        1.98194   0.00001   0.00000  -0.00100  -0.00100   1.98094
   A22        1.85475   0.00000   0.00000  -0.00018  -0.00018   1.85457
   A23        1.90858  -0.00000   0.00000   0.00024   0.00024   1.90882
   A24        1.88208  -0.00000   0.00000   0.00039   0.00039   1.88247
   A25        1.93627   0.00001   0.00000   0.00074   0.00074   1.93701
   A26        1.90088  -0.00004   0.00000  -0.00021  -0.00021   1.90067
   A27        2.01874   0.00007   0.00000  -0.00200  -0.00200   2.01675
   A28        1.87469   0.00000   0.00000   0.00033   0.00033   1.87502
   A29        1.86806  -0.00005   0.00000   0.00085   0.00085   1.86891
   A30        1.85879  -0.00000   0.00000   0.00043   0.00043   1.85921
   A31        2.03894   0.00005   0.00000  -0.00150  -0.00150   2.03744
   A32        2.09593  -0.00002   0.00000   0.00098   0.00098   2.09692
   A33        2.14140  -0.00003   0.00000   0.00071   0.00071   2.14211
   A34        2.18090   0.00003   0.00000  -0.00190  -0.00190   2.17900
   A35        2.04545  -0.00006   0.00000   0.00221   0.00221   2.04766
   A36        2.05522   0.00003   0.00000  -0.00034  -0.00034   2.05488
   A37        1.92848   0.00001   0.00000   0.00014   0.00013   1.92861
   A38        2.18312  -0.00000   0.00000  -0.00011  -0.00011   2.18301
   A39        2.16734  -0.00000   0.00000  -0.00047  -0.00048   2.16686
    D1       -0.01154  -0.00000   0.00000  -0.00001  -0.00001  -0.01155
    D2        3.12058  -0.00000   0.00000  -0.00042  -0.00042   3.12016
    D3       -3.12523  -0.00000   0.00000  -0.00032  -0.00032  -3.12556
[...]
      2          6           0        0.379377   -0.586620    1.612261
      3          6           0       -2.050632    0.127031   -0.679794
      4          6           0       -0.282886    0.576419    1.568712
      5          6           0       -3.057995   -1.564243    0.440653
      6          6           0       -3.059956   -0.158985    0.224963
      7          6           0       -1.541601    1.440744   -1.193688
      8          1           0       -0.716937    1.261990   -1.899527
      9          1           0       -2.329473    1.956402   -1.764116
     10          6           0       -1.065393    2.391209   -0.083748
     11          1           0       -0.692665    3.334242   -0.506944
     12          1           0       -1.922224    2.638016    0.568279
     13          6           0        0.022236    1.851492    0.823637
     14          8           0        1.035338    2.463104    1.061768
     15          1           0       -1.150972    0.661938    2.231145
     16          1           0        0.052049   -1.352666    2.320271
     17          6           0        1.557926   -1.042556    0.853860
     18          8           0        2.263848   -1.937784    1.171257
     19          7           0       -1.467854   -1.060288   -1.020446
     20          1           0       -0.660237   -1.144665   -1.625139
     21          1           0       -1.722241   -3.118762   -0.481799
     22         35           0        1.925035   -0.146072   -0.876996
     23          1           0       -3.724943   -2.128686    1.088871
     24          1           0       -3.724284    0.571841    0.683579
 ---------------------------------------------------------------------
 Rotational constants (GHZ):           0.7256442           0.4588111           0.3843574

 **********************************************************************

            Population analysis using the SCF Density.

 **********************************************************************

 Orbital symmetries:
       Occupied  (A) (A) (A) (A) (A) (A) (A) (A) (A) (A) (A) (A)
                 (A) (A) (A) (A) (A) (A) (A) (A) (A) (A) (A) (A)
                 (A) (A) (A) (A) (A) (A) (A) (A) (A) (A) (A) (A)
                 (A) (A) (A) (A) (A) (A) (A) (A) (A) (A) (A) (A)
                 (A) (A) (A) (A) (A) (A) (A) (A) (A) (A) (A) (A)
                 (A) (A) (A) (A)
       Virtual   (A) (A) (A) (A) (A) (A) (A) (A) (A) (A) (A) (A)
                 (A) (A) (A) (A) (A) (A) (A) (A) (A) (A) (A) (A)
                 (A) (A) (A) (A) (A) (A) (A) (A) (A) (A) (A) (A)
                 (A) (A) (A) (A) (A) (A) (A) (A) (A) (A) (A) (A)
                 (A) (A) (A) (A) (A) (A) (A) (A) (A) (A) (A) (A)
                 (A) (A) (A) (A) (A) (A) (A) (A) (A) (A) (A) (A)
                 (A) (A) (A) (A) (A) (A) (A) (A) (A) (A) (A) (A)
                 (A) (A) (A) (A) (A) (A) (A) (A) (A) (A) (A) (A)
                 (A) (A) (A) (A) (A) (A) (A) (A) (A) (A) (A) (A)
                 (A) (A) (A) (A) (A) (A) (A) (A) (A) (A) (A) (A)
                 (A) (A) (A) (A) (A) (A) (A) (A) (A) (A) (A) (A)
                 (A) (A) (A) (A) (A) (A) (A) (A) (A) (A) (A) (A)
                 (A) (A) (A) (A) (A) (A) (A) (A) (A) (A) (A) (A)
                 (A) (A) (A) (A) (A) (A) (A) (A) (A) (A) (A) (A)
                 (A) (A) (A) (A) (A) (A) (A) (A) (A) (A) (A) (A)
                 (A) (A) (A) (A) (A) (A) (A) (A) (A) (A) (A) (A)
                 (A) (A) (A) (A) (A) (A) (A) (A)
 The electronic state is 1-A.
 Alpha  occ. eigenvalues -- -483.06634 -62.64865 -56.45591 -56.45309 -56.45274
 Alpha  occ. eigenvalues --  -19.29949 -19.26602 -14.49565 -10.45732 -10.41022
 Alpha  occ. eigenvalues --  -10.34959 -10.34292 -10.33044 -10.32333 -10.32324
 Alpha  occ. eigenvalues --  -10.31920 -10.28814 -10.28784  -8.81813  -6.64225
 Alpha  occ. eigenvalues --   -6.63163  -6.63050  -2.74618  -2.74339  -2.74251
 Alpha  occ. eigenvalues --   -2.73406  -2.73405  -1.19612  -1.15514  -1.08142
 Alpha  occ. eigenvalues --   -0.93079  -0.90651  -0.88330  -0.87019  -0.82603
 Alpha  occ. eigenvalues --   -0.78387  -0.74246  -0.68321  -0.67961  -0.66545
 Alpha  occ. eigenvalues --   -0.62004  -0.60951  -0.59645  -0.58477  -0.56163
 Alpha  occ. eigenvalues --   -0.55108  -0.54305  -0.53600  -0.52194  -0.51897
 Alpha  occ. eigenvalues --   -0.50840  -0.49973  -0.48104  -0.47572  -0.46978
 Alpha  occ. eigenvalues --   -0.45605  -0.44043  -0.39203  -0.38859  -0.38147
 Alpha  occ. eigenvalues --   -0.37198  -0.35015  -0.33373  -0.29262
 Alpha virt. eigenvalues --   -0.02298   0.04103   0.06168   0.09776   0.11672
 Alpha virt. eigenvalues --    0.13408   0.13782   0.14768   0.15676   0.17574
 Alpha virt. eigenvalues --    0.19696   0.20165   0.20580   0.21566   0.23377
 Alpha virt. eigenvalues --    0.23530   0.26927   0.27933   0.28627   0.30613
 Alpha virt. eigenvalues --    0.31334   0.32493   0.33918   0.35568   0.37626
 Alpha virt. eigenvalues --    0.39939   0.40511   0.42221   0.43015   0.46633
 Alpha virt. eigenvalues --    0.48303   0.49623   0.50200   0.50692   0.51940
 Alpha virt. eigenvalues --    0.52817   0.54005   0.54288   0.55823   0.56408
 Alpha virt. eigenvalues --    0.57073   0.57903   0.59881   0.60333   0.60863
 Alpha virt. eigenvalues --    0.61901   0.64798   0.65190   0.66007   0.67259
 Alpha virt. eigenvalues --    0.67761   0.69978   0.70211   0.70963   0.71921
 Alpha virt. eigenvalues --    0.72900   0.73952   0.74710   0.74921   0.75462
 Alpha virt. eigenvalues --    0.75649   0.76662   0.77554   0.78360   0.79084
 Alpha virt. eigenvalues --    0.79598   0.81393   0.81955   0.82521   0.83611
 Alpha virt. eigenvalues --    0.84571   0.87223   0.88361   0.89717   0.89946
 Alpha virt. eigenvalues --    0.91085   0.93653   0.94238   0.96531   0.98822
 Alpha virt. eigenvalues --    1.01860   1.02333   1.03504   1.06583   1.06820
 Alpha virt. eigenvalues --    1.11145   1.11829   1.12418   1.16101   1.19763
 Alpha virt. eigenvalues --    1.21028   1.22593   1.24275   1.26255   1.28069
 Alpha virt. eigenvalues --    1.29049   1.32299   1.34379   1.37365   1.37604
 Alpha virt. eigenvalues --    1.40481   1.42120   1.42795   1.46874   1.49223
 Alpha virt. eigenvalues --    1.51699   1.52004   1.57503   1.60778   1.65462
 Alpha virt. eigenvalues --    1.70259   1.72120   1.72435   1.74217   1.75539
 Alpha virt. eigenvalues --    1.76362   1.79003   1.79178   1.80158   1.82309
 Alpha virt. eigenvalues --    1.83246   1.84146   1.85024   1.86098   1.88043
 Alpha virt. eigenvalues --    1.88418   1.91893   1.92658   1.93147   1.93760
 Alpha virt. eigenvalues --    1.95621   1.97412   1.98500   1.99798   2.01072
 Alpha virt. eigenvalues --    2.02692   2.04281   2.05180   2.07621   2.09241
 Alpha virt. eigenvalues --    2.10556   2.12106   2.14514   2.16360   2.20254
 Alpha virt. eigenvalues --    2.22587   2.24042   2.24684   2.26352   2.31477
 Alpha virt. eigenvalues --    2.34745   2.35567   2.37289   2.40327   2.42338
 Alpha virt. eigenvalues --    2.43612   2.45237   2.46567   2.49880   2.52232
 Alpha virt. eigenvalues --    2.53559   2.55129   2.58388   2.64927   2.69974
 Alpha virt. eigenvalues --    2.73174   2.74405   2.75199   2.75735   2.77166
 Alpha virt. eigenvalues --    2.79089   2.79392   2.81702   2.82815   2.85798
 Alpha virt. eigenvalues --    2.87239   2.88962   2.92202   2.93942   2.96864
 Alpha virt. eigenvalues --    3.02489   3.04696   3.07015   3.10821   3.11869
 Alpha virt. eigenvalues --    3.20310   3.24657   3.27056   3.37716   3.40765
 Alpha virt. eigenvalues --    3.50200   3.53614   3.54783   3.57978   3.59755
 Alpha virt. eigenvalues --    3.67209   3.69008   3.69729   3.71866   3.89428
          Condensed to atoms (all electrons):
               1          2          3          4          5          6
     1  C    4.926675   0.004371  -0.144620  -0.004533   0.446812  -0.023294
     2  C    0.004371   5.104756  -0.010239   0.497155   0.000525  -0.005327
     3  C   -0.144620  -0.010239   5.185662   0.021242  -0.011758   0.417677
     4  C   -0.004533   0.497155   0.021242   5.160029  -0.000614  -0.002589
     5  C    0.446812   0.000525  -0.011758  -0.000614   4.972316   0.367968
     6  C   -0.023294  -0.005327   0.417677  -0.002589   0.367968   5.125491
     7  C    0.008516  -0.001188   0.327311   0.002996   0.010421  -0.099079
     8  H    0.000187   0.001365  -0.010376  -0.004352  -0.000642   0.011511
     9  H   -0.000171  -0.000055   0.004487   0.000092   0.000076  -0.008474
    10  C    0.000064   0.003193  -0.051073  -0.186516   0.000486   0.002642
    11  H   -0.000002  -0.000422   0.008103   0.014932   0.000005   0.000048
    12  H    0.000050   0.001422  -0.015147  -0.000286  -0.000284   0.007376
    13  C    0.000396  -0.004280  -0.016842   0.219621   0.000178  -0.006017
    14  O    0.000000  -0.002266  -0.000170  -0.091682  -0.000001   0.000013
    15  H    0.000115   0.017902  -0.000491   0.358795  -0.000768   0.008700
    16  H    0.002077   0.390224  -0.000333  -0.011587   0.001588  -0.000047
    17  C    0.002382   0.256856  -0.001550  -0.011719  -0.000142  -0.000007
    18  O   -0.000077  -0.080610   0.000011   0.005409  -0.000004   0.000001
    19  N    0.394584   0.000859   0.444483  -0.004584  -0.061009  -0.098416
    20  H   -0.027206   0.001062  -0.020496  -0.001072   0.007055   0.010839
    21  H    0.431666  -0.000638   0.003989   0.000091  -0.049796   0.009208
    22  Br  -0.000082  -0.136215  -0.001803   0.014910  -0.000084  -0.000113
    23  H   -0.057796   0.000029   0.012732   0.000016   0.452602  -0.058631
    24  H    0.012164   0.000154  -0.056930  -0.000465  -0.057621   0.453535
               7          8          9         10         11         12
     1  C    0.008516   0.000187  -0.000171   0.000064  -0.000002   0.000050
     2  C   -0.001188   0.001365  -0.000055   0.003193  -0.000422   0.001422
     3  C    0.327311  -0.010376   0.004487  -0.051073   0.008103  -0.015147
     4  C    0.002996  -0.004352   0.000092  -0.186516   0.014932  -0.000286
     5  C    0.010421  -0.000642   0.000076   0.000486   0.000005  -0.000284
     6  C   -0.099079   0.011511  -0.008474   0.002642   0.000048   0.007376
     7  C    4.681000   0.364456   0.353486   0.357672  -0.008593  -0.011832
     8  H    0.364456   0.659319  -0.024115  -0.023670  -0.007067   0.007462
     9  H    0.353486  -0.024115   0.632786  -0.014244  -0.004070  -0.009560
    10  C    0.357672  -0.023670  -0.014244   5.013239   0.333551   0.368596
    11  H   -0.008593  -0.007067  -0.004070   0.333551   0.616662  -0.013963
    12  H   -0.011832   0.007462  -0.009560   0.368596  -0.013963   0.608068
    13  C   -0.027800  -0.004645   0.006639   0.323241  -0.005043  -0.019872
    14  O    0.002941   0.000670  -0.000160  -0.088597   0.009872   0.001775
    15  H   -0.003279   0.000045   0.000040   0.006667  -0.000258   0.000007
    16  H    0.000030   0.000009  -0.000004  -0.000228   0.000007   0.000021
    17  C   -0.000026  -0.000489   0.000008   0.000666  -0.000002  -0.000048
    18  O    0.000000   0.000003   0.000000  -0.000003   0.000000   0.000000
    19  N   -0.049241  -0.008692   0.003228  -0.003361  -0.000078   0.000008
    20  H   -0.012972   0.005113   0.000065   0.000391  -0.000023   0.000005
    21  H   -0.000301  -0.000007   0.000010   0.000007  -0.000000  -0.000000
    22  Br   0.001099   0.007403   0.000158  -0.007802   0.000040   0.000130
    23  H   -0.000263   0.000007   0.000004   0.000003  -0.000000   0.000005
    24  H   -0.007718  -0.000004   0.001359  -0.000035  -0.000037   0.001351
              13         14         15         16         17         18
     1  C    0.000396   0.000000   0.000115   0.002077   0.002382  -0.000077
     2  C   -0.004280  -0.002266   0.017902   0.390224   0.256856  -0.080610
     3  C   -0.016842  -0.000170  -0.000491  -0.000333  -0.001550   0.000011
     4  C    0.219621  -0.091682   0.358795  -0.011587  -0.011719   0.005409
     5  C    0.000178  -0.000001  -0.000768   0.001588  -0.000142  -0.000004
     6  C   -0.006017   0.000013   0.008700  -0.000047  -0.000007   0.000001
     7  C   -0.027800   0.002941  -0.003279   0.000030  -0.000026   0.000000
     8  H   -0.004645   0.000670   0.000045   0.000009  -0.000489   0.000003
     9  H    0.006639  -0.000160   0.000040  -0.000004   0.000008   0.000000
    10  C    0.323241  -0.088597   0.006667  -0.000228   0.000666  -0.000003
    11  H   -0.005043   0.009872  -0.000258   0.000007  -0.000002   0.000000
    12  H   -0.019872   0.001775   0.000007   0.000021  -0.000048   0.000000
    13  C    4.798565   0.715777  -0.036463   0.006126  -0.022601  -0.000058
    14  O    0.715777   7.661272   0.000962  -0.000173   0.001334  -0.000002
    15  H   -0.036463   0.000962   0.565453  -0.013481   0.007061  -0.000076
    16  H    0.006126  -0.000173  -0.013481   0.577118  -0.036025   0.002908
    17  C   -0.022601   0.001334   0.007061  -0.036025   4.719335   0.703015
    18  O   -0.000058  -0.000002  -0.000076   0.002908   0.703015   7.585500
    19  N    0.001240   0.000004  -0.000455  -0.000817   0.001388  -0.000022
    20  H   -0.000047   0.000001  -0.000035  -0.000060  -0.001085  -0.000073
    21  H    0.000005   0.000000  -0.000008   0.000087   0.000178   0.000023
    22  Br   0.008376  -0.005157  -0.000008   0.004694   0.261484  -0.073338
    23  H   -0.000006  -0.000000  -0.000038   0.000000  -0.000009  -0.000000
    24  H    0.000021  -0.000001   0.000722  -0.000010  -0.000003  -0.000000
              19         20         21         22         23         24
     1  C    0.394584  -0.027206   0.431666  -0.000082  -0.057796   0.012164
     2  C    0.000859   0.001062  -0.000638  -0.136215   0.000029   0.000154
     3  C    0.444483  -0.020496   0.003989  -0.001803   0.012732  -0.056930
     4  C   -0.004584  -0.001072   0.000091   0.014910   0.000016  -0.000465
     5  C   -0.061009   0.007055  -0.049796  -0.000084   0.452602  -0.057621
     6  C   -0.098416   0.010839   0.009208  -0.000113  -0.058631   0.453535
     7  C   -0.049241  -0.012972  -0.000301   0.001099  -0.000263  -0.007718
     8  H   -0.008692   0.005113  -0.000007   0.007403   0.000007  -0.000004
     9  H    0.003228   0.000065   0.000010   0.000158   0.000004   0.001359
    10  C   -0.003361   0.000391   0.000007  -0.007802   0.000003  -0.000035
    11  H   -0.000078  -0.000023  -0.000000   0.000040  -0.000000  -0.000037
    12  H    0.000008   0.000005  -0.000000   0.000130   0.000005   0.001351
    13  C    0.001240  -0.000047   0.000005   0.008376  -0.000006   0.000021
    14  O    0.000004   0.000001   0.000000  -0.005157  -0.000000  -0.000001
    15  H   -0.000455  -0.000035  -0.000008  -0.000008  -0.000038   0.000722
    16  H   -0.000817  -0.000060   0.000087   0.004694   0.000000  -0.000010
    17  C    0.001388  -0.001085   0.000178   0.261484  -0.000009  -0.000003
    18  O   -0.000022  -0.000073   0.000023  -0.073338  -0.000000  -0.000000
    19  N    6.160328   0.365414  -0.034113  -0.004341   0.004398   0.005236
    20  H    0.365414   0.515277  -0.005079   0.014244  -0.000188  -0.000222
    21  H   -0.034113  -0.005079   0.606397   0.000034  -0.004158  -0.000181
    22  Br  -0.004341   0.014244   0.000034  35.061444   0.000000  -0.000000
    23  H    0.004398  -0.000188  -0.004158   0.000000   0.633613  -0.005500
    24  H    0.005236  -0.000222  -0.000181  -0.000000  -0.005500   0.642216
 Mulliken charges:
               1
     1  C    0.027721
     2  C   -0.038635
     3  C   -0.083869
     4  C    0.024710
     5  C   -0.077309
     6  C   -0.113015
     7  C    0.112362
     8  H    0.026508
     9  H    0.058413
    10  C   -0.034889
    11  H    0.056336
    12  H    0.074716
    13  C    0.063490
    14  O   -0.206412
    15  H    0.088890
    16  H    0.077873
    17  C    0.120000
    18  O   -0.142606
    19  N   -0.116040
    20  H    0.149093
    21  H    0.042588
    22  Br  -0.145073
    23  H    0.023178
    24  H    0.011969
 Sum of Mulliken charges =  -0.00000
 Mulliken charges with hydrogens summed into heavy atoms:
               1
     1  C    0.070308
     2  C    0.039239
     3  C   -0.083869
     4  C    0.113600
     5  C   -0.054131
     6  C   -0.101046
     7  C    0.197283
    10  C    0.096164
    13  C    0.063490
    14  O   -0.206412
    17  C    0.120000
    18  O   -0.142606
    19  N    0.033053
    22  Br  -0.145073
 Electronic spatial extent (au):  <R**2>=           3117.8252
 Charge=              0.0000 electrons
 Dipole moment (field-independent basis, Debye):
    X=             -3.9721    Y=              0.2720    Z=             -0.7963  Tot=              4.0603
 Quadrupole moment (field-independent basis, Debye-Ang):
   XX=           -103.7473   YY=            -94.5566   ZZ=            -88.4277
   XY=             -4.2244   XZ=             -6.6404   YZ=             -1.4125
 Traceless Quadrupole moment (field-independent basis, Debye-Ang):
   XX=             -8.1701   YY=              1.0206   ZZ=              7.1495
   XY=             -4.2244   XZ=             -6.6404   YZ=             -1.4125
 Octapole moment (field-independent basis, Debye-Ang**2):
  XXX=             66.9570  YYY=            -14.7691  ZZZ=            -24.5878  XYY=             -8.4317
  XXY=             17.8230  XXZ=             -0.4885  XZZ=             17.3158  YZZ=             -1.3065
  YYZ=            -21.9936  XYZ=              1.3994
 Hexadecapole moment (field-independent basis, Debye-Ang**3):
 XXXX=          -2063.8119 YYYY=          -1225.4097 ZZZZ=           -622.7870 XXXY=            -25.6697
 XXXZ=           -108.4441 YYYX=            -25.9916 YYYZ=             -6.6938 ZZZX=            -61.5006
 ZZZY=              0.8461 XXYY=           -559.7925 XXZZ=           -443.8316 YYZZ=           -314.2393
 XXYZ=             -9.3455 YYXZ=            -46.1105 ZZXY=            -10.4061
 N-N= 1.240576392398D+03 E-N=-1.000975050243D+04  KE= 3.156863462649D+03
 Unable to Open any file for archive entry.
 1\1\GINC-NODE-006\FTS\RwB97XD\def2SVP\C10H10Br1N1O2\JP2658\28-Dec-2023
 \0\\# wb97xd def2svp geom=allchk scrf=(iefpcm,solvent=toluene) opt=(re
 adfc,ts,noeigen,maxcycles=50,maxstep=10)\\imda-2_1_opt_sqm.out\\0,1\C,
 -2.0485379387,-2.0960921075,-0.3336008663\C,0.3828423164,-0.5827640622
 ,1.6126034668\C,-2.0540450624,0.1231421864,-0.6745420063\C,-0.28248493
 47,0.5785510568,1.5697477564\C,-3.0546028063,-1.5699477799,0.449256173
 3\C,-3.0606314329,-0.1648440322,0.2326374858\C,-1.5495110933,1.4378055
 322,-1.1904339602\H,-0.72595546,1.2606851556,-1.8979773422\H,-2.339957
 696,1.9510672306,-1.7594598709\C,-1.0732794204,2.3902282937,-0.0821835
 146\H,-0.7038996397,3.3339259254,-0.5068300334\H,-1.9292943966,2.63528
 25864,0.5715738202\C,0.0177291375,1.8538989343,0.8231516025\O,1.029788
 9673,2.4682563495,1.058632867\H,-1.1493198773,0.6622962444,2.234043337
 5\H,0.0590391244,-1.3491677248,2.3218461019\C,1.560872839,-1.036197159
 5,0.8518999835\O,2.2697797556,-1.9294060815,1.1683290419\N,-1.46898970
 36,-1.0629132217,-1.0156928545\H,-0.6624989084,-1.1456323042,-1.622115
 5117\H,-1.7169240449,-3.1216686281,-0.4751151687\Br,1.9218611576,-0.13
 99391681,-0.8803600675\H,-3.7186715851,-2.1356577762,1.0993236707\H,-3
 .7258092974,0.5645905507,0.6922358889\\Version=ES64L-G16RevC.01\State=
 1-A\HF=-3165.5415437\RMSD=6.568e-09\RMSF=7.499e-06\Dipole=-1.5637026,0
 .1027941,-0.3099029\Quadrupole=-6.0799156,0.7412747,5.3386409,-3.16376
 69,-4.9069855,-1.0527333\PG=C01 [X(C10H10Br1N1O2)]\\@
 The archive entry for this job was punched.


 ... IT CAN BE VERY DIFFICULT, IN THESE COMPLEX TIMES,
 TO UNDERSTAND JUST HOW SCIENTISTS DO WHAT THEY DO.

                     DON MOSER IN THE FEBRUARY 1979 SMITHSONIAN
 Job cpu time:       0 days  3 hours  1 minutes 57.3 seconds.
 Elapsed time:       0 days  0 hours 15 minutes 30.6 seconds.
 File lengths (MBytes):  RWF=    172 Int=      0 D2E=      0 Chk=     11 Scr=      1
 Normal termination of Gaussian 16 at Thu Dec 28 14:05:02 2023.
