Unloading slurm/anatra/current
  ERROR: No such file or directory on
    '/cm/local/modulefiles/slurm/anatra/current'
environment: line 0: unalias: gv: not found
environment: line 0: unalias: sl: not found
 Entering Gaussian System, Link 0=g16
 Initial command:
 /apps/gaussian/g16/C.01/g16/l1.exe "/local/jobs/1152789/Gau-3963947.inp" -scrdir="/local/jobs/1152789/"
 Entering Link 1 = /apps/gaussian/g16/C.01/g16/l1.exe PID=   3963948.
  
 Copyright (c) 1988-2019, Gaussian, Inc.  All Rights Reserved.
  
 This is part of the Gaussian(R) 16 program.  It is based on
 the Gaussian(R) 09 system (copyright 2009, Gaussian, Inc.),
 the Gaussian(R) 03 system (copyright 2003, Gaussian, Inc.),
 the Gaussian(R) 98 system (copyright 1998, Gaussian, Inc.),
 the Gaussian(R) 94 system (copyright 1995, Gaussian, Inc.),
 the Gaussian 92(TM) system (copyright 1992, Gaussian, Inc.),
 the Gaussian 90(TM) system (copyright 1990, Gaussian, Inc.),
 the Gaussian 88(TM) system (copyright 1988, Gaussian, Inc.),
 the Gaussian 86(TM) system (copyright 1986, Carnegie Mellon
 University), and the Gaussian 82(TM) system (copyright 1983,
 Carnegie Mellon University). Gaussian is a federally registered
 trademark of Gaussian, Inc.
  
 This software contains proprietary and confidential information,
 including trade secrets, belonging to Gaussian, Inc.
  
 This software is provided under written license and may be
 used, copied, transmitted, or stored only in accord with that
 written license.
  
 The following legend is applicable only to US Government
 contracts under FAR:
  
                    RESTRICTED RIGHTS LEGEND
  
 Use, reproduction and disclosure by the US Government is
 subject to restrictions as set forth in subparagraphs (a)
 and (c) of the Commercial Computer Software - Restricted
 Rights clause in FAR 52.227-19.
  
 Gaussian, Inc.
 340 Quinnipiac St., Bldg. 40, Wallingford CT 06492
  
  
 ---------------------------------------------------------------
 Warning -- This program may not be used in any manner that
 competes with the business of Gaussian, Inc. or will provide
 assistance to any competitor of Gaussian, Inc.  The licensee
 of this program is prohibited from giving any competitor of
 Gaussian, Inc. access to this program.  By using this program,
 the user acknowledges that Gaussian, Inc. is engaged in the
 business of creating and licensing software in the field of
 computational chemistry and represents and warrants to the
 licensee that it is not a competitor of Gaussian, Inc. and that
 it will not use this program in any manner prohibited above.
 ---------------------------------------------------------------
  

 Cite this work as:
 Gaussian 16, Revision C.01,
 M. J. Frisch, G. W. Trucks, H. B. Schlegel, G. E. Scuseria, 
 M. A. Robb, J. R. Cheeseman, G. Scalmani, V. Barone, 
 G. A. Petersson, H. Nakatsuji, X. Li, M. Caricato, A. V. Marenich, 
 J. Bloino, B. G. Janesko, R. Gomperts, B. Mennucci, H. P. Hratchian, 
 J. V. Ortiz, A. F. Izmaylov, J. L. Sonnenberg, D. Williams-Young, 
 F. Ding, F. Lipparini, F. Egidi, J. Goings, B. Peng, A. Petrone, 
 T. Henderson, D. Ranasinghe, V. G. Zakrzewski, J. Gao, N. Rega, 
 G. Zheng, W. Liang, M. Hada, M. Ehara, K. Toyota, R. Fukuda, 
 J. Hasegawa, M. Ishida, T. Nakajima, Y. Honda, O. Kitao, H. Nakai, 
 T. Vreven, K. Throssell, J. A. Montgomery, Jr., J. E. Peralta, 
 F. Ogliaro, M. J. Bearpark, J. J. Heyd, E. N. Brothers, K. N. Kudin, 
 V. N. Staroverov, T. A. Keith, R. Kobayashi, J. Normand, 
 K. Raghavachari, A. P. Rendell, J. C. Burant, S. S. Iyengar, 
 J. Tomasi, M. Cossi, J. M. Millam, M. Klene, C. Adamo, R. Cammi, 
 J. W. Ochterski, R. L. Martin, K. Morokuma, O. Farkas, 
 J. B. Foresman, and D. J. Fox, Gaussian, Inc., Wallingford CT, 2019.
 
 ******************************************
 Gaussian 16:  ES64L-G16RevC.01  3-Jul-2019
                22-Dec-2023 
 ******************************************
 %chk=imda-1_1_opt_sqm_re.chk
 %nprocshared=12
 Will use up to   12 processors via shared memory.
 %mem=48GB
 ----------------------------------------------------------------------
 # wb97xd def2svp geom=allchk scrf=(iefpcm,solvent=toluene) opt=(readfc
 ,ts,noeigen,maxcycles=50,maxstep=10)
 ----------------------------------------------------------------------
 1/5=1,6=50,8=10,10=3,11=1,18=20,26=3,29=7,38=1/1,3;
 2/9=110,12=2,40=1/2;
 3/5=43,7=101,11=2,14=-4,25=1,30=1,70=2201,71=1,72=13,74=-58/1,2,3;
 4//1;
 5/5=2,38=5,53=13/2;
 6/7=2,8=2,9=2,10=2,28=1/1;
 7//1,2,3,16;
 1/5=1,6=50,8=10,11=1,18=20,26=3/3(2);
 2/9=110/2;
 99//99;
 2/9=110/2;
 3/5=43,7=101,11=2,14=-2,25=1,30=1,70=2205,71=1,72=13,74=-58/1,2,3;
 4/5=5,16=3,69=1/1;
 5/5=2,38=5,53=13/2;
 7//1,2,3,16;
 1/5=1,6=50,8=10,11=1,18=20,26=3/3(-5);
 2/9=110/2;
 6/7=2,8=2,9=2,10=2,19=2,28=1/1;
 99/9=1/99;
 Structure from the checkpoint file:  "imda-1_1_opt_sqm_re.chk"
 --------------------
 imda-1_1_opt_sqm.out
 --------------------
 Charge =  0 Multiplicity = 1
 Redundant internal coordinates found in file.  (old form).
 C,0,-2.47002,0.29109,-0.21288
 C,0,0.96962,1.27838,1.11706
 C,0,-0.89814,-1.48274,-0.04931
 C,0,1.37251,0.01121,1.10468
 C,0,-2.66763,-0.38764,0.93919
 C,0,-1.70108,-1.48353,1.037
 C,0,0.25921,-2.39139,-0.33962
 H,0,0.50306,-2.97221,0.56412
 H,0,-0.03372,-3.13173,-1.10439
 C,0,1.51014,-1.67982,-0.8678
 H,0,2.28985,-2.4032,-1.14949
 H,0,1.26171,-1.13838,-1.79854
 C,0,2.18058,-0.64052,0.01608
 O,0,3.33354,-0.32809,-0.1627
 H,0,1.07902,-0.61664,1.95126
 H,0,0.39135,1.71191,1.93385
 C,0,-1.33983,-0.36567,-0.95788
 H,0,-1.67287,-0.74977,-1.94008
 H,0,-0.53338,0.35725,-1.17158
 Cl,0,1.23887,2.3857,-0.19752
 C,0,-3.18928,1.49677,-0.7217
 H,0,-2.49401,2.34387,-0.84426
 H,0,-3.98836,1.80659,-0.03369
 H,0,-3.64109,1.30958,-1.70956
 H,0,-1.62508,-2.17365,1.88009
 H,0,-3.42189,-0.15279,1.69275
 Recover connectivity data from disk.

 GradGradGradGradGradGradGradGradGradGradGradGradGradGradGradGradGradGrad
 Berny optimization.
 Initialization pass.
 Force constant matrix read from checkpoint file:
 "imda-1_1_opt_sqm_re.chk"
                           ----------------------------
                           !    Initial Parameters    !
                           ! (Angstroms and Degrees)  !
 --------------------------                            --------------------------
 ! Name  Definition              Value          Derivative Info.                !
 --------------------------------------------------------------------------------
 ! R1    R(1,5)                  1.3517         D2E/DX2 =    0.5781             !
 ! R2    R(1,17)                 1.5046         D2E/DX2 =    0.3202             !
 ! R3    R(1,21)                 1.4933         D2E/DX2 =    0.3956             !
 ! R4    R(2,4)                  1.3297         D2E/DX2 =    0.7621             !
 ! R5    R(2,16)                 1.0906         D2E/DX2 =    0.264              !
 ! R6    R(2,20)                 1.7398         D2E/DX2 =    0.2549             !
 ! R7    R(3,6)                  1.3508         D2E/DX2 =    0.5812             !
 ! R8    R(3,7)                  1.4998         D2E/DX2 =    0.3896             !
 ! R9    R(3,17)                 1.5061         D2E/DX2 =    0.3173             !
 ! R10   R(4,13)                 1.5043         D2E/DX2 =    0.3495             !
 ! R11   R(4,15)                 1.0941         D2E/DX2 =    0.2685             !
 ! R12   R(5,6)                  1.4645         D2E/DX2 =    0.3381             !
 ! R13   R(5,26)                 1.0917         D2E/DX2 =    0.2673             !
 ! R14   R(6,25)                 1.0922         D2E/DX2 =    0.2668             !
 ! R15   R(7,8)                  1.1016         D2E/DX2 =    0.2683             !
 ! R16   R(7,9)                  1.104          D2E/DX2 =    0.2671             !
 ! R17   R(7,10)                 1.533          D2E/DX2 =    0.366              !
 ! R18   R(10,11)                1.1003         D2E/DX2 =    0.2683             !
 ! R19   R(10,12)                1.1051         D2E/DX2 =    0.2663             !
 ! R20   R(10,13)                1.5202         D2E/DX2 =    0.3541             !
 ! R21   R(13,14)                1.2078         D2E/DX2 =    0.8675             !
 ! R22   R(17,18)                1.106          D2E/DX2 =    0.2652             !
 ! R23   R(17,19)                1.1039         D2E/DX2 =    0.2669             !
 ! R24   R(21,22)                1.1027         D2E/DX2 =    0.2628             !
 ! R25   R(21,23)                1.099          D2E/DX2 =    0.2653             !
 ! R26   R(21,24)                1.1023         D2E/DX2 =    0.263              !
 ! A1    A(5,1,17)             108.2204         D2E/DX2 =    0.0816             !
 ! A2    A(5,1,21)             128.7144         D2E/DX2 =    0.0873             !
 ! A3    A(17,1,21)            123.0613         D2E/DX2 =    0.0869             !
 ! A4    A(4,2,16)             123.1216         D2E/DX2 =    0.0776             !
 ! A5    A(4,2,20)             123.546          D2E/DX2 =    0.0925             !
 ! A6    A(16,2,20)            113.2622         D2E/DX2 =    0.0814             !
 ! A7    A(6,3,7)              127.8783         D2E/DX2 =    0.0918             !
 ! A8    A(6,3,17)             108.1336         D2E/DX2 =    0.0822             !
 ! A9    A(7,3,17)             123.9784         D2E/DX2 =    0.0946             !
 ! A10   A(2,4,13)             125.6175         D2E/DX2 =    0.0692             !
 ! A11   A(2,4,15)             117.2824         D2E/DX2 =    0.0758             !
 ! A12   A(13,4,15)            117.0933         D2E/DX2 =    0.0661             !
 ! A13   A(1,5,6)              109.6451         D2E/DX2 =    0.0736             !
 ! A14   A(1,5,26)             125.5417         D2E/DX2 =    0.0686             !
 ! A15   A(6,5,26)             124.8087         D2E/DX2 =    0.067              !
 ! A16   A(3,6,5)              109.7641         D2E/DX2 =    0.0739             !
 ! A17   A(3,6,25)             125.4349         D2E/DX2 =    0.069              !
 ! A18   A(5,6,25)             124.7724         D2E/DX2 =    0.0672             !
 ! A19   A(3,7,8)              109.3566         D2E/DX2 =    0.0509             !
 ! A20   A(3,7,9)              109.6104         D2E/DX2 =    0.0499             !
 ! A21   A(3,7,10)             114.5292         D2E/DX2 =    0.1542             !
 ! A22   A(8,7,9)              105.8706         D2E/DX2 =    0.0153             !
 ! A23   A(8,7,10)             110.2888         D2E/DX2 =    0.0605             !
 ! A24   A(9,7,10)             106.8049         D2E/DX2 =    0.0531             !
 ! A25   A(7,10,11)            111.18           D2E/DX2 =    0.0549             !
 ! A26   A(7,10,12)            109.5219         D2E/DX2 =    0.0504             !
 ! A27   A(7,10,13)            118.4826         D2E/DX2 =    0.1539             !
 ! A28   A(11,10,12)           105.4153         D2E/DX2 =    0.0147             !
 ! A29   A(11,10,13)           106.6074         D2E/DX2 =    0.0637             !
 ! A30   A(12,10,13)           104.7079         D2E/DX2 =    0.0483             !
 ! A31   A(4,13,10)            118.6898         D2E/DX2 =    0.1436             !
 ! A32   A(4,13,14)            120.5191         D2E/DX2 =    0.1268             !
 ! A33   A(10,13,14)           120.7822         D2E/DX2 =    0.1296             !
 ! A34   A(1,17,3)             104.2019         D2E/DX2 =    0.0777             !
 ! A35   A(1,17,18)            111.4167         D2E/DX2 =    0.0313             !
 ! A36   A(1,17,19)            111.0239         D2E/DX2 =    0.0331             !
 ! A37   A(3,17,18)            111.4977         D2E/DX2 =    0.0309             !
 ! A38   A(3,17,19)            112.8452         D2E/DX2 =    0.032              !
 ! A39   A(18,17,19)           105.9918         D2E/DX2 =    0.016              !
 ! A40   A(1,21,22)            110.7578         D2E/DX2 =    0.0887             !
 ! A41   A(1,21,23)            111.3772         D2E/DX2 =    0.0951             !
 ! A42   A(1,21,24)            111.4495         D2E/DX2 =    0.0882             !
 ! A43   A(22,21,23)           108.1464         D2E/DX2 =    0.0436             !
 ! A44   A(22,21,24)           106.8149         D2E/DX2 =    0.0418             !
 ! A45   A(23,21,24)           108.1125         D2E/DX2 =    0.0441             !
 ! D1    D(17,1,5,6)             0.9078         D2E/DX2 =    0.0078             !
 ! D2    D(17,1,5,26)         -179.8321         D2E/DX2 =    0.0059             !
 ! D3    D(21,1,5,6)          -178.3767         D2E/DX2 =    0.007              !
 ! D4    D(21,1,5,26)            0.8834         D2E/DX2 =    0.0053             !
 ! D5    D(5,1,17,3)            -1.6737         D2E/DX2 =    0.0071             !
 ! D6    D(5,1,17,18)          118.6788         D2E/DX2 =    0.0132             !
 ! D7    D(5,1,17,19)         -123.4303         D2E/DX2 =    0.0136             !
 ! D8    D(21,1,17,3)          177.6602         D2E/DX2 =    0.006              !
 ! D9    D(21,1,17,18)         -61.9873         D2E/DX2 =    0.0122             !
 ! D10   D(21,1,17,19)          55.9036         D2E/DX2 =    0.0124             !
 ! D11   D(5,1,21,22)          118.7539         D2E/DX2 =    0.0106             !
 ! D12   D(5,1,21,23)           -1.6462         D2E/DX2 =    0.0112             !
 ! D13   D(5,1,21,24)         -122.4759         D2E/DX2 =    0.0106             !
 ! D14   D(17,1,21,22)         -60.4352         D2E/DX2 =    0.0109             !
 ! D15   D(17,1,21,23)         179.1647         D2E/DX2 =    0.011              !
 ! D16   D(17,1,21,24)          58.335          D2E/DX2 =    0.0109             !
 ! D17   D(16,2,4,13)         -179.434          D2E/DX2 =    0.0207             !
 ! D18   D(16,2,4,15)            1.5443         D2E/DX2 =    0.0163             !
 ! D19   D(20,2,4,13)            3.8201         D2E/DX2 =    0.0208             !
 ! D20   D(20,2,4,15)         -175.2016         D2E/DX2 =    0.0279             !
 ! D21   D(7,3,6,5)            177.4876         D2E/DX2 =    0.007              !
 ! D22   D(7,3,6,25)            -0.6387         D2E/DX2 =    0.0056             !
 ! D23   D(17,3,6,5)            -1.405          D2E/DX2 =    0.008              !
 ! D24   D(17,3,6,25)         -179.5312         D2E/DX2 =    0.006              !
 ! D25   D(6,3,7,8)            -10.6127         D2E/DX2 =    0.0128             !
 ! D26   D(6,3,7,9)            105.0367         D2E/DX2 =    0.012              !
 ! D27   D(6,3,7,10)          -134.9665         D2E/DX2 =    0.0118             !
 ! D28   D(17,3,7,8)           168.1182         D2E/DX2 =    0.015              !
 ! D29   D(17,3,7,9)           -76.2324         D2E/DX2 =    0.0127             !
 ! D30   D(17,3,7,10)           43.7644         D2E/DX2 =    0.0138             !
 ! D31   D(6,3,17,1)             1.8709         D2E/DX2 =    0.0071             !
 ! D32   D(6,3,17,18)         -118.4272         D2E/DX2 =    0.0135             !
 ! D33   D(6,3,17,19)          122.4139         D2E/DX2 =    0.0141             !
 ! D34   D(7,3,17,1)          -177.0751         D2E/DX2 =    0.0061             !
 ! D35   D(7,3,17,18)           62.6268         D2E/DX2 =    0.0123             !
 ! D36   D(7,3,17,19)          -56.532          D2E/DX2 =    0.0125             !
 ! D37   D(2,4,13,10)         -109.9845         D2E/DX2 =    0.0136             !
 ! D38   D(2,4,13,14)           68.9404         D2E/DX2 =    0.0087             !
 ! D39   D(15,4,13,10)          69.0389         D2E/DX2 =    0.0098             !
 ! D40   D(15,4,13,14)        -112.0362         D2E/DX2 =    0.0063             !
 ! D41   D(1,5,6,3)              0.3249         D2E/DX2 =    0.0089             !
 ! D42   D(1,5,6,25)           178.4663         D2E/DX2 =    0.0063             !
 ! D43   D(26,5,6,3)          -178.9419         D2E/DX2 =    0.0063             !
 ! D44   D(26,5,6,25)           -0.8005         D2E/DX2 =    0.0075             !
 ! D45   D(3,7,10,11)         -174.7493         D2E/DX2 =    0.0156             !
 ! D46   D(3,7,10,12)          -58.6559         D2E/DX2 =    0.0129             !
 ! D47   D(3,7,10,13)           61.2671         D2E/DX2 =    0.0198             !
 ! D48   D(8,7,10,11)           61.393          D2E/DX2 =    0.0131             !
 ! D49   D(8,7,10,12)          177.4864         D2E/DX2 =    0.0146             !
 ! D50   D(8,7,10,13)          -62.5905         D2E/DX2 =    0.0145             !
 ! D51   D(9,7,10,11)          -53.2025         D2E/DX2 =    0.0139             !
 ! D52   D(9,7,10,12)           62.8909         D2E/DX2 =    0.0131             !
 ! D53   D(9,7,10,13)         -177.1861         D2E/DX2 =    0.0175             !
 ! D54   D(7,10,13,4)          -21.8789         D2E/DX2 =    0.0108             !
 ! D55   D(7,10,13,14)         159.1991         D2E/DX2 =    0.0141             !
 ! D56   D(11,10,13,4)        -148.0904         D2E/DX2 =    0.0123             !
 ! D57   D(11,10,13,14)         32.9876         D2E/DX2 =    0.0129             !
 ! D58   D(12,10,13,4)         100.4977         D2E/DX2 =    0.0134             !
 ! D59   D(12,10,13,14)        -78.4243         D2E/DX2 =    0.0128             !
 --------------------------------------------------------------------------------
 Trust Radius=1.00D-01 FncErr=1.00D-07 GrdErr=1.00D-06 EigMax=2.50D+02 EigMin=1.00D-04
 Number of steps in this run=     50 maximum allowed number of steps=    156.
 Search for a saddle point of order  1.
 GradGradGradGradGradGradGradGradGradGradGradGradGradGradGradGradGradGrad

                          Input orientation:                          
 ---------------------------------------------------------------------
 Center     Atomic      Atomic             Coordinates (Angstroms)
 Number     Number       Type             X           Y           Z
 ---------------------------------------------------------------------
      1          6           0       -2.470020    0.291090   -0.212880
      2          6           0        0.969620    1.278380    1.117060
      3          6           0       -0.898140   -1.482740   -0.049310
      4          6           0        1.372510    0.011210    1.104680
      5          6           0       -2.667630   -0.387640    0.939190
      6          6           0       -1.701080   -1.483530    1.037000
      7          6           0        0.259210   -2.391390   -0.339620
      8          1           0        0.503060   -2.972210    0.564120
      9          1           0       -0.033720   -3.131730   -1.104390
     10          6           0        1.510140   -1.679820   -0.867800
     11          1           0        2.289850   -2.403200   -1.149490
     12          1           0        1.261710   -1.138380   -1.798540
     13          6           0        2.180580   -0.640520    0.016080
     14          8           0        3.333540   -0.328090   -0.162700
     15          1           0        1.079020   -0.616640    1.951260
     16          1           0        0.391350    1.711910    1.933850
     17          6           0       -1.339830   -0.365670   -0.957880
     18          1           0       -1.672870   -0.749770   -1.940080
     19          1           0       -0.533380    0.357250   -1.171580
     20         17           0        1.238870    2.385700   -0.197520
     21          6           0       -3.189280    1.496770   -0.721700
     22          1           0       -2.494010    2.343870   -0.844260
     23          1           0       -3.988360    1.806590   -0.033690
     24          1           0       -3.641090    1.309580   -1.709560
     25          1           0       -1.625080   -2.173650    1.880090
     26          1           0       -3.421890   -0.152790    1.692750
 ---------------------------------------------------------------------
                    Distance matrix (angstroms):
                    1          2          3          4          5
     1  C    0.000000
     2  C    3.817670   0.000000
     3  C    2.375718   3.531675   0.000000
     4  C    4.071773   1.329734   2.952868   0.000000
     5  C    1.351662   4.004603   2.303795   4.063151   0.000000
     6  C    2.302769   3.842811   1.350845   3.418448   1.464500
     7  C    3.828898   4.011709   1.499795   3.016277   3.770512
     8  H    4.482417   4.311721   2.134989   3.154195   4.107792
     9  H    4.294886   5.038909   2.139996   4.090910   4.317839
    10  C    4.489441   3.603162   2.551192   2.601769   4.731670
    11  H    5.549126   4.520430   3.495844   3.428144   5.744708
    12  H    4.299245   3.798259   2.800597   3.124503   4.847524
    13  C    4.748516   2.522054   3.192511   1.504254   4.941783
    14  O    5.836712   3.131557   4.387846   2.359452   6.101782
    15  H    4.254781   2.073393   2.943055   1.094089   3.887687
    16  H    3.848976   1.090638   3.975110   2.131333   3.841200
    17  C    1.504556   3.513095   1.506132   3.428262   2.315688
    18  H    2.168423   4.521311   2.170821   4.373099   3.067716
    19  H    2.161957   2.888834   2.185887   2.988899   3.092771
    20  Cl   4.259518   1.739763   4.421946   2.711418   4.923847
    21  C    1.493284   4.552492   3.818234   5.133467   2.565478
    22  H    2.147818   4.120531   4.221574   4.918297   3.266800
    23  H    2.152721   5.117108   4.513247   5.766993   2.739611
    24  H    2.156102   5.408272   4.251736   5.894226   3.293032
    25  H    3.342064   4.385339   2.174484   3.789514   2.272011
    26  H    2.175893   4.654571   3.342582   4.833114   1.091749
                    6          7          8          9         10
     6  C    0.000000
     7  C    2.561646   0.000000
     8  H    2.701484   1.101617   0.000000
     9  H    3.175249   1.103986   1.759973   0.000000
    10  C    3.738814   1.533014   2.175977   2.132492   0.000000
    11  H    4.642634   2.186213   2.540246   2.435522   1.100262
    12  H    4.115524   2.168753   3.085554   2.476576   1.105057
    13  C    4.101247   2.623687   2.924243   3.516348   1.520157
    14  O    5.302992   3.706752   3.940971   4.481698   2.376789
    15  H    3.052266   3.011637   2.793671   4.111066   3.043570
    16  H    3.923447   4.692888   4.881559   5.733449   4.539247
    17  C    2.315094   2.653812   3.536492   3.062430   3.139655
    18  H    3.066301   2.998220   3.993110   3.009805   3.485159
    19  H    3.103195   2.979157   3.895146   3.525217   2.901364
    20  Cl   5.013810   4.878577   5.461567   5.734451   4.129324
    21  C    3.766955   5.211128   5.937886   5.614893   5.674206
    22  H    4.337841   5.500688   6.263120   6.008568   5.676606
    23  H    4.147640   5.979839   6.585375   6.416586   6.563863
    24  H    4.371349   5.548536   6.377878   5.753658   6.015001
    25  H    1.092173   2.919773   2.626491   3.515319   4.198139
    26  H    2.272018   4.763649   4.962677   5.308274   5.763086
                   11         12         13         14         15
    11  H    0.000000
    12  H    1.754454   0.000000
    13  C    2.116018   2.094047   0.000000
    14  O    2.523713   2.761344   1.207846   0.000000
    15  H    3.777904   3.790328   2.226865   3.104021   0.000000
    16  H    5.481370   4.776234   3.523225   4.148928   2.428032
    17  C    4.166872   2.841091   3.662981   4.740687   3.791690
    18  H    4.366007   2.963581   4.322913   5.329262   4.767929
    19  H    3.948569   2.419160   3.125965   4.054701   3.646975
    20  Cl   4.994434   3.870779   3.176547   3.428339   3.695518
    21  C    6.738964   5.283456   5.826468   6.796306   5.461648
    22  H    6.746344   5.209813   5.612358   6.447033   5.417204
    23  H    7.640894   6.273020   6.636765   7.627826   5.957383
    24  H    7.019577   5.480682   6.377505   7.329407   6.276254
    25  H    4.955575   4.789328   4.506447   5.671595   3.121138
    26  H    6.765105   5.924239   5.868285   7.007800   4.532127
                   16         17         18         19         20
    16  H    0.000000
    17  C    3.959220   0.000000
    18  H    5.032714   1.105968   0.000000
    19  H    3.511969   1.103921   1.764801   0.000000
    20  Cl   2.390611   3.846801   4.620164   2.864310   0.000000
    21  C    4.463087   2.635323   2.971682   2.924842   4.546809
    22  H    4.054944   2.947312   3.383150   2.810314   3.788722
    23  H    4.802295   3.547894   3.940913   3.915644   5.261762
    24  H    5.449484   2.944025   2.857963   3.294574   5.220949
    25  H    4.377951   3.377015   4.077182   4.112171   5.771165
    26  H    4.251592   3.377296   4.075894   4.099758   5.633803
                   21         22         23         24         25
    21  C    0.000000
    22  H    1.102724   0.000000
    23  H    1.099034   1.782912   0.000000
    24  H    1.102288   1.770393   1.782177   0.000000
    25  H    4.763194   5.346504   5.008988   5.392845   0.000000
    26  H    2.933381   3.678409   2.672200   3.709756   2.710627
                   26
    26  H    0.000000
 Stoichiometry    C11H13ClO
 Framework group  C1[X(C11H13ClO)]
 Deg. of freedom    72
 Full point group                 C1      NOp   1
 Largest Abelian subgroup         C1      NOp   1
 Largest concise Abelian subgroup C1      NOp   1
                         Standard orientation:                         
 ---------------------------------------------------------------------
 Center     Atomic      Atomic             Coordinates (Angstroms)
 Number     Number       Type             X           Y           Z
 ---------------------------------------------------------------------
      1          6           0       -2.470021    0.291095   -0.212880
      2          6           0        0.969620    1.278380    1.117060
      3          6           0       -0.898144   -1.482737   -0.049310
      4          6           0        1.372508    0.011209    1.104680
      5          6           0       -2.667632   -0.387634    0.939190
      6          6           0       -1.701084   -1.483526    1.037000
      7          6           0        0.259204   -2.391389   -0.339620
      8          1           0        0.503053   -2.972209    0.564120
      9          1           0       -0.033727   -3.131729   -1.104390
     10          6           0        1.510136   -1.679821   -0.867800
     11          1           0        2.289844   -2.403202   -1.149490
     12          1           0        1.261706   -1.138381   -1.798540
     13          6           0        2.180577   -0.640522    0.016080
     14          8           0        3.333538   -0.328094   -0.162700
     15          1           0        1.079017   -0.616640    1.951260
     16          1           0        0.391351    1.711911    1.933850
     17          6           0       -1.339832   -0.365666   -0.957880
     18          1           0       -1.672873   -0.749766   -1.940080
     19          1           0       -0.533381    0.357252   -1.171580
     20         17           0        1.238872    2.385699   -0.197520
     21          6           0       -3.189279    1.496777   -0.721700
     22          1           0       -2.494008    2.343876   -0.844260
     23          1           0       -3.988359    1.806598   -0.033690
     24          1           0       -3.641090    1.309587   -1.709560
     25          1           0       -1.625085   -2.173646    1.880090
     26          1           0       -3.421892   -0.152783    1.692750
 ---------------------------------------------------------------------
 Rotational constants (GHZ):           0.8909713           0.5796039           0.4160088
 Standard basis: def2SVP (5D, 7F)
 There are   264 symmetry adapted cartesian basis functions of A   symmetry.
 There are   251 symmetry adapted basis functions of A   symmetry.
   251 basis functions,   428 primitive gaussians,   264 cartesian basis functions
    52 alpha electrons       52 beta electrons
       nuclear repulsion energy       873.9098805902 Hartrees.
 NAtoms=   26 NActive=   26 NUniq=   26 SFac= 1.00D+00 NAtFMM=   60 NAOKFM=F Big=F
 Integral buffers will be    131072 words long.
 Raffenetti 2 integral format.
 Two-electron integral symmetry is turned on.
 Nuclear repulsion after empirical dispersion term =      873.8893138567 Hartrees.
 ------------------------------------------------------------------------------
 Polarizable Continuum Model (PCM)
 =================================
 Model                : PCM.
 Atomic radii         : UFF (Universal Force Field).
 Polarization charges : Total charges.
 Charge compensation  : None.
 Solution method      : On-the-fly selection.
 Cavity type          : Scaled VdW (van der Waals Surface) (Alpha=1.100).
 Cavity algorithm     : GePol (No added spheres)
                        Default sphere list used, NSphG=   26.
                        Lebedev-Laikov grids with approx.  5.0 points / Ang**2.
                        Smoothing algorithm: York/Karplus (Gamma=1.0000).
                        Polarization charges: spherical gaussians, with
                                              point-specific exponents (IZeta= 3).
                        Self-potential: point-specific (ISelfS= 7).
                        Self-field    : sphere-specific E.n sum rule (ISelfD= 2).
 1st derivatives      : Analytical E(r).r(x)/FMM algorithm (CHGder, D1EAlg=3).
                        Cavity 1st derivative terms included.
 Solvent              : Toluene, Eps=   2.374100 Eps(inf)=   2.238315
 ------------------------------------------------------------------------------
 One-electron integrals computed using PRISM.
   1 Symmetry operations used in ECPInt.
 ECPInt:  NShTT=    7140 NPrTT=   26096 LenC2=    6948 LenP2D=   19128.
 LDataN:  DoStor=T MaxTD1= 4 Len=   56
 NBasis=   251 RedAO= T EigKep=  5.72D-04  NBF=   251
 NBsUse=   251 1.00D-06 EigRej= -1.00D+00 NBFU=   251
 ExpMin= 1.22D-01 ExpMax= 1.04D+04 ExpMxC= 1.57D+03 IAcc=3 IRadAn=         5 AccDes= 0.00D+00
 Harris functional with IExCor= 4639 and IRadAn=       5 diagonalized for initial guess.
 HarFok:  IExCor= 4639 AccDes= 0.00D+00 IRadAn=         5 IDoV= 1 UseB2=F ITyADJ=14
 ICtDFT=  3500011 ScaDFX=  1.000000  1.000000  1.000000  1.000000
 FoFCou: FMM=F IPFlag=           0 FMFlag=      100000 FMFlg1=           0
         NFxFlg=           0 DoJE=T BraDBF=F KetDBF=T FulRan=T
         wScrn=  0.000000 ICntrl=       500 IOpCl=  0 I1Cent=   200000004 NGrid=           0
         NMat0=    1 NMatS0=      1 NMatT0=    0 NMatD0=    1 NMtDS0=    0 NMtDT0=    0
 Petite list used in FoFCou.
 Requested convergence on RMS density matrix=1.00D-08 within 128 cycles.
 Requested convergence on MAX density matrix=1.00D-06.
 Requested convergence on             energy=1.00D-06.
 No special actions if energy rises.
 Inv3:  Mode=1 IEnd=    12036027.
 Iteration    1 A*A^-1 deviation from unit magnitude is 3.55D-15 for    205.
 Iteration    1 A*A^-1 deviation from orthogonality  is 2.00D-15 for   1148    598.
 Iteration    1 A^-1*A deviation from unit magnitude is 3.77D-15 for    205.
 Iteration    1 A^-1*A deviation from orthogonality  is 1.93D-15 for   1164    564.
 Error on total polarization charges =  0.00639
 SCF Done:  E(RwB97XD) =  -961.702744344     A.U. after   15 cycles
            NFock= 15  Conv=0.47D-08     -V/T= 2.0068

 **********************************************************************

            Population analysis using the SCF Density.

 **********************************************************************

 Orbital symmetries:
       Occupied  (A) (A) (A) (A) (A) (A) (A) (A) (A) (A) (A) (A)
                 (A) (A) (A) (A) (A) (A) (A) (A) (A) (A) (A) (A)
                 (A) (A) (A) (A) (A) (A) (A) (A) (A) (A) (A) (A)
                 (A) (A) (A) (A) (A) (A) (A) (A) (A) (A) (A) (A)
                 (A) (A) (A) (A)
       Virtual   (A) (A) (A) (A) (A) (A) (A) (A) (A) (A) (A) (A)
                 (A) (A) (A) (A) (A) (A) (A) (A) (A) (A) (A) (A)
                 (A) (A) (A) (A) (A) (A) (A) (A) (A) (A) (A) (A)
                 (A) (A) (A) (A) (A) (A) (A) (A) (A) (A) (A) (A)
                 (A) (A) (A) (A) (A) (A) (A) (A) (A) (A) (A) (A)
                 (A) (A) (A) (A) (A) (A) (A) (A) (A) (A) (A) (A)
                 (A) (A) (A) (A) (A) (A) (A) (A) (A) (A) (A) (A)
                 (A) (A) (A) (A) (A) (A) (A) (A) (A) (A) (A) (A)
                 (A) (A) (A) (A) (A) (A) (A) (A) (A) (A) (A) (A)
                 (A) (A) (A) (A) (A) (A) (A) (A) (A) (A) (A) (A)
                 (A) (A) (A) (A) (A) (A) (A) (A) (A) (A) (A) (A)
                 (A) (A) (A) (A) (A) (A) (A) (A) (A) (A) (A) (A)
                 (A) (A) (A) (A) (A) (A) (A) (A) (A) (A) (A) (A)
                 (A) (A) (A) (A) (A) (A) (A) (A) (A) (A) (A) (A)
                 (A) (A) (A) (A) (A) (A) (A) (A) (A) (A) (A) (A)
                 (A) (A) (A) (A) (A) (A) (A) (A) (A) (A) (A) (A)
                 (A) (A) (A) (A) (A) (A) (A)
 The electronic state is 1-A.
 Alpha  occ. eigenvalues -- -101.68823 -19.25579 -10.40061 -10.36762 -10.32249
 Alpha  occ. eigenvalues --  -10.31263 -10.31231 -10.30163 -10.30069 -10.30037
 Alpha  occ. eigenvalues --  -10.29680 -10.29193 -10.28998  -9.59563  -7.34929
 Alpha  occ. eigenvalues --   -7.34007  -7.33940  -1.14532  -0.97862  -0.96139
 Alpha  occ. eigenvalues --   -0.89934  -0.86032  -0.83815  -0.79546  -0.77583
 Alpha  occ. eigenvalues --   -0.72953  -0.70512  -0.62713  -0.61627  -0.60779
 Alpha  occ. eigenvalues --   -0.59581  -0.57497  -0.55506  -0.54904  -0.53428
 Alpha  occ. eigenvalues --   -0.52513  -0.49927  -0.49804  -0.48979  -0.48606
 Alpha  occ. eigenvalues --   -0.47412  -0.45853  -0.45367  -0.44676  -0.43055
 Alpha  occ. eigenvalues --   -0.42815  -0.41372  -0.40150  -0.38213  -0.34810
 Alpha  occ. eigenvalues --   -0.33880  -0.28280
 Alpha virt. eigenvalues --    0.03072   0.04864   0.07521   0.12592   0.13332
 Alpha virt. eigenvalues --    0.14522   0.15317   0.16473   0.17486   0.18563
 Alpha virt. eigenvalues --    0.19284   0.20671   0.21712   0.22254   0.22735
 Alpha virt. eigenvalues --    0.23725   0.24404   0.24820   0.26446   0.30040
 Alpha virt. eigenvalues --    0.30809   0.31233   0.33816   0.34633   0.36773
 Alpha virt. eigenvalues --    0.38932   0.40360   0.41255   0.42461   0.44745
 Alpha virt. eigenvalues --    0.47634   0.48137   0.50881   0.52202   0.52711
 Alpha virt. eigenvalues --    0.53385   0.54222   0.54901   0.55739   0.56944
 Alpha virt. eigenvalues --    0.58019   0.58529   0.60271   0.62920   0.63393
 Alpha virt. eigenvalues --    0.64914   0.66090   0.68569   0.69084   0.69812
 Alpha virt. eigenvalues --    0.70341   0.70826   0.71293   0.72452   0.73047
 Alpha virt. eigenvalues --    0.73714   0.73865   0.74729   0.75080   0.75890
 Alpha virt. eigenvalues --    0.76336   0.77105   0.77642   0.78301   0.78478
 Alpha virt. eigenvalues --    0.78705   0.79615   0.80024   0.80995   0.82426
 Alpha virt. eigenvalues --    0.83168   0.83299   0.84546   0.86831   0.87114
 Alpha virt. eigenvalues --    0.88606   0.89981   0.91071   0.91958   0.93097
 Alpha virt. eigenvalues --    0.95173   0.96928   0.98553   1.02097   1.04163
 Alpha virt. eigenvalues --    1.06512   1.08563   1.09207   1.10884   1.13629
 Alpha virt. eigenvalues --    1.14910   1.17828   1.19030   1.23653   1.24355
 Alpha virt. eigenvalues --    1.25082   1.26705   1.29914   1.33428   1.34275
 Alpha virt. eigenvalues --    1.34493   1.37577   1.41341   1.44135   1.46226
 Alpha virt. eigenvalues --    1.55281   1.58571   1.59948   1.60853   1.62052
 Alpha virt. eigenvalues --    1.62376   1.65664   1.66284   1.66685   1.69744
 Alpha virt. eigenvalues --    1.70942   1.73711   1.75448   1.77851   1.79265
 Alpha virt. eigenvalues --    1.80775   1.81385   1.82666   1.83029   1.84081
 Alpha virt. eigenvalues --    1.85171   1.85942   1.86694   1.87398   1.88349
 Alpha virt. eigenvalues --    1.89897   1.91067   1.91875   1.93980   1.94538
 Alpha virt. eigenvalues --    1.96273   1.97045   1.99844   2.01427   2.03596
 Alpha virt. eigenvalues --    2.05134   2.06509   2.07633   2.08872   2.10379
 Alpha virt. eigenvalues --    2.14444   2.15687   2.16638   2.17330   2.18817
 Alpha virt. eigenvalues --    2.21488   2.24238   2.25445   2.29188   2.30479
 Alpha virt. eigenvalues --    2.33374   2.34859   2.35757   2.36363   2.39194
 Alpha virt. eigenvalues --    2.41215   2.42970   2.44743   2.48079   2.48647
 Alpha virt. eigenvalues --    2.49548   2.53069   2.56238   2.57734   2.65114
 Alpha virt. eigenvalues --    2.66253   2.69026   2.70721   2.73329   2.74680
 Alpha virt. eigenvalues --    2.76297   2.78452   2.79029   2.79413   2.81965
 Alpha virt. eigenvalues --    2.82233   2.83741   2.87517   2.92089   2.95286
 Alpha virt. eigenvalues --    2.99497   3.01259   3.02010   3.05005   3.08633
 Alpha virt. eigenvalues --    3.11841   3.13129   3.20433   3.22176   3.25877
 Alpha virt. eigenvalues --    3.27077   3.47833   3.48527   3.70668
          Condensed to atoms (all electrons):
               1          2          3          4          5          6
     1  C    5.083053   0.003621  -0.096637  -0.001447   0.590734  -0.002391
     2  C    0.003621   4.721831  -0.007042   0.631561   0.002709  -0.002778
     3  C   -0.096637  -0.007042   5.192829  -0.004362  -0.006277   0.582017
     4  C   -0.001447   0.631561  -0.004362   5.106823  -0.001341  -0.000278
     5  C    0.590734   0.002709  -0.006277  -0.001341   4.963713   0.274223
     6  C   -0.002391  -0.002778   0.582017  -0.000278   0.274223   4.989775
     7  C    0.010444  -0.002101   0.334681   0.012436   0.009883  -0.060782
     8  H   -0.000609   0.000401  -0.014984  -0.002379   0.000682  -0.015151
     9  H    0.000454  -0.000040  -0.000871   0.000008  -0.000644   0.001574
    10  C    0.000518   0.007483  -0.048297  -0.168339  -0.000438   0.002695
    11  H   -0.000013  -0.000301   0.006371   0.011491   0.000012  -0.000152
    12  H   -0.000012  -0.000342  -0.014661   0.002588   0.000074  -0.000130
    13  C    0.000082  -0.031267  -0.007173   0.266830   0.000031   0.001166
    14  O    0.000000   0.000102  -0.000081  -0.079801  -0.000000  -0.000000
    15  H   -0.000021   0.003629   0.004326   0.370935  -0.000834   0.002549
    16  H    0.000322   0.409768  -0.000195  -0.021448   0.001187  -0.000256
    17  C    0.334816   0.000167   0.333646   0.003726  -0.092050  -0.108892
    18  H    0.003120   0.000158  -0.000979   0.000157   0.000439   0.000589
    19  H   -0.008357  -0.003036   0.001351  -0.009257   0.001204   0.003308
    20  Cl   0.000413   0.286056   0.000410  -0.086659  -0.000128   0.000073
    21  C    0.403620  -0.000133   0.009077   0.000014  -0.063965   0.010147
    22  H   -0.015842  -0.000577   0.000463   0.000060   0.001405  -0.000362
    23  H   -0.010483  -0.000004  -0.000598   0.000001  -0.012157   0.000427
    24  H   -0.015153   0.000027   0.000593  -0.000005   0.002952  -0.000545
    25  H    0.007434   0.000009  -0.065526  -0.000251  -0.053526   0.442477
    26  H   -0.064365  -0.000019   0.007757   0.000007   0.443904  -0.056670
               7          8          9         10         11         12
     1  C    0.010444  -0.000609   0.000454   0.000518  -0.000013  -0.000012
     2  C   -0.002101   0.000401  -0.000040   0.007483  -0.000301  -0.000342
     3  C    0.334681  -0.014984  -0.000871  -0.048297   0.006371  -0.014661
     4  C    0.012436  -0.002379   0.000008  -0.168339   0.011491   0.002588
     5  C    0.009883   0.000682  -0.000644  -0.000438   0.000012   0.000074
     6  C   -0.060782  -0.015151   0.001574   0.002695  -0.000152  -0.000130
     7  C    4.713116   0.380956   0.342257   0.310560  -0.009300  -0.007920
     8  H    0.380956   0.662511  -0.023336  -0.026663  -0.005007   0.006521
     9  H    0.342257  -0.023336   0.648624  -0.006907  -0.006070  -0.008157
    10  C    0.310560  -0.026663  -0.006907   5.087984   0.340676   0.350051
    11  H   -0.009300  -0.005007  -0.006070   0.340676   0.607621  -0.006168
    12  H   -0.007920   0.006521  -0.008157   0.350051  -0.006168   0.592759
    13  C   -0.036076  -0.007605   0.006601   0.296555  -0.008383  -0.003956
    14  O    0.004562   0.000175  -0.000163  -0.088273   0.007946   0.000869
    15  H    0.000369   0.000378   0.000152  -0.002392  -0.000287   0.000102
    16  H    0.000096   0.000004  -0.000003  -0.000407   0.000009   0.000027
    17  C   -0.079890   0.009897  -0.005778  -0.000420   0.000238   0.006704
    18  H    0.004200  -0.000269   0.001164  -0.002021  -0.000049   0.000667
    19  H   -0.010351  -0.000166   0.000155   0.006508  -0.000090   0.001365
    20  Cl   0.000003  -0.000003   0.000001  -0.002395  -0.000001   0.001017
    21  C   -0.000224   0.000006   0.000010  -0.000000  -0.000000   0.000011
    22  H    0.000005  -0.000001   0.000003  -0.000011   0.000000  -0.000013
    23  H    0.000007  -0.000000  -0.000000   0.000000   0.000000  -0.000000
    24  H    0.000014   0.000000  -0.000007   0.000002  -0.000000   0.000003
    25  H   -0.012043   0.004809   0.000308   0.000137  -0.000008   0.000001
    26  H   -0.000312   0.000009   0.000006   0.000006  -0.000000  -0.000000
              13         14         15         16         17         18
     1  C    0.000082   0.000000  -0.000021   0.000322   0.334816   0.003120
     2  C   -0.031267   0.000102   0.003629   0.409768   0.000167   0.000158
     3  C   -0.007173  -0.000081   0.004326  -0.000195   0.333646  -0.000979
     4  C    0.266830  -0.079801   0.370935  -0.021448   0.003726   0.000157
     5  C    0.000031  -0.000000  -0.000834   0.001187  -0.092050   0.000439
     6  C    0.001166  -0.000000   0.002549  -0.000256  -0.108892   0.000589
     7  C   -0.036076   0.004562   0.000369   0.000096  -0.079890   0.004200
     8  H   -0.007605   0.000175   0.000378   0.000004   0.009897  -0.000269
     9  H    0.006601  -0.000163   0.000152  -0.000003  -0.005778   0.001164
    10  C    0.296555  -0.088273  -0.002392  -0.000407  -0.000420  -0.002021
    11  H   -0.008383   0.007946  -0.000287   0.000009   0.000238  -0.000049
    12  H   -0.003956   0.000869   0.000102   0.000027   0.006704   0.000667
    13  C    4.767583   0.695497  -0.022793   0.006790  -0.004670   0.000274
    14  O    0.695497   7.682929   0.001156  -0.000147   0.000018  -0.000001
    15  H   -0.022793   0.001156   0.567048  -0.010834  -0.000242   0.000001
    16  H    0.006790  -0.000147  -0.010834   0.552701  -0.000206   0.000008
    17  C   -0.004670   0.000018  -0.000242  -0.000206   4.858726   0.332911
    18  H    0.000274  -0.000001   0.000001   0.000008   0.332911   0.610531
    19  H    0.000265  -0.000128   0.000032   0.000199   0.330993  -0.015154
    20  Cl   0.008922  -0.000849   0.003670  -0.037218  -0.007134   0.000017
    21  C   -0.000000  -0.000000   0.000001   0.000002  -0.066936  -0.000825
    22  H    0.000000   0.000000  -0.000000  -0.000113  -0.005790  -0.000078
    23  H   -0.000000   0.000000  -0.000000   0.000002   0.008816  -0.000241
    24  H    0.000000   0.000000  -0.000000   0.000003  -0.005737   0.001978
    25  H   -0.000007   0.000000   0.000644  -0.000006   0.014739  -0.000385
    26  H    0.000001  -0.000000  -0.000003   0.000016   0.015164  -0.000378
              19         20         21         22         23         24
     1  C   -0.008357   0.000413   0.403620  -0.015842  -0.010483  -0.015153
     2  C   -0.003036   0.286056  -0.000133  -0.000577  -0.000004   0.000027
     3  C    0.001351   0.000410   0.009077   0.000463  -0.000598   0.000593
     4  C   -0.009257  -0.086659   0.000014   0.000060   0.000001  -0.000005
     5  C    0.001204  -0.000128  -0.063965   0.001405  -0.012157   0.002952
     6  C    0.003308   0.000073   0.010147  -0.000362   0.000427  -0.000545
     7  C   -0.010351   0.000003  -0.000224   0.000005   0.000007   0.000014
     8  H   -0.000166  -0.000003   0.000006  -0.000001  -0.000000   0.000000
     9  H    0.000155   0.000001   0.000010   0.000003  -0.000000  -0.000007
    10  C    0.006508  -0.002395  -0.000000  -0.000011   0.000000   0.000002
    11  H   -0.000090  -0.000001  -0.000000   0.000000   0.000000  -0.000000
    12  H    0.001365   0.001017   0.000011  -0.000013  -0.000000   0.000003
    13  C    0.000265   0.008922  -0.000000   0.000000  -0.000000   0.000000
    14  O   -0.000128  -0.000849  -0.000000   0.000000   0.000000   0.000000
    15  H    0.000032   0.003670   0.000001  -0.000000  -0.000000  -0.000000
    16  H    0.000199  -0.037218   0.000002  -0.000113   0.000002   0.000003
    17  C    0.330993  -0.007134  -0.066936  -0.005790   0.008816  -0.005737
    18  H   -0.015154   0.000017  -0.000825  -0.000078  -0.000241   0.001978
    19  H    0.639867   0.021590  -0.000563   0.003111  -0.000239  -0.000302
    20  Cl   0.021590  16.912324  -0.000948   0.003483   0.000003  -0.000001
    21  C   -0.000563  -0.000948   4.520668   0.379809   0.386393   0.383153
    22  H    0.003111   0.003483   0.379809   0.631514  -0.019663  -0.023145
    23  H   -0.000239   0.000003   0.386393  -0.019663   0.628575  -0.020401
    24  H   -0.000302  -0.000001   0.383153  -0.023145  -0.020401   0.631594
    25  H   -0.000337   0.000001  -0.000293   0.000007   0.000006   0.000005
    26  H   -0.000374  -0.000000  -0.010761   0.000140   0.004508   0.000089
              25         26
     1  C    0.007434  -0.064365
     2  C    0.000009  -0.000019
     3  C   -0.065526   0.007757
     4  C   -0.000251   0.000007
     5  C   -0.053526   0.443904
     6  C    0.442477  -0.056670
     7  C   -0.012043  -0.000312
     8  H    0.004809   0.000009
     9  H    0.000308   0.000006
    10  C    0.000137   0.000006
    11  H   -0.000008  -0.000000
    12  H    0.000001  -0.000000
    13  C   -0.000007   0.000001
    14  O    0.000000  -0.000000
    15  H    0.000644  -0.000003
    16  H   -0.000006   0.000016
    17  C    0.014739   0.015164
    18  H   -0.000385  -0.000378
    19  H   -0.000337  -0.000374
    20  Cl   0.000001  -0.000000
    21  C   -0.000293  -0.010761
    22  H    0.000007   0.000140
    23  H    0.000006   0.004508
    24  H    0.000005   0.000089
    25  H    0.659799  -0.003589
    26  H   -0.003589   0.659306
 Mulliken charges:
               1
     1  C   -0.223298
     2  C   -0.019880
     3  C   -0.205838
     4  C   -0.031070
     5  C   -0.061790
     6  C   -0.062634
     7  C    0.095408
     8  H    0.029823
     9  H    0.050659
    10  C   -0.056609
    11  H    0.061466
    12  H    0.078600
    13  C    0.071332
    14  O   -0.223813
    15  H    0.082416
    16  H    0.099701
    17  C    0.127183
    18  H    0.064166
    19  H    0.038409
    20  Cl  -0.102647
    21  C    0.051737
    22  H    0.045593
    23  H    0.035049
    24  H    0.044882
    25  H    0.005596
    26  H    0.005559
 Sum of Mulliken charges =  -0.00000
 Mulliken charges with hydrogens summed into heavy atoms:
               1
     1  C   -0.223298
     2  C    0.079820
     3  C   -0.205838
     4  C    0.051346
     5  C   -0.056231
     6  C   -0.057037
     7  C    0.175891
    10  C    0.083457
    13  C    0.071332
    14  O   -0.223813
    17  C    0.229758
    20  Cl  -0.102647
    21  C    0.177261
 Electronic spatial extent (au):  <R**2>=           2789.2357
 Charge=             -0.0000 electrons
 Dipole moment (field-independent basis, Debye):
    X=             -3.0402    Y=             -1.3884    Z=              0.4360  Tot=              3.3705
 Quadrupole moment (field-independent basis, Debye-Ang):
   XX=            -98.8895   YY=            -81.0742   ZZ=            -77.0028
   XY=             -5.5370   XZ=              0.8250   YZ=              0.5471
 Traceless Quadrupole moment (field-independent basis, Debye-Ang):
   XX=            -13.2340   YY=              4.5813   ZZ=              8.6527
   XY=             -5.5370   XZ=              0.8250   YZ=              0.5471
 Octapole moment (field-independent basis, Debye-Ang**2):
  XXX=            -41.8866  YYY=              2.4361  ZZZ=              0.2469  XYY=             11.4795
  XXY=              9.1299  XXZ=              2.2777  XZZ=              2.3411  YZZ=              1.2530
  YYZ=             -0.0300  XYZ=              0.5172
 Hexadecapole moment (field-independent basis, Debye-Ang**3):
 XXXX=          -2238.4699 YYYY=          -1230.8997 ZZZZ=           -396.0103 XXXY=            -28.5242
 XXXZ=             -9.5395 YYYX=            -16.0861 YYYZ=             -2.0145 ZZZX=             -5.3737
 ZZZY=             -1.1570 XXYY=           -545.7796 XXZZ=           -388.4687 YYZZ=           -255.1201
 XXYZ=             -6.6364 YYXZ=             -7.7616 ZZXY=              4.2554
 N-N= 8.738893138567D+02 E-N=-4.004746850254D+03  KE= 9.552494007538D+02
   1 Symmetry operations used in ECPInt.
 ECPInt:  NShTT=    7140 NPrTT=   26096 LenC2=    6948 LenP2D=   19128.
 LDataN:  DoStor=T MaxTD1= 5 Len=  102
 D1PCM: PCM CHGder 1st derivatives, ID1Alg=3 FixD1E=F DoIter=F DoCFld=F I1PDM=0.
 Calling FoFJK, ICntrl=      2127 FMM=F ISym2X=0 I1Cent= 0 IOpClX= 0 NMat=1 NMatS=1 NMatT=0.
 ***** Axes restored to original set *****
 -------------------------------------------------------------------
 Center     Atomic                   Forces (Hartrees/Bohr)
 Number     Number              X              Y              Z
 -------------------------------------------------------------------
      1        6          -0.000097266   -0.000083593   -0.000013970
      2        6           0.000032798   -0.000020667   -0.000132420
      3        6          -0.000095148   -0.000188456    0.000024839
      4        6          -0.000042791    0.000164517   -0.000026756
      5        6          -0.000048653    0.000065084    0.000000366
      6        6           0.000127643    0.000069963    0.000076758
      7        6          -0.000051645    0.000081895   -0.000242715
      8        1          -0.000019867   -0.000049806    0.000097958
      9        1           0.000067485    0.000062813    0.000054970
     10        6           0.000207730    0.000107223   -0.000164209
     11        1          -0.000079094    0.000009372    0.000033442
     12        1           0.000057846   -0.000034411   -0.000022357
     13        6          -0.000210257   -0.000342881    0.000077622
     14        8           0.000036080    0.000058542    0.000030886
     15        1           0.000088355    0.000028089    0.000031096
     16        1          -0.000105754    0.000013936    0.000066053
     17        6          -0.000027684    0.000042624    0.000113279
     18        1          -0.000015112    0.000004149    0.000044355
     19        1          -0.000009078   -0.000100279   -0.000136691
     20       17           0.000188795    0.000075595    0.000108908
     21        6           0.000036982    0.000031346    0.000013254
     22        1          -0.000015886    0.000014326   -0.000026546
     23        1           0.000015288    0.000016948    0.000003600
     24        1          -0.000009952   -0.000008861    0.000008942
     25        1          -0.000004810    0.000004736   -0.000001138
     26        1          -0.000026006   -0.000022206   -0.000019526
 -------------------------------------------------------------------
 Cartesian Forces:  Max     0.000342881 RMS     0.000090233

 GradGradGradGradGradGradGradGradGradGradGradGradGradGradGradGradGradGrad
 Berny optimization.
 FormGI is forming the generalized inverse of G from B-inverse, IUseBI=4.
 Internal  Forces:  Max     0.000704814 RMS     0.000123721
 Search for a saddle point.
 Step number   1 out of a maximum of   50
 All quantities printed in internal units (Hartrees-Bohrs-Radians)
 Swapping is turned off.
 Second derivative matrix not updated -- first step.
 ITU=  0
     Eigenvalues ---   -0.00076   0.00018   0.00130   0.00414   0.00507
     Eigenvalues ---    0.00892   0.01037   0.01217   0.01427   0.01916
     Eigenvalues ---    0.02248   0.02366   0.03033   0.03160   0.03291
     Eigenvalues ---    0.03351   0.03675   0.04009   0.04288   0.04445
     Eigenvalues ---    0.04478   0.04532   0.05604   0.06892   0.07148
     Eigenvalues ---    0.07605   0.08254   0.08588   0.09131   0.09224
     Eigenvalues ---    0.09638   0.10165   0.10443   0.10665   0.11488
     Eigenvalues ---    0.11580   0.12082   0.12826   0.13179   0.13302
     Eigenvalues ---    0.14545   0.15773   0.17089   0.18072   0.19055
     Eigenvalues ---    0.23753   0.24900   0.25645   0.25688   0.25721
     Eigenvalues ---    0.25797   0.25974   0.26270   0.26569   0.26601
     Eigenvalues ---    0.26990   0.27799   0.27915   0.28024   0.31980
     Eigenvalues ---    0.32740   0.34679   0.35424   0.36493   0.39152
     Eigenvalues ---    0.40721   0.42319   0.47996   0.60789   0.72423
     Eigenvalues ---    0.78114   0.89112
 Eigenvectors required to have negative eigenvalues:
                          D54       D58       D55       D59       D56
   1                    0.30755   0.30577   0.30310   0.30131   0.29744
                          D57       D39       D37       D40       D38
   1                    0.29299  -0.28136  -0.27837  -0.27703  -0.27404
 RFO step:  Lambda0=1.668604485D-05 Lambda=-4.56947513D-05.
 Linear search not attempted -- option 19 set.
 Iteration  1 RMS(Cart)=  0.03159792 RMS(Int)=  0.00088193
 Iteration  2 RMS(Cart)=  0.00099441 RMS(Int)=  0.00000114
 Iteration  3 RMS(Cart)=  0.00000089 RMS(Int)=  0.00000092
 Variable       Old X    -DE/DX   Delta X   Delta X   Delta X     New X
                                 (Linear)    (Quad)   (Total)
    R1        2.55427  -0.00003   0.00000  -0.00006  -0.00006   2.55421
    R2        2.84320   0.00005   0.00000   0.00009   0.00009   2.84329
    R3        2.82190   0.00002   0.00000   0.00005   0.00005   2.82195
    R4        2.51283   0.00004   0.00000   0.00047   0.00047   2.51330
    R5        2.06101   0.00011   0.00000   0.00026   0.00026   2.06126
    R6        3.28767  -0.00000   0.00000  -0.00117  -0.00117   3.28650
    R7        2.55273   0.00003   0.00000   0.00005   0.00005   2.55278
    R8        2.83420   0.00004   0.00000  -0.00004  -0.00004   2.83416
    R9        2.84618  -0.00001   0.00000   0.00007   0.00007   2.84625
   R10        2.84263   0.00007   0.00000  -0.00031  -0.00031   2.84232
   R11        2.06753  -0.00002   0.00000  -0.00077  -0.00077   2.06676
   R12        2.76750   0.00005   0.00000   0.00013   0.00013   2.76763
   R13        2.06311  -0.00000   0.00000   0.00001   0.00001   2.06311
   R14        2.06391  -0.00000   0.00000   0.00002   0.00002   2.06393
   R15        2.08175   0.00010   0.00000   0.00065   0.00065   2.08240
   R16        2.08623  -0.00010   0.00000  -0.00037  -0.00037   2.08586
   R17        2.89698   0.00018   0.00000  -0.00005  -0.00005   2.89693
   R18        2.07919  -0.00007   0.00000  -0.00007  -0.00007   2.07912
   R19        2.08826  -0.00001   0.00000   0.00004   0.00004   2.08830
   R20        2.87268   0.00008   0.00000  -0.00052  -0.00052   2.87217
   R21        2.28250   0.00005   0.00000   0.00043   0.00043   2.28293
   R22        2.08998  -0.00004   0.00000  -0.00004  -0.00004   2.08993
   R23        2.08611  -0.00005   0.00000   0.00030   0.00030   2.08641
   R24        2.08385  -0.00000   0.00000  -0.00061  -0.00061   2.08323
   R25        2.07687  -0.00000   0.00000   0.00001   0.00001   2.07689
   R26        2.08302  -0.00000   0.00000   0.00055   0.00055   2.08358
    A1        1.88880  -0.00000   0.00000  -0.00001  -0.00001   1.88879
    A2        2.24649  -0.00001   0.00000  -0.00005  -0.00005   2.24644
    A3        2.14783   0.00001   0.00000   0.00010   0.00010   2.14792
    A4        2.14888  -0.00005   0.00000   0.00101   0.00101   2.14989
    A5        2.15628   0.00007   0.00000  -0.00310  -0.00310   2.15318
    A6        1.97680  -0.00001   0.00000   0.00209   0.00209   1.97889
    A7        2.23190  -0.00009   0.00000  -0.00031  -0.00031   2.23159
    A8        1.88729  -0.00004   0.00000  -0.00011  -0.00011   1.88718
    A9        2.16383   0.00013   0.00000   0.00039   0.00039   2.16422
   A10        2.19244   0.00003   0.00000  -0.00640  -0.00640   2.18604
   A11        2.04696  -0.00001   0.00000   0.00168   0.00168   2.04864
   A12        2.04366  -0.00003   0.00000   0.00470   0.00470   2.04837
   A13        1.91367  -0.00002   0.00000  -0.00001  -0.00001   1.91365
   A14        2.19112   0.00001   0.00000   0.00011   0.00011   2.19122
   A15        2.17832   0.00001   0.00000  -0.00007  -0.00008   2.17825
   A16        1.91575   0.00003   0.00000   0.00011   0.00011   1.91586
   A17        2.18925  -0.00001   0.00000   0.00006   0.00006   2.18931
   A18        2.17769  -0.00002   0.00000  -0.00013  -0.00013   2.17756
   A19        1.90863  -0.00021   0.00000  -0.00122  -0.00122   1.90741
   A20        1.91306  -0.00021   0.00000   0.00042   0.00042   1.91349
   A21        1.99891   0.00070   0.00000   0.00176   0.00176   2.00067
   A22        1.84779   0.00009   0.00000  -0.00028  -0.00028   1.84751
   A23        1.92490  -0.00031   0.00000  -0.00031  -0.00031   1.92459
   A24        1.86410  -0.00010   0.00000  -0.00049  -0.00049   1.86361
   A25        1.94046  -0.00015   0.00000  -0.00094  -0.00094   1.93952
   A26        1.91152   0.00016   0.00000  -0.00022  -0.00023   1.91129
   A27        2.06791  -0.00002   0.00000   0.00219   0.00218   2.07010
   A28        1.83984  -0.00002   0.00000  -0.00080  -0.00080   1.83904
   A29        1.86065  -0.00001   0.00000  -0.00024  -0.00024   1.86041
   A30        1.82750   0.00005   0.00000  -0.00026  -0.00026   1.82724
   A31        2.07153   0.00041   0.00000   0.00229   0.00229   2.07382
   A32        2.10346  -0.00028   0.00000  -0.00092  -0.00092   2.10254
   A33        2.10805  -0.00013   0.00000  -0.00146  -0.00147   2.10658
   A34        1.81867   0.00003   0.00000   0.00013   0.00013   1.81880
   A35        1.94459  -0.00005   0.00000  -0.00057  -0.00057   1.94402
   A36        1.93773   0.00009   0.00000   0.00108   0.00108   1.93881
   A37        1.94600  -0.00003   0.00000   0.00006   0.00006   1.94606
   A38        1.96952   0.00000   0.00000  -0.00063  -0.00063   1.96889
   A39        1.84991  -0.00004   0.00000  -0.00006  -0.00006   1.84984
   A40        1.93309   0.00005   0.00000   0.00307   0.00307   1.93616
   A41        1.94390  -0.00000   0.00000  -0.00012  -0.00012   1.94377
   A42        1.94516  -0.00002   0.00000  -0.00260  -0.00260   1.94256
   A43        1.88751  -0.00002   0.00000   0.00033   0.00033   1.88784
   A44        1.86427  -0.00001   0.00000  -0.00001  -0.00001   1.86427
   A45        1.88692   0.00000   0.00000  -0.00067  -0.00067   1.88624
    D1        0.01584  -0.00001   0.00000  -0.00079  -0.00079   0.01505
    D2       -3.13866   0.00002   0.00000   0.00065   0.00065  -3.13801
    D3       -3.11326  -0.00001   0.00000  -0.00437  -0.00437  -3.11763
    D4        0.01542   0.00001   0.00000  -0.00292  -0.00292   0.01249
    D5       -0.02921   0.00002   0.00000   0.00239   0.00239  -0.02682
    D6        2.07134  -0.00002   0.00000   0.00224   0.00224   2.07358
    D7       -2.15426  -0.00004   0.00000   0.00249   0.00249  -2.15177
    D8        3.10076   0.00002   0.00000   0.00572   0.00572   3.10648
    D9       -1.08188  -0.00002   0.00000   0.00557   0.00557  -1.07631
   D10        0.97570  -0.00004   0.00000   0.00582   0.00582   0.98152
   D11        2.07265   0.00002   0.00000   0.08569   0.08569   2.15834
   D12       -0.02873   0.00001   0.00000   0.08328   0.08328   0.05454
   D13       -2.13761   0.00002   0.00000   0.08601   0.08601  -2.05160
   D14       -1.05479   0.00002   0.00000   0.08164   0.08164  -0.97315
   D15        3.12701   0.00001   0.00000   0.07922   0.07922  -3.07695
   D16        1.01814   0.00002   0.00000   0.08196   0.08196   1.10009
   D17       -3.13171   0.00001   0.00000  -0.00479  -0.00479  -3.13650
   D18        0.02695  -0.00010   0.00000  -0.00405  -0.00405   0.02290
   D19        0.06667  -0.00026   0.00000  -0.00492  -0.00492   0.06176
   D20       -3.05785  -0.00037   0.00000  -0.00418  -0.00418  -3.06202
   D21        3.09774   0.00005   0.00000   0.00131   0.00131   3.09906
   D22       -0.01115   0.00002   0.00000  -0.00018  -0.00018  -0.01132
   D23       -0.02452   0.00002   0.00000   0.00288   0.00288  -0.02165
   D24       -3.13341  -0.00001   0.00000   0.00139   0.00139  -3.13202
   D25       -0.18523   0.00015   0.00000  -0.00346  -0.00346  -0.18869
   D26        1.83324   0.00002   0.00000  -0.00425  -0.00425   1.82899
   D27       -2.35561   0.00021   0.00000  -0.00338  -0.00338  -2.35899
   D28        2.93422   0.00019   0.00000  -0.00526  -0.00526   2.92895
   D29       -1.33051   0.00006   0.00000  -0.00605  -0.00605  -1.33655
   D30        0.76383   0.00025   0.00000  -0.00518  -0.00518   0.75865
   D31        0.03265  -0.00003   0.00000  -0.00322  -0.00322   0.02943
   D32       -2.06695   0.00003   0.00000  -0.00265  -0.00265  -2.06960
   D33        2.13653   0.00010   0.00000  -0.00218  -0.00218   2.13435
   D34       -3.09054  -0.00005   0.00000  -0.00173  -0.00172  -3.09227
   D35        1.09304   0.00000   0.00000  -0.00115  -0.00115   1.09189
   D36       -0.98667   0.00007   0.00000  -0.00068  -0.00068  -0.98735
   D37       -1.91959  -0.00026   0.00000  -0.05972  -0.05972  -1.97931
   D38        1.20324  -0.00024   0.00000  -0.06508  -0.06508   1.13816
   D39        1.20496  -0.00016   0.00000  -0.06049  -0.06049   1.14447
   D40       -1.95540  -0.00013   0.00000  -0.06584  -0.06585  -2.02125
   D41        0.00567  -0.00000   0.00000  -0.00136  -0.00136   0.00431
   D42        3.11482   0.00002   0.00000   0.00012   0.00012   3.11495
   D43       -3.12313  -0.00003   0.00000  -0.00279  -0.00279  -3.12592
   D44       -0.01397  -0.00001   0.00000  -0.00131  -0.00131  -0.01528
   D45       -3.04995  -0.00005   0.00000  -0.02447  -0.02447  -3.07442
   D46       -1.02374  -0.00006   0.00000  -0.02614  -0.02614  -1.04988
   D47        1.06931   0.00012   0.00000  -0.02510  -0.02510   1.04422
   D48        1.07151  -0.00005   0.00000  -0.02392  -0.02392   1.04759
   D49        3.09772  -0.00006   0.00000  -0.02558  -0.02558   3.07214
   D50       -1.09241   0.00012   0.00000  -0.02454  -0.02454  -1.11695
   D51       -0.92856   0.00006   0.00000  -0.02317  -0.02317  -0.95173
   D52        1.09765   0.00004   0.00000  -0.02483  -0.02483   1.07282
   D53       -3.09248   0.00023   0.00000  -0.02380  -0.02380  -3.11628
   D54       -0.38186  -0.00025   0.00000   0.03393   0.03393  -0.34793
   D55        2.77855  -0.00027   0.00000   0.03929   0.03929   2.81784
   D56       -2.58466  -0.00002   0.00000   0.03375   0.03375  -2.55091
   D57        0.57574  -0.00004   0.00000   0.03912   0.03912   0.61486
   D58        1.75402  -0.00002   0.00000   0.03485   0.03485   1.78887
   D59       -1.36876  -0.00004   0.00000   0.04022   0.04022  -1.32855
         Item               Value     Threshold  Converged?
 Maximum Force            0.000705     0.000450     NO 
 RMS     Force            0.000124     0.000300     YES
 Maximum Displacement     0.144321     0.001800     NO 
 RMS     Displacement     0.031603     0.001200     NO 
 Predicted change in Energy=-1.545624D-05
 GradGradGradGradGradGradGradGradGradGradGradGradGradGradGradGradGradGrad

                          Input orientation:                          
 ---------------------------------------------------------------------
 Center     Atomic      Atomic             Coordinates (Angstroms)
 Number     Number       Type             X           Y           Z
 ---------------------------------------------------------------------
      1          6           0       -2.468960    0.288952   -0.212707
      2          6           0        0.982997    1.290294    1.131256
      3          6           0       -0.898822   -1.486787   -0.050427
      4          6           0        1.357155    0.014431    1.099175
      5          6           0       -2.671848   -0.394718    0.935482
      6          6           0       -1.705710   -1.491092    1.032980
      7          6           0        0.258393   -2.395843   -0.339900
      8          1           0        0.499372   -2.977542    0.564463
      9          1           0       -0.033495   -3.135575   -1.105373
     10          6           0        1.512008   -1.686819   -0.865051
     11          1           0        2.299046   -2.411381   -1.122093
     12          1           0        1.273030   -1.166377   -1.810159
     13          6           0        2.166106   -0.625738    0.004611
     14          8           0        3.307351   -0.282948   -0.194134
     15          1           0        1.037627   -0.624383    1.927402
     16          1           0        0.399239    1.720882    1.945877
     17          6           0       -1.334601   -0.363975   -0.954828
     18          1           0       -1.662522   -0.741925   -1.941101
     19          1           0       -0.525721    0.358994   -1.159814
     20         17           0        1.304910    2.414209   -0.156301
     21          6           0       -3.189285    1.493857   -0.721937
     22          1           0       -2.485498    2.318775   -0.920632
     23          1           0       -3.937472    1.848381    0.000850
     24          1           0       -3.706128    1.279722   -1.672045
     25          1           0       -1.633742   -2.184858    1.873439
     26          1           0       -3.430350   -0.163955    1.686047
 ---------------------------------------------------------------------
                    Distance matrix (angstroms):
                    1          2          3          4          5
     1  C    0.000000
     2  C    3.837308   0.000000
     3  C    2.375904   3.556655   0.000000
     4  C    4.054079   1.329982   2.943581   0.000000
     5  C    1.351631   4.029328   2.303965   4.053031   0.000000
     6  C    2.302790   3.869743   1.350874   3.413520   1.464569
     7  C    3.829198   4.034471   1.499774   3.014570   3.770598
     8  H    4.481626   4.332387   2.134335   3.158103   4.106734
     9  H    4.296013   5.062023   2.140140   4.088578   4.317209
    10  C    4.491919   3.623299   2.552592   2.603155   4.734564
    11  H    5.554518   4.529014   3.497099   3.421367   5.745462
    12  H    4.321149   3.843342   2.813584   3.140957   4.867860
    13  C    4.729453   2.517986   3.184057   1.504090   4.932108
    14  O    5.804583   3.103928   4.377415   2.358886   6.085995
    15  H    4.208373   2.074325   2.899203   1.093682   3.846668
    16  H    3.864773   1.090773   3.994913   2.132248   3.863707
    17  C    1.504603   3.529818   1.506171   3.407003   2.315696
    18  H    2.168040   4.535203   2.170877   4.351299   3.068228
    19  H    2.162891   2.896990   2.185601   2.960908   3.092606
    20  Cl   4.331512   1.739143   4.481675   2.708853   4.989656
    21  C    1.493311   4.569869   3.818558   5.116177   2.565442
    22  H    2.149793   4.159144   4.213918   4.914835   3.292860
    23  H    2.152662   5.079399   4.512137   5.709884   2.739861
    24  H    2.154502   5.463196   4.261947   5.909100   3.266908
    25  H    3.342056   4.413031   2.174551   3.792337   2.272010
    26  H    2.175927   4.679772   3.342733   4.826639   1.091753
                    6          7          8          9         10
     6  C    0.000000
     7  C    2.561460   0.000000
     8  H    2.700265   1.101961   0.000000
     9  H    3.173828   1.103789   1.759907   0.000000
    10  C    3.740928   1.532987   2.175986   2.131954   0.000000
    11  H    4.639973   2.185482   2.530581   2.442434   1.100222
    12  H    4.130590   2.168579   3.085077   2.466064   1.105079
    13  C    4.098456   2.625134   2.936396   3.517043   1.519885
    14  O    5.300584   3.712373   3.964978   4.486544   2.375760
    15  H    3.012818   2.980927   2.772125   4.080577   3.025161
    16  H    3.947273   4.710842   4.898318   5.751743   4.555436
    17  C    2.315058   2.654101   3.535878   3.065502   3.140248
    18  H    3.067291   2.998200   3.993698   3.013591   3.482578
    19  H    3.102183   2.979299   3.893125   3.529485   2.902512
    20  Cl   5.072435   4.926003   5.499034   5.787242   4.166971
    21  C    3.767047   5.211737   5.937544   5.615841   5.677970
    22  H    4.351982   5.485782   6.258269   5.983007   5.659322
    23  H    4.147063   5.977862   6.579725   6.426864   6.553187
    24  H    4.358468   5.567928   6.388466   5.770979   6.056447
    25  H    1.092183   2.919513   2.625250   3.512545   4.200371
    26  H    2.272041   4.763676   4.961546   5.306710   5.766639
                   11         12         13         14         15
    11  H    0.000000
    12  H    1.753904   0.000000
    13  C    2.115574   2.093625   0.000000
    14  O    2.531405   2.744166   1.208074   0.000000
    15  H    3.752859   3.783983   2.229482   3.125561   0.000000
    16  H    5.486101   4.817424   3.520931   4.129418   2.430669
    17  C    4.174115   2.859226   3.639230   4.704565   3.741995
    18  H    4.376286   2.968967   4.296241   5.287928   4.719103
    19  H    3.956729   2.446468   3.093786   4.004630   3.597497
    20  Cl   5.020695   3.944218   3.163673   3.359443   3.694090
    21  C    6.747799   5.307855   5.805236   6.755878   5.419661
    22  H    6.731034   5.202314   5.582441   6.391703   5.402396
    23  H    7.635492   6.286322   6.585966   7.554339   5.880288
    24  H    7.070276   5.549278   6.397272   7.335874   6.251788
    25  H    4.948873   4.801617   4.512451   5.683882   3.094221
    26  H    6.764803   5.945594   5.861808   6.996131   4.498118
                   16         17         18         19         20
    16  H    0.000000
    17  C    3.970758   0.000000
    18  H    5.042308   1.105944   0.000000
    19  H    3.515054   1.104079   1.764865   0.000000
    20  Cl   2.391672   3.914457   4.685333   2.929532   0.000000
    21  C    4.477307   2.635457   2.969190   2.928178   4.622206
    22  H    4.110481   2.919398   3.329645   2.781848   3.867881
    23  H    4.754624   3.547222   3.956799   3.899418   5.275171
    24  H    5.489811   2.973262   2.887174   3.350390   5.356776
    25  H    4.403756   3.377010   4.078432   4.110903   5.822967
    26  H    4.276198   3.377335   4.076208   4.099911   5.697707
                   21         22         23         24         25
    21  C    0.000000
    22  H    1.102400   0.000000
    23  H    1.099041   1.782870   0.000000
    24  H    1.102582   1.770365   1.781985   0.000000
    25  H    4.763259   5.367964   5.008072   5.372948   0.000000
    26  H    2.933400   3.721755   2.673305   3.665657   2.710529
                   26
    26  H    0.000000
 Stoichiometry    C11H13ClO
 Framework group  C1[X(C11H13ClO)]
 Deg. of freedom    72
 Full point group                 C1      NOp   1
 Largest Abelian subgroup         C1      NOp   1
 Largest concise Abelian subgroup C1      NOp   1
                         Standard orientation:                         
 ---------------------------------------------------------------------
 Center     Atomic      Atomic             Coordinates (Angstroms)
 Number     Number       Type             X           Y           Z
 ---------------------------------------------------------------------
      1          6           0       -2.465558    0.361727   -0.222110
      2          6           0        1.016896    1.261481    1.115008
      3          6           0       -0.955535   -1.463521   -0.039841
      4          6           0        1.348383   -0.026395    1.096515
      5          6           0       -2.691896   -0.302864    0.932878
      6          6           0       -1.762870   -1.429723    1.042715
      7          6           0        0.170968   -2.413551   -0.318693
      8          1           0        0.391814   -2.993539    0.591889
      9          1           0       -0.144861   -3.151056   -1.076776
     10          6           0        1.447862   -1.752139   -0.849848
     11          1           0        2.210513   -2.505128   -1.098563
     12          1           0        1.227002   -1.233861   -1.800536
     13          6           0        2.136327   -0.704459    0.009472
     14          8           0        3.288491   -0.401932   -0.191623
     15          1           0        1.007186   -0.645593    1.930972
     16          1           0        0.447236    1.719691    1.924525
     17          6           0       -1.353055   -0.336266   -0.956259
     18          1           0       -1.692696   -0.713299   -1.938910
     19          1           0       -0.520407    0.357210   -1.167872
     20         17           0        1.376950    2.360641   -0.183771
     21          6           0       -3.145007    1.584596   -0.744524
     22          1           0       -2.414003    2.383522   -0.951010
     23          1           0       -3.881474    1.971310   -0.026220
     24          1           0       -3.668035    1.377943   -1.692903
     25          1           0       -1.714627   -2.116746    1.890379
     26          1           0       -3.442813   -0.039205    1.680227
 ---------------------------------------------------------------------
 Rotational constants (GHZ):           0.8864794           0.5771304           0.4133798
 Standard basis: def2SVP (5D, 7F)
 There are   264 symmetry adapted cartesian basis functions of A   symmetry.
 There are   251 symmetry adapted basis functions of A   symmetry.
   251 basis functions,   428 primitive gaussians,   264 cartesian basis functions
    52 alpha electrons       52 beta electrons
       nuclear repulsion energy       873.0079835738 Hartrees.
 NAtoms=   26 NActive=   26 NUniq=   26 SFac= 1.00D+00 NAtFMM=   60 NAOKFM=F Big=F
 Integral buffers will be    131072 words long.
 Raffenetti 2 integral format.
 Two-electron integral symmetry is turned on.
 Nuclear repulsion after empirical dispersion term =      872.9875085398 Hartrees.
 ------------------------------------------------------------------------------
 Polarizable Continuum Model (PCM)
 =================================
 Model                : PCM.
 Atomic radii         : UFF (Universal Force Field).
 Polarization charges : Total charges.
 Charge compensation  : None.
 Solution method      : On-the-fly selection.
 Cavity type          : Scaled VdW (van der Waals Surface) (Alpha=1.100).
 Cavity algorithm     : GePol (No added spheres)
                        Default sphere list used, NSphG=   26.
                        Lebedev-Laikov grids with approx.  5.0 points / Ang**2.
                        Smoothing algorithm: York/Karplus (Gamma=1.0000).
                        Polarization charges: spherical gaussians, with
                                              point-specific exponents (IZeta= 3).
                        Self-potential: point-specific (ISelfS= 7).
                        Self-field    : sphere-specific E.n sum rule (ISelfD= 2).
 1st derivatives      : Analytical E(r).r(x)/FMM algorithm (CHGder, D1EAlg=3).
                        Cavity 1st derivative terms included.
 Solvent              : Toluene, Eps=   2.374100 Eps(inf)=   2.238315
 ------------------------------------------------------------------------------
 One-electron integrals computed using PRISM.
   1 Symmetry operations used in ECPInt.
 ECPInt:  NShTT=    7140 NPrTT=   26096 LenC2=    6947 LenP2D=   19111.
 LDataN:  DoStor=T MaxTD1= 4 Len=   56
 NBasis=   251 RedAO= T EigKep=  5.70D-04  NBF=   251
 NBsUse=   251 1.00D-06 EigRej= -1.00D+00 NBFU=   251
 Initial guess from the checkpoint file:  "imda-1_1_opt_sqm_re.chk"
 B after Tr=     0.000000   -0.000000   -0.000000
         Rot=    0.999849    0.002254    0.000831    0.017183 Ang=   1.99 deg.
 ExpMin= 1.22D-01 ExpMax= 1.04D+04 ExpMxC= 1.57D+03 IAcc=3 IRadAn=         5 AccDes= 0.00D+00
 Harris functional with IExCor= 4639 and IRadAn=       5 diagonalized for initial guess.
 HarFok:  IExCor= 4639 AccDes= 0.00D+00 IRadAn=         5 IDoV= 1 UseB2=F ITyADJ=14
 ICtDFT=  3500011 ScaDFX=  1.000000  1.000000  1.000000  1.000000
 FoFCou: FMM=F IPFlag=           0 FMFlag=      100000 FMFlg1=           0
         NFxFlg=           0 DoJE=T BraDBF=F KetDBF=T FulRan=T
         wScrn=  0.000000 ICntrl=       500 IOpCl=  0 I1Cent=   200000004 NGrid=           0
         NMat0=    1 NMatS0=      1 NMatT0=    0 NMatD0=    1 NMtDS0=    0 NMtDT0=    0
 Petite list used in FoFCou.
 Requested convergence on RMS density matrix=1.00D-08 within 128 cycles.
 Requested convergence on MAX density matrix=1.00D-06.
 Requested convergence on             energy=1.00D-06.
 No special actions if energy rises.
 Inv3:  Mode=1 IEnd=    11892243.
 Iteration    1 A*A^-1 deviation from unit magnitude is 2.89D-15 for   1117.
 Iteration    1 A*A^-1 deviation from orthogonality  is 2.11D-15 for   1319    616.
 Iteration    1 A^-1*A deviation from unit magnitude is 3.11D-15 for   1117.
 Iteration    1 A^-1*A deviation from orthogonality  is 3.08D-15 for   1347   1313.
 Error on total polarization charges =  0.00618
 SCF Done:  E(RwB97XD) =  -961.702705125     A.U. after   12 cycles
            NFock= 12  Conv=0.71D-08     -V/T= 2.0068
   1 Symmetry operations used in ECPInt.
 ECPInt:  NShTT=    7140 NPrTT=   26096 LenC2=    6947 LenP2D=   19111.
 LDataN:  DoStor=T MaxTD1= 5 Len=  102
 D1PCM: PCM CHGder 1st derivatives, ID1Alg=3 FixD1E=F DoIter=F DoCFld=F I1PDM=0.
 Calling FoFJK, ICntrl=      2127 FMM=F ISym2X=0 I1Cent= 0 IOpClX= 0 NMat=1 NMatS=1 NMatT=0.
 ***** Axes restored to original set *****
 -------------------------------------------------------------------
 Center     Atomic                   Forces (Hartrees/Bohr)
 Number     Number              X              Y              Z
 -------------------------------------------------------------------
      1        6           0.000345277    0.000347436    0.000256545
      2        6           0.000210224    0.000092886   -0.000405208
      3        6          -0.000017710    0.000074275   -0.000165164
      4        6           0.000468289   -0.000394758   -0.000006898
      5        6           0.000027039    0.000053093    0.000043969
      6        6          -0.000077814   -0.000068166   -0.000030924
      7        6           0.000269631   -0.000111008    0.000205547
      8        1          -0.000058302    0.000061455   -0.000042309
      9        1          -0.000015574   -0.000050519    0.000027902
     10        6          -0.000283694   -0.000037933   -0.000157633
     11        1          -0.000095727   -0.000094155   -0.000100396
     12        1           0.000129708    0.000041124    0.000079836
     13        6           0.000025509    0.000343193    0.000801746
     14        8           0.000166248   -0.000303161   -0.000263328
     15        1          -0.000140832   -0.000042841   -0.000050817
     16        1           0.000003996    0.000043635    0.000040831
     17        6          -0.000235637   -0.000177777   -0.000123194
     18        1           0.000042378   -0.000015040   -0.000022332
     19        1          -0.000091932   -0.000076373   -0.000133119
     20       17          -0.000494813    0.000391204    0.000216906
     21        6          -0.000154614   -0.000140769   -0.000214784
     22        1           0.000072168   -0.000029861    0.000182202
     23        1          -0.000124882   -0.000126627   -0.000097564
     24        1          -0.000017269    0.000176578   -0.000045755
     25        1          -0.000011314   -0.000006829   -0.000018602
     26        1           0.000059644    0.000050939    0.000022543
 -------------------------------------------------------------------
 Cartesian Forces:  Max     0.000801746 RMS     0.000196721

 GradGradGradGradGradGradGradGradGradGradGradGradGradGradGradGradGradGrad
 Berny optimization.
 FormGI is forming the generalized inverse of G from B-inverse, IUseBI=4.
 Internal  Forces:  Max     0.001351425 RMS     0.000242745
 Search for a saddle point.
 Step number   2 out of a maximum of   50
 All quantities printed in internal units (Hartrees-Bohrs-Radians)
 Swapping is turned off.
[...]
     21          6           0       -3.171947    1.524262   -0.739291
     22          1           0       -2.465479    2.359295   -0.879038
     23          1           0       -3.960922    1.855311   -0.049508
     24          1           0       -3.634517    1.330141   -1.720848
     25          1           0       -1.651508   -2.140434    1.896300
     26          1           0       -3.423119   -0.099159    1.690814
 ---------------------------------------------------------------------
 Rotational constants (GHZ):           0.8867387           0.5794130           0.4150788

 **********************************************************************

            Population analysis using the SCF Density.

 **********************************************************************

 Orbital symmetries:
       Occupied  (A) (A) (A) (A) (A) (A) (A) (A) (A) (A) (A) (A)
                 (A) (A) (A) (A) (A) (A) (A) (A) (A) (A) (A) (A)
                 (A) (A) (A) (A) (A) (A) (A) (A) (A) (A) (A) (A)
                 (A) (A) (A) (A) (A) (A) (A) (A) (A) (A) (A) (A)
                 (A) (A) (A) (A)
       Virtual   (A) (A) (A) (A) (A) (A) (A) (A) (A) (A) (A) (A)
                 (A) (A) (A) (A) (A) (A) (A) (A) (A) (A) (A) (A)
                 (A) (A) (A) (A) (A) (A) (A) (A) (A) (A) (A) (A)
                 (A) (A) (A) (A) (A) (A) (A) (A) (A) (A) (A) (A)
                 (A) (A) (A) (A) (A) (A) (A) (A) (A) (A) (A) (A)
                 (A) (A) (A) (A) (A) (A) (A) (A) (A) (A) (A) (A)
                 (A) (A) (A) (A) (A) (A) (A) (A) (A) (A) (A) (A)
                 (A) (A) (A) (A) (A) (A) (A) (A) (A) (A) (A) (A)
                 (A) (A) (A) (A) (A) (A) (A) (A) (A) (A) (A) (A)
                 (A) (A) (A) (A) (A) (A) (A) (A) (A) (A) (A) (A)
                 (A) (A) (A) (A) (A) (A) (A) (A) (A) (A) (A) (A)
                 (A) (A) (A) (A) (A) (A) (A) (A) (A) (A) (A) (A)
                 (A) (A) (A) (A) (A) (A) (A) (A) (A) (A) (A) (A)
                 (A) (A) (A) (A) (A) (A) (A) (A) (A) (A) (A) (A)
                 (A) (A) (A) (A) (A) (A) (A) (A) (A) (A) (A) (A)
                 (A) (A) (A) (A) (A) (A) (A) (A) (A) (A) (A) (A)
                 (A) (A) (A) (A) (A) (A) (A)
 The electronic state is 1-A.
 Alpha  occ. eigenvalues -- -101.68793 -19.25543 -10.40038 -10.36776 -10.32225
 Alpha  occ. eigenvalues --  -10.31259 -10.31231 -10.30185 -10.30080 -10.30050
 Alpha  occ. eigenvalues --  -10.29685 -10.29206 -10.29010  -9.59536  -7.34903
 Alpha  occ. eigenvalues --   -7.33980  -7.33911  -1.14499  -0.97844  -0.96150
 Alpha  occ. eigenvalues --   -0.89929  -0.86025  -0.83820  -0.79555  -0.77587
 Alpha  occ. eigenvalues --   -0.72960  -0.70511  -0.62719  -0.61631  -0.60762
 Alpha  occ. eigenvalues --   -0.59595  -0.57495  -0.55478  -0.54846  -0.53432
 Alpha  occ. eigenvalues --   -0.52541  -0.49932  -0.49800  -0.48957  -0.48601
 Alpha  occ. eigenvalues --   -0.47407  -0.45886  -0.45351  -0.44686  -0.43064
 Alpha  occ. eigenvalues --   -0.42831  -0.41365  -0.40119  -0.38209  -0.34790
 Alpha  occ. eigenvalues --   -0.33873  -0.28291
 Alpha virt. eigenvalues --    0.02934   0.04843   0.07721   0.12607   0.13317
 Alpha virt. eigenvalues --    0.14514   0.15302   0.16455   0.17482   0.18562
 Alpha virt. eigenvalues --    0.19277   0.20641   0.21725   0.22245   0.22713
 Alpha virt. eigenvalues --    0.23747   0.24440   0.24793   0.26456   0.30016
 Alpha virt. eigenvalues --    0.30787   0.31242   0.33810   0.34659   0.36754
 Alpha virt. eigenvalues --    0.38917   0.40361   0.41234   0.42465   0.44769
 Alpha virt. eigenvalues --    0.47613   0.48135   0.50884   0.52176   0.52720
 Alpha virt. eigenvalues --    0.53419   0.54229   0.54923   0.55709   0.56900
 Alpha virt. eigenvalues --    0.58012   0.58533   0.60400   0.62886   0.63484
 Alpha virt. eigenvalues --    0.64851   0.66081   0.68557   0.69051   0.69815
 Alpha virt. eigenvalues --    0.70314   0.70827   0.71231   0.72450   0.73097
 Alpha virt. eigenvalues --    0.73720   0.73898   0.74715   0.75003   0.75888
 Alpha virt. eigenvalues --    0.76329   0.77148   0.77616   0.78329   0.78471
 Alpha virt. eigenvalues --    0.78688   0.79579   0.80029   0.80954   0.82460
 Alpha virt. eigenvalues --    0.83147   0.83341   0.84590   0.86762   0.87082
 Alpha virt. eigenvalues --    0.88572   0.89876   0.91021   0.91881   0.93077
 Alpha virt. eigenvalues --    0.95072   0.97068   0.98642   1.01993   1.04170
 Alpha virt. eigenvalues --    1.06594   1.08206   1.09323   1.10872   1.13708
 Alpha virt. eigenvalues --    1.14768   1.17531   1.18942   1.23661   1.24354
 Alpha virt. eigenvalues --    1.25036   1.26661   1.29888   1.33404   1.34373
 Alpha virt. eigenvalues --    1.34413   1.37720   1.41350   1.43959   1.46064
 Alpha virt. eigenvalues --    1.55222   1.58547   1.59909   1.60850   1.62048
 Alpha virt. eigenvalues --    1.62376   1.65663   1.66112   1.66661   1.69626
 Alpha virt. eigenvalues --    1.70848   1.73599   1.75475   1.77804   1.79288
 Alpha virt. eigenvalues --    1.80790   1.81433   1.82712   1.83049   1.84092
 Alpha virt. eigenvalues --    1.85130   1.85879   1.86651   1.87507   1.88328
 Alpha virt. eigenvalues --    1.89919   1.91041   1.91939   1.94059   1.94483
 Alpha virt. eigenvalues --    1.96324   1.97101   1.99812   2.01381   2.03649
 Alpha virt. eigenvalues --    2.05161   2.06443   2.07715   2.08851   2.10326
 Alpha virt. eigenvalues --    2.14459   2.15606   2.16627   2.17278   2.18749
 Alpha virt. eigenvalues --    2.21563   2.24218   2.25391   2.29172   2.30506
 Alpha virt. eigenvalues --    2.33344   2.34820   2.35790   2.36345   2.39059
 Alpha virt. eigenvalues --    2.41303   2.42960   2.44757   2.48092   2.48562
 Alpha virt. eigenvalues --    2.49449   2.53021   2.56218   2.57715   2.65206
 Alpha virt. eigenvalues --    2.66244   2.68959   2.70763   2.73321   2.74616
 Alpha virt. eigenvalues --    2.76429   2.78439   2.79049   2.79370   2.81911
 Alpha virt. eigenvalues --    2.82215   2.83688   2.87519   2.92060   2.95177
 Alpha virt. eigenvalues --    2.99504   3.01183   3.02051   3.05197   3.08603
 Alpha virt. eigenvalues --    3.11769   3.13242   3.20367   3.21988   3.25885
 Alpha virt. eigenvalues --    3.27062   3.47910   3.48603   3.70741
          Condensed to atoms (all electrons):
               1          2          3          4          5          6
     1  C    5.082969   0.003635  -0.096514  -0.001396   0.590508  -0.002185
     2  C    0.003635   4.721002  -0.007002   0.630800   0.002704  -0.002716
     3  C   -0.096514  -0.007002   5.193528  -0.004926  -0.006467   0.582246
     4  C   -0.001396   0.630800  -0.004926   5.105663  -0.001384  -0.000418
     5  C    0.590508   0.002704  -0.006467  -0.001384   4.963760   0.274163
     6  C   -0.002185  -0.002716   0.582246  -0.000418   0.274163   4.989844
     7  C    0.010391  -0.001946   0.335350   0.013094   0.009894  -0.060845
     8  H   -0.000614   0.000402  -0.015025  -0.002267   0.000692  -0.015234
     9  H    0.000461  -0.000039  -0.000994   0.000003  -0.000653   0.001655
    10  C    0.000508   0.007616  -0.048575  -0.168735  -0.000432   0.002689
    11  H   -0.000012  -0.000303   0.006406   0.011262   0.000012  -0.000149
    12  H   -0.000015  -0.000360  -0.014630   0.002926   0.000074  -0.000151
    13  C    0.000080  -0.031425  -0.006811   0.269334   0.000025   0.001191
    14  O    0.000001   0.000259  -0.000079  -0.080292  -0.000000  -0.000000
    15  H   -0.000017   0.003523   0.004519   0.370429  -0.000884   0.002626
    16  H    0.000308   0.409475  -0.000199  -0.021249   0.001192  -0.000244
    17  C    0.334753  -0.000078   0.333497   0.003589  -0.091787  -0.109238
    18  H    0.003094   0.000154  -0.000967   0.000157   0.000359   0.000603
    19  H   -0.008216  -0.002567   0.001232  -0.009085   0.001288   0.003302
    20  Cl   0.000389   0.286291   0.000374  -0.086076  -0.000122   0.000070
    21  C    0.403559  -0.000142   0.009070   0.000020  -0.063936   0.010144
    22  H   -0.015862  -0.000552   0.000474   0.000053   0.001554  -0.000371
    23  H   -0.010488  -0.000004  -0.000598   0.000001  -0.012165   0.000429
    24  H   -0.015141   0.000026   0.000582  -0.000005   0.002818  -0.000538
    25  H    0.007432   0.000008  -0.065523  -0.000267  -0.053483   0.442427
    26  H   -0.064382  -0.000019   0.007765   0.000006   0.443966  -0.056681
               7          8          9         10         11         12
     1  C    0.010391  -0.000614   0.000461   0.000508  -0.000012  -0.000015
     2  C   -0.001946   0.000402  -0.000039   0.007616  -0.000303  -0.000360
     3  C    0.335350  -0.015025  -0.000994  -0.048575   0.006406  -0.014630
     4  C    0.013094  -0.002267   0.000003  -0.168735   0.011262   0.002926
     5  C    0.009894   0.000692  -0.000653  -0.000432   0.000012   0.000074
     6  C   -0.060845  -0.015234   0.001655   0.002689  -0.000149  -0.000151
     7  C    4.713784   0.380498   0.341882   0.308189  -0.009192  -0.007478
     8  H    0.380498   0.662643  -0.023273  -0.025912  -0.005174   0.006490
     9  H    0.341882  -0.023273   0.648887  -0.006559  -0.005942  -0.008275
    10  C    0.308189  -0.025912  -0.006559   5.091585   0.340897   0.350447
    11  H   -0.009192  -0.005174  -0.005942   0.340897   0.606627  -0.006045
    12  H   -0.007478   0.006490  -0.008275   0.350447  -0.006045   0.592411
    13  C   -0.035945  -0.007862   0.006606   0.295140  -0.008039  -0.004564
    14  O    0.004654   0.000157  -0.000163  -0.088145   0.007678   0.000910
    15  H    0.000331   0.000408   0.000160  -0.002662  -0.000285   0.000101
    16  H    0.000096   0.000004  -0.000003  -0.000400   0.000009   0.000024
    17  C   -0.079841   0.009922  -0.005799  -0.000298   0.000228   0.006699
    18  H    0.004150  -0.000269   0.001157  -0.001971  -0.000048   0.000642
    19  H   -0.010289  -0.000162   0.000149   0.006375  -0.000087   0.001232
    20  Cl   0.000014  -0.000003   0.000001  -0.002291  -0.000003   0.000859
    21  C   -0.000224   0.000006   0.000010   0.000000  -0.000000   0.000010
    22  H    0.000005  -0.000001   0.000003  -0.000011   0.000000  -0.000012
    23  H    0.000007  -0.000000  -0.000000   0.000000   0.000000  -0.000000
    24  H    0.000014   0.000000  -0.000007   0.000002  -0.000000   0.000003
    25  H   -0.012042   0.004818   0.000307   0.000141  -0.000008   0.000001
    26  H   -0.000312   0.000009   0.000006   0.000006  -0.000000  -0.000000
              13         14         15         16         17         18
     1  C    0.000080   0.000001  -0.000017   0.000308   0.334753   0.003094
     2  C   -0.031425   0.000259   0.003523   0.409475  -0.000078   0.000154
     3  C   -0.006811  -0.000079   0.004519  -0.000199   0.333497  -0.000967
     4  C    0.269334  -0.080292   0.370429  -0.021249   0.003589   0.000157
     5  C    0.000025  -0.000000  -0.000884   0.001192  -0.091787   0.000359
     6  C    0.001191  -0.000000   0.002626  -0.000244  -0.109238   0.000603
     7  C   -0.035945   0.004654   0.000331   0.000096  -0.079841   0.004150
     8  H   -0.007862   0.000157   0.000408   0.000004   0.009922  -0.000269
     9  H    0.006606  -0.000163   0.000160  -0.000003  -0.005799   0.001157
    10  C    0.295140  -0.088145  -0.002662  -0.000400  -0.000298  -0.001971
    11  H   -0.008039   0.007678  -0.000285   0.000009   0.000228  -0.000048
    12  H   -0.004564   0.000910   0.000101   0.000024   0.006699   0.000642
    13  C    4.767545   0.695079  -0.022598   0.006805  -0.004663   0.000266
    14  O    0.695079   7.684135   0.001254  -0.000144   0.000017  -0.000001
    15  H   -0.022598   0.001254   0.568521  -0.010879  -0.000280   0.000001
    16  H    0.006805  -0.000144  -0.010879   0.552855  -0.000186   0.000008
    17  C   -0.004663   0.000017  -0.000280  -0.000186   4.857600   0.332980
    18  H    0.000266  -0.000001   0.000001   0.000008   0.332980   0.610558
    19  H    0.000322  -0.000131   0.000043   0.000181   0.331340  -0.015226
    20  Cl   0.008425  -0.000850   0.003677  -0.037238  -0.006503   0.000014
    21  C   -0.000001  -0.000000   0.000001  -0.000001  -0.066859  -0.000775
    22  H    0.000001   0.000000   0.000000  -0.000106  -0.005859  -0.000082
    23  H   -0.000000   0.000000  -0.000000   0.000002   0.008809  -0.000240
    24  H    0.000000   0.000000  -0.000000   0.000002  -0.005650   0.001958
    25  H   -0.000008   0.000000   0.000673  -0.000006   0.014733  -0.000386
    26  H    0.000001  -0.000000  -0.000003   0.000016   0.015157  -0.000379
              19         20         21         22         23         24
     1  C   -0.008216   0.000389   0.403559  -0.015862  -0.010488  -0.015141
     2  C   -0.002567   0.286291  -0.000142  -0.000552  -0.000004   0.000026
     3  C    0.001232   0.000374   0.009070   0.000474  -0.000598   0.000582
     4  C   -0.009085  -0.086076   0.000020   0.000053   0.000001  -0.000005
     5  C    0.001288  -0.000122  -0.063936   0.001554  -0.012165   0.002818
     6  C    0.003302   0.000070   0.010144  -0.000371   0.000429  -0.000538
     7  C   -0.010289   0.000014  -0.000224   0.000005   0.000007   0.000014
     8  H   -0.000162  -0.000003   0.000006  -0.000001  -0.000000   0.000000
     9  H    0.000149   0.000001   0.000010   0.000003  -0.000000  -0.000007
    10  C    0.006375  -0.002291   0.000000  -0.000011   0.000000   0.000002
    11  H   -0.000087  -0.000003  -0.000000   0.000000   0.000000  -0.000000
    12  H    0.001232   0.000859   0.000010  -0.000012  -0.000000   0.000003
    13  C    0.000322   0.008425  -0.000001   0.000001  -0.000000   0.000000
    14  O   -0.000131  -0.000850  -0.000000   0.000000   0.000000   0.000000
    15  H    0.000043   0.003677   0.000001   0.000000  -0.000000  -0.000000
    16  H    0.000181  -0.037238  -0.000001  -0.000106   0.000002   0.000002
    17  C    0.331340  -0.006503  -0.066859  -0.005859   0.008809  -0.005650
    18  H   -0.015226   0.000014  -0.000775  -0.000082  -0.000240   0.001958
    19  H    0.639781   0.020344  -0.000663   0.003123  -0.000240  -0.000294
    20  Cl   0.020344  16.912692  -0.000889   0.003283   0.000003  -0.000001
    21  C   -0.000663  -0.000889   4.520544   0.380042   0.386431   0.383119
    22  H    0.003123   0.003283   0.380042   0.631311  -0.019738  -0.023133
    23  H   -0.000240   0.000003   0.386431  -0.019738   0.628547  -0.020327
    24  H   -0.000294  -0.000001   0.383119  -0.023133  -0.020327   0.631372
    25  H   -0.000336   0.000001  -0.000293   0.000007   0.000006   0.000005
    26  H   -0.000372  -0.000000  -0.010758   0.000136   0.004509   0.000093
              25         26
     1  C    0.007432  -0.064382
     2  C    0.000008  -0.000019
     3  C   -0.065523   0.007765
     4  C   -0.000267   0.000006
     5  C   -0.053483   0.443966
     6  C    0.442427  -0.056681
     7  C   -0.012042  -0.000312
     8  H    0.004818   0.000009
     9  H    0.000307   0.000006
    10  C    0.000141   0.000006
    11  H   -0.000008  -0.000000
    12  H    0.000001  -0.000000
    13  C   -0.000008   0.000001
    14  O    0.000000  -0.000000
    15  H    0.000673  -0.000003
    16  H   -0.000006   0.000016
    17  C    0.014733   0.015157
    18  H   -0.000386  -0.000379
    19  H   -0.000336  -0.000372
    20  Cl   0.000001  -0.000000
    21  C   -0.000293  -0.010758
    22  H    0.000007   0.000136
    23  H    0.000006   0.004509
    24  H    0.000005   0.000093
    25  H    0.659666  -0.003587
    26  H   -0.003587   0.659188
 Mulliken charges:
               1
     1  C   -0.223244
     2  C   -0.018741
     3  C   -0.206734
     4  C   -0.031236
     5  C   -0.061697
     6  C   -0.062616
     7  C    0.095764
     8  H    0.029748
     9  H    0.050422
    10  C   -0.057604
    11  H    0.062169
    12  H    0.078700
    13  C    0.071096
    14  O   -0.224336
    15  H    0.081344
    16  H    0.099677
    17  C    0.127718
    18  H    0.064242
    19  H    0.038957
    20  Cl  -0.102460
    21  C    0.051585
    22  H    0.045735
    23  H    0.035057
    24  H    0.045102
    25  H    0.005715
    26  H    0.005636
 Sum of Mulliken charges =  -0.00000
 Mulliken charges with hydrogens summed into heavy atoms:
               1
     1  C   -0.223244
     2  C    0.080936
     3  C   -0.206734
     4  C    0.050108
     5  C   -0.056061
     6  C   -0.056901
     7  C    0.175933
    10  C    0.083266
    13  C    0.071096
    14  O   -0.224336
    17  C    0.230917
    20  Cl  -0.102460
    21  C    0.177480
 Electronic spatial extent (au):  <R**2>=           2794.4540
 Charge=              0.0000 electrons
 Dipole moment (field-independent basis, Debye):
    X=             -3.0670    Y=             -1.3974    Z=              0.4616  Tot=              3.4018
 Quadrupole moment (field-independent basis, Debye-Ang):
   XX=            -98.8821   YY=            -80.9232   ZZ=            -77.0221
   XY=             -5.4586   XZ=              0.9896   YZ=              0.5644
 Traceless Quadrupole moment (field-independent basis, Debye-Ang):
   XX=            -13.2730   YY=              4.6859   ZZ=              8.5871
   XY=             -5.4586   XZ=              0.9896   YZ=              0.5644
 Octapole moment (field-independent basis, Debye-Ang**2):
  XXX=            -40.8287  YYY=              2.0413  ZZZ=              0.2081  XYY=             11.4339
  XXY=              9.4866  XXZ=              2.6501  XZZ=              2.1623  YZZ=              1.2909
  YYZ=             -0.1811  XYZ=              0.4112
 Hexadecapole moment (field-independent basis, Debye-Ang**3):
 XXXX=          -2234.7242 YYYY=          -1237.3906 ZZZZ=           -396.5456 XXXY=            -27.5358
 XXXZ=             -7.6955 YYYX=            -15.8085 YYYZ=             -1.5009 ZZZX=             -5.8391
 ZZZY=             -0.8783 XXYY=           -546.2483 XXZZ=           -388.4929 YYZZ=           -256.5727
 XXYZ=             -6.4938 YYXZ=             -7.6954 ZZXY=              4.6604
 N-N= 8.733800597824D+02 E-N=-4.003740123045D+03  KE= 9.552501448798D+02
 Unable to Open any file for archive entry.
 1\1\GINC-NODE-003\FTS\RwB97XD\def2SVP\C11H13Cl1O1\JP2658\22-Dec-2023\0
 \\# wb97xd def2svp geom=allchk scrf=(iefpcm,solvent=toluene) opt=(read
 fc,ts,noeigen,maxcycles=50,maxstep=10)\\imda-1_1_opt_sqm.out\\0,1\C,-2
 .4689346483,0.2914187881,-0.2142044755\C,0.9742783099,1.2804439891,1.1
 289271766\C,-0.8989181324,-1.4842441172,-0.0496869267\C,1.3691258457,0
 .0107079072,1.1015266093\C,-2.6659402216,-0.3851664628,0.9392199533\C,
 -1.700011823,-1.4816365624,1.0379974488\C,0.2584631145,-2.3934418166,-
 0.3383930861\H,0.5014412767,-2.9720642101,0.5672246853\H,-0.0340083639
 ,-3.1358247643,-1.1011285143\C,1.5103551756,-1.6844034682,-0.867636832
 1\H,2.2925723029,-2.4100032221,-1.1362602773\H,1.2672331018,-1.1552332
 998,-1.8066761303\C,2.1743337163,-0.6324539112,0.0065105549\O,3.319857
 8246,-0.3023143254,-0.1886466388\H,1.0674959165,-0.6253548602,1.938862
 3939\H,0.3940982181,1.7051072971,1.9492563689\C,-1.3405444036,-0.36817
 76765,-0.9595278855\H,-1.6768607281,-0.7543612464,-1.9397770133\H,-0.5
 327079975,0.3520049532,-1.1777564\Cl,1.2565856464,2.405578553,-0.16681
 22373\C,-3.1886577414,1.4961148924,-0.7247722822\H,-2.4924250034,2.340
 7458736,-0.8580581349\H,-3.9815464868,1.8121896148,-0.0324574512\H,-3.
 6489133913,1.3039626844,-1.7078031221\H,-1.6234646926,-2.1700425147,1.
 8824370125\H,-3.4198268152,-0.1489720949,1.6927152041\\Version=ES64L-G
 16RevC.01\State=1-A\HF=-961.7027581\RMSD=5.542e-09\RMSF=5.374e-06\Dipo
 le=-1.1998576,-0.5658047,0.1773478\Quadrupole=-9.7671677,3.3765719,6.3
 905958,-4.2252328,0.6993468,0.4056565\PG=C01 [X(C11H13Cl1O1)]\\@
 The archive entry for this job was punched.


 FROM THE ASHES OF OUR DESPAIR GROW THE FLOWERS OF TOMORROW.
 Job cpu time:       0 days  1 hours 25 minutes 49.6 seconds.
 Elapsed time:       0 days  0 hours  7 minutes 18.2 seconds.
 File lengths (MBytes):  RWF=    117 Int=      0 D2E=      0 Chk=     12 Scr=      1
 Normal termination of Gaussian 16 at Fri Dec 22 23:54:56 2023.
