Unloading slurm/anatra/current
  ERROR: No such file or directory on
    '/cm/local/modulefiles/slurm/anatra/current'
environment: line 0: unalias: gv: not found
environment: line 0: unalias: sl: not found
 Entering Gaussian System, Link 0=g16
 Initial command:
 /apps/gaussian/g16/C.01/g16/l1.exe "/local/jobs/1150733/Gau-3279039.inp" -scrdir="/local/jobs/1150733/"
 Entering Link 1 = /apps/gaussian/g16/C.01/g16/l1.exe PID=   3279040.
  
 Copyright (c) 1988-2019, Gaussian, Inc.  All Rights Reserved.
  
 This is part of the Gaussian(R) 16 program.  It is based on
 the Gaussian(R) 09 system (copyright 2009, Gaussian, Inc.),
 the Gaussian(R) 03 system (copyright 2003, Gaussian, Inc.),
 the Gaussian(R) 98 system (copyright 1998, Gaussian, Inc.),
 the Gaussian(R) 94 system (copyright 1995, Gaussian, Inc.),
 the Gaussian 92(TM) system (copyright 1992, Gaussian, Inc.),
 the Gaussian 90(TM) system (copyright 1990, Gaussian, Inc.),
 the Gaussian 88(TM) system (copyright 1988, Gaussian, Inc.),
 the Gaussian 86(TM) system (copyright 1986, Carnegie Mellon
 University), and the Gaussian 82(TM) system (copyright 1983,
 Carnegie Mellon University). Gaussian is a federally registered
 trademark of Gaussian, Inc.
  
 This software contains proprietary and confidential information,
 including trade secrets, belonging to Gaussian, Inc.
  
 This software is provided under written license and may be
 used, copied, transmitted, or stored only in accord with that
 written license.
  
 The following legend is applicable only to US Government
 contracts under FAR:
  
                    RESTRICTED RIGHTS LEGEND
  
 Use, reproduction and disclosure by the US Government is
 subject to restrictions as set forth in subparagraphs (a)
 and (c) of the Commercial Computer Software - Restricted
 Rights clause in FAR 52.227-19.
  
 Gaussian, Inc.
 340 Quinnipiac St., Bldg. 40, Wallingford CT 06492
  
  
 ---------------------------------------------------------------
 Warning -- This program may not be used in any manner that
 competes with the business of Gaussian, Inc. or will provide
 assistance to any competitor of Gaussian, Inc.  The licensee
 of this program is prohibited from giving any competitor of
 Gaussian, Inc. access to this program.  By using this program,
 the user acknowledges that Gaussian, Inc. is engaged in the
 business of creating and licensing software in the field of
 computational chemistry and represents and warrants to the
 licensee that it is not a competitor of Gaussian, Inc. and that
 it will not use this program in any manner prohibited above.
 ---------------------------------------------------------------
  

 Cite this work as:
 Gaussian 16, Revision C.01,
 M. J. Frisch, G. W. Trucks, H. B. Schlegel, G. E. Scuseria, 
 M. A. Robb, J. R. Cheeseman, G. Scalmani, V. Barone, 
 G. A. Petersson, H. Nakatsuji, X. Li, M. Caricato, A. V. Marenich, 
 J. Bloino, B. G. Janesko, R. Gomperts, B. Mennucci, H. P. Hratchian, 
 J. V. Ortiz, A. F. Izmaylov, J. L. Sonnenberg, D. Williams-Young, 
 F. Ding, F. Lipparini, F. Egidi, J. Goings, B. Peng, A. Petrone, 
 T. Henderson, D. Ranasinghe, V. G. Zakrzewski, J. Gao, N. Rega, 
 G. Zheng, W. Liang, M. Hada, M. Ehara, K. Toyota, R. Fukuda, 
 J. Hasegawa, M. Ishida, T. Nakajima, Y. Honda, O. Kitao, H. Nakai, 
 T. Vreven, K. Throssell, J. A. Montgomery, Jr., J. E. Peralta, 
 F. Ogliaro, M. J. Bearpark, J. J. Heyd, E. N. Brothers, K. N. Kudin, 
 V. N. Staroverov, T. A. Keith, R. Kobayashi, J. Normand, 
 K. Raghavachari, A. P. Rendell, J. C. Burant, S. S. Iyengar, 
 J. Tomasi, M. Cossi, J. M. Millam, M. Klene, C. Adamo, R. Cammi, 
 J. W. Ochterski, R. L. Martin, K. Morokuma, O. Farkas, 
 J. B. Foresman, and D. J. Fox, Gaussian, Inc., Wallingford CT, 2019.
 
 ******************************************
 Gaussian 16:  ES64L-G16RevC.01  3-Jul-2019
                18-Dec-2023 
 ******************************************
 %chk=TS-249_sqm.chk
 ----------------------------------------------------------------------
 # wb97xd def2svp geom=allchk scrf=(iefpcm,solvent=toluene) opt=(readfc
 ,ts,noeigen,maxcycles=50,maxstep=10)
 ----------------------------------------------------------------------
 1/5=1,6=50,8=10,10=3,11=1,18=20,26=3,29=7,38=1/1,3;
 2/9=110,12=2,40=1/2;
 3/5=43,7=101,11=2,14=-4,25=1,30=1,70=2201,71=1,72=13,74=-58/1,2,3;
 4//1;
 5/5=2,38=5,53=13/2;
 6/7=2,8=2,9=2,10=2,28=1/1;
 7//1,2,3,16;
 1/5=1,6=50,8=10,11=1,18=20,26=3/3(2);
 2/9=110/2;
 99//99;
 2/9=110/2;
 3/5=43,7=101,11=2,14=-2,25=1,30=1,70=2205,71=1,72=13,74=-58/1,2,3;
 4/5=5,16=3,69=1/1;
 5/5=2,38=5,53=13/2;
 7//1,2,3,16;
 1/5=1,6=50,8=10,11=1,18=20,26=3/3(-5);
 2/9=110/2;
 6/7=2,8=2,9=2,10=2,19=2,28=1/1;
 99/9=1/99;
 Structure from the checkpoint file:  "TS-249_sqm.chk"
 ----------
 TS-249.out
 ----------
 Charge =  0 Multiplicity = 1
 Redundant internal coordinates found in file.  (old form).
 C,0,-0.98025,0.69195,-0.20894
 C,0,-1.92168,-0.31,0.32291
 O,0,-3.01226,-0.50219,-0.2006
 C,0,0.22829,0.86754,0.36619
 C,0,2.98171,-0.36432,0.09422
 H,0,3.0227,-0.73989,1.12039
 H,0,3.50996,-1.0641,-0.55969
 H,0,3.48667,0.6048,0.05611
 N,0,1.58522,-0.22082,-0.33301
 H,0,1.18839,-1.16551,-0.35932
 H,0,1.60848,0.04987,-1.32227
 H,0,0.80126,1.75285,0.06792
 H,0,0.42254,0.43147,1.35258
 H,0,-1.29964,1.25724,-1.0751
 H,0,-1.5872,-0.87442,1.20893
 Recover connectivity data from disk.

 GradGradGradGradGradGradGradGradGradGradGradGradGradGradGradGradGradGrad
 Berny optimization.
 Initialization pass.
 Force constant matrix read from checkpoint file:
 "TS-249_sqm.chk"
                           ----------------------------
                           !    Initial Parameters    !
                           ! (Angstroms and Degrees)  !
 --------------------------                            --------------------------
 ! Name  Definition              Value          Derivative Info.                !
 --------------------------------------------------------------------------------
 ! R1    R(1,2)                  1.4741         D2E/DX2 =    0.3884             !
 ! R2    R(1,4)                  1.3499         D2E/DX2 =    0.7117             !
 ! R3    R(1,14)                 1.0825         D2E/DX2 =    0.2782             !
 ! R4    R(2,3)                  1.2249         D2E/DX2 =    0.8046             !
 ! R5    R(2,15)                 1.1025         D2E/DX2 =    0.252              !
 ! R6    R(4,9)                  1.8747         D2E/DX2 =    0.0338             !
 ! R7    R(4,12)                 1.0959         D2E/DX2 =    0.2642             !
 ! R8    R(4,13)                 1.0958         D2E/DX2 =    0.263              !
 ! R9    R(5,6)                  1.0935         D2E/DX2 =    0.2699             !
 ! R10   R(5,7)                  1.0938         D2E/DX2 =    0.2672             !
 ! R11   R(5,8)                  1.0934         D2E/DX2 =    0.2697             !
 ! R12   R(5,9)                  1.4674         D2E/DX2 =    0.4905             !
 ! R13   R(9,10)                 1.025          D2E/DX2 =    0.2833             !
 ! R14   R(9,11)                 1.0259         D2E/DX2 =    0.283              !
 ! A1    A(2,1,4)              120.4284         D2E/DX2 =    0.1049             !
 ! A2    A(2,1,14)             117.0776         D2E/DX2 =    0.0833             !
 ! A3    A(4,1,14)             122.4892         D2E/DX2 =    0.0818             !
 ! A4    A(1,2,3)              121.4029         D2E/DX2 =    0.125              !
 ! A5    A(1,2,15)             116.3699         D2E/DX2 =    0.0921             !
 ! A6    A(3,2,15)             122.2266         D2E/DX2 =    0.0967             !
 ! A7    A(1,4,9)              114.4307         D2E/DX2 =    0.0705             !
 ! A8    A(1,4,12)             117.2067         D2E/DX2 =    0.0261             !
 ! A9    A(1,4,13)             119.37           D2E/DX2 =    0.0268             !
 ! A10   A(9,4,12)              89.3727         D2E/DX2 =    0.0438             !
 ! A11   A(9,4,13)              88.6472         D2E/DX2 =    0.0448             !
 ! A12   A(12,4,13)            118.2791         D2E/DX2 =    0.015              !
 ! A13   A(6,5,7)              108.8561         D2E/DX2 =    0.0439             !
 ! A14   A(6,5,8)              108.6508         D2E/DX2 =    0.0433             !
 ! A15   A(6,5,9)              110.0278         D2E/DX2 =    0.1077             !
 ! A16   A(7,5,8)              108.8547         D2E/DX2 =    0.044              !
 ! A17   A(7,5,9)              110.3726         D2E/DX2 =    0.113              !
 ! A18   A(8,5,9)              110.0394         D2E/DX2 =    0.1076             !
 ! A19   A(4,9,5)              129.5684         D2E/DX2 =    0.0466             !
 ! A20   A(4,9,10)             105.3319         D2E/DX2 =    0.0385             !
 ! A21   A(4,9,11)             102.8777         D2E/DX2 =    0.0381             !
 ! A22   A(5,9,10)             106.6058         D2E/DX2 =    0.0587             !
 ! A23   A(5,9,11)             106.5574         D2E/DX2 =    0.0559             !
 ! A24   A(10,9,11)            103.1331         D2E/DX2 =    0.013              !
 ! D1    D(4,1,2,3)           -178.5729         D2E/DX2 =    0.0207             !
 ! D2    D(4,1,2,15)             1.151          D2E/DX2 =    0.0201             !
 ! D3    D(14,1,2,3)             0.6526         D2E/DX2 =    0.022              !
 ! D4    D(14,1,2,15)         -179.6235         D2E/DX2 =    0.0205             !
 ! D5    D(2,1,4,9)             89.4706         D2E/DX2 =    0.0128             !
 ! D6    D(2,1,4,12)          -167.82           D2E/DX2 =    0.0187             !
 ! D7    D(2,1,4,13)           -13.5851         D2E/DX2 =    0.0162             !
 ! D8    D(14,1,4,9)           -89.7119         D2E/DX2 =    0.0123             !
 ! D9    D(14,1,4,12)           12.9975         D2E/DX2 =    0.0163             !
 ! D10   D(14,1,4,13)          167.2324         D2E/DX2 =    0.0181             !
 ! D11   D(1,4,9,5)           -175.7245         D2E/DX2 =    0.0114             !
 ! D12   D(1,4,9,10)           -48.0647         D2E/DX2 =    0.0123             !
 ! D13   D(1,4,9,11)            59.6548         D2E/DX2 =    0.0127             !
 ! D14   D(12,4,9,5)            64.4592         D2E/DX2 =    0.0101             !
 ! D15   D(12,4,9,10)         -167.881          D2E/DX2 =    0.0112             !
 ! D16   D(12,4,9,11)          -60.1615         D2E/DX2 =    0.0114             !
 ! D17   D(13,4,9,5)           -53.8472         D2E/DX2 =    0.0102             !
 ! D18   D(13,4,9,10)           73.8126         D2E/DX2 =    0.0111             !
 ! D19   D(13,4,9,11)         -178.4679         D2E/DX2 =    0.0118             !
 ! D20   D(6,5,9,4)             61.8552         D2E/DX2 =    0.0086             !
 ! D21   D(6,5,9,10)           -65.3281         D2E/DX2 =    0.0119             !
 ! D22   D(6,5,9,11)          -174.9628         D2E/DX2 =    0.0124             !
 ! D23   D(7,5,9,4)           -177.9916         D2E/DX2 =    0.0087             !
 ! D24   D(7,5,9,10)            54.8251         D2E/DX2 =    0.0116             !
 ! D25   D(7,5,9,11)           -54.8096         D2E/DX2 =    0.0118             !
 ! D26   D(8,5,9,4)            -57.8328         D2E/DX2 =    0.0087             !
 ! D27   D(8,5,9,10)           174.9839         D2E/DX2 =    0.0122             !
 ! D28   D(8,5,9,11)            65.3492         D2E/DX2 =    0.0121             !
 --------------------------------------------------------------------------------
 Trust Radius=1.00D-01 FncErr=1.00D-07 GrdErr=1.00D-06 EigMax=2.50D+02 EigMin=1.00D-04
 Number of steps in this run=     50 maximum allowed number of steps=    100.
 Search for a saddle point of order  1.
 GradGradGradGradGradGradGradGradGradGradGradGradGradGradGradGradGradGrad

                          Input orientation:                          
 ---------------------------------------------------------------------
 Center     Atomic      Atomic             Coordinates (Angstroms)
 Number     Number       Type             X           Y           Z
 ---------------------------------------------------------------------
      1          6           0       -0.980250    0.691950   -0.208940
      2          6           0       -1.921680   -0.310000    0.322910
      3          8           0       -3.012260   -0.502190   -0.200600
      4          6           0        0.228290    0.867540    0.366190
      5          6           0        2.981710   -0.364320    0.094220
      6          1           0        3.022700   -0.739890    1.120390
      7          1           0        3.509960   -1.064100   -0.559690
      8          1           0        3.486670    0.604800    0.056110
      9          7           0        1.585220   -0.220820   -0.333010
     10          1           0        1.188390   -1.165510   -0.359320
     11          1           0        1.608480    0.049870   -1.322270
     12          1           0        0.801260    1.752850    0.067920
     13          1           0        0.422540    0.431470    1.352580
     14          1           0       -1.299640    1.257240   -1.075100
     15          1           0       -1.587200   -0.874420    1.208930
 ---------------------------------------------------------------------
                    Distance matrix (angstroms):
                    1          2          3          4          5
     1  C    0.000000
     2  C    1.474130   0.000000
     3  O    2.356927   1.224894   0.000000
     4  C    1.349880   2.451702   3.563506   0.000000
     5  C    4.111537   4.909021   6.002800   3.028658   0.000000
     6  H    4.454312   5.026696   6.182415   3.310797   1.093507
     7  H    4.834121   5.554310   6.556222   3.918909   1.093773
     8  H    4.475625   5.491656   6.597531   3.283629   1.093449
     9  N    2.725835   3.568828   4.607985   1.874745   1.467413
    10  H    2.859331   3.296949   4.255660   2.362509   2.015837
    11  H    2.890206   3.911285   4.786873   2.329035   2.015876
    12  H    2.091874   3.425605   4.438496   1.095917   3.039319
    13  H    2.115187   2.665589   3.883547   1.095835   2.960760
    14  H    1.082495   2.190344   2.606417   2.136294   4.725116
    15  H    2.198240   1.102487   2.038658   2.653420   4.730509
                    6          7          8          9         10
     6  H    0.000000
     7  H    1.779102   0.000000
     8  H    1.776556   1.779039   0.000000
     9  N    2.109065   2.113558   2.109164   0.000000
    10  H    2.394867   2.332406   2.930643   1.024990   0.000000
    11  H    2.930926   2.331970   2.394885   1.025890   1.606517
    12  H    3.500892   3.958050   2.920545   2.161183   2.974765
    13  H    2.861263   3.927552   3.331632   2.149074   2.463224
    14  H    5.243217   5.365307   4.961258   3.325323   3.545751
    15  H    4.612712   5.398614   5.409366   3.587342   3.201256
                   11         12         13         14         15
    11  H    0.000000
    12  H    2.341874   0.000000
    13  H    2.950745   1.881442   0.000000
    14  H    3.158480   2.442520   3.088921   0.000000
    15  H    4.180150   3.729503   2.401050   3.137429   0.000000
 Stoichiometry    C4H9NO
 Framework group  C1[X(C4H9NO)]
 Deg. of freedom    39
 Full point group                 C1      NOp   1
 Largest Abelian subgroup         C1      NOp   1
 Largest concise Abelian subgroup C1      NOp   1
                         Standard orientation:                         
 ---------------------------------------------------------------------
 Center     Atomic      Atomic             Coordinates (Angstroms)
 Number     Number       Type             X           Y           Z
 ---------------------------------------------------------------------
      1          6           0       -0.980252    0.691948   -0.208939
      2          6           0       -1.921681   -0.310003    0.322911
      3          8           0       -3.012260   -0.502195   -0.200599
      4          6           0        0.228288    0.867539    0.366191
      5          6           0        2.981710   -0.364318    0.094221
      6          1           0        3.022700   -0.739888    1.120391
      7          1           0        3.509960   -1.064098   -0.559689
      8          1           0        3.486669    0.604802    0.056111
      9          7           0        1.585219   -0.220820   -0.333009
     10          1           0        1.188390   -1.165510   -0.359319
     11          1           0        1.608479    0.049870   -1.322269
     12          1           0        0.801257    1.752849    0.067921
     13          1           0        0.422539    0.431469    1.352581
     14          1           0       -1.299642    1.257237   -1.075099
     15          1           0       -1.587200   -0.874423    1.208931
 ---------------------------------------------------------------------
 Rotational constants (GHZ):          11.2493120           1.2678582           1.2133754
 Standard basis: def2SVP (5D, 7F)
 There are   135 symmetry adapted cartesian basis functions of A   symmetry.
 There are   129 symmetry adapted basis functions of A   symmetry.
   129 basis functions,   213 primitive gaussians,   135 cartesian basis functions
    24 alpha electrons       24 beta electrons
       nuclear repulsion energy       225.5433525727 Hartrees.
 NAtoms=   15 NActive=   15 NUniq=   15 SFac= 1.00D+00 NAtFMM=   60 NAOKFM=F Big=F
 Integral buffers will be    131072 words long.
 Raffenetti 2 integral format.
 Two-electron integral symmetry is turned on.
 Nuclear repulsion after empirical dispersion term =      225.5367160727 Hartrees.
 ------------------------------------------------------------------------------
 Polarizable Continuum Model (PCM)
 =================================
 Model                : PCM.
 Atomic radii         : UFF (Universal Force Field).
 Polarization charges : Total charges.
 Charge compensation  : None.
 Solution method      : On-the-fly selection.
 Cavity type          : Scaled VdW (van der Waals Surface) (Alpha=1.100).
 Cavity algorithm     : GePol (No added spheres)
                        Default sphere list used, NSphG=   15.
                        Lebedev-Laikov grids with approx.  5.0 points / Ang**2.
                        Smoothing algorithm: York/Karplus (Gamma=1.0000).
                        Polarization charges: spherical gaussians, with
                                              point-specific exponents (IZeta= 3).
                        Self-potential: point-specific (ISelfS= 7).
                        Self-field    : sphere-specific E.n sum rule (ISelfD= 2).
 1st derivatives      : Analytical E(r).r(x)/FMM algorithm (CHGder, D1EAlg=3).
                        Cavity 1st derivative terms included.
 Solvent              : Toluene, Eps=   2.374100 Eps(inf)=   2.238315
 ------------------------------------------------------------------------------
 Spheres list:
 ISph  on   Nord     Re0    Alpha      Xe            Ye            Ze
    1   C      1    1.9255  1.100     -0.980252      0.691948     -0.208939
    2   C      2    1.9255  1.100     -1.921681     -0.310003      0.322911
    3   O      3    1.7500  1.100     -3.012260     -0.502195     -0.200599
    4   C      4    1.9255  1.100      0.228288      0.867539      0.366191
    5   C      5    1.9255  1.100      2.981710     -0.364318      0.094221
    6   H      6    1.4430  1.100      3.022700     -0.739888      1.120391
    7   H      7    1.4430  1.100      3.509960     -1.064098     -0.559689
    8   H      8    1.4430  1.100      3.486669      0.604802      0.056111
    9   N      9    1.8300  1.100      1.585219     -0.220820     -0.333009
   10   H     10    1.4430  1.100      1.188390     -1.165510     -0.359319
   11   H     11    1.4430  1.100      1.608479      0.049870     -1.322269
   12   H     12    1.4430  1.100      0.801257      1.752849      0.067921
   13   H     13    1.4430  1.100      0.422539      0.431469      1.352581
   14   H     14    1.4430  1.100     -1.299642      1.257237     -1.075099
   15   H     15    1.4430  1.100     -1.587200     -0.874423      1.208931
 ------------------------------------------------------------------------------
 One-electron integrals computed using PRISM.
   1 Symmetry operations used in ECPInt.
 ECPInt:  NShTT=    2016 NPrTT=    7008 LenC2=    1982 LenP2D=    5672.
 LDataN:  DoStor=T MaxTD1= 4 Len=   56
 NBasis=   129 RedAO= T EigKep=  2.00D-03  NBF=   129
 NBsUse=   129 1.00D-06 EigRej= -1.00D+00 NBFU=   129
 ExpMin= 1.22D-01 ExpMax= 2.27D+03 ExpMxC= 3.41D+02 IAcc=3 IRadAn=         5 AccDes= 0.00D+00
 Harris functional with IExCor= 4639 and IRadAn=       5 diagonalized for initial guess.
 HarFok:  IExCor= 4639 AccDes= 0.00D+00 IRadAn=         5 IDoV= 1 UseB2=F ITyADJ=14
 ICtDFT=  3500011 ScaDFX=  1.000000  1.000000  1.000000  1.000000
 FoFCou: FMM=F IPFlag=           0 FMFlag=      100000 FMFlg1=           0
         NFxFlg=           0 DoJE=T BraDBF=F KetDBF=T FulRan=T
         wScrn=  0.000000 ICntrl=       500 IOpCl=  0 I1Cent=   200000004 NGrid=           0
         NMat0=    1 NMatS0=      1 NMatT0=    0 NMatD0=    1 NMtDS0=    0 NMtDT0=    0
 Petite list used in FoFCou.
 Keep R1 ints in memory in canonical form, NReq=73013140.
 Requested convergence on RMS density matrix=1.00D-08 within 128 cycles.
 Requested convergence on MAX density matrix=1.00D-06.
 Requested convergence on             energy=1.00D-06.
 No special actions if energy rises.
 Inv3:  Mode=1 IEnd=     4961388.
 Iteration    1 A*A^-1 deviation from unit magnitude is 2.44D-15 for    188.
 Iteration    1 A*A^-1 deviation from orthogonality  is 1.85D-15 for    928    457.
 Iteration    1 A^-1*A deviation from unit magnitude is 2.66D-15 for    188.
 Iteration    1 A^-1*A deviation from orthogonality  is 1.78D-15 for   1164    774.
 Error on total polarization charges =  0.00613
 SCF Done:  E(RwB97XD) =  -287.436588189     A.U. after   15 cycles
            NFock= 15  Conv=0.37D-08     -V/T= 2.0097

 **********************************************************************

            Population analysis using the SCF Density.

 **********************************************************************

 Orbital symmetries:
       Occupied  (A) (A) (A) (A) (A) (A) (A) (A) (A) (A) (A) (A)
                 (A) (A) (A) (A) (A) (A) (A) (A) (A) (A) (A) (A)
       Virtual   (A) (A) (A) (A) (A) (A) (A) (A) (A) (A) (A) (A)
                 (A) (A) (A) (A) (A) (A) (A) (A) (A) (A) (A) (A)
                 (A) (A) (A) (A) (A) (A) (A) (A) (A) (A) (A) (A)
                 (A) (A) (A) (A) (A) (A) (A) (A) (A) (A) (A) (A)
                 (A) (A) (A) (A) (A) (A) (A) (A) (A) (A) (A) (A)
                 (A) (A) (A) (A) (A) (A) (A) (A) (A) (A) (A) (A)
                 (A) (A) (A) (A) (A) (A) (A) (A) (A) (A) (A) (A)
                 (A) (A) (A) (A) (A) (A) (A) (A) (A) (A) (A) (A)
                 (A) (A) (A) (A) (A) (A) (A) (A) (A)
 The electronic state is 1-A.
 Alpha  occ. eigenvalues --  -19.19772 -14.49434 -10.34646 -10.34427 -10.32986
 Alpha  occ. eigenvalues --  -10.24571  -1.07923  -1.03364  -0.86199  -0.78541
 Alpha  occ. eigenvalues --   -0.70613  -0.63745  -0.62389  -0.57483  -0.54009
 Alpha  occ. eigenvalues --   -0.53322  -0.51841  -0.48612  -0.46317  -0.45212
 Alpha  occ. eigenvalues --   -0.44065  -0.42300  -0.29825  -0.26577
 Alpha virt. eigenvalues --    0.07594   0.10808   0.16008   0.16419   0.17342
 Alpha virt. eigenvalues --    0.17846   0.20031   0.20577   0.22180   0.23567
 Alpha virt. eigenvalues --    0.25682   0.26648   0.33158   0.38458   0.42360
 Alpha virt. eigenvalues --    0.45934   0.50184   0.52114   0.52653   0.57562
 Alpha virt. eigenvalues --    0.60192   0.61901   0.63775   0.66857   0.69413
 Alpha virt. eigenvalues --    0.69819   0.71060   0.73172   0.73772   0.75418
 Alpha virt. eigenvalues --    0.75953   0.77332   0.78782   0.79657   0.81425
 Alpha virt. eigenvalues --    0.83685   0.85444   0.89231   0.93761   0.95158
 Alpha virt. eigenvalues --    0.97015   1.07724   1.11002   1.14290   1.18297
 Alpha virt. eigenvalues --    1.20746   1.26286   1.29612   1.34897   1.38538
 Alpha virt. eigenvalues --    1.40631   1.47375   1.48427   1.56178   1.58059
 Alpha virt. eigenvalues --    1.58924   1.61090   1.73002   1.77297   1.77957
 Alpha virt. eigenvalues --    1.82282   1.83197   1.85146   1.86104   1.86885
 Alpha virt. eigenvalues --    1.88531   1.91011   1.93266   1.96277   2.00799
 Alpha virt. eigenvalues --    2.02656   2.03785   2.10898   2.13799   2.15474
 Alpha virt. eigenvalues --    2.17291   2.23922   2.27961   2.31384   2.33841
 Alpha virt. eigenvalues --    2.38857   2.39792   2.44596   2.50874   2.55901
 Alpha virt. eigenvalues --    2.62063   2.64065   2.71854   2.72479   2.75226
 Alpha virt. eigenvalues --    2.80029   2.84382   2.85498   2.91306   2.93487
 Alpha virt. eigenvalues --    3.01219   3.04454   3.04690   3.08144   3.25832
 Alpha virt. eigenvalues --    3.26816   3.39325   3.48937   3.57353   3.73185
          Condensed to atoms (all electrons):
               1          2          3          4          5          6
     1  C    5.529670   0.323429  -0.113672   0.375171   0.002690   0.000170
     2  C    0.323429   4.507579   0.643557  -0.001048   0.000068  -0.000020
     3  O   -0.113672   0.643557   7.837811   0.008075  -0.000000   0.000000
     4  C    0.375171  -0.001048   0.008075   4.753116  -0.001220  -0.001402
     5  C    0.002690   0.000068  -0.000000  -0.001220   4.509239   0.405840
     6  H    0.000170  -0.000020   0.000000  -0.001402   0.405840   0.589671
     7  H   -0.000318  -0.000009   0.000000   0.000919   0.406955  -0.022809
     8  H    0.000232   0.000010  -0.000000  -0.001495   0.405893  -0.018054
     9  N   -0.067548  -0.004006   0.000053  -0.010805   0.300594  -0.025630
    10  H    0.007790   0.002655  -0.000154   0.001002  -0.020352  -0.005316
    11  H    0.005834  -0.000360  -0.000017  -0.001483  -0.022079   0.007450
    12  H    0.001757   0.006306  -0.000203   0.374113   0.001011  -0.000453
    13  H   -0.025515  -0.013752   0.000186   0.398555   0.000911   0.004039
    14  H    0.383320  -0.026119   0.007578  -0.036108  -0.000052   0.000010
    15  H   -0.156626   0.401984  -0.041230   0.021081  -0.000027   0.000002
               7          8          9         10         11         12
     1  C   -0.000318   0.000232  -0.067548   0.007790   0.005834   0.001757
     2  C   -0.000009   0.000010  -0.004006   0.002655  -0.000360   0.006306
     3  O    0.000000  -0.000000   0.000053  -0.000154  -0.000017  -0.000203
     4  C    0.000919  -0.001495  -0.010805   0.001002  -0.001483   0.374113
     5  C    0.406955   0.405893   0.300594  -0.020352  -0.022079   0.001011
     6  H   -0.022809  -0.018054  -0.025630  -0.005316   0.007450  -0.000453
     7  H    0.609395  -0.022669  -0.013701  -0.009746  -0.009293  -0.000376
     8  H   -0.022669   0.590713  -0.025134   0.007448  -0.005614   0.003723
     9  N   -0.013701  -0.025134   6.514355   0.323126   0.328213  -0.038653
    10  H   -0.009746   0.007448   0.323126   0.550839  -0.012989   0.004457
    11  H   -0.009293  -0.005614   0.328213  -0.012989   0.551186  -0.003454
    12  H   -0.000376   0.003723  -0.038653   0.004457  -0.003454   0.655434
    13  H   -0.000341  -0.000537  -0.038651  -0.001782   0.004632  -0.029190
    14  H    0.000001  -0.000016  -0.000770  -0.000184   0.001511  -0.013688
    15  H   -0.000001  -0.000001  -0.000562   0.000479   0.000061  -0.000765
              13         14         15
     1  C   -0.025515   0.383320  -0.156626
     2  C   -0.013752  -0.026119   0.401984
     3  O    0.000186   0.007578  -0.041230
     4  C    0.398555  -0.036108   0.021081
     5  C    0.000911  -0.000052  -0.000027
     6  H    0.004039   0.000010   0.000002
     7  H   -0.000341   0.000001  -0.000001
     8  H   -0.000537  -0.000016  -0.000001
     9  N   -0.038651  -0.000770  -0.000562
    10  H   -0.001782  -0.000184   0.000479
    11  H    0.004632   0.001511   0.000061
    12  H   -0.029190  -0.013688  -0.000765
    13  H    0.645886   0.007884   0.008839
    14  H    0.007884   0.662212   0.009529
    15  H    0.008839   0.009529   0.786600
 Mulliken charges:
               1
     1  C   -0.266383
     2  C    0.159725
     3  O   -0.341984
     4  C    0.121531
     5  C    0.010528
     6  H    0.066502
     7  H    0.061992
     8  H    0.065500
     9  N   -0.240883
    10  H    0.152727
    11  H    0.156402
    12  H    0.039980
    13  H    0.038836
    14  H    0.004892
    15  H   -0.029364
 Sum of Mulliken charges =  -0.00000
 Mulliken charges with hydrogens summed into heavy atoms:
               1
     1  C   -0.261491
     2  C    0.130361
     3  O   -0.341984
     4  C    0.200347
     5  C    0.204521
     9  N    0.068246
 Electronic spatial extent (au):  <R**2>=            964.5898
 Charge=             -0.0000 electrons
 Dipole moment (field-independent basis, Debye):
    X=              9.5193    Y=             -0.6000    Z=             -0.0643  Tot=              9.5384
 Quadrupole moment (field-independent basis, Debye-Ang):
   XX=            -47.3290   YY=            -36.6517   ZZ=            -35.3172
   XY=             -3.4338   XZ=             -3.7437   YZ=             -1.1685
 Traceless Quadrupole moment (field-independent basis, Debye-Ang):
   XX=             -7.5631   YY=              3.1143   ZZ=              4.4488
   XY=             -3.4338   XZ=             -3.7437   YZ=             -1.1685
 Octapole moment (field-independent basis, Debye-Ang**2):
  XXX=             84.2795  YYY=             -5.9597  ZZZ=             -3.5969  XYY=              7.0699
  XXY=              5.8313  XXZ=              2.6169  XZZ=              4.2140  YZZ=             -1.8477
  YYZ=             -2.7524  XYZ=              1.7473
 Hexadecapole moment (field-independent basis, Debye-Ang**3):
 XXXX=          -1134.8248 YYYY=           -128.5040 ZZZZ=            -77.8814 XXXY=            -36.6967
 XXXZ=            -21.9827 YYYX=              3.7107 YYYZ=             -1.0972 ZZZX=             -3.0907
 ZZZY=             -1.7743 XXYY=           -189.8666 XXZZ=           -174.4615 YYZZ=            -34.9982
 XXYZ=             -3.1997 YYXZ=             -0.4341 ZZXY=             -0.8725
 N-N= 2.255367160727D+02 E-N=-1.120397854416D+03  KE= 2.846628025073D+02
   1 Symmetry operations used in ECPInt.
 ECPInt:  NShTT=    2016 NPrTT=    7008 LenC2=    1982 LenP2D=    5672.
 LDataN:  DoStor=T MaxTD1= 5 Len=  102
 D1PCM: PCM CHGder 1st derivatives, ID1Alg=3 FixD1E=F DoIter=F DoCFld=F I1PDM=0.
 Calling FoFJK, ICntrl=      2127 FMM=F ISym2X=0 I1Cent= 0 IOpClX= 0 NMat=1 NMatS=1 NMatT=0.
 ***** Axes restored to original set *****
 -------------------------------------------------------------------
 Center     Atomic                   Forces (Hartrees/Bohr)
 Number     Number              X              Y              Z
 -------------------------------------------------------------------
      1        6          -0.037729232   -0.030307589    0.010335298
      2        6           0.002129946    0.033470524   -0.041196816
      3        8           0.000310047   -0.009172956    0.012117961
      4        6           0.024972043    0.016338367    0.017841362
      5        6          -0.003344916    0.004470194    0.003817985
      6        1          -0.000171396   -0.000645348    0.003421585
      7        1           0.004800944   -0.002429915   -0.000975117
      8        1           0.001231515    0.003276684    0.000309635
      9        7           0.022134777   -0.028166163   -0.029310878
     10        1          -0.005763698    0.003510525    0.001483644
     11        1          -0.004644250    0.000778785    0.002282920
     12        1          -0.001333375    0.003260179    0.010985517
     13        1          -0.003304951    0.009005781    0.004340266
     14        1          -0.002153134    0.002731711   -0.006235519
     15        1           0.002865680   -0.006120780    0.010782155
 -------------------------------------------------------------------
 Cartesian Forces:  Max     0.041196816 RMS     0.014518461

 GradGradGradGradGradGradGradGradGradGradGradGradGradGradGradGradGradGrad
 Berny optimization.
 FormGI is forming the generalized inverse of G from B-inverse, IUseBI=4.
 Internal  Forces:  Max     0.038227012 RMS     0.008495440
 Search for a saddle point.
 Step number   1 out of a maximum of   50
 All quantities printed in internal units (Hartrees-Bohrs-Radians)
 Swapping is turned off.
 Second derivative matrix not updated -- first step.
 ITU=  0
     Eigenvalues ---   -0.03038   0.00023   0.00083   0.00400   0.00951
     Eigenvalues ---    0.01579   0.01838   0.03250   0.03704   0.03710
     Eigenvalues ---    0.03903   0.04508   0.05593   0.07146   0.08214
     Eigenvalues ---    0.09003   0.10473   0.10859   0.11072   0.11653
     Eigenvalues ---    0.12201   0.13724   0.14143   0.14637   0.14916
     Eigenvalues ---    0.16513   0.25684   0.26329   0.26409   0.26541
     Eigenvalues ---    0.27238   0.27309   0.28251   0.28300   0.29520
     Eigenvalues ---    0.38537   0.53162   0.74344   0.83166
 Eigenvectors required to have negative eigenvalues:
                          R6        A11       A10       A19       D6
   1                    0.79377  -0.24376  -0.23124   0.22402  -0.18112
                          D10       D9        D7        A7        A21
   1                    0.17752  -0.16060   0.15699   0.14548  -0.12040
 RFO step:  Lambda0=3.835734015D-04 Lambda=-2.24053447D-02.
 Linear search not attempted -- option 19 set.
 Maximum step size (   0.100) exceeded in Quadratic search.
    -- Step size scaled by   0.278
 Iteration  1 RMS(Cart)=  0.02225576 RMS(Int)=  0.00032737
 Iteration  2 RMS(Cart)=  0.00053894 RMS(Int)=  0.00013813
 Iteration  3 RMS(Cart)=  0.00000005 RMS(Int)=  0.00013813
 Variable       Old X    -DE/DX   Delta X   Delta X   Delta X     New X
                                 (Linear)    (Quad)   (Total)
    R1        2.78570  -0.02235   0.00000  -0.02772  -0.02772   2.75798
    R2        2.55090   0.03823   0.00000   0.01812   0.01812   2.56903
    R3        2.04562   0.00705   0.00000   0.00749   0.00749   2.05311
    R4        2.31471  -0.00402   0.00000  -0.00038  -0.00038   2.31433
    R5        2.08340   0.01267   0.00000   0.01997   0.01997   2.10337
    R6        3.54275   0.02854   0.00000   0.02058   0.02058   3.56334
    R7        2.07098  -0.00105   0.00000  -0.00483  -0.00483   2.06615
    R8        2.07083  -0.00026   0.00000  -0.00222  -0.00222   2.06861
    R9        2.06643   0.00343   0.00000   0.00368   0.00368   2.07011
   R10        2.06693   0.00446   0.00000   0.00371   0.00371   2.07064
   R11        2.06632   0.00346   0.00000   0.00367   0.00367   2.06999
   R12        2.77301   0.00385   0.00000  -0.00365  -0.00365   2.76936
   R13        1.93695  -0.00104   0.00000  -0.00425  -0.00425   1.93270
   R14        1.93865  -0.00210   0.00000  -0.00550  -0.00550   1.93315
    A1        2.10187   0.00384   0.00000   0.00678   0.00678   2.10865
    A2        2.04339  -0.00246   0.00000   0.00396   0.00396   2.04735
    A3        2.13784  -0.00139   0.00000  -0.01075  -0.01075   2.12709
    A4        2.11888   0.02214   0.00000   0.03619   0.03618   2.15506
    A5        2.03104  -0.01038   0.00000  -0.01298  -0.01299   2.01805
    A6        2.13326  -0.01176   0.00000  -0.02318  -0.02319   2.11007
    A7        1.99719  -0.01318   0.00000  -0.02725  -0.02718   1.97001
    A8        2.04564   0.00270   0.00000   0.00897   0.00913   2.05478
    A9        2.08340  -0.00170   0.00000  -0.00371  -0.00355   2.07985
   A10        1.55985   0.00778   0.00000   0.02183   0.02193   1.58178
   A11        1.54719   0.01117   0.00000   0.02822   0.02823   1.57542
   A12        2.06436  -0.00380   0.00000  -0.01676  -0.01733   2.04703
   A13        1.89990  -0.00137   0.00000  -0.00206  -0.00206   1.89784
   A14        1.89631   0.00006   0.00000  -0.00069  -0.00070   1.89561
   A15        1.92035  -0.00128   0.00000  -0.00198  -0.00199   1.91836
   A16        1.89987  -0.00140   0.00000  -0.00203  -0.00204   1.89784
   A17        1.92637   0.00513   0.00000   0.00876   0.00876   1.93513
   A18        1.92055  -0.00122   0.00000  -0.00214  -0.00214   1.91841
   A19        2.26139  -0.01488   0.00000  -0.04756  -0.04756   2.21383
   A20        1.83839  -0.00040   0.00000   0.00179   0.00181   1.84020
   A21        1.79556   0.00163   0.00000   0.00959   0.00976   1.80532
   A22        1.86062   0.00960   0.00000   0.02122   0.02085   1.88148
   A23        1.85978   0.00754   0.00000   0.01867   0.01855   1.87833
   A24        1.80001  -0.00176   0.00000   0.00571   0.00542   1.80543
    D1       -3.11669  -0.00055   0.00000  -0.00025  -0.00025  -3.11693
    D2        0.02009   0.00109   0.00000   0.00424   0.00424   0.02433
    D3        0.01139  -0.00081   0.00000  -0.00151  -0.00152   0.00987
    D4       -3.13502   0.00083   0.00000   0.00297   0.00297  -3.13205
    D5        1.56156   0.00073   0.00000   0.00295   0.00300   1.56455
    D6       -2.92901   0.00385   0.00000   0.01865   0.01863  -2.91038
    D7       -0.23710  -0.00371   0.00000  -0.01271  -0.01273  -0.24984
    D8       -1.56577   0.00101   0.00000   0.00416   0.00420  -1.56157
    D9        0.22685   0.00413   0.00000   0.01986   0.01984   0.24669
   D10        2.91876  -0.00343   0.00000  -0.01150  -0.01153   2.90723
   D11       -3.06697   0.00108   0.00000   0.00467   0.00462  -3.06236
   D12       -0.83889   0.00156   0.00000  -0.00532  -0.00519  -0.84407
   D13        1.04117   0.00011   0.00000   0.00494   0.00489   1.04607
   D14        1.12502  -0.00272   0.00000  -0.00997  -0.00981   1.11522
   D15       -2.93008  -0.00223   0.00000  -0.01997  -0.01961  -2.94968
   D16       -1.05002  -0.00369   0.00000  -0.00971  -0.00953  -1.05955
   D17       -0.93981   0.00162   0.00000   0.00823   0.00791  -0.93190
   D18        1.28827   0.00211   0.00000  -0.00177  -0.00189   1.28638
   D19       -3.11485   0.00065   0.00000   0.00849   0.00819  -3.10667
   D20        1.07958  -0.00128   0.00000  -0.00605  -0.00606   1.07351
   D21       -1.14019   0.00214   0.00000   0.01182   0.01200  -1.12819
   D22       -3.05368  -0.00312   0.00000  -0.01146  -0.01162  -3.06530
   D23       -3.10654  -0.00054   0.00000  -0.00429  -0.00431  -3.11084
   D24        0.95688   0.00289   0.00000   0.01357   0.01376   0.97063
   D25       -0.95661  -0.00237   0.00000  -0.00970  -0.00986  -0.96647
   D26       -1.00937   0.00021   0.00000  -0.00260  -0.00262  -1.01199
   D27        3.05405   0.00364   0.00000   0.01526   0.01544   3.06949
   D28        1.14056  -0.00162   0.00000  -0.00801  -0.00818   1.13238
         Item               Value     Threshold  Converged?
 Maximum Force            0.038227     0.000450     NO 
 RMS     Force            0.008495     0.000300     NO 
 Maximum Displacement     0.062319     0.001800     NO 
 RMS     Displacement     0.022510     0.001200     NO 
 Predicted change in Energy=-5.403684D-03
 GradGradGradGradGradGradGradGradGradGradGradGradGradGradGradGradGradGrad

                          Input orientation:                          
 ---------------------------------------------------------------------
 Center     Atomic      Atomic             Coordinates (Angstroms)
 Number     Number       Type             X           Y           Z
 ---------------------------------------------------------------------
      1          6           0       -0.972818    0.689220   -0.206864
      2          6           0       -1.909889   -0.302267    0.311671
      3          8           0       -3.005831   -0.522481   -0.188612
      4          6           0        0.242751    0.869596    0.374527
      5          6           0        2.966519   -0.363008    0.093390
      6          1           0        2.989722   -0.731352    1.124799
      7          1           0        3.524735   -1.059780   -0.541862
      8          1           0        3.458829    0.614958    0.060288
      9          7           0        1.578873   -0.239015   -0.361263
     10          1           0        1.172227   -1.177168   -0.383788
     11          1           0        1.599180    0.035112   -1.346622
     12          1           0        0.812277    1.760671    0.096921
     13          1           0        0.428408    0.444019    1.365838
     14          1           0       -1.282522    1.260001   -1.077890
     15          1           0       -1.568270   -0.864035    1.209785
 ---------------------------------------------------------------------
                    Distance matrix (angstroms):
                    1          2          3          4          5
     1  C    0.000000
     2  C    1.459461   0.000000
     3  O    2.366790   1.224690   0.000000
     4  C    1.359471   2.451749   3.578868   0.000000
     5  C    4.088485   4.881669   5.981130   3.002875   0.000000
     6  H    4.415096   4.985126   6.141281   3.266770   1.095454
     7  H    4.837272   5.553151   6.562146   3.915823   1.095737
     8  H    4.440313   5.452305   6.568679   3.241410   1.095391
     9  N    2.719667   3.553633   4.596703   1.885637   1.465484
    10  H    2.848846   3.278499   4.233542   2.372384   2.027323
    11  H    2.888266   3.895809   4.781007   2.344913   2.025278
    12  H    2.104009   3.422282   4.457831   1.093361   3.025026
    13  H    2.120602   2.671300   3.891586   1.094661   2.951681
    14  H    1.086459   2.182923   2.633981   2.142053   4.696850
    15  H    2.184962   1.113057   2.034393   2.642524   4.696986
                    6          7          8          9         10
     6  H    0.000000
     7  H    1.780972   0.000000
     8  H    1.779268   1.780919   0.000000
     9  N    2.107432   2.119586   2.107418   0.000000
    10  H    2.403721   2.360733   2.938956   1.022741   0.000000
    11  H    2.937516   2.356733   2.402897   1.022981   1.605915
    12  H    3.465253   3.964897   2.884136   2.190056   2.998590
    13  H    2.828414   3.935475   3.304108   2.184716   2.498540
    14  H    5.202825   5.364553   4.918530   3.308804   3.528082
    15  H    4.560715   5.389368   5.364745   3.572584   3.185569
                   11         12         13         14         15
    11  H    0.000000
    12  H    2.383398   0.000000
    13  H    2.982508   1.868443   0.000000
    14  H    3.142734   2.453372   3.092720   0.000000
    15  H    4.168504   3.714102   2.392088   3.134747   0.000000
 Stoichiometry    C4H9NO
 Framework group  C1[X(C4H9NO)]
 Deg. of freedom    39
 Full point group                 C1      NOp   1
 Largest Abelian subgroup         C1      NOp   1
 Largest concise Abelian subgroup C1      NOp   1
                         Standard orientation:                         
 ---------------------------------------------------------------------
 Center     Atomic      Atomic             Coordinates (Angstroms)
 Number     Number       Type             X           Y           Z
 ---------------------------------------------------------------------
      1          6           0       -0.972997    0.688952   -0.228189
      2          6           0       -1.913217   -0.284159    0.318682
      3          8           0       -3.008617   -0.517412   -0.176857
      4          6           0        0.241781    0.884636    0.349894
      5          6           0        2.963480   -0.361661    0.112498
      6          1           0        2.983825   -0.698115    1.154805
      7          1           0        3.521489   -1.078815   -0.499838
      8          1           0        3.457935    0.613803    0.050322
      9          7           0        1.577018   -0.248864   -0.348637
     10          1           0        1.168424   -1.186423   -0.343109
     11          1           0        1.599890   -0.005253   -1.341925
     12          1           0        0.813758    1.765562    0.046167
     13          1           0        0.424538    0.489406    1.354223
     14          1           0       -1.279734    1.233278   -1.117018
     15          1           0       -1.574601   -0.818708    1.234375
 ---------------------------------------------------------------------
 Rotational constants (GHZ):          11.0765160           1.2767651           1.2206951
 Standard basis: def2SVP (5D, 7F)
 There are   135 symmetry adapted cartesian basis functions of A   symmetry.
 There are   129 symmetry adapted basis functions of A   symmetry.
   129 basis functions,   213 primitive gaussians,   135 cartesian basis functions
    24 alpha electrons       24 beta electrons
       nuclear repulsion energy       225.6008269600 Hartrees.
 NAtoms=   15 NActive=   15 NUniq=   15 SFac= 1.00D+00 NAtFMM=   60 NAOKFM=F Big=F
 Integral buffers will be    131072 words long.
 Raffenetti 2 integral format.
 Two-electron integral symmetry is turned on.
 Nuclear repulsion after empirical dispersion term =      225.5941410129 Hartrees.
 ------------------------------------------------------------------------------
 Polarizable Continuum Model (PCM)
 =================================
 Model                : PCM.
 Atomic radii         : UFF (Universal Force Field).
 Polarization charges : Total charges.
 Charge compensation  : None.
 Solution method      : On-the-fly selection.
 Cavity type          : Scaled VdW (van der Waals Surface) (Alpha=1.100).
 Cavity algorithm     : GePol (No added spheres)
                        Default sphere list used, NSphG=   15.
                        Lebedev-Laikov grids with approx.  5.0 points / Ang**2.
                        Smoothing algorithm: York/Karplus (Gamma=1.0000).
                        Polarization charges: spherical gaussians, with
                                              point-specific exponents (IZeta= 3).
                        Self-potential: point-specific (ISelfS= 7).
                        Self-field    : sphere-specific E.n sum rule (ISelfD= 2).
 1st derivatives      : Analytical E(r).r(x)/FMM algorithm (CHGder, D1EAlg=3).
                        Cavity 1st derivative terms included.
 Solvent              : Toluene, Eps=   2.374100 Eps(inf)=   2.238315
 ------------------------------------------------------------------------------
 Spheres list:
 ISph  on   Nord     Re0    Alpha      Xe            Ye            Ze
    1   C      1    1.9255  1.100     -0.972997      0.688952     -0.228189
    2   C      2    1.9255  1.100     -1.913217     -0.284159      0.318682
    3   O      3    1.7500  1.100     -3.008617     -0.517412     -0.176857
    4   C      4    1.9255  1.100      0.241781      0.884636      0.349894
    5   C      5    1.9255  1.100      2.963480     -0.361661      0.112498
    6   H      6    1.4430  1.100      2.983825     -0.698115      1.154805
    7   H      7    1.4430  1.100      3.521489     -1.078815     -0.499838
    8   H      8    1.4430  1.100      3.457935      0.613803      0.050322
    9   N      9    1.8300  1.100      1.577018     -0.248864     -0.348637
   10   H     10    1.4430  1.100      1.168424     -1.186423     -0.343109
   11   H     11    1.4430  1.100      1.599890     -0.005253     -1.341925
   12   H     12    1.4430  1.100      0.813758      1.765562      0.046167
   13   H     13    1.4430  1.100      0.424538      0.489406      1.354223
   14   H     14    1.4430  1.100     -1.279734      1.233278     -1.117018
   15   H     15    1.4430  1.100     -1.574601     -0.818708      1.234375
 ------------------------------------------------------------------------------
 One-electron integrals computed using PRISM.
   1 Symmetry operations used in ECPInt.
 ECPInt:  NShTT=    2016 NPrTT=    7008 LenC2=    1983 LenP2D=    5675.
 LDataN:  DoStor=T MaxTD1= 4 Len=   56
 NBasis=   129 RedAO= T EigKep=  2.06D-03  NBF=   129
 NBsUse=   129 1.00D-06 EigRej= -1.00D+00 NBFU=   129
 Initial guess from the checkpoint file:  "TS-249_sqm.chk"
 B after Tr=     0.000000   -0.000000   -0.000000
         Rot=    0.999874    0.015827   -0.000009    0.000781 Ang=   1.82 deg.
 ExpMin= 1.22D-01 ExpMax= 2.27D+03 ExpMxC= 3.41D+02 IAcc=3 IRadAn=         5 AccDes= 0.00D+00
 Harris functional with IExCor= 4639 and IRadAn=       5 diagonalized for initial guess.
 HarFok:  IExCor= 4639 AccDes= 0.00D+00 IRadAn=         5 IDoV= 1 UseB2=F ITyADJ=14
 ICtDFT=  3500011 ScaDFX=  1.000000  1.000000  1.000000  1.000000
 FoFCou: FMM=F IPFlag=           0 FMFlag=      100000 FMFlg1=           0
         NFxFlg=           0 DoJE=T BraDBF=F KetDBF=T FulRan=T
         wScrn=  0.000000 ICntrl=       500 IOpCl=  0 I1Cent=   200000004 NGrid=           0
         NMat0=    1 NMatS0=      1 NMatT0=    0 NMatD0=    1 NMtDS0=    0 NMtDT0=    0
 Petite list used in FoFCou.
 Keep R1 ints in memory in canonical form, NReq=73012693.
 Requested convergence on RMS density matrix=1.00D-08 within 128 cycles.
 Requested convergence on MAX density matrix=1.00D-06.
 Requested convergence on             energy=1.00D-06.
 No special actions if energy rises.
 Inv3:  Mode=1 IEnd=     4892187.
 Iteration    1 A*A^-1 deviation from unit magnitude is 2.89D-15 for     68.
 Iteration    1 A*A^-1 deviation from orthogonality  is 1.70D-15 for    926    307.
 Iteration    1 A^-1*A deviation from unit magnitude is 2.66D-15 for     68.
 Iteration    1 A^-1*A deviation from orthogonality  is 1.44D-15 for   1114    824.
 Error on total polarization charges =  0.00618
 SCF Done:  E(RwB97XD) =  -287.441799676     A.U. after   12 cycles
            NFock= 12  Conv=0.60D-08     -V/T= 2.0099
   1 Symmetry operations used in ECPInt.
 ECPInt:  NShTT=    2016 NPrTT=    7008 LenC2=    1983 LenP2D=    5675.
 LDataN:  DoStor=T MaxTD1= 5 Len=  102
 D1PCM: PCM CHGder 1st derivatives, ID1Alg=3 FixD1E=F DoIter=F DoCFld=F I1PDM=0.
 Calling FoFJK, ICntrl=      2127 FMM=F ISym2X=0 I1Cent= 0 IOpClX= 0 NMat=1 NMatS=1 NMatT=0.
 ***** Axes restored to original set *****
 -------------------------------------------------------------------
 Center     Atomic                   Forces (Hartrees/Bohr)
 Number     Number              X              Y              Z
 -------------------------------------------------------------------
      1        6          -0.029775149   -0.020153188    0.006362086
      2        6           0.001065450    0.021457184   -0.026789938
      3        8           0.001181653   -0.005495714    0.007980846
      4        6           0.016923464    0.010234616    0.012247851
      5        6          -0.002227911    0.003332161    0.003075368
      6        1          -0.000326470   -0.000165503    0.002169975
      7        1           0.003649169   -0.001668420   -0.000497496
      8        1           0.000491247    0.002138303    0.000341174
      9        7           0.019271149   -0.021349986   -0.021423584
     10        1          -0.005398337    0.001787518    0.001983140
     11        1          -0.003775678    0.001716151    0.000416982
     12        1          -0.000106076    0.003295435    0.008109161
     13        1          -0.001943633    0.006214555    0.003905293
     14        1          -0.001334623    0.001598748   -0.004163487
     15        1           0.002305742   -0.002941860    0.006282627
 -------------------------------------------------------------------
 Cartesian Forces:  Max     0.029775149 RMS     0.010273742

 GradGradGradGradGradGradGradGradGradGradGradGradGradGradGradGradGradGrad
 Berny optimization.
 FormGI is forming the generalized inverse of G from B-inverse, IUseBI=4.
 Internal  Forces:  Max     0.028893331 RMS     0.006140463
 Search for a saddle point.
 Step number   2 out of a maximum of   50
 All quantities printed in internal units (Hartrees-Bohrs-Radians)
 Swapping is turned off.
 Update second derivatives using D2CorX and points    1    2
 ITU=  0  0
     Eigenvalues ---   -0.02643   0.00012   0.00083   0.00400   0.00931
     Eigenvalues ---    0.01508   0.01814   0.02747   0.03641   0.03705
     Eigenvalues ---    0.03732   0.04507   0.05557   0.07148   0.08390
     Eigenvalues ---    0.09020   0.10427   0.10721   0.11004   0.11734
     Eigenvalues ---    0.12185   0.14099   0.14480   0.14634   0.15040
     Eigenvalues ---    0.20387   0.25686   0.26331   0.26535   0.26544
     Eigenvalues ---    0.27290   0.27414   0.28243   0.28335   0.30378
     Eigenvalues ---    0.38429   0.53151   0.74252   0.83182
 Eigenvectors required to have negative eigenvalues:
                          R6        A11       A19       A10       D10
   1                    0.80532  -0.22495   0.21988  -0.21679   0.18880
                          D6        D7        D9        A21       A20
   1                   -0.18718   0.17013  -0.16852  -0.11857  -0.09857
 RFO step:  Lambda0=1.288138029D-03 Lambda=-1.25081155D-02.
 Linear search not attempted -- option 19 set.
 Maximum step size (   0.100) exceeded in Quadratic search.
    -- Step size scaled by   0.314
 Iteration  1 RMS(Cart)=  0.03494007 RMS(Int)=  0.00072162
 Iteration  2 RMS(Cart)=  0.00116678 RMS(Int)=  0.00019678
 Iteration  3 RMS(Cart)=  0.00000048 RMS(Int)=  0.00019678
 Variable       Old X    -DE/DX   Delta X   Delta X   Delta X     New X
                                 (Linear)    (Quad)   (Total)
    R1        2.75798  -0.01621   0.00000  -0.02338  -0.02338   2.73460
    R2        2.56903   0.02889   0.00000   0.01983   0.01983   2.58886
    R3        2.05311   0.00456   0.00000   0.00209   0.00209   2.05520
    R4        2.31433  -0.00333   0.00000   0.00035   0.00035   2.31468
    R5        2.10337   0.00727   0.00000   0.00676   0.00676   2.11014
    R6        3.56334   0.02207   0.00000  -0.01071  -0.01071   3.55262
    R7        2.06615   0.00057   0.00000   0.00319   0.00319   2.06934
    R8        2.06861   0.00079   0.00000   0.00413   0.00413   2.07274
    R9        2.07011   0.00209   0.00000   0.00206   0.00206   2.07217
   R10        2.07064   0.00321   0.00000   0.00292   0.00292   2.07356
   R11        2.06999   0.00212   0.00000   0.00217   0.00217   2.07216
   R12        2.76936   0.00277   0.00000  -0.00484  -0.00484   2.76453
   R13        1.93270   0.00046   0.00000   0.00036   0.00036   1.93306
   R14        1.93315  -0.00002   0.00000   0.00020   0.00020   1.93335
    A1        2.10865   0.00180   0.00000  -0.00133  -0.00133   2.10732
    A2        2.04735  -0.00133   0.00000   0.00797   0.00797   2.05531
    A3        2.12709  -0.00047   0.00000  -0.00671  -0.00671   2.12037
    A4        2.15506   0.01446   0.00000   0.02156   0.02156   2.17662
    A5        2.01805  -0.00768   0.00000  -0.01371  -0.01371   2.00434
    A6        2.11007  -0.00677   0.00000  -0.00785  -0.00785   2.10222
    A7        1.97001  -0.00673   0.00000   0.00237   0.00238   1.97239
    A8        2.05478   0.00196   0.00000   0.00403   0.00366   2.05844
    A9        2.07985  -0.00126   0.00000  -0.00791  -0.00827   2.07158
   A10        1.58178   0.00470   0.00000   0.02247   0.02242   1.60420
   A11        1.57542   0.00695   0.00000   0.02671   0.02674   1.60216
   A12        2.04703  -0.00315   0.00000  -0.02209  -0.02283   2.02420
   A13        1.89784  -0.00096   0.00000  -0.00057  -0.00057   1.89727
   A14        1.89561   0.00012   0.00000  -0.00177  -0.00178   1.89383
   A15        1.91836  -0.00118   0.00000  -0.00272  -0.00273   1.91563
   A16        1.89784  -0.00097   0.00000  -0.00070  -0.00070   1.89714
   A17        1.93513   0.00410   0.00000   0.00906   0.00906   1.94419
   A18        1.91841  -0.00118   0.00000  -0.00346  -0.00346   1.91494
   A19        2.21383  -0.01124   0.00000  -0.06666  -0.06677   2.14706
   A20        1.84020  -0.00076   0.00000   0.00265   0.00247   1.84267
   A21        1.80532   0.00101   0.00000   0.01786   0.01814   1.82346
   A22        1.88148   0.00743   0.00000   0.02359   0.02276   1.90424
   A23        1.87833   0.00588   0.00000   0.02222   0.02212   1.90045
   A24        1.80543  -0.00113   0.00000   0.01403   0.01353   1.81896
    D1       -3.11693  -0.00027   0.00000   0.00372   0.00374  -3.11320
    D2        0.02433   0.00081   0.00000   0.00744   0.00745   0.03178
    D3        0.00987  -0.00051   0.00000  -0.00139  -0.00140   0.00847
    D4       -3.13205   0.00056   0.00000   0.00233   0.00232  -3.12973
    D5        1.56455   0.00054   0.00000   0.00369   0.00366   1.56821
    D6       -2.91038   0.00324   0.00000   0.03582   0.03575  -2.87462
    D7       -0.24984  -0.00305   0.00000  -0.02759  -0.02746  -0.27730
    D8       -1.56157   0.00080   0.00000   0.00891   0.00886  -1.55271
    D9        0.24669   0.00350   0.00000   0.04104   0.04096   0.28764
   D10        2.90723  -0.00279   0.00000  -0.02237  -0.02226   2.88497
   D11       -3.06236   0.00080   0.00000   0.00363   0.00344  -3.05892
   D12       -0.84407   0.00117   0.00000  -0.01766  -0.01747  -0.86154
   D13        1.04607   0.00004   0.00000   0.00518   0.00515   1.05121
   D14        1.11522  -0.00195   0.00000  -0.01265  -0.01273   1.10249
   D15       -2.94968  -0.00159   0.00000  -0.03395  -0.03363  -2.98331
   D16       -1.05955  -0.00271   0.00000  -0.01110  -0.01102  -1.07056
   D17       -0.93190   0.00105   0.00000   0.00880   0.00852  -0.92338
   D18        1.28638   0.00141   0.00000  -0.01250  -0.01239   1.27400
   D19       -3.10667   0.00029   0.00000   0.01035   0.01023  -3.09644
   D20        1.07351  -0.00116   0.00000  -0.01199  -0.01201   1.06151
   D21       -1.12819   0.00202   0.00000   0.01942   0.01967  -1.10853
   D22       -3.06530  -0.00286   0.00000  -0.01796  -0.01818  -3.08348
   D23       -3.11084  -0.00049   0.00000  -0.00866  -0.00868  -3.11952
   D24        0.97063   0.00268   0.00000   0.02275   0.02300   0.99363
   D25       -0.96647  -0.00220   0.00000  -0.01463  -0.01485  -0.98133
   D26       -1.01199   0.00016   0.00000  -0.00598  -0.00600  -1.01799
   D27        3.06949   0.00334   0.00000   0.02543   0.02567   3.09516
   D28        1.13238  -0.00154   0.00000  -0.01195  -0.01218   1.12020
         Item               Value     Threshold  Converged?
 Maximum Force            0.028893     0.000450     NO 
 RMS     Force            0.006140     0.000300     NO 
 Maximum Displacement     0.098894     0.001800     NO 
 RMS     Displacement     0.035398     0.001200     NO 
 Predicted change in Energy=-3.054568D-03
 GradGradGradGradGradGradGradGradGradGradGradGradGradGradGradGradGradGrad

                          Input orientation:                          
 ---------------------------------------------------------------------
 Center     Atomic      Atomic             Coordinates (Angstroms)
 Number     Number       Type             X           Y           Z
 ---------------------------------------------------------------------
      1          6           0       -0.969120    0.687148   -0.205239
      2          6           0       -1.903507   -0.288666    0.313191
      3          8           0       -3.013531   -0.509084   -0.155412
      4          6           0        0.267245    0.843955    0.363631
      5          6           0        2.946058   -0.350375    0.100612
      6          1           0        2.937390   -0.706110    1.137815
      7          1           0        3.553232   -1.037533   -0.502033
      8          1           0        3.410957    0.642453    0.077006
      9          7           0        1.575770   -0.265881   -0.404682
     10          1           0        1.166299   -1.203151   -0.420301
     11          1           0        1.602222    0.013223   -1.388607
     12          1           0        0.835168    1.746894    0.116048
     13          1           0        0.445585    0.422435    1.360420
     14          1           0       -1.275697    1.273284   -1.068517
     15          1           0       -1.543880   -0.854122    1.206389
 ---------------------------------------------------------------------
                    Distance matrix (angstroms):
                    1          2          3          4          5
     1  C    0.000000
     2  C    1.447087   0.000000
     3  O    2.369192   1.224878   0.000000
     4  C    1.369963   2.448987   3.586587   0.000000
     5  C    4.061849   4.854614   5.967197   2.944765   0.000000
     6  H    4.359562   4.928341   6.093006   3.183039   1.096545
     7  H    4.849152   5.567889   6.597104   3.884209   1.097282
     8  H    4.389389   5.400583   6.531011   3.163176   1.096539
     9  N    2.724795   3.552637   4.602496   1.879968   1.462925
    10  H    2.859982   3.286032   4.245336   2.369281   2.041107
    11  H    2.909697   3.908630   4.806116   2.354276   2.038595
    12  H    2.117012   3.417998   4.469408   1.095049   2.975673
    13  H    2.126676   2.668442   3.889853   1.096846   2.904602
    14  H    1.087563   2.177831   2.651540   2.148497   4.671867
    15  H    2.167614   1.116635   2.033083   2.621807   4.651455
                    6          7          8          9         10
     6  H    0.000000
     7  H    1.782752   0.000000
     8  H    1.779945   1.782661   0.000000
     9  N    2.104069   2.124918   2.103569   0.000000
    10  H    2.410713   2.394067   2.948230   1.022931   0.000000
    11  H    2.946679   2.386742   2.411529   1.023086   1.614686
    12  H    3.388300   3.939915   2.802857   2.207015   3.016635
    13  H    2.744496   3.906111   3.238671   2.206056   2.516530
    14  H    5.151310   5.383245   4.865685   3.307653   3.537832
    15  H    4.484237   5.378930   5.297702   3.560027   3.180096
                   11         12         13         14         15
    11  H    0.000000
    12  H    2.420325   0.000000
    13  H    3.010383   1.858609   0.000000
    14  H    3.157946   2.466424   3.096205   0.000000
    15  H    4.169441   3.689714   2.368816   3.126175   0.000000
 Stoichiometry    C4H9NO
 Framework group  C1[X(C4H9NO)]
 Deg. of freedom    39
 Full point group                 C1      NOp   1
 Largest Abelian subgroup         C1      NOp   1
 Largest concise Abelian subgroup C1      NOp   1
                         Standard orientation:                         
 ---------------------------------------------------------------------
 Center     Atomic      Atomic             Coordinates (Angstroms)
 Number     Number       Type             X           Y           Z
 ---------------------------------------------------------------------
      1          6           0       -0.968993    0.687303   -0.230662
      2          6           0       -1.908020   -0.271490    0.310638
      3          8           0       -3.014894   -0.505263   -0.158941
      4          6           0        0.263441    0.860461    0.341983
      5          6           0        2.942873   -0.343423    0.134743
      6          1           0        2.926460   -0.667292    1.182241
      7          1           0        3.553644   -1.049143   -0.442270
      8          1           0        3.408915    0.647860    0.084145
      9          7           0        1.576307   -0.273345   -0.382686
     10          1           0        1.166027   -1.210338   -0.372594
     11          1           0        1.610047   -0.024457   -1.374464
     12          1           0        0.834010    1.754973    0.071000
     13          1           0        0.434254    0.469457    1.352433
     14          1           0       -1.268827    1.247025   -1.113614
     15          1           0       -1.555329   -0.809668    1.223243
 ---------------------------------------------------------------------
 Rotational constants (GHZ):          11.2083072           1.2808659           1.2277936
 Standard basis: def2SVP (5D, 7F)
 There are   135 symmetry adapted cartesian basis functions of A   symmetry.
 There are   129 symmetry adapted basis functions of A   symmetry.
   129 basis functions,   213 primitive gaussians,   135 cartesian basis functions
    24 alpha electrons       24 beta electrons
       nuclear repulsion energy       225.8472148405 Hartrees.
 NAtoms=   15 NActive=   15 NUniq=   15 SFac= 1.00D+00 NAtFMM=   60 NAOKFM=F Big=F
 Integral buffers will be    131072 words long.
 Raffenetti 2 integral format.
 Two-electron integral symmetry is turned on.
 Nuclear repulsion after empirical dispersion term =      225.8404665027 Hartrees.
 ------------------------------------------------------------------------------
 Polarizable Continuum Model (PCM)
 =================================
 Model                : PCM.
 Atomic radii         : UFF (Universal Force Field).
 Polarization charges : Total charges.
 Charge compensation  : None.
 Solution method      : On-the-fly selection.
 Cavity type          : Scaled VdW (van der Waals Surface) (Alpha=1.100).
 Cavity algorithm     : GePol (No added spheres)
                        Default sphere list used, NSphG=   15.
                        Lebedev-Laikov grids with approx.  5.0 points / Ang**2.
                        Smoothing algorithm: York/Karplus (Gamma=1.0000).
                        Polarization charges: spherical gaussians, with
                                              point-specific exponents (IZeta= 3).
                        Self-potential: point-specific (ISelfS= 7).
                        Self-field    : sphere-specific E.n sum rule (ISelfD= 2).
 1st derivatives      : Analytical E(r).r(x)/FMM algorithm (CHGder, D1EAlg=3).
                        Cavity 1st derivative terms included.
 Solvent              : Toluene, Eps=   2.374100 Eps(inf)=   2.238315
 ------------------------------------------------------------------------------
 Spheres list:
 ISph  on   Nord     Re0    Alpha      Xe            Ye            Ze
    1   C      1    1.9255  1.100     -0.968993      0.687303     -0.230662
    2   C      2    1.9255  1.100     -1.908020     -0.271490      0.310638
    3   O      3    1.7500  1.100     -3.014894     -0.505263     -0.158941
    4   C      4    1.9255  1.100      0.263441      0.860461      0.341983
    5   C      5    1.9255  1.100      2.942873     -0.343423      0.134743
    6   H      6    1.4430  1.100      2.926460     -0.667292      1.182241
    7   H      7    1.4430  1.100      3.553644     -1.049143     -0.442270
    8   H      8    1.4430  1.100      3.408915      0.647860      0.084145
    9   N      9    1.8300  1.100      1.576307     -0.273345     -0.382686
   10   H     10    1.4430  1.100      1.166027     -1.210338     -0.372594
   11   H     11    1.4430  1.100      1.610047     -0.024457     -1.374464
   12   H     12    1.4430  1.100      0.834010      1.754973      0.071000
   13   H     13    1.4430  1.100      0.434254      0.469457      1.352433
   14   H     14    1.4430  1.100     -1.268827      1.247025     -1.113614
   15   H     15    1.4430  1.100     -1.555329     -0.809668      1.223243
 ------------------------------------------------------------------------------
 One-electron integrals computed using PRISM.
   1 Symmetry operations used in ECPInt.
 ECPInt:  NShTT=    2016 NPrTT=    7008 LenC2=    1986 LenP2D=    5678.
 LDataN:  DoStor=T MaxTD1= 4 Len=   56
 NBasis=   129 RedAO= T EigKep=  2.09D-03  NBF=   129
 NBsUse=   129 1.00D-06 EigRej= -1.00D+00 NBFU=   129
 Initial guess from the checkpoint file:  "TS-249_sqm.chk"
 B after Tr=    -0.000000   -0.000000    0.000000
         Rot=    0.999998    0.002021    0.000127    0.000890 Ang=   0.25 deg.
 ExpMin= 1.22D-01 ExpMax= 2.27D+03 ExpMxC= 3.41D+02 IAcc=3 IRadAn=         5 AccDes= 0.00D+00
 Harris functional with IExCor= 4639 and IRadAn=       5 diagonalized for initial guess.
 HarFok:  IExCor= 4639 AccDes= 0.00D+00 IRadAn=         5 IDoV= 1 UseB2=F ITyADJ=14
 ICtDFT=  3500011 ScaDFX=  1.000000  1.000000  1.000000  1.000000
 FoFCou: FMM=F IPFlag=           0 FMFlag=      100000 FMFlg1=           0
         NFxFlg=           0 DoJE=T BraDBF=F KetDBF=T FulRan=T
         wScrn=  0.000000 ICntrl=       500 IOpCl=  0 I1Cent=   200000004 NGrid=           0
         NMat0=    1 NMatS0=      1 NMatT0=    0 NMatD0=    1 NMtDS0=    0 NMtDT0=    0
 Petite list used in FoFCou.
 Keep R1 ints in memory in canonical form, NReq=73012762.
 Requested convergence on RMS density matrix=1.00D-08 within 128 cycles.
 Requested convergence on MAX density matrix=1.00D-06.
 Requested convergence on             energy=1.00D-06.
 No special actions if energy rises.
 Inv3:  Mode=1 IEnd=     4892187.
 Iteration    1 A*A^-1 deviation from unit magnitude is 3.00D-15 for    572.
 Iteration    1 A*A^-1 deviation from orthogonality  is 1.76D-15 for    965    380.
 Iteration    1 A^-1*A deviation from unit magnitude is 2.78D-15 for    572.
 Iteration    1 A^-1*A deviation from orthogonality  is 1.44D-15 for   1146    546.
 Error on total polarization charges =  0.00623
 SCF Done:  E(RwB97XD) =  -287.444795867     A.U. after   13 cycles
            NFock= 13  Conv=0.38D-08     -V/T= 2.0101
   1 Symmetry operations used in ECPInt.
 ECPInt:  NShTT=    2016 NPrTT=    7008 LenC2=    1986 LenP2D=    5678.
 LDataN:  DoStor=T MaxTD1= 5 Len=  102
 D1PCM: PCM CHGder 1st derivatives, ID1Alg=3 FixD1E=F DoIter=F DoCFld=F I1PDM=0.
 Calling FoFJK, ICntrl=      2127 FMM=F ISym2X=0 I1Cent= 0 IOpClX= 0 NMat=1 NMatS=1 NMatT=0.
 ***** Axes restored to original set *****
 -------------------------------------------------------------------
 Center     Atomic                   Forces (Hartrees/Bohr)
 Number     Number              X              Y              Z
 -------------------------------------------------------------------
      1        6          -0.020395437   -0.013725509    0.004986117
      2        6          -0.000332982    0.015249791   -0.019614124
      3        8           0.000713660   -0.004117325    0.005779685
      4        6           0.012157527    0.008102018    0.009410559
      5        6          -0.001207808    0.002295362    0.002168276
      6        1          -0.000419813   -0.000062739    0.001401595
      7        1           0.002464104   -0.000973257   -0.000109225
      8        1           0.000159388    0.001451483    0.000228273
      9        7           0.014326164   -0.016026509   -0.016243873
     10        1          -0.003941546    0.001843691    0.001620471
     11        1          -0.002953221    0.001341505    0.000842903
     12        1          -0.000066736    0.001456291    0.005946519
     13        1          -0.001198273    0.004332710    0.001980809
     14        1          -0.001198636    0.001430900   -0.003563310
     15        1           0.001893608   -0.002598412    0.005165325
 -------------------------------------------------------------------
 Cartesian Forces:  Max     0.020395437 RMS     0.007447340

 GradGradGradGradGradGradGradGradGradGradGradGradGradGradGradGradGradGrad
 Berny optimization.
 FormGI is forming the generalized inverse of G from B-inverse, IUseBI=4.
 Internal  Forces:  Max     0.020868628 RMS     0.004388374
 Search for a saddle point.
 Step number   3 out of a maximum of   50
 All quantities printed in internal units (Hartrees-Bohrs-Radians)
 Swapping is turned off.
 Update second derivatives using D2CorX and points    1    2    3
 ITU=  0  0  0
     Eigenvalues ---   -0.02260   0.00043   0.00083   0.00402   0.00944
     Eigenvalues ---    0.01564   0.01837   0.02882   0.03689   0.03705
     Eigenvalues ---    0.03783   0.04505   0.05593   0.07147   0.08412
     Eigenvalues ---    0.09021   0.10423   0.10651   0.10976   0.11734
     Eigenvalues ---    0.12176   0.14111   0.14542   0.14629   0.15079
     Eigenvalues ---    0.20119   0.25688   0.26331   0.26536   0.26544
     Eigenvalues ---    0.27294   0.27415   0.28257   0.28380   0.30344
     Eigenvalues ---    0.38631   0.53146   0.74219   0.83209
 Eigenvectors required to have negative eigenvalues:
                          R6        A11       A10       A19       D10
   1                    0.82730  -0.22352  -0.21743   0.18794   0.18483
                          D6        D7        D9        A7        A21
   1                   -0.16787   0.15604  -0.13908   0.10502  -0.10382
 RFO step:  Lambda0=1.454561132D-03 Lambda=-6.54858923D-03.
 Linear search not attempted -- option 19 set.
 Maximum step size (   0.100) exceeded in Quadratic search.
    -- Step size scaled by   0.342
 Iteration  1 RMS(Cart)=  0.03298132 RMS(Int)=  0.00053880
 Iteration  2 RMS(Cart)=  0.00076535 RMS(Int)=  0.00016437
 Iteration  3 RMS(Cart)=  0.00000030 RMS(Int)=  0.00016437
 Variable       Old X    -DE/DX   Delta X   Delta X   Delta X     New X
                                 (Linear)    (Quad)   (Total)
    R1        2.73460  -0.01032   0.00000  -0.01928  -0.01928   2.71532
    R2        2.58886   0.02087   0.00000   0.02056   0.02056   2.60941
    R3        2.05520   0.00394   0.00000   0.00349   0.00349   2.05869
    R4        2.31468  -0.00212   0.00000   0.00116   0.00116   2.31585
    R5        2.11014   0.00606   0.00000   0.00899   0.00899   2.11912
    R6        3.55262   0.01597   0.00000  -0.04256  -0.04256   3.51007
    R7        2.06934  -0.00018   0.00000   0.00164   0.00164   2.07098
    R8        2.07274  -0.00006   0.00000   0.00244   0.00244   2.07518
    R9        2.07217   0.00135   0.00000   0.00119   0.00119   2.07336
   R10        2.07356   0.00203   0.00000   0.00136   0.00136   2.07492
   R11        2.07216   0.00138   0.00000   0.00117   0.00117   2.07333
   R12        2.76453   0.00205   0.00000  -0.00297  -0.00297   2.76156
   R13        1.93306  -0.00014   0.00000  -0.00032  -0.00032   1.93274
   R14        1.93335  -0.00052   0.00000  -0.00035  -0.00035   1.93300
    A1        2.10732   0.00135   0.00000  -0.00083  -0.00083   2.10649
    A2        2.05531  -0.00109   0.00000   0.00519   0.00519   2.06051
    A3        2.12037  -0.00026   0.00000  -0.00439  -0.00440   2.11598
    A4        2.17662   0.01064   0.00000   0.01964   0.01964   2.19626
    A5        2.00434  -0.00552   0.00000  -0.01105  -0.01105   1.99329
    A6        2.10222  -0.00513   0.00000  -0.00860  -0.00860   2.09362
    A7        1.97239  -0.00456   0.00000  -0.00298  -0.00292   1.96947
    A8        2.05844   0.00158   0.00000  -0.00015  -0.00044   2.05800
    A9        2.07158  -0.00084   0.00000  -0.01136  -0.01163   2.05995
   A10        1.60420   0.00304   0.00000   0.02580   0.02579   1.62999
   A11        1.60216   0.00459   0.00000   0.02860   0.02864   1.63081
   A12        2.02420  -0.00243   0.00000  -0.01633  -0.01715   2.00705
   A13        1.89727  -0.00059   0.00000   0.00036   0.00036   1.89763
   A14        1.89383   0.00019   0.00000  -0.00027  -0.00028   1.89355
   A15        1.91563  -0.00101   0.00000  -0.00307  -0.00308   1.91255
   A16        1.89714  -0.00061   0.00000   0.00057   0.00057   1.89771
   A17        1.94419   0.00291   0.00000   0.00541   0.00541   1.94960
   A18        1.91494  -0.00094   0.00000  -0.00305  -0.00305   1.91189
   A19        2.14706  -0.00786   0.00000  -0.05943  -0.05949   2.08757
   A20        1.84267  -0.00071   0.00000   0.00401   0.00390   1.84657
   A21        1.82346   0.00061   0.00000   0.01626   0.01642   1.83989
   A22        1.90424   0.00519   0.00000   0.01950   0.01894   1.92317
   A23        1.90045   0.00420   0.00000   0.01851   0.01842   1.91888
   A24        1.81896  -0.00081   0.00000   0.01062   0.01023   1.82919
    D1       -3.11320  -0.00021   0.00000   0.00033   0.00033  -3.11287
    D2        0.03178   0.00062   0.00000   0.00345   0.00345   0.03523
    D3        0.00847  -0.00042   0.00000  -0.00172  -0.00173   0.00675
    D4       -3.12973   0.00041   0.00000   0.00140   0.00139  -3.12834
    D5        1.56821   0.00036   0.00000   0.00365   0.00363   1.57184
    D6       -2.87462   0.00212   0.00000   0.03447   0.03438  -2.84025
    D7       -0.27730  -0.00190   0.00000  -0.02432  -0.02419  -0.30149
    D8       -1.55271   0.00058   0.00000   0.00566   0.00564  -1.54707
    D9        0.28764   0.00234   0.00000   0.03649   0.03639   0.32403
   D10        2.88497  -0.00168   0.00000  -0.02231  -0.02219   2.86278
   D11       -3.05892   0.00058   0.00000   0.00778   0.00765  -3.05127
   D12       -0.86154   0.00095   0.00000  -0.00845  -0.00832  -0.86986
   D13        1.05121   0.00002   0.00000   0.01106   0.01106   1.06227
   D14        1.10249  -0.00141   0.00000  -0.00455  -0.00452   1.09797
   D15       -2.98331  -0.00104   0.00000  -0.02077  -0.02049  -3.00380
   D16       -1.07056  -0.00197   0.00000  -0.00126  -0.00111  -1.07167
   D17       -0.92338   0.00063   0.00000   0.00899   0.00871  -0.91467
   D18        1.27400   0.00100   0.00000  -0.00724  -0.00726   1.26674
   D19       -3.09644   0.00007   0.00000   0.01228   0.01212  -3.08432
   D20        1.06151  -0.00086   0.00000  -0.00835  -0.00836   1.05315
   D21       -1.10853   0.00167   0.00000   0.01710   0.01727  -1.09125
   D22       -3.08348  -0.00226   0.00000  -0.01525  -0.01539  -3.09887
   D23       -3.11952  -0.00039   0.00000  -0.00645  -0.00647  -3.12599
   D24        0.99363   0.00214   0.00000   0.01900   0.01917   1.01280
   D25       -0.98133  -0.00179   0.00000  -0.01335  -0.01350  -0.99482
   D26       -1.01799   0.00010   0.00000  -0.00428  -0.00430  -1.02229
   D27        3.09516   0.00263   0.00000   0.02118   0.02134   3.11649
   D28        1.12020  -0.00130   0.00000  -0.01117  -0.01133   1.10888
         Item               Value     Threshold  Converged?
 Maximum Force            0.020869     0.000450     NO 
 RMS     Force            0.004388     0.000300     NO 
 Maximum Displacement     0.110641     0.001800     NO 
 RMS     Displacement     0.033327     0.001200     NO 
 Predicted change in Energy=-1.471147D-03
 GradGradGradGradGradGradGradGradGradGradGradGradGradGradGradGradGradGrad

                          Input orientation:                          
 ---------------------------------------------------------------------
 Center     Atomic      Atomic             Coordinates (Angstroms)
 Number     Number       Type             X           Y           Z
 ---------------------------------------------------------------------
      1          6           0       -0.956761    0.681813   -0.206526
      2          6           0       -1.888266   -0.280140    0.314612
      3          8           0       -3.011098   -0.501906   -0.123454
      4          6           0        0.298734    0.821029    0.351214
      5          6           0        2.918615   -0.339009    0.109443
      6          1           0        2.878841   -0.687533    1.149031
      7          1           0        3.562598   -1.017539   -0.465436
      8          1           0        3.362522    0.664242    0.095495
      9          7           0        1.565787   -0.282672   -0.440321
     10          1           0        1.151137   -1.217509   -0.454062
     11          1           0        1.599721    0.002674   -1.422031
     12          1           0        0.860684    1.735116    0.128304
     13          1           0        0.466878    0.405847    1.353841
     14          1           0       -1.263417    1.279591   -1.064104
     15          1           0       -1.511785   -0.849535    1.204314
 ---------------------------------------------------------------------
                    Distance matrix (angstroms):
                    1          2          3          4          5
     1  C    0.000000
     2  C    1.436885   0.000000
     3  O    2.372423   1.225493   0.000000
     4  C    1.380841   2.448854   3.595895   0.000000
     5  C    4.020007   4.811618   5.936521   2.875399   0.000000
     6  H    4.292375   4.856700   6.028687   3.093416   1.097176
     7  H    4.835228   5.555551   6.602750   3.834065   1.097999
     8  H    4.329865   5.339536   6.483123   3.078437   1.097160
     9  N    2.710745   3.535592   4.593076   1.857447   1.461355
    10  H    2.848145   3.272231   4.236224   2.351744   2.052627
    11  H    2.911062   3.906657   4.816696   2.346629   2.049790
    12  H    2.127126   3.413604   4.478655   1.095915   2.921887
    13  H    2.130176   2.664072   3.886224   1.098139   2.848570
[...]
 ! R10   R(5,7)                  1.0987         -DE/DX =    0.0                 !
 ! R11   R(5,8)                  1.098          -DE/DX =    0.0                 !
 ! R12   R(5,9)                  1.4624         -DE/DX =    0.0                 !
 ! R13   R(9,10)                 1.0222         -DE/DX =    0.0                 !
 ! R14   R(9,11)                 1.022          -DE/DX =    0.0                 !
 ! A1    A(2,1,4)              120.5846         -DE/DX =    0.0                 !
 ! A2    A(2,1,14)             118.9057         -DE/DX =    0.0                 !
 ! A3    A(4,1,14)             120.4829         -DE/DX =    0.0                 !
 ! A4    A(1,2,3)              128.4742         -DE/DX =    0.0                 !
 ! A5    A(1,2,15)             112.6042         -DE/DX =    0.0                 !
 ! A6    A(3,2,15)             118.9167         -DE/DX =    0.0                 !
 ! A7    A(1,4,9)              112.6334         -DE/DX =    0.0                 !
 ! A8    A(1,4,12)             118.2823         -DE/DX =    0.0                 !
 ! A9    A(1,4,13)             116.4449         -DE/DX =    0.0                 !
 ! A10   A(9,4,12)              96.6306         -DE/DX =    0.0                 !
 ! A11   A(9,4,13)              97.0376         -DE/DX =    0.0                 !
 ! A12   A(12,4,13)            111.835          -DE/DX =    0.0                 !
 ! A13   A(6,5,7)              109.1167         -DE/DX =    0.0                 !
 ! A14   A(6,5,8)              108.5872         -DE/DX =    0.0                 !
 ! A15   A(6,5,9)              108.9716         -DE/DX =    0.0                 !
 ! A16   A(7,5,8)              109.0853         -DE/DX =    0.0                 !
 ! A17   A(7,5,9)              112.0533         -DE/DX =    0.0                 !
 ! A18   A(8,5,9)              108.9643         -DE/DX =    0.0                 !
 ! A19   A(4,9,5)              116.1942         -DE/DX =    0.0                 !
 ! A20   A(4,9,10)             104.2217         -DE/DX =    0.0                 !
 ! A21   A(4,9,11)             104.7219         -DE/DX =    0.0                 !
 ! A22   A(5,9,10)             112.4517         -DE/DX =    0.0                 !
 ! A23   A(5,9,11)             112.2962         -DE/DX =    0.0                 !
 ! A24   A(10,9,11)            106.0422         -DE/DX =    0.0                 !
 ! D1    D(4,1,2,3)           -177.798          -DE/DX =    0.0                 !
 ! D2    D(4,1,2,15)             3.0318         -DE/DX =    0.0                 !
 ! D3    D(14,1,2,3)             0.3269         -DE/DX =    0.0                 !
 ! D4    D(14,1,2,15)         -178.8432         -DE/DX =    0.0                 !
 ! D5    D(2,1,4,9)             91.5196         -DE/DX =    0.0                 !
 ! D6    D(2,1,4,12)          -156.9869         -DE/DX =    0.0                 !
 ! D7    D(2,1,4,13)           -19.3128         -DE/DX =    0.0                 !
 ! D8    D(14,1,4,9)           -86.5756         -DE/DX =    0.0                 !
 ! D9    D(14,1,4,12)           24.9179         -DE/DX =    0.0                 !
 ! D10   D(14,1,4,13)          162.592          -DE/DX =    0.0                 !
 ! D11   D(1,4,9,5)            178.439          -DE/DX =    0.0                 !
 ! D12   D(1,4,9,10)           -57.2456         -DE/DX =    0.0                 !
 ! D13   D(1,4,9,11)            53.9376         -DE/DX =    0.0                 !
 ! D14   D(12,4,9,5)            54.0176         -DE/DX =    0.0                 !
 ! D15   D(12,4,9,10)          178.3329         -DE/DX =    0.0                 !
 ! D16   D(12,4,9,11)          -70.4839         -DE/DX =    0.0                 !
 ! D17   D(13,4,9,5)           -59.0386         -DE/DX =    0.0                 !
 ! D18   D(13,4,9,10)           65.2767         -DE/DX =    0.0                 !
 ! D19   D(13,4,9,11)          176.46           -DE/DX =    0.0                 !
 ! D20   D(6,5,9,4)             58.9392         -DE/DX =    0.0                 !
 ! D21   D(6,5,9,10)           -61.0295         -DE/DX =    0.0                 !
 ! D22   D(6,5,9,11)           179.4578         -DE/DX =    0.0                 !
 ! D23   D(7,5,9,4)            179.7969         -DE/DX =    0.0                 !
 ! D24   D(7,5,9,10)            59.8282         -DE/DX =    0.0                 !
 ! D25   D(7,5,9,11)           -59.6844         -DE/DX =    0.0                 !
 ! D26   D(8,5,9,4)            -59.3897         -DE/DX =    0.0                 !
 ! D27   D(8,5,9,10)          -179.3585         -DE/DX =    0.0                 !
 ! D28   D(8,5,9,11)            61.1289         -DE/DX =    0.0                 !
 --------------------------------------------------------------------------------
 GradGradGradGradGradGradGradGradGradGradGradGradGradGradGradGradGradGrad

                          Input orientation:                          
 ---------------------------------------------------------------------
 Center     Atomic      Atomic             Coordinates (Angstroms)
 Number     Number       Type             X           Y           Z
 ---------------------------------------------------------------------
      1          6           0       -0.924705    0.671254   -0.217399
      2          6           0       -1.890647   -0.248753    0.268337
      3          8           0       -3.025184   -0.457143   -0.150813
      4          6           0        0.357544    0.741948    0.367772
      5          6           0        2.907144   -0.289825    0.084316
      6          1           0        2.890882   -0.567632    1.146222
      7          1           0        3.575334   -0.974132   -0.456448
      8          1           0        3.294030    0.733936   -0.003721
      9          7           0        1.541780   -0.328486   -0.438201
     10          1           0        1.124639   -1.259388   -0.371973
     11          1           0        1.496969   -0.068528   -1.425522
     12          1           0        0.929967    1.671628    0.255300
     13          1           0        0.458965    0.318823    1.377688
     14          1           0       -1.179850    1.303374   -1.073246
     15          1           0       -1.522677   -0.832607    1.168010
 ---------------------------------------------------------------------
                    Distance matrix (angstroms):
                    1          2          3          4          5
     1  C    0.000000
     2  C    1.419647   0.000000
     3  O    2.385315   1.227310   0.000000
     4  C    1.411235   2.458809   3.626238   0.000000
     5  C    3.962040   4.801494   5.939343   2.765024   0.000000
     6  H    4.237098   4.871897   6.057586   2.956144   1.097764
     7  H    4.797373   5.561334   6.627785   3.738775   1.098718
     8  H    4.224608   5.283992   6.432167   2.959902   1.097961
     9  N    2.670539   3.505297   4.577806   1.788249   1.462442
    10  H    2.819766   3.243968   4.232439   2.267378   2.079801
    11  H    2.805591   3.791778   4.714422   2.273997   2.077781
    12  H    2.159629   3.412315   4.509968   1.097552   2.790297
    13  H    2.140806   2.659601   3.883006   1.099660   2.834932
    14  H    1.094143   2.171216   2.712114   2.180667   4.536711
    15  H    2.130381   1.133886   2.034157   2.579697   4.592637
                    6          7          8          9         10
     6  H    0.000000
     7  H    1.789488   0.000000
     8  H    1.782969   1.789299   0.000000
     9  N    2.094675   2.133667   2.094730   0.000000
    10  H    2.429620   2.468686   2.969041   1.022238   0.000000
    11  H    2.967485   2.465527   2.427941   1.021953   1.633016
    12  H    3.106962   3.808490   2.556395   2.203568   3.003701
    13  H    2.598768   3.840253   3.180912   2.211097   2.448506
    14  H    4.999755   5.308412   4.635056   3.236281   3.517129
    15  H    4.421559   5.352439   5.198815   3.496419   3.092244
                   11         12         13         14         15
    11  H    0.000000
    12  H    2.484914   0.000000
    13  H    3.014213   1.819801   0.000000
    14  H    3.028460   2.520312   3.108397   0.000000
    15  H    4.053207   3.622111   2.301448   3.114991   0.000000
 Stoichiometry    C4H9NO
 Framework group  C1[X(C4H9NO)]
 Deg. of freedom    39
 Full point group                 C1      NOp   1
 Largest Abelian subgroup         C1      NOp   1
 Largest concise Abelian subgroup C1      NOp   1
                         Standard orientation:                         
 ---------------------------------------------------------------------
 Center     Atomic      Atomic             Coordinates (Angstroms)
 Number     Number       Type             X           Y           Z
 ---------------------------------------------------------------------
      1          6           0       -0.929593    0.659022   -0.270893
      2          6           0       -1.900146   -0.211552    0.290822
      3          8           0       -3.032548   -0.455811   -0.114509
      4          6           0        0.349266    0.781111    0.313228
      5          6           0        2.898573   -0.275595    0.140695
      6          1           0        2.875443   -0.455340    1.223396
      7          1           0        3.568697   -1.007270   -0.331287
      8          1           0        3.287900    0.735350   -0.037998
      9          7           0        1.536286   -0.359959   -0.384467
     10          1           0        1.117010   -1.280383   -0.236148
     11          1           0        1.497865   -0.191105   -1.391642
     12          1           0        0.924095    1.695893    0.119922
     13          1           0        0.443855    0.451757    1.358135
     14          1           0       -1.178431    1.210759   -1.182384
     15          1           0       -1.538657   -0.711375    1.242241
 ---------------------------------------------------------------------
 Rotational constants (GHZ):          12.1185131           1.2986417           1.2541561

 **********************************************************************

            Population analysis using the SCF Density.

 **********************************************************************

 Orbital symmetries:
       Occupied  (A) (A) (A) (A) (A) (A) (A) (A) (A) (A) (A) (A)
                 (A) (A) (A) (A) (A) (A) (A) (A) (A) (A) (A) (A)
       Virtual   (A) (A) (A) (A) (A) (A) (A) (A) (A) (A) (A) (A)
                 (A) (A) (A) (A) (A) (A) (A) (A) (A) (A) (A) (A)
                 (A) (A) (A) (A) (A) (A) (A) (A) (A) (A) (A) (A)
                 (A) (A) (A) (A) (A) (A) (A) (A) (A) (A) (A) (A)
                 (A) (A) (A) (A) (A) (A) (A) (A) (A) (A) (A) (A)
                 (A) (A) (A) (A) (A) (A) (A) (A) (A) (A) (A) (A)
                 (A) (A) (A) (A) (A) (A) (A) (A) (A) (A) (A) (A)
                 (A) (A) (A) (A) (A) (A) (A) (A) (A) (A) (A) (A)
                 (A) (A) (A) (A) (A) (A) (A) (A) (A)
 The electronic state is 1-A.
 Alpha  occ. eigenvalues --  -19.17620 -14.52852 -10.36182 -10.34791 -10.32766
 Alpha  occ. eigenvalues --  -10.24024  -1.05991  -1.05759  -0.85811  -0.80345
 Alpha  occ. eigenvalues --   -0.71849  -0.65968  -0.61492  -0.59116  -0.55761
 Alpha  occ. eigenvalues --   -0.51938  -0.51352  -0.50211  -0.47114  -0.44923
 Alpha  occ. eigenvalues --   -0.43415  -0.42065  -0.28243  -0.25329
 Alpha virt. eigenvalues --    0.09026   0.10806   0.14933   0.15224   0.17066
 Alpha virt. eigenvalues --    0.17790   0.19848   0.20263   0.22480   0.23416
 Alpha virt. eigenvalues --    0.25426   0.26244   0.34155   0.37048   0.44793
 Alpha virt. eigenvalues --    0.46175   0.48012   0.51101   0.52304   0.57809
 Alpha virt. eigenvalues --    0.60205   0.61407   0.64576   0.67008   0.68927
 Alpha virt. eigenvalues --    0.69576   0.70598   0.72764   0.73662   0.73984
 Alpha virt. eigenvalues --    0.74991   0.77287   0.78935   0.79535   0.80361
 Alpha virt. eigenvalues --    0.81967   0.85094   0.88196   0.90527   0.96154
 Alpha virt. eigenvalues --    1.00229   1.05953   1.10216   1.16121   1.17702
 Alpha virt. eigenvalues --    1.22048   1.28358   1.32095   1.36597   1.37396
 Alpha virt. eigenvalues --    1.39762   1.43472   1.46915   1.56157   1.57535
 Alpha virt. eigenvalues --    1.60858   1.64585   1.74849   1.75972   1.80349
 Alpha virt. eigenvalues --    1.82591   1.83008   1.84173   1.85239   1.86674
 Alpha virt. eigenvalues --    1.87699   1.90119   1.92899   1.97670   2.01024
 Alpha virt. eigenvalues --    2.02729   2.05793   2.08888   2.10579   2.12554
 Alpha virt. eigenvalues --    2.14916   2.20877   2.25989   2.30885   2.36028
 Alpha virt. eigenvalues --    2.36356   2.39016   2.43964   2.48634   2.53184
 Alpha virt. eigenvalues --    2.61607   2.67896   2.68633   2.71691   2.72414
 Alpha virt. eigenvalues --    2.77940   2.81162   2.86160   2.88546   2.96303
 Alpha virt. eigenvalues --    3.02319   3.03065   3.04925   3.07440   3.22377
 Alpha virt. eigenvalues --    3.28635   3.33793   3.46574   3.57108   3.76157
          Condensed to atoms (all electrons):
               1          2          3          4          5          6
     1  C    5.693075   0.282004  -0.112283   0.344885   0.004282   0.000527
     2  C    0.282004   4.495920   0.670437   0.014827   0.000107  -0.000039
     3  O   -0.112283   0.670437   7.852090   0.005484  -0.000000   0.000000
     4  C    0.344885   0.014827   0.005484   4.759656  -0.012355  -0.001889
     5  C    0.004282   0.000107  -0.000000  -0.012355   4.517716   0.406808
     6  H    0.000527  -0.000039   0.000000  -0.001889   0.406808   0.573757
     7  H   -0.000347  -0.000005   0.000000   0.001832   0.404768  -0.020312
     8  H    0.000527   0.000009  -0.000000  -0.002661   0.406508  -0.017257
     9  N   -0.088739  -0.003798   0.000066   0.063450   0.290031  -0.025784
    10  H    0.009991   0.003131  -0.000190  -0.000057  -0.015504  -0.004998
    11  H    0.009570  -0.000522  -0.000030  -0.004354  -0.017189   0.006384
    12  H   -0.006752   0.004598  -0.000108   0.387479   0.002066  -0.001055
    13  H   -0.024155  -0.010257   0.000093   0.391169   0.000697   0.005783
    14  H    0.368164  -0.014700   0.005940  -0.041706  -0.000074   0.000012
    15  H   -0.198006   0.412727  -0.051244   0.017964  -0.000012  -0.000010
               7          8          9         10         11         12
     1  C   -0.000347   0.000527  -0.088739   0.009991   0.009570  -0.006752
     2  C   -0.000005   0.000009  -0.003798   0.003131  -0.000522   0.004598
     3  O    0.000000  -0.000000   0.000066  -0.000190  -0.000030  -0.000108
     4  C    0.001832  -0.002661   0.063450  -0.000057  -0.004354   0.387479
     5  C    0.404768   0.406508   0.290031  -0.015504  -0.017189   0.002066
     6  H   -0.020312  -0.017257  -0.025784  -0.004998   0.006384  -0.001055
     7  H    0.579601  -0.020256  -0.012975  -0.006393  -0.005933  -0.000306
     8  H   -0.020256   0.574850  -0.025136   0.006451  -0.005275   0.006457
     9  N   -0.012975  -0.025136   6.422060   0.326487   0.334051  -0.043246
    10  H   -0.006393   0.006451   0.326487   0.517350  -0.012828   0.005145
    11  H   -0.005933  -0.005275   0.334051  -0.012828   0.514434  -0.002109
    12  H   -0.000306   0.006457  -0.043246   0.005145  -0.002109   0.635159
    13  H   -0.000205  -0.001153  -0.031205  -0.003018   0.004547  -0.027831
    14  H    0.000004  -0.000029  -0.000688  -0.000115   0.001934  -0.009765
    15  H   -0.000001   0.000000  -0.001014   0.001244   0.000108  -0.000404
              13         14         15
     1  C   -0.024155   0.368164  -0.198006
     2  C   -0.010257  -0.014700   0.412727
     3  O    0.000093   0.005940  -0.051244
     4  C    0.391169  -0.041706   0.017964
     5  C    0.000697  -0.000074  -0.000012
     6  H    0.005783   0.000012  -0.000010
     7  H   -0.000205   0.000004  -0.000001
     8  H   -0.001153  -0.000029   0.000000
     9  N   -0.031205  -0.000688  -0.001014
    10  H   -0.003018  -0.000115   0.001244
    11  H    0.004547   0.001934   0.000108
    12  H   -0.027831  -0.009765  -0.000404
    13  H    0.625050   0.007246   0.011760
    14  H    0.007246   0.672781   0.011972
    15  H    0.011760   0.011972   0.859596
 Mulliken charges:
               1
     1  C   -0.282744
     2  C    0.145560
     3  O   -0.370256
     4  C    0.076277
     5  C    0.012150
     6  H    0.078073
     7  H    0.080528
     8  H    0.076964
     9  N   -0.203561
    10  H    0.173304
    11  H    0.177209
    12  H    0.050672
    13  H    0.051478
    14  H   -0.000978
    15  H   -0.064680
 Sum of Mulliken charges =  -0.00000
 Mulliken charges with hydrogens summed into heavy atoms:
               1
     1  C   -0.283722
     2  C    0.080881
     3  O   -0.370256
     4  C    0.178428
     5  C    0.247717
     9  N    0.146953
 Electronic spatial extent (au):  <R**2>=            937.5326
 Charge=             -0.0000 electrons
 Dipole moment (field-independent basis, Debye):
    X=             11.5313    Y=             -0.6970    Z=             -0.2752  Tot=             11.5557
 Quadrupole moment (field-independent basis, Debye-Ang):
   XX=            -48.5860   YY=            -36.6597   ZZ=            -35.2906
   XY=             -3.9230   XZ=             -2.7116   YZ=             -0.2826
 Traceless Quadrupole moment (field-independent basis, Debye-Ang):
   XX=             -8.4072   YY=              3.5190   ZZ=              4.8882
   XY=             -3.9230   XZ=             -2.7116   YZ=             -0.2826
 Octapole moment (field-independent basis, Debye-Ang**2):
  XXX=             98.3207  YYY=             -7.0100  ZZZ=             -4.2344  XYY=              8.6061
  XXY=              5.5480  XXZ=              0.9246  XZZ=              5.8355  YZZ=             -1.5616
  YYZ=             -2.2965  XYZ=              1.1967
 Hexadecapole moment (field-independent basis, Debye-Ang**3):
 XXXX=          -1115.1851 YYYY=           -117.0343 ZZZZ=            -79.0385 XXXY=            -41.1162
 XXXZ=            -15.0175 YYYX=              2.3721 YYYZ=              0.8542 ZZZX=             -2.7803
 ZZZY=              0.4999 XXYY=           -182.1361 XXZZ=           -170.9113 YYZZ=            -34.4154
 XXYZ=             -0.4868 YYXZ=             -0.5118 ZZXY=             -1.8880
 N-N= 2.275115892293D+02 E-N=-1.124053645551D+03  KE= 2.844657859185D+02
 Unable to Open any file for archive entry.
 1\1\GINC-NODE-003\FTS\RwB97XD\def2SVP\C4H9N1O1\JP2658\18-Dec-2023\0\\#
  wb97xd def2svp geom=allchk scrf=(iefpcm,solvent=toluene) opt=(readfc,
 ts,noeigen,maxcycles=50,maxstep=10)\\TS-249.out\\0,1\C,-0.9247045956,0
 .6712539964,-0.2173987789\C,-1.890646806,-0.2487532765,0.2683373638\O,
 -3.0251844112,-0.4571428761,-0.1508131083\C,0.3575441464,0.7419482745,
 0.3677716348\C,2.9071435492,-0.2898245011,0.0843156692\H,2.8908815037,
 -0.5676324979,1.1462217501\H,3.5753336601,-0.9741322731,-0.4564482141\
 H,3.2940301837,0.7339362061,-0.0037213231\N,1.5417795524,-0.3284855068
 ,-0.4382014408\H,1.1246390305,-1.2593875856,-0.3719729095\H,1.49696883
 5,-0.0685280005,-1.4255222823\H,0.9299667358,1.6716277652,0.2553002452
 \H,0.4589652856,0.3188230578,1.3776879285\H,-1.1798496173,1.3033738081
 ,-1.0732461428\H,-1.5226770522,-0.8326065904,1.1680096082\\Version=ES6
 4L-G16RevC.01\State=1-A\HF=-287.4473884\RMSD=8.092e-09\RMSF=6.021e-06\
 Dipole=4.5363866,-0.2546749,-0.1599587\Quadrupole=-6.2671265,2.6527162
 ,3.6144103,-2.739101,-2.2141798,-0.2869696\PG=C01 [X(C4H9N1O1)]\\@
 The archive entry for this job was punched.


 THE POLHOLDE ROLLS WITHOUT SLIPPING ON THE HERPOLHOLDE LYING IN
 THE INVARIABLE PLANE.
 H.GOLDSTEIN, "CLASSICAL MECHANICS", PG 161
 Job cpu time:       0 days  0 hours 21 minutes 51.0 seconds.
 Elapsed time:       0 days  0 hours 21 minutes 54.2 seconds.
 File lengths (MBytes):  RWF=     68 Int=      0 D2E=      0 Chk=      7 Scr=      1
 Normal termination of Gaussian 16 at Mon Dec 18 18:33:38 2023.
