Unloading slurm/anatra/current
  ERROR: No such file or directory on
    '/cm/local/modulefiles/slurm/anatra/current'
environment: line 0: unalias: gv: not found
environment: line 0: unalias: sl: not found
 Entering Gaussian System, Link 0=g16
 Initial command:
 /apps/gaussian/g16/C.01/g16/l1.exe "/local/jobs/1150855/Gau-226390.inp" -scrdir="/local/jobs/1150855/"
 Entering Link 1 = /apps/gaussian/g16/C.01/g16/l1.exe PID=    226391.
  
 Copyright (c) 1988-2019, Gaussian, Inc.  All Rights Reserved.
  
 This is part of the Gaussian(R) 16 program.  It is based on
 the Gaussian(R) 09 system (copyright 2009, Gaussian, Inc.),
 the Gaussian(R) 03 system (copyright 2003, Gaussian, Inc.),
 the Gaussian(R) 98 system (copyright 1998, Gaussian, Inc.),
 the Gaussian(R) 94 system (copyright 1995, Gaussian, Inc.),
 the Gaussian 92(TM) system (copyright 1992, Gaussian, Inc.),
 the Gaussian 90(TM) system (copyright 1990, Gaussian, Inc.),
 the Gaussian 88(TM) system (copyright 1988, Gaussian, Inc.),
 the Gaussian 86(TM) system (copyright 1986, Carnegie Mellon
 University), and the Gaussian 82(TM) system (copyright 1983,
 Carnegie Mellon University). Gaussian is a federally registered
 trademark of Gaussian, Inc.
  
 This software contains proprietary and confidential information,
 including trade secrets, belonging to Gaussian, Inc.
  
 This software is provided under written license and may be
 used, copied, transmitted, or stored only in accord with that
 written license.
  
 The following legend is applicable only to US Government
 contracts under FAR:
  
                    RESTRICTED RIGHTS LEGEND
  
 Use, reproduction and disclosure by the US Government is
 subject to restrictions as set forth in subparagraphs (a)
 and (c) of the Commercial Computer Software - Restricted
 Rights clause in FAR 52.227-19.
  
 Gaussian, Inc.
 340 Quinnipiac St., Bldg. 40, Wallingford CT 06492
  
  
 ---------------------------------------------------------------
 Warning -- This program may not be used in any manner that
 competes with the business of Gaussian, Inc. or will provide
 assistance to any competitor of Gaussian, Inc.  The licensee
 of this program is prohibited from giving any competitor of
 Gaussian, Inc. access to this program.  By using this program,
 the user acknowledges that Gaussian, Inc. is engaged in the
 business of creating and licensing software in the field of
 computational chemistry and represents and warrants to the
 licensee that it is not a competitor of Gaussian, Inc. and that
 it will not use this program in any manner prohibited above.
 ---------------------------------------------------------------
  

 Cite this work as:
 Gaussian 16, Revision C.01,
 M. J. Frisch, G. W. Trucks, H. B. Schlegel, G. E. Scuseria, 
 M. A. Robb, J. R. Cheeseman, G. Scalmani, V. Barone, 
 G. A. Petersson, H. Nakatsuji, X. Li, M. Caricato, A. V. Marenich, 
 J. Bloino, B. G. Janesko, R. Gomperts, B. Mennucci, H. P. Hratchian, 
 J. V. Ortiz, A. F. Izmaylov, J. L. Sonnenberg, D. Williams-Young, 
 F. Ding, F. Lipparini, F. Egidi, J. Goings, B. Peng, A. Petrone, 
 T. Henderson, D. Ranasinghe, V. G. Zakrzewski, J. Gao, N. Rega, 
 G. Zheng, W. Liang, M. Hada, M. Ehara, K. Toyota, R. Fukuda, 
 J. Hasegawa, M. Ishida, T. Nakajima, Y. Honda, O. Kitao, H. Nakai, 
 T. Vreven, K. Throssell, J. A. Montgomery, Jr., J. E. Peralta, 
 F. Ogliaro, M. J. Bearpark, J. J. Heyd, E. N. Brothers, K. N. Kudin, 
 V. N. Staroverov, T. A. Keith, R. Kobayashi, J. Normand, 
 K. Raghavachari, A. P. Rendell, J. C. Burant, S. S. Iyengar, 
 J. Tomasi, M. Cossi, J. M. Millam, M. Klene, C. Adamo, R. Cammi, 
 J. W. Ochterski, R. L. Martin, K. Morokuma, O. Farkas, 
 J. B. Foresman, and D. J. Fox, Gaussian, Inc., Wallingford CT, 2019.
 
 ******************************************
 Gaussian 16:  ES64L-G16RevC.01  3-Jul-2019
                19-Dec-2023 
 ******************************************
 %chk=TS-898_opt_sqm_re.chk
 %nprocshared=12
 Will use up to   12 processors via shared memory.
 %mem=48GB
 ----------------------------------------------------------------------
 # wb97xd def2svp scrf=(iefpcm,solvent=toluene) opt=(readfc,ts,noeigen,
 maxcycles=50,maxstep=10)
 ----------------------------------------------------------------------
 1/5=1,6=50,8=10,10=3,11=1,18=20,26=3,38=1/1,3;
 2/9=110,12=2,17=6,18=5,40=1/2;
 3/5=43,7=101,11=2,25=1,30=1,70=2201,71=1,72=13,74=-58/1,2,3;
 4//1;
 5/5=2,38=5,53=13/2;
 6/7=2,8=2,9=2,10=2,28=1/1;
 7//1,2,3,16;
 1/5=1,6=50,8=10,11=1,18=20,26=3/3(2);
 2/9=110/2;
 99//99;
 2/9=110/2;
 3/5=43,7=101,11=2,25=1,30=1,70=2205,71=1,72=13,74=-58/1,2,3;
 4/5=5,16=3,69=1/1;
 5/5=2,38=5,53=13/2;
 7//1,2,3,16;
 1/5=1,6=50,8=10,11=1,18=20,26=3/3(-5);
 2/9=110/2;
 6/7=2,8=2,9=2,10=2,19=2,28=1/1;
 99/9=1/99;
 ------------------
 TS-898_opt_sqm.out
 ------------------
 Symbolic Z-matrix:
 Charge =  0 Multiplicity = 1
 C                    -0.60071  -0.42923  -0.1901 
 C                    -1.84029   0.09128   0.34063 
 O                    -1.95599   0.94606   1.22543 
 C                     0.63972  -0.02178   0.34694 
 C                     0.80604   2.14627  -1.26683 
 H                     1.11789   2.50357  -2.25671 
 H                    -0.26497   1.88651  -1.28891 
 H                     0.96723   2.93077  -0.52267 
 N                     1.53771   0.94093  -0.88238 
 H                     1.63708   0.29689  -1.66121 
 H                     2.47826   1.1331   -0.53697 
 Cl                    1.93456  -1.35731   0.45638 
 C                     0.74679   0.82839   1.58527 
 H                     0.15037   1.74001   1.4731 
 H                     0.32163   0.27924   2.43526 
 H                     1.79907   1.0555    1.81251 
 C                    -0.63457  -1.42708  -1.32988 
 H                     0.37841  -1.709    -1.65701 
 H                    -1.1311   -2.3726   -1.05046 
 H                    -1.16002  -1.04227  -2.21926 
 C                    -3.11427  -0.49702  -0.26421 
 H                    -3.97257  -0.02243   0.22827 
 H                    -3.17627  -0.31827  -1.35046 
 H                    -3.16501  -1.58681  -0.12163 
 
 Add virtual bond connecting atoms N9         and C4         Dist= 3.40D+00.

 GradGradGradGradGradGradGradGradGradGradGradGradGradGradGradGradGradGrad
 Berny optimization.
 Initialization pass.
 Force constant matrix read from checkpoint file:
 "TS-898_opt_sqm_re.chk"
                           ----------------------------
                           !    Initial Parameters    !
                           ! (Angstroms and Degrees)  !
 --------------------------                            --------------------------
 ! Name  Definition              Value          Derivative Info.                !
 --------------------------------------------------------------------------------
 ! R1    R(1,2)                  1.4454         D2E/DX2 =    0.4494             !
 ! R2    R(1,4)                  1.4118         D2E/DX2 =    0.5231             !
 ! R3    R(1,17)                 1.5152         D2E/DX2 =    0.3737             !
 ! R4    R(2,3)                  1.2357         D2E/DX2 =    0.7438             !
 ! R5    R(2,21)                 1.5281         D2E/DX2 =    0.3426             !
 ! R6    R(4,9)                  1.8012         D2E/DX2 =    0.065              !
 ! R7    R(4,12)                 1.8634         D2E/DX2 =    0.1749             !
 ! R8    R(4,13)                 1.5059         D2E/DX2 =    0.3844             !
 ! R9    R(5,6)                  1.0976         D2E/DX2 =    0.265              !
 ! R10   R(5,7)                  1.1023         D2E/DX2 =    0.2627             !
 ! R11   R(5,8)                  1.0933         D2E/DX2 =    0.269              !
 ! R12   R(5,9)                  1.4615         D2E/DX2 =    0.4948             !
 ! R13   R(9,10)                 1.0155         D2E/DX2 =    0.2847             !
 ! R14   R(9,11)                 1.0202         D2E/DX2 =    0.2798             !
 ! R15   R(13,14)                1.0951         D2E/DX2 =    0.2658             !
 ! R16   R(13,15)                1.0976         D2E/DX2 =    0.2676             !
 ! R17   R(13,16)                1.1002         D2E/DX2 =    0.2628             !
 ! R18   R(17,18)                1.1012         D2E/DX2 =    0.2619             !
 ! R19   R(17,19)                1.1039         D2E/DX2 =    0.2611             !
 ! R20   R(17,20)                1.1023         D2E/DX2 =    0.2608             !
 ! R21   R(21,22)                1.0975         D2E/DX2 =    0.2647             !
 ! R22   R(21,23)                1.1026         D2E/DX2 =    0.2612             !
 ! R23   R(21,24)                1.1002         D2E/DX2 =    0.2628             !
 ! A1    A(2,1,4)              120.6579         D2E/DX2 =    0.2066             !
 ! A2    A(2,1,17)             119.6164         D2E/DX2 =    0.1771             !
 ! A3    A(4,1,17)             119.7251         D2E/DX2 =    0.1852             !
 ! A4    A(1,2,3)              126.3226         D2E/DX2 =    0.1564             !
 ! A5    A(1,2,21)             115.5326         D2E/DX2 =    0.1665             !
 ! A6    A(3,2,21)             118.1437         D2E/DX2 =    0.148              !
 ! A7    A(1,4,9)              109.431          D2E/DX2 =    0.0606             !
 ! A8    A(1,4,12)             115.2164         D2E/DX2 =    0.0361             !
 ! A9    A(1,4,13)             122.5627         D2E/DX2 =    0.0652             !
 ! A10   A(9,4,12)              94.4002         D2E/DX2 =    0.0354             !
 ! A11   A(9,4,13)             102.9462         D2E/DX2 =    0.0833             !
 ! A12   A(12,4,13)            107.8743         D2E/DX2 =    0.0355             !
 ! A13   A(6,5,7)              109.5543         D2E/DX2 =    0.0444             !
 ! A14   A(6,5,8)              109.7788         D2E/DX2 =    0.0457             !
 ! A15   A(6,5,9)              111.3129         D2E/DX2 =    0.1117             !
 ! A16   A(7,5,8)              109.026          D2E/DX2 =    0.0423             !
 ! A17   A(7,5,9)              107.2981         D2E/DX2 =    0.1227             !
 ! A18   A(8,5,9)              109.8125         D2E/DX2 =    0.1145             !
 ! A19   A(4,9,5)              111.7613         D2E/DX2 =    0.1171             !
 ! A20   A(4,9,10)             103.4882         D2E/DX2 =    0.0398             !
 ! A21   A(4,9,11)             109.2212         D2E/DX2 =    0.0438             !
 ! A22   A(5,9,10)             111.7337         D2E/DX2 =    0.0423             !
 ! A23   A(5,9,11)             113.2811         D2E/DX2 =    0.0475             !
 ! A24   A(10,9,11)            106.7924         D2E/DX2 =    0.017              !
 ! A25   A(4,13,14)            110.3041         D2E/DX2 =    0.0994             !
 ! A26   A(4,13,15)            109.0746         D2E/DX2 =    0.096              !
 ! A27   A(4,13,16)            110.7554         D2E/DX2 =    0.1035             !
 ! A28   A(14,13,15)           106.5486         D2E/DX2 =    0.0387             !
 ! A29   A(14,13,16)           111.7275         D2E/DX2 =    0.0448             !
 ! A30   A(15,13,16)           108.2879         D2E/DX2 =    0.0407             !
 ! A31   A(1,17,18)            111.8081         D2E/DX2 =    0.1074             !
 ! A32   A(1,17,19)            112.5634         D2E/DX2 =    0.0886             !
 ! A33   A(1,17,20)            112.8086         D2E/DX2 =    0.0888             !
 ! A34   A(18,17,19)           105.6448         D2E/DX2 =    0.0452             !
 ! A35   A(18,17,20)           106.7487         D2E/DX2 =    0.0475             !
 ! A36   A(19,17,20)           106.7868         D2E/DX2 =    0.0445             !
 ! A37   A(2,21,22)            107.934          D2E/DX2 =    0.0952             !
 ! A38   A(2,21,23)            111.9884         D2E/DX2 =    0.0851             !
 ! A39   A(2,21,24)            111.6228         D2E/DX2 =    0.0853             !
 ! A40   A(22,21,23)           109.1476         D2E/DX2 =    0.0425             !
 ! A41   A(22,21,24)           109.5184         D2E/DX2 =    0.0424             !
 ! A42   A(23,21,24)           106.5977         D2E/DX2 =    0.0412             !
 ! D1    D(4,1,2,3)              3.4866         D2E/DX2 =    0.0064             !
 ! D2    D(4,1,2,21)          -176.1252         D2E/DX2 =    0.006              !
 ! D3    D(17,1,2,3)          -176.8049         D2E/DX2 =    0.0066             !
 ! D4    D(17,1,2,21)            3.5833         D2E/DX2 =    0.0051             !
 ! D5    D(2,1,4,9)           -112.9292         D2E/DX2 =    0.0157             !
 ! D6    D(2,1,4,12)           142.2352         D2E/DX2 =    0.0143             !
 ! D7    D(2,1,4,13)             7.5454         D2E/DX2 =    0.0105             !
 ! D8    D(17,1,4,9)            67.3626         D2E/DX2 =    0.0171             !
 ! D9    D(17,1,4,12)          -37.473          D2E/DX2 =    0.0147             !
 ! D10   D(17,1,4,13)         -172.1628         D2E/DX2 =    0.012              !
 ! D11   D(2,1,17,18)          177.8943         D2E/DX2 =    0.0117             !
 ! D12   D(2,1,17,19)          -63.3682         D2E/DX2 =    0.0121             !
 ! D13   D(2,1,17,20)           57.5637         D2E/DX2 =    0.0123             !
 ! D14   D(4,1,17,18)           -2.3945         D2E/DX2 =    0.0104             !
 ! D15   D(4,1,17,19)          116.3431         D2E/DX2 =    0.0121             !
 ! D16   D(4,1,17,20)         -122.725          D2E/DX2 =    0.0119             !
 ! D17   D(1,2,21,22)          179.6908         D2E/DX2 =    0.0127             !
 ! D18   D(1,2,21,23)          -60.1447         D2E/DX2 =    0.0133             !
 ! D19   D(1,2,21,24)           59.2901         D2E/DX2 =    0.0135             !
 ! D20   D(3,2,21,22)            0.0456         D2E/DX2 =    0.0137             !
 ! D21   D(3,2,21,23)          120.21           D2E/DX2 =    0.0125             !
 ! D22   D(3,2,21,24)         -120.3551         D2E/DX2 =    0.0126             !
 ! D23   D(1,4,9,5)             60.9528         D2E/DX2 =    0.0198             !
 ! D24   D(1,4,9,10)           -59.4294         D2E/DX2 =    0.02               !
 ! D25   D(1,4,9,11)          -172.8993         D2E/DX2 =    0.0197             !
 ! D26   D(12,4,9,5)           179.6546         D2E/DX2 =    0.0194             !
 ! D27   D(12,4,9,10)           59.2724         D2E/DX2 =    0.0203             !
 ! D28   D(12,4,9,11)          -54.1975         D2E/DX2 =    0.0192             !
 ! D29   D(13,4,9,5)           -70.8607         D2E/DX2 =    0.02               !
 ! D30   D(13,4,9,10)          168.7571         D2E/DX2 =    0.0206             !
 ! D31   D(13,4,9,11)           55.2872         D2E/DX2 =    0.0192             !
 ! D32   D(1,4,13,14)          -54.0551         D2E/DX2 =    0.0126             !
 ! D33   D(1,4,13,15)           62.6425         D2E/DX2 =    0.0125             !
 ! D34   D(1,4,13,16)         -178.2724         D2E/DX2 =    0.0125             !
 ! D35   D(9,4,13,14)           69.4368         D2E/DX2 =    0.0175             !
 ! D36   D(9,4,13,15)         -173.8657         D2E/DX2 =    0.0174             !
 ! D37   D(9,4,13,16)          -54.7805         D2E/DX2 =    0.0174             !
 ! D38   D(12,4,13,14)         168.461          D2E/DX2 =    0.0166             !
 ! D39   D(12,4,13,15)         -74.8415         D2E/DX2 =    0.0155             !
 ! D40   D(12,4,13,16)          44.2437         D2E/DX2 =    0.0159             !
 ! D41   D(6,5,9,4)           -156.9888         D2E/DX2 =    0.0116             !
 ! D42   D(6,5,9,10)           -41.5536         D2E/DX2 =    0.0132             !
 ! D43   D(6,5,9,11)            79.1172         D2E/DX2 =    0.0128             !
 ! D44   D(7,5,9,4)            -37.1348         D2E/DX2 =    0.0116             !
 ! D45   D(7,5,9,10)            78.3004         D2E/DX2 =    0.0135             !
 ! D46   D(7,5,9,11)          -161.0288         D2E/DX2 =    0.0135             !
 ! D47   D(8,5,9,4)             81.2324         D2E/DX2 =    0.0112             !
 ! D48   D(8,5,9,10)          -163.3324         D2E/DX2 =    0.0144             !
 ! D49   D(8,5,9,11)           -42.6616         D2E/DX2 =    0.0124             !
 --------------------------------------------------------------------------------
 Trust Radius=1.00D-01 FncErr=1.00D-07 GrdErr=1.00D-06 EigMax=2.50D+02 EigMin=1.00D-04
 Number of steps in this run=     50 maximum allowed number of steps=    144.
 Search for a saddle point of order  1.
 GradGradGradGradGradGradGradGradGradGradGradGradGradGradGradGradGradGrad

                          Input orientation:                          
 ---------------------------------------------------------------------
 Center     Atomic      Atomic             Coordinates (Angstroms)
 Number     Number       Type             X           Y           Z
 ---------------------------------------------------------------------
      1          6           0       -0.600710   -0.429230   -0.190100
      2          6           0       -1.840290    0.091280    0.340630
      3          8           0       -1.955990    0.946060    1.225430
      4          6           0        0.639720   -0.021780    0.346940
      5          6           0        0.806040    2.146270   -1.266830
      6          1           0        1.117890    2.503570   -2.256710
      7          1           0       -0.264970    1.886510   -1.288910
      8          1           0        0.967230    2.930770   -0.522670
      9          7           0        1.537710    0.940930   -0.882380
     10          1           0        1.637080    0.296890   -1.661210
     11          1           0        2.478260    1.133100   -0.536970
     12         17           0        1.934560   -1.357310    0.456380
     13          6           0        0.746790    0.828390    1.585270
     14          1           0        0.150370    1.740010    1.473100
     15          1           0        0.321630    0.279240    2.435260
     16          1           0        1.799070    1.055500    1.812510
     17          6           0       -0.634570   -1.427080   -1.329880
     18          1           0        0.378410   -1.709000   -1.657010
     19          1           0       -1.131100   -2.372600   -1.050460
     20          1           0       -1.160020   -1.042270   -2.219260
     21          6           0       -3.114270   -0.497020   -0.264210
     22          1           0       -3.972570   -0.022430    0.228270
     23          1           0       -3.176270   -0.318270   -1.350460
     24          1           0       -3.165010   -1.586810   -0.121630
 ---------------------------------------------------------------------
                    Distance matrix (angstroms):
                    1          2          3          4          5
     1  C    0.000000
     2  C    1.445394   0.000000
     3  O    2.394145   1.235681   0.000000
     4  C    1.411770   2.482594   2.906229   0.000000
     5  C    3.125939   3.716177   3.909050   2.707832   0.000000
     6  H    3.978163   4.616941   4.898967   3.658556   1.097623
     7  H    2.585103   2.891346   3.172680   2.671337   1.102282
     8  H    3.722719   4.085359   3.942099   3.095325   1.093250
     9  N    2.632381   3.691686   4.080298   1.801229   1.461502
    10  H    2.774729   4.017679   4.654489   2.264717   2.065519
    11  H    3.470050   4.528294   4.775313   2.344200   2.086990
    12  Cl   2.776124   4.044911   4.586211   1.863392   4.064244
    13  C    2.559161   2.964025   2.729167   1.505893   3.142418
    14  H    2.834776   2.821972   2.264608   2.147464   2.846431
    15  H    2.871438   3.016074   2.663811   2.133747   4.174437
    16  H    3.460320   4.042412   3.802251   2.156970   3.414414
    17  C    1.515239   2.559254   3.729283   2.531878   3.853331
    18  H    2.179062   3.486288   4.561494   2.632643   3.898489
    19  H    2.190484   2.916982   4.107752   3.258049   4.921332
    20  H    2.192290   2.881100   4.056219   3.296338   3.865139
    21  C    2.515566   1.528055   2.375525   3.832988   4.833328
    22  H    3.421982   2.138264   2.449264   4.613816   5.456528
    23  H    2.827058   2.193709   3.118144   4.186986   4.683988
    24  H    2.814305   2.187362   3.113154   4.140634   5.569256
                    6          7          8          9         10
     6  H    0.000000
     7  H    1.797137   0.000000
     8  H    1.792231   1.787713   0.000000
     9  N    2.122940   2.075824   2.101024   0.000000
    10  H    2.343846   2.506650   2.946574   1.015499   0.000000
    11  H    2.585788   2.942508   2.348411   1.020231   1.634242
    12  Cl   4.788967   4.290261   4.503543   2.689177   2.703527
    13  C    4.207702   3.225552   2.985298   2.593746   3.408041
    14  H    3.928180   2.796903   2.463385   2.848074   3.757233
    15  H    5.253214   4.098397   4.024520   3.594916   4.302533
    16  H    4.372581   3.817020   3.108321   2.709957   3.559278
    17  C    4.402288   3.334391   4.712559   3.244461   2.870931
    18  H    4.318821   3.671121   4.812577   2.994354   2.368093
    19  H    5.503638   4.352822   5.727764   4.257967   3.893843
    20  H    4.214648   3.200690   4.815460   3.605285   3.150958
    21  C    5.557407   3.853535   5.336215   4.908233   5.015698
    22  H    6.202305   4.437588   5.804044   5.703051   5.927923
    23  H    5.217651   3.652466   5.330112   4.901662   4.862440
    24  H    6.295475   4.672978   6.135533   5.392938   5.383187
                   11         12         13         14         15
    11  H    0.000000
    12  Cl   2.735781   0.000000
    13  C    2.755855   2.731753   0.000000
    14  H    3.134931   3.716241   1.095148   0.000000
    15  H    3.770183   3.032459   1.097638   1.757535   0.000000
    16  H    2.446912   2.771119   1.100232   1.817131   1.781355
    17  C    4.107668   3.129860   3.936166   4.301545   4.242891
    18  H    3.706938   2.647963   4.133574   4.663181   4.550055
    19  H    5.057775   3.563657   4.551910   4.992402   4.614426
    20  H    4.560638   4.103014   4.648628   4.805385   5.060260
    21  C    5.831645   5.172043   4.481637   4.322086   4.437919
    22  H    6.598034   6.060373   4.983744   4.653432   4.837558
    23  H    5.894230   5.519498   5.032270   4.824473   5.188834
    24  H    6.278289   5.137351   4.903966   4.960105   4.709192
                   16         17         18         19         20
    16  H    0.000000
    17  C    4.686195   0.000000
    18  H    4.658144   1.101191   0.000000
    19  H    5.341757   1.103914   1.756954   0.000000
    20  H    5.423285   1.102349   1.768452   1.771075   0.000000
    21  C    5.555537   2.854746   3.950646   2.840590   2.817554
    22  H    6.081412   3.942476   5.032875   3.902871   3.865348
    23  H    6.053564   2.773107   3.829341   2.914274   2.311764
    24  H    5.946830   2.808649   3.863696   2.370017   2.952382
                   21         22         23         24
    21  C    0.000000
    22  H    1.097475   0.000000
    23  H    1.102604   1.792764   0.000000
    24  H    1.100248   1.794956   1.766166   0.000000
 Stoichiometry    C7H14ClNO
 Framework group  C1[X(C7H14ClNO)]
 Deg. of freedom    66
 Full point group                 C1      NOp   1
 Largest Abelian subgroup         C1      NOp   1
 Largest concise Abelian subgroup C1      NOp   1
                         Standard orientation:                         
 ---------------------------------------------------------------------
 Center     Atomic      Atomic             Coordinates (Angstroms)
 Number     Number       Type             X           Y           Z
 ---------------------------------------------------------------------
      1          6           0        0.600708   -0.429229    0.190100
      2          6           0        1.840288    0.091280   -0.340630
      3          8           0        1.955988    0.946060   -1.225430
      4          6           0       -0.639722   -0.021779   -0.346940
      5          6           0       -0.806041    2.146271    1.266830
      6          1           0       -1.117891    2.503571    2.256710
      7          1           0        0.264969    1.886511    1.288910
      8          1           0       -0.967231    2.930771    0.522670
      9          7           0       -1.537712    0.940931    0.882380
     10          1           0       -1.637082    0.296892    1.661210
     11          1           0       -2.478262    1.133102    0.536970
     12         17           0       -1.934562   -1.357308   -0.456380
     13          6           0       -0.746792    0.828391   -1.585270
     14          1           0       -0.150371    1.740011   -1.473100
     15          1           0       -0.321632    0.279241   -2.435260
     16          1           0       -1.799072    1.055502   -1.812510
     17          6           0        0.634568   -1.427079    1.329880
     18          1           0       -0.378412   -1.708999    1.657010
     19          1           0        1.131097   -2.372599    1.050460
     20          1           0        1.160018   -1.042269    2.219260
     21          6           0        3.114268   -0.497020    0.264210
     22          1           0        3.972568   -0.022430   -0.228270
     23          1           0        3.176268   -0.318270    1.350460
     24          1           0        3.165008   -1.586810    0.121630
 ---------------------------------------------------------------------
 Rotational constants (GHZ):           1.3745680           0.8218466           0.7378297
 Standard basis: def2SVP (5D, 7F)
 There are   224 symmetry adapted cartesian basis functions of A   symmetry.
 There are   214 symmetry adapted basis functions of A   symmetry.
   214 basis functions,   360 primitive gaussians,   224 cartesian basis functions
    44 alpha electrons       44 beta electrons
       nuclear repulsion energy       670.4255173240 Hartrees.
 NAtoms=   24 NActive=   24 NUniq=   24 SFac= 1.00D+00 NAtFMM=   60 NAOKFM=F Big=F
 Integral buffers will be    131072 words long.
 Raffenetti 2 integral format.
 Two-electron integral symmetry is turned on.
 Nuclear repulsion after empirical dispersion term =      670.4077607679 Hartrees.
 ------------------------------------------------------------------------------
 Polarizable Continuum Model (PCM)
 =================================
 Model                : PCM.
 Atomic radii         : UFF (Universal Force Field).
 Polarization charges : Total charges.
 Charge compensation  : None.
 Solution method      : On-the-fly selection.
 Cavity type          : Scaled VdW (van der Waals Surface) (Alpha=1.100).
 Cavity algorithm     : GePol (No added spheres)
                        Default sphere list used, NSphG=   24.
                        Lebedev-Laikov grids with approx.  5.0 points / Ang**2.
                        Smoothing algorithm: York/Karplus (Gamma=1.0000).
                        Polarization charges: spherical gaussians, with
                                              point-specific exponents (IZeta= 3).
                        Self-potential: point-specific (ISelfS= 7).
                        Self-field    : sphere-specific E.n sum rule (ISelfD= 2).
 1st derivatives      : Analytical E(r).r(x)/FMM algorithm (CHGder, D1EAlg=3).
                        Cavity 1st derivative terms included.
 Solvent              : Toluene, Eps=   2.374100 Eps(inf)=   2.238315
 ------------------------------------------------------------------------------
 One-electron integrals computed using PRISM.
   1 Symmetry operations used in ECPInt.
 ECPInt:  NShTT=    5460 NPrTT=   19488 LenC2=    5395 LenP2D=   15048.
 LDataN:  DoStor=T MaxTD1= 4 Len=   56
 NBasis=   214 RedAO= T EigKep=  9.68D-04  NBF=   214
 NBsUse=   214 1.00D-06 EigRej= -1.00D+00 NBFU=   214
 ExpMin= 1.22D-01 ExpMax= 1.04D+04 ExpMxC= 1.57D+03 IAcc=3 IRadAn=         5 AccDes= 0.00D+00
 Harris functional with IExCor= 4639 and IRadAn=       5 diagonalized for initial guess.
 HarFok:  IExCor= 4639 AccDes= 0.00D+00 IRadAn=         5 IDoV= 1 UseB2=F ITyADJ=14
 ICtDFT=  3500011 ScaDFX=  1.000000  1.000000  1.000000  1.000000
 FoFCou: FMM=F IPFlag=           0 FMFlag=      100000 FMFlg1=           0
         NFxFlg=           0 DoJE=T BraDBF=F KetDBF=T FulRan=T
         wScrn=  0.000000 ICntrl=       500 IOpCl=  0 I1Cent=   200000004 NGrid=           0
         NMat0=    1 NMatS0=      1 NMatT0=    0 NMatD0=    1 NMtDS0=    0 NMtDT0=    0
 Petite list used in FoFCou.
 Requested convergence on RMS density matrix=1.00D-08 within 128 cycles.
 Requested convergence on MAX density matrix=1.00D-06.
 Requested convergence on             energy=1.00D-06.
 No special actions if energy rises.
 Inv3:  Mode=1 IEnd=     8376723.
 Iteration    1 A*A^-1 deviation from unit magnitude is 2.44D-15 for    193.
 Iteration    1 A*A^-1 deviation from orthogonality  is 2.35D-15 for   1390    171.
 Iteration    1 A^-1*A deviation from unit magnitude is 2.66D-15 for    193.
 Iteration    1 A^-1*A deviation from orthogonality  is 1.90D-15 for   1036    848.
 Error on total polarization charges =  0.00539
 SCF Done:  E(RwB97XD) =  -864.737593153     A.U. after   14 cycles
            NFock= 14  Conv=0.94D-08     -V/T= 2.0064

 **********************************************************************

            Population analysis using the SCF Density.

 **********************************************************************

 Orbital symmetries:
       Occupied  (A) (A) (A) (A) (A) (A) (A) (A) (A) (A) (A) (A)
                 (A) (A) (A) (A) (A) (A) (A) (A) (A) (A) (A) (A)
                 (A) (A) (A) (A) (A) (A) (A) (A) (A) (A) (A) (A)
                 (A) (A) (A) (A) (A) (A) (A) (A)
       Virtual   (A) (A) (A) (A) (A) (A) (A) (A) (A) (A) (A) (A)
                 (A) (A) (A) (A) (A) (A) (A) (A) (A) (A) (A) (A)
                 (A) (A) (A) (A) (A) (A) (A) (A) (A) (A) (A) (A)
                 (A) (A) (A) (A) (A) (A) (A) (A) (A) (A) (A) (A)
                 (A) (A) (A) (A) (A) (A) (A) (A) (A) (A) (A) (A)
                 (A) (A) (A) (A) (A) (A) (A) (A) (A) (A) (A) (A)
                 (A) (A) (A) (A) (A) (A) (A) (A) (A) (A) (A) (A)
                 (A) (A) (A) (A) (A) (A) (A) (A) (A) (A) (A) (A)
                 (A) (A) (A) (A) (A) (A) (A) (A) (A) (A) (A) (A)
                 (A) (A) (A) (A) (A) (A) (A) (A) (A) (A) (A) (A)
                 (A) (A) (A) (A) (A) (A) (A) (A) (A) (A) (A) (A)
                 (A) (A) (A) (A) (A) (A) (A) (A) (A) (A) (A) (A)
                 (A) (A) (A) (A) (A) (A) (A) (A) (A) (A) (A) (A)
                 (A) (A) (A) (A) (A) (A) (A) (A) (A) (A) (A) (A)
                 (A) (A)
 The electronic state is 1-A.
 Alpha  occ. eigenvalues -- -101.65888 -19.18426 -14.53232 -10.40590 -10.35214
 Alpha  occ. eigenvalues --  -10.34270 -10.29618 -10.28472 -10.27322 -10.25551
 Alpha  occ. eigenvalues --   -9.56659  -7.31975  -7.31116  -7.31081  -1.07301
 Alpha  occ. eigenvalues --   -1.06428  -0.94667  -0.86155  -0.83067  -0.80280
 Alpha  occ. eigenvalues --   -0.78786  -0.73346  -0.67014  -0.65392  -0.60097
 Alpha  occ. eigenvalues --   -0.58282  -0.55990  -0.53730  -0.52040  -0.50905
 Alpha  occ. eigenvalues --   -0.49672  -0.49502  -0.48006  -0.46827  -0.46384
 Alpha  occ. eigenvalues --   -0.45016  -0.44036  -0.43995  -0.42735  -0.40603
 Alpha  occ. eigenvalues --   -0.38339  -0.37823  -0.28885  -0.25256
 Alpha virt. eigenvalues --    0.08313   0.08742   0.11139   0.14274   0.15236
 Alpha virt. eigenvalues --    0.16478   0.17209   0.19295   0.20015   0.21015
 Alpha virt. eigenvalues --    0.21202   0.22611   0.22913   0.24495   0.25030
 Alpha virt. eigenvalues --    0.25245   0.27085   0.28801   0.31566   0.31894
 Alpha virt. eigenvalues --    0.35596   0.38208   0.41096   0.45919   0.46493
 Alpha virt. eigenvalues --    0.48850   0.50396   0.50974   0.53236   0.53974
 Alpha virt. eigenvalues --    0.56523   0.57897   0.59108   0.60295   0.61838
 Alpha virt. eigenvalues --    0.63827   0.66862   0.68684   0.69539   0.71175
 Alpha virt. eigenvalues --    0.71924   0.72921   0.73359   0.73615   0.74051
 Alpha virt. eigenvalues --    0.74787   0.74986   0.75502   0.75977   0.76723
 Alpha virt. eigenvalues --    0.77418   0.78222   0.78582   0.79330   0.80208
 Alpha virt. eigenvalues --    0.80749   0.81698   0.83465   0.84620   0.85145
 Alpha virt. eigenvalues --    0.85603   0.86828   0.89472   0.90846   0.93756
 Alpha virt. eigenvalues --    0.94093   0.95245   0.96644   1.01469   1.03602
 Alpha virt. eigenvalues --    1.04597   1.08573   1.11125   1.13681   1.16871
 Alpha virt. eigenvalues --    1.19512   1.20843   1.25298   1.26425   1.28181
 Alpha virt. eigenvalues --    1.32487   1.35348   1.39052   1.40548   1.42339
 Alpha virt. eigenvalues --    1.43370   1.46086   1.46723   1.54471   1.56456
 Alpha virt. eigenvalues --    1.59360   1.61183   1.62869   1.63224   1.66444
 Alpha virt. eigenvalues --    1.67429   1.69243   1.72503   1.73059   1.76774
 Alpha virt. eigenvalues --    1.78658   1.82130   1.83073   1.84528   1.85324
 Alpha virt. eigenvalues --    1.87043   1.87664   1.89319   1.89806   1.91123
 Alpha virt. eigenvalues --    1.91678   1.92744   1.94669   1.94927   1.96711
 Alpha virt. eigenvalues --    1.99727   2.01265   2.04048   2.05755   2.06778
 Alpha virt. eigenvalues --    2.08435   2.09795   2.11877   2.14520   2.14957
 Alpha virt. eigenvalues --    2.18624   2.20601   2.22263   2.23001   2.30359
 Alpha virt. eigenvalues --    2.31960   2.35804   2.40095   2.40883   2.45276
 Alpha virt. eigenvalues --    2.46129   2.46846   2.50408   2.52518   2.55523
 Alpha virt. eigenvalues --    2.56660   2.58169   2.58789   2.64886   2.67074
 Alpha virt. eigenvalues --    2.69917   2.72959   2.75389   2.80974   2.81360
 Alpha virt. eigenvalues --    2.82871   2.84694   2.86505   2.92005   2.93921
 Alpha virt. eigenvalues --    3.00991   3.02115   3.02694   3.03200   3.05229
 Alpha virt. eigenvalues --    3.05563   3.07352   3.09246   3.12312   3.20127
 Alpha virt. eigenvalues --    3.24392   3.27576   3.48201   3.53614   3.76285
          Condensed to atoms (all electrons):
               1          2          3          4          5          6
     1  C    5.861025   0.225533  -0.124476   0.392829  -0.011815  -0.000797
     2  C    0.225533   4.717062   0.707566  -0.051028  -0.001038  -0.000040
     3  O   -0.124476   0.707566   7.825250  -0.018567  -0.000170   0.000011
     4  C    0.392829  -0.051028  -0.018567   5.326347  -0.030099   0.003043
     5  C   -0.011815  -0.001038  -0.000170  -0.030099   4.529474   0.403970
     6  H   -0.000797  -0.000040   0.000011   0.003043   0.403970   0.584439
     7  H    0.021146   0.007247   0.001101  -0.003318   0.401173  -0.018834
     8  H   -0.000909  -0.000216  -0.000303  -0.002077   0.406333  -0.019262
     9  N   -0.108364  -0.001532   0.000138   0.095936   0.311613  -0.015725
    10  H   -0.005100   0.000077  -0.000025  -0.004027  -0.015826  -0.009753
    11  H    0.008232  -0.000023  -0.000004  -0.005908  -0.016229  -0.002297
    12  Cl  -0.086529  -0.001481  -0.000002   0.265484   0.003021  -0.000165
    13  C   -0.057000   0.002026  -0.005170   0.379087   0.001097  -0.000018
    14  H   -0.027434   0.003461   0.025873   0.012159   0.004085   0.000023
    15  H   -0.012746   0.000497   0.003350  -0.001758  -0.000155   0.000006
    16  H    0.012136   0.001209   0.001873  -0.031849  -0.001459  -0.000016
    17  C    0.328631  -0.009133   0.004031  -0.071134  -0.000419   0.000116
    18  H   -0.024564   0.008130  -0.000070  -0.017812   0.000010  -0.000013
    19  H   -0.005881  -0.015490   0.000006   0.003316  -0.000057  -0.000002
    20  H   -0.015206  -0.016254   0.000025   0.003429   0.000607   0.000027
    21  C   -0.197534   0.424190  -0.086676   0.008034  -0.000133  -0.000001
    22  H    0.019243  -0.015338   0.013064  -0.000256   0.000000   0.000000
    23  H   -0.005422   0.002628   0.002186  -0.000186   0.000140  -0.000000
    24  H   -0.001988  -0.004237   0.002058   0.000490  -0.000003  -0.000000
               7          8          9         10         11         12
     1  C    0.021146  -0.000909  -0.108364  -0.005100   0.008232  -0.086529
     2  C    0.007247  -0.000216  -0.001532   0.000077  -0.000023  -0.001481
     3  O    0.001101  -0.000303   0.000138  -0.000025  -0.000004  -0.000002
     4  C   -0.003318  -0.002077   0.095936  -0.004027  -0.005908   0.265484
     5  C    0.401173   0.406333   0.311613  -0.015826  -0.016229   0.003021
     6  H   -0.018834  -0.019262  -0.015725  -0.009753  -0.002297  -0.000165
     7  H    0.545998  -0.015247  -0.030288  -0.001183   0.006391   0.000430
     8  H   -0.015247   0.569226  -0.020291   0.005556  -0.008896  -0.000004
     9  N   -0.030288  -0.020291   6.361562   0.340489   0.332933  -0.084613
    10  H   -0.001183   0.005556   0.340489   0.509732  -0.013036   0.008249
    11  H    0.006391  -0.008896   0.332933  -0.013036   0.515064   0.011608
    12  Cl   0.000430  -0.000004  -0.084613   0.008249   0.011608  17.094913
    13  C   -0.003444   0.005511  -0.042576   0.004520  -0.004489  -0.062308
    14  H    0.000337   0.001299  -0.000678  -0.000086  -0.000646   0.002939
    15  H    0.000002  -0.000127   0.003447  -0.000223  -0.000091   0.002612
    16  H    0.000002  -0.000096  -0.002556  -0.000096   0.004482   0.001683
    17  C   -0.002323   0.000038   0.001923   0.003838  -0.000410  -0.010778
    18  H   -0.000140  -0.000014  -0.001430   0.004791  -0.000213   0.015489
    19  H    0.000143   0.000002  -0.000401  -0.000106   0.000019   0.002480
    20  H   -0.000578  -0.000007   0.001739  -0.000372  -0.000062   0.000250
    21  C    0.000324  -0.000024  -0.000101  -0.000028   0.000009  -0.000112
    22  H   -0.000065   0.000001   0.000004   0.000000  -0.000000   0.000002
    23  H   -0.000507   0.000004   0.000034  -0.000003  -0.000001  -0.000002
    24  H    0.000034   0.000000  -0.000010   0.000002   0.000000   0.000013
              13         14         15         16         17         18
     1  C   -0.057000  -0.027434  -0.012746   0.012136   0.328631  -0.024564
     2  C    0.002026   0.003461   0.000497   0.001209  -0.009133   0.008130
     3  O   -0.005170   0.025873   0.003350   0.001873   0.004031  -0.000070
     4  C    0.379087   0.012159  -0.001758  -0.031849  -0.071134  -0.017812
     5  C    0.001097   0.004085  -0.000155  -0.001459  -0.000419   0.000010
     6  H   -0.000018   0.000023   0.000006  -0.000016   0.000116  -0.000013
     7  H   -0.003444   0.000337   0.000002   0.000002  -0.002323  -0.000140
     8  H    0.005511   0.001299  -0.000127  -0.000096   0.000038  -0.000014
     9  N   -0.042576  -0.000678   0.003447  -0.002556   0.001923  -0.001430
    10  H    0.004520  -0.000086  -0.000223  -0.000096   0.003838   0.004791
    11  H   -0.004489  -0.000646  -0.000091   0.004482  -0.000410  -0.000213
    12  Cl  -0.062308   0.002939   0.002612   0.001683  -0.010778   0.015489
    13  C    4.549203   0.362777   0.390886   0.368095   0.007009   0.001139
    14  H    0.362777   0.577055  -0.011440  -0.017574  -0.000167  -0.000087
    15  H    0.390886  -0.011440   0.573942  -0.020740   0.000016  -0.000023
    16  H    0.368095  -0.017574  -0.020740   0.660424  -0.000263  -0.000010
    17  C    0.007009  -0.000167   0.000016  -0.000263   4.549276   0.385743
    18  H    0.001139  -0.000087  -0.000023  -0.000010   0.385743   0.661225
    19  H   -0.000239  -0.000020   0.000057  -0.000004   0.376516  -0.020719
    20  H   -0.000239   0.000028  -0.000013   0.000009   0.380021  -0.024567
    21  C    0.000384   0.001145  -0.000020   0.000063   0.010942  -0.000391
    22  H   -0.000058  -0.000026   0.000010  -0.000003  -0.000526  -0.000018
    23  H    0.000034  -0.000076   0.000003  -0.000002   0.004325   0.000327
    24  H   -0.000040  -0.000021  -0.000021  -0.000004   0.002377   0.000184
              19         20         21         22         23         24
     1  C   -0.005881  -0.015206  -0.197534   0.019243  -0.005422  -0.001988
     2  C   -0.015490  -0.016254   0.424190  -0.015338   0.002628  -0.004237
     3  O    0.000006   0.000025  -0.086676   0.013064   0.002186   0.002058
     4  C    0.003316   0.003429   0.008034  -0.000256  -0.000186   0.000490
     5  C   -0.000057   0.000607  -0.000133   0.000000   0.000140  -0.000003
     6  H   -0.000002   0.000027  -0.000001   0.000000  -0.000000  -0.000000
     7  H    0.000143  -0.000578   0.000324  -0.000065  -0.000507   0.000034
     8  H    0.000002  -0.000007  -0.000024   0.000001   0.000004   0.000000
     9  N   -0.000401   0.001739  -0.000101   0.000004   0.000034  -0.000010
    10  H   -0.000106  -0.000372  -0.000028   0.000000  -0.000003   0.000002
    11  H    0.000019  -0.000062   0.000009  -0.000000  -0.000001   0.000000
    12  Cl   0.002480   0.000250  -0.000112   0.000002  -0.000002   0.000013
    13  C   -0.000239  -0.000239   0.000384  -0.000058   0.000034  -0.000040
    14  H   -0.000020   0.000028   0.001145  -0.000026  -0.000076  -0.000021
    15  H    0.000057  -0.000013  -0.000020   0.000010   0.000003  -0.000021
    16  H   -0.000004   0.000009   0.000063  -0.000003  -0.000002  -0.000004
    17  C    0.376516   0.380021   0.010942  -0.000526   0.004325   0.002377
    18  H   -0.020719  -0.024567  -0.000391  -0.000018   0.000327   0.000184
    19  H    0.649646  -0.028244   0.007482   0.000058  -0.002573   0.001301
    20  H   -0.028244   0.675946   0.005816   0.000099   0.001067  -0.002298
    21  C    0.007482   0.005816   4.780740   0.348345   0.353947   0.362622
    22  H    0.000058   0.000099   0.348345   0.628962  -0.014333  -0.013713
    23  H   -0.002573   0.001067   0.353947  -0.014333   0.640627  -0.016203
    24  H    0.001301  -0.002298   0.362622  -0.013713  -0.016203   0.625945
 Mulliken charges:
               1
     1  C   -0.183009
     2  C    0.016186
     3  O   -0.351068
     4  C   -0.252136
     5  C    0.015880
     6  H    0.075289
     7  H    0.091595
     8  H    0.079506
     9  N   -0.141253
    10  H    0.172610
    11  H    0.173564
    12  Cl  -0.163177
    13  C    0.103811
    14  H    0.067075
    15  H    0.072528
    16  H    0.024697
    17  C    0.040353
    18  H    0.013033
    19  H    0.032713
    20  H    0.018778
    21  C   -0.019024
    22  H    0.034548
    23  H    0.033985
    24  H    0.043514
 Sum of Mulliken charges =  -0.00000
 Mulliken charges with hydrogens summed into heavy atoms:
               1
     1  C   -0.183009
     2  C    0.016186
     3  O   -0.351068
     4  C   -0.252136
     5  C    0.262270
     9  N    0.204922
    12  Cl  -0.163177
    13  C    0.268111
    17  C    0.104877
    21  C    0.093024
 Electronic spatial extent (au):  <R**2>=           1847.4893
 Charge=             -0.0000 electrons
 Dipole moment (field-independent basis, Debye):
    X=             -5.1201    Y=              2.5724    Z=              4.7386  Tot=              7.4355
 Quadrupole moment (field-independent basis, Debye-Ang):
   XX=            -69.7194   YY=            -67.5263   ZZ=            -67.4635
   XY=            -11.1944   XZ=              0.7766   YZ=              4.7829
 Traceless Quadrupole moment (field-independent basis, Debye-Ang):
   XX=             -1.4830   YY=              0.7101   ZZ=              0.7729
   XY=            -11.1944   XZ=              0.7766   YZ=              4.7829
 Octapole moment (field-independent basis, Debye-Ang**2):
  XXX=            -33.2593  YYY=             15.8218  ZZZ=              7.5543  XYY=            -11.9982
  XXY=              4.0669  XXZ=             18.3107  XZZ=            -17.1762  YZZ=              3.8335
  YYZ=              7.5863  XYZ=              4.3789
 Hexadecapole moment (field-independent basis, Debye-Ang**3):
 XXXX=          -1245.6966 YYYY=           -624.8500 ZZZZ=           -469.8618 XXXY=            -29.7445
 XXXZ=             -8.3288 YYYX=            -10.4517 YYYZ=             19.6364 ZZZX=            -12.1283
 ZZZY=             22.1069 XXYY=           -317.2239 XXZZ=           -296.7360 YYZZ=           -188.4414
 XXYZ=             18.2821 YYXZ=             -3.5501 ZZXY=             -9.5898
 N-N= 6.704077607679D+02 E-N=-3.374891686469D+03  KE= 8.592787553576D+02
   1 Symmetry operations used in ECPInt.
 ECPInt:  NShTT=    5460 NPrTT=   19488 LenC2=    5395 LenP2D=   15048.
 LDataN:  DoStor=T MaxTD1= 5 Len=  102
 D1PCM: PCM CHGder 1st derivatives, ID1Alg=3 FixD1E=F DoIter=F DoCFld=F I1PDM=0.
 Calling FoFJK, ICntrl=      2127 FMM=F ISym2X=0 I1Cent= 0 IOpClX= 0 NMat=1 NMatS=1 NMatT=0.
 ***** Axes restored to original set *****
 -------------------------------------------------------------------
 Center     Atomic                   Forces (Hartrees/Bohr)
 Number     Number              X              Y              Z
 -------------------------------------------------------------------
      1        6          -0.001073201    0.000092307    0.001533843
      2        6           0.003008051   -0.002167053   -0.002540942
      3        8          -0.001663245   -0.000073601   -0.000133482
      4        6           0.001050914   -0.001671021   -0.000215681
      5        6          -0.000886039   -0.002129436   -0.001859124
      6        1           0.000204537    0.000504025    0.000234568
      7        1           0.000750757   -0.000012122   -0.000142308
      8        1           0.000453355    0.001189173    0.001100090
      9        7          -0.002221147    0.003851584    0.004922046
     10        1          -0.000138610   -0.003196173   -0.003857234
     11        1           0.001420048    0.000633590    0.000420101
     12       17          -0.000144289   -0.000044902   -0.000028945
     13        6           0.001825216    0.000915695    0.000141787
     14        1           0.000421987    0.000079044    0.000586630
     15        1          -0.000684892   -0.000069924   -0.000530130
     16        1          -0.000611340    0.000358730   -0.000838407
     17        6           0.001530706   -0.000441796    0.000047562
     18        1          -0.000750015    0.000400471    0.000880767
     19        1          -0.000129018    0.000100043   -0.000471658
     20        1          -0.000827498    0.000139700   -0.000550683
     21        6          -0.001521132    0.002167356   -0.000171043
     22        1          -0.000449360   -0.000674040   -0.000288608
     23        1           0.000292342    0.000444847    0.001107081
     24        1           0.000141872   -0.000396499    0.000653774
 -------------------------------------------------------------------
 Cartesian Forces:  Max     0.004922046 RMS     0.001377305

 GradGradGradGradGradGradGradGradGradGradGradGradGradGradGradGradGradGrad
 Berny optimization.
 FormGI is forming the generalized inverse of G from B-inverse, IUseBI=4.
 Internal  Forces:  Max     0.004972938 RMS     0.000813611
 Search for a saddle point.
 Step number   1 out of a maximum of   50
 All quantities printed in internal units (Hartrees-Bohrs-Radians)
 Swapping is turned off.
 Second derivative matrix not updated -- first step.
 ITU=  0
     Eigenvalues ---   -0.00339   0.00070   0.00083   0.00111   0.00154
     Eigenvalues ---    0.00218   0.00496   0.00867   0.01358   0.03080
     Eigenvalues ---    0.03418   0.03446   0.03551   0.03574   0.03733
     Eigenvalues ---    0.03763   0.04163   0.04373   0.04486   0.04599
     Eigenvalues ---    0.04743   0.06908   0.08694   0.09513   0.10113
     Eigenvalues ---    0.10195   0.10370   0.10927   0.11420   0.11813
     Eigenvalues ---    0.12091   0.12369   0.12400   0.12997   0.13340
     Eigenvalues ---    0.13668   0.14951   0.15148   0.16095   0.16207
     Eigenvalues ---    0.17936   0.18879   0.21035   0.24118   0.25464
     Eigenvalues ---    0.25558   0.25600   0.25825   0.25975   0.26070
     Eigenvalues ---    0.26237   0.26386   0.26647   0.27288   0.27711
     Eigenvalues ---    0.28024   0.28237   0.29443   0.31533   0.37987
     Eigenvalues ---    0.42158   0.45259   0.48108   0.53408   0.62391
     Eigenvalues ---    0.78607
 Eigenvectors required to have negative eigenvalues:
                          R6        D6        D9        D5        D8
   1                   -0.61107  -0.36915  -0.29069  -0.28499  -0.20652
                          R7        D38       D34       D39       D33
   1                    0.18002   0.16711  -0.15074   0.14194  -0.13970
 RFO step:  Lambda0=4.364233581D-09 Lambda=-5.55956388D-04.
 Linear search not attempted -- option 19 set.
 Iteration  1 RMS(Cart)=  0.04285252 RMS(Int)=  0.00134450
 Iteration  2 RMS(Cart)=  0.00152904 RMS(Int)=  0.00001825
 Iteration  3 RMS(Cart)=  0.00000250 RMS(Int)=  0.00001815
 Iteration  4 RMS(Cart)=  0.00000000 RMS(Int)=  0.00001815
 Variable       Old X    -DE/DX   Delta X   Delta X   Delta X     New X
                                 (Linear)    (Quad)   (Total)
    R1        2.73140  -0.00059   0.00000  -0.00576  -0.00576   2.72564
    R2        2.66786   0.00136   0.00000   0.00209   0.00209   2.66995
    R3        2.86339  -0.00006   0.00000   0.00133   0.00133   2.86472
    R4        2.33510   0.00001   0.00000   0.00161   0.00161   2.33671
    R5        2.88761   0.00017   0.00000   0.00269   0.00269   2.89030
    R6        3.40383  -0.00032   0.00000   0.00425   0.00425   3.40808
    R7        3.52130  -0.00007   0.00000  -0.00913  -0.00913   3.51217
    R8        2.84573   0.00027   0.00000   0.00230   0.00230   2.84803
    R9        2.07421   0.00001   0.00000  -0.00027  -0.00027   2.07394
   R10        2.08301  -0.00073   0.00000  -0.00439  -0.00439   2.07862
   R11        2.06594   0.00167   0.00000   0.00825   0.00825   2.07420
   R12        2.76184  -0.00047   0.00000  -0.00263  -0.00263   2.75921
   R13        1.91901   0.00497   0.00000   0.01840   0.01840   1.93741
   R14        1.92796   0.00157   0.00000   0.00471   0.00471   1.93267
   R15        2.06953  -0.00022   0.00000  -0.00143  -0.00143   2.06810
   R16        2.07424  -0.00011   0.00000   0.00036   0.00036   2.07460
   R17        2.07914  -0.00069   0.00000  -0.00308  -0.00308   2.07605
   R18        2.08095  -0.00105   0.00000  -0.00466  -0.00466   2.07628
   R19        2.08609  -0.00015   0.00000  -0.00029  -0.00029   2.08580
   R20        2.08314   0.00089   0.00000   0.00352   0.00352   2.08666
   R21        2.07393  -0.00007   0.00000  -0.00091  -0.00091   2.07301
   R22        2.08362  -0.00103   0.00000  -0.00450  -0.00450   2.07912
   R23        2.07917   0.00047   0.00000   0.00206   0.00206   2.08122
    A1        2.10588   0.00179   0.00000   0.00502   0.00495   2.11082
    A2        2.08770  -0.00067   0.00000  -0.00326  -0.00333   2.08437
    A3        2.08960  -0.00112   0.00000  -0.00166  -0.00173   2.08786
    A4        2.20475   0.00086   0.00000   0.00377   0.00377   2.20851
    A5        2.01642   0.00218   0.00000   0.01112   0.01112   2.02755
    A6        2.06200  -0.00304   0.00000  -0.01488  -0.01488   2.04712
    A7        1.90993   0.00042   0.00000  -0.00040  -0.00042   1.90951
    A8        2.01091  -0.00056   0.00000   0.00316   0.00314   2.01405
    A9        2.13912   0.00125   0.00000   0.00251   0.00245   2.14157
   A10        1.64759   0.00051   0.00000   0.00362   0.00363   1.65123
   A11        1.79675  -0.00181   0.00000  -0.01377  -0.01377   1.78298
   A12        1.88276  -0.00014   0.00000   0.00271   0.00270   1.88547
   A13        1.91208   0.00003   0.00000   0.00766   0.00764   1.91973
   A14        1.91600  -0.00027   0.00000  -0.00772  -0.00773   1.90827
   A15        1.94278   0.00041   0.00000   0.00371   0.00369   1.94647
   A16        1.90286   0.00024   0.00000   0.00136   0.00136   1.90422
   A17        1.87270  -0.00016   0.00000   0.00010   0.00009   1.87279
   A18        1.91659  -0.00026   0.00000  -0.00486  -0.00486   1.91173
   A19        1.95060   0.00103   0.00000   0.00783   0.00782   1.95842
   A20        1.80621  -0.00037   0.00000  -0.00419  -0.00417   1.80204
   A21        1.90627  -0.00022   0.00000   0.00215   0.00214   1.90841
   A22        1.95012  -0.00043   0.00000  -0.00631  -0.00630   1.94382
   A23        1.97713  -0.00038   0.00000  -0.00088  -0.00091   1.97621
   A24        1.86388   0.00036   0.00000   0.00093   0.00093   1.86480
   A25        1.92517   0.00103   0.00000   0.00621   0.00621   1.93138
   A26        1.90371  -0.00074   0.00000  -0.00595  -0.00594   1.89777
   A27        1.93305  -0.00047   0.00000  -0.00230  -0.00230   1.93075
   A28        1.85962  -0.00023   0.00000  -0.00667  -0.00666   1.85296
   A29        1.95001  -0.00047   0.00000  -0.00614  -0.00614   1.94388
   A30        1.88998   0.00087   0.00000   0.01482   0.01483   1.90481
   A31        1.95142  -0.00080   0.00000  -0.00321  -0.00321   1.94821
   A32        1.96460   0.00058   0.00000   0.00365   0.00365   1.96825
   A33        1.96888   0.00004   0.00000  -0.00118  -0.00118   1.96771
   A34        1.84385   0.00010   0.00000   0.00016   0.00016   1.84401
   A35        1.86312   0.00055   0.00000   0.00816   0.00816   1.87127
   A36        1.86378  -0.00045   0.00000  -0.00741  -0.00741   1.85637
   A37        1.88380   0.00133   0.00000   0.00777   0.00778   1.89159
   A38        1.95457  -0.00075   0.00000  -0.00751  -0.00750   1.94706
   A39        1.94818  -0.00070   0.00000  -0.00360  -0.00360   1.94458
   A40        1.90498  -0.00022   0.00000  -0.00065  -0.00064   1.90434
   A41        1.91146  -0.00045   0.00000  -0.00684  -0.00683   1.90462
   A42        1.86048   0.00076   0.00000   0.01057   0.01057   1.87105
    D1        0.06085  -0.00027   0.00000  -0.04335  -0.04335   0.01750
    D2       -3.07396  -0.00034   0.00000  -0.04608  -0.04610  -3.12007
    D3       -3.08583   0.00000   0.00000  -0.02079  -0.02077  -3.10660
    D4        0.06254  -0.00007   0.00000  -0.02353  -0.02352   0.03902
    D5       -1.97099   0.00070   0.00000   0.02005   0.02008  -1.95090
    D6        2.48247   0.00011   0.00000   0.01436   0.01438   2.49686
    D7        0.13169  -0.00050   0.00000   0.00205   0.00206   0.13375
    D8        1.17570   0.00042   0.00000  -0.00253  -0.00254   1.17316
    D9       -0.65403  -0.00016   0.00000  -0.00822  -0.00824  -0.66227
   D10       -3.00481  -0.00077   0.00000  -0.02053  -0.02056  -3.02537
   D11        3.10484  -0.00004   0.00000   0.02286   0.02289   3.12773
   D12       -1.10598  -0.00007   0.00000   0.02333   0.02336  -1.08263
   D13        1.00468  -0.00020   0.00000   0.01544   0.01547   1.02014
   D14       -0.04179   0.00024   0.00000   0.04522   0.04519   0.00340
   D15        2.03057   0.00021   0.00000   0.04569   0.04566   2.07623
   D16       -2.14196   0.00007   0.00000   0.03780   0.03777  -2.10419
   D17        3.13620  -0.00013   0.00000  -0.03344  -0.03344   3.10276
   D18       -1.04972   0.00001   0.00000  -0.03373  -0.03374  -1.08346
   D19        1.03481  -0.00001   0.00000  -0.02784  -0.02784   1.00697
   D20        0.00080  -0.00022   0.00000  -0.03600  -0.03599  -0.03520
   D21        2.09806  -0.00007   0.00000  -0.03629  -0.03629   2.06177
   D22       -2.10059  -0.00009   0.00000  -0.03041  -0.03040  -2.13099
   D23        1.06383   0.00012   0.00000  -0.03047  -0.03046   1.03337
   D24       -1.03724   0.00033   0.00000  -0.02442  -0.02441  -1.06164
   D25       -3.01766   0.00020   0.00000  -0.02434  -0.02431  -3.04198
   D26        3.13556  -0.00015   0.00000  -0.02551  -0.02551   3.11005
   D27        1.03450   0.00006   0.00000  -0.01946  -0.01946   1.01504
   D28       -0.94593  -0.00007   0.00000  -0.01938  -0.01937  -0.96529
   D29       -1.23675  -0.00045   0.00000  -0.02396  -0.02398  -1.26074
   D30        2.94537  -0.00024   0.00000  -0.01791  -0.01793   2.92744
   D31        0.96494  -0.00037   0.00000  -0.01783  -0.01784   0.94711
   D32       -0.94344   0.00015   0.00000   0.00340   0.00340  -0.94004
   D33        1.09332   0.00003   0.00000  -0.00462  -0.00462   1.08870
   D34       -3.11144   0.00035   0.00000   0.00848   0.00848  -3.10296
   D35        1.21190  -0.00006   0.00000  -0.00804  -0.00803   1.20387
   D36       -3.03453  -0.00018   0.00000  -0.01606  -0.01605  -3.05058
   D37       -0.95610   0.00014   0.00000  -0.00296  -0.00295  -0.95905
   D38        2.94020  -0.00020   0.00000  -0.00833  -0.00833   2.93186
   D39       -1.30623  -0.00032   0.00000  -0.01635  -0.01635  -1.32258
   D40        0.77220   0.00000   0.00000  -0.00324  -0.00325   0.76895
   D41       -2.73997  -0.00016   0.00000  -0.08674  -0.08674  -2.82671
   D42       -0.72525  -0.00025   0.00000  -0.09101  -0.09102  -0.81627
   D43        1.38086  -0.00037   0.00000  -0.09508  -0.09509   1.28577
   D44       -0.64812   0.00002   0.00000  -0.07516  -0.07515  -0.72327
   D45        1.36660  -0.00007   0.00000  -0.07943  -0.07943   1.28717
   D46       -2.81048  -0.00019   0.00000  -0.08350  -0.08349  -2.89398
   D47        1.41777   0.00008   0.00000  -0.07614  -0.07613   1.34164
   D48       -2.85069  -0.00001   0.00000  -0.08041  -0.08042  -2.93111
   D49       -0.74459  -0.00013   0.00000  -0.08448  -0.08448  -0.82907
         Item               Value     Threshold  Converged?
 Maximum Force            0.004973     0.000450     NO 
 RMS     Force            0.000814     0.000300     NO 
 Maximum Displacement     0.217242     0.001800     NO 
 RMS     Displacement     0.042867     0.001200     NO 
 Predicted change in Energy=-3.031668D-04
 GradGradGradGradGradGradGradGradGradGradGradGradGradGradGradGradGradGrad

                          Input orientation:                          
 ---------------------------------------------------------------------
 Center     Atomic      Atomic             Coordinates (Angstroms)
 Number     Number       Type             X           Y           Z
 ---------------------------------------------------------------------
      1          6           0       -0.593363   -0.446413   -0.169248
      2          6           0       -1.831462    0.075998    0.354732
      3          8           0       -1.954325    0.910353    1.259040
      4          6           0        0.650534   -0.032788    0.357871
      5          6           0        0.775925    2.126618   -1.284203
      6          1           0        1.145973    2.532624   -2.234301
      7          1           0       -0.276310    1.823765   -1.389047
      8          1           0        0.852270    2.896547   -0.505650
      9          7           0        1.529654    0.944215   -0.877098
     10          1           0        1.645596    0.288377   -1.656547
     11          1           0        2.467146    1.162668   -0.531622
     12         17           0        1.953227   -1.354642    0.457531
     13          6           0        0.767183    0.830727    1.587553
     14          1           0        0.170563    1.741595    1.477755
     15          1           0        0.341584    0.287627    2.441451
     16          1           0        1.819835    1.064459    1.797825
     17          6           0       -0.629075   -1.436184   -1.316928
     18          1           0        0.382080   -1.738417   -1.622561
     19          1           0       -1.154099   -2.371897   -1.057946
     20          1           0       -1.134475   -1.033498   -2.212307
     21          6           0       -3.113995   -0.468137   -0.276408
     22          1           0       -3.971237   -0.019202    0.240296
     23          1           0       -3.171793   -0.225385   -1.347957
     24          1           0       -3.172447   -1.564291   -0.187130
 ---------------------------------------------------------------------
                    Distance matrix (angstroms):
                    1          2          3          4          5
     1  C    0.000000
     2  C    1.442345   0.000000
     3  O    2.394377   1.236534   0.000000
     4  C    1.412877   2.484381   2.913231   0.000000
     5  C    3.120668   3.699949   3.924494   2.715725   0.000000
     6  H    4.020497   4.647927   4.944396   3.680510   1.097480
     7  H    2.596563   2.917868   3.265336   2.712480   1.099960
     8  H    3.657650   3.987252   3.864722   3.060616   1.097617
     9  N    2.634786   3.683518   4.086850   1.803478   1.460109
    10  H    2.786559   4.022472   4.674071   2.269620   2.067390
    11  H    3.476661   4.521560   4.776980   2.349551   2.087056
    12  Cl   2.775401   4.047365   4.587110   1.858558   4.066798
    13  C    2.562912   2.973620   2.742419   1.507110   3.150618
    14  H    2.843164   2.836106   2.292149   2.152428   2.853615
    15  H    2.868569   3.020150   2.656516   2.130591   4.177444
    16  H    3.460583   4.048647   3.815537   2.155152   3.422985
    17  C    1.515945   2.554775   3.728020   2.532168   3.829968
    18  H    2.175519   3.478730   4.558333   2.627424   3.899757
    19  H    2.193558   2.906315   4.096578   3.276076   4.900289
    20  H    2.193527   2.882093   4.062138   3.285345   3.807537
    21  C    2.523002   1.529481   2.366996   3.842333   4.783292
    22  H    3.429326   2.144947   2.443327   4.623287   5.428093
    23  H    2.843679   2.187800   3.093310   4.190123   4.595700
    24  H    2.810986   2.186870   3.114337   4.154240   5.515072
                    6          7          8          9         10
     6  H    0.000000
     7  H    1.799952   0.000000
     8  H    1.790792   1.790236   0.000000
     9  N    2.124207   2.072970   2.099625   0.000000
    10  H    2.370668   2.474408   2.959135   1.025235   0.000000
    11  H    2.553701   2.949369   2.369564   1.022725   1.644623
    12  Cl   4.796712   4.299180   4.495823   2.691726   2.695082
    13  C    4.200774   3.306833   2.942168   2.582392   3.404399
    14  H    3.918739   2.902585   2.394271   2.833422   3.756516
    15  H    5.248782   4.173035   3.968963   3.585440   4.300469
    16  H    4.343690   3.889283   3.098182   2.693303   3.544763
    17  C    4.443400   3.279773   4.650281   3.243433   2.874644
    18  H    4.381729   3.630034   4.790769   3.011504   2.388624
    19  H    5.543327   4.299270   5.664543   4.269875   3.908155
    20  H    4.232984   3.094859   4.722826   3.576550   3.128101
    21  C    5.566438   3.813559   5.206237   4.890709   5.013063
    22  H    6.230673   4.438893   5.685442   5.695309   5.936450
    23  H    5.199550   3.547467   5.162269   4.867573   4.854525
    24  H    6.294789   4.616398   6.016550   5.373863   5.367038
                   11         12         13         14         15
    11  H    0.000000
    12  Cl   2.753069   0.000000
    13  C    2.736963   2.731206   0.000000
    14  H    3.105970   3.715566   1.094391   0.000000
    15  H    3.758041   3.038153   1.097831   1.752707   0.000000
    16  H    2.419707   2.768795   1.098600   1.811369   1.789678
    17  C    4.117927   3.134268   3.940105   4.306733   4.247247
    18  H    3.735498   2.634876   4.129605   4.665532   4.541221
    19  H    5.087591   3.603741   4.576766   5.010521   4.642834
    20  H    4.540872   4.094517   4.640104   4.798002   5.057823
    21  C    5.820119   5.196277   4.497214   4.329933   4.460825
    22  H    6.591317   6.076995   4.999010   4.667571   4.851768
    23  H    5.864360   5.549849   5.024750   4.798437   5.192938
    24  H    6.273754   5.170306   4.940272   4.987628   4.763134
                   16         17         18         19         20
    16  H    0.000000
    17  C    4.685302   0.000000
    18  H    4.649978   1.098722   0.000000
    19  H    5.367332   1.103758   1.754974   0.000000
    20  H    5.404676   1.104214   1.773316   1.767554   0.000000
    21  C    5.567223   2.862625   3.955791   2.841883   2.825922
    22  H    6.093992   3.950042   5.037590   3.893183   3.884749
    23  H    6.039536   2.816453   3.872297   2.960187   2.356015
    24  H    5.981074   2.785964   3.837374   2.341853   2.921713
                   21         22         23         24
    21  C    0.000000
    22  H    1.096991   0.000000
    23  H    1.100221   1.790020   0.000000
    24  H    1.101336   1.791106   1.772057   0.000000
 Stoichiometry    C7H14ClNO
 Framework group  C1[X(C7H14ClNO)]
 Deg. of freedom    66
 Full point group                 C1      NOp   1
 Largest Abelian subgroup         C1      NOp   1
 Largest concise Abelian subgroup C1      NOp   1
                         Standard orientation:                         
 ---------------------------------------------------------------------
 Center     Atomic      Atomic             Coordinates (Angstroms)
 Number     Number       Type             X           Y           Z
 ---------------------------------------------------------------------
      1          6           0        0.594551   -0.445106    0.176827
      2          6           0        1.835437    0.062631   -0.354929
      3          8           0        1.962644    0.887736   -1.267090
      4          6           0       -0.647347   -0.026369   -0.350972
      5          6           0       -0.751392    2.148786    1.271692
      6          1           0       -1.115790    2.566339    2.218965
      7          1           0        0.298662    1.838509    1.376697
      8          1           0       -0.823580    2.912200    0.486357
      9          7           0       -1.515534    0.968788    0.877216
     10          1           0       -1.634717    0.320998    1.662882
     11          1           0       -2.452130    1.191570    0.532075
     12         17           0       -1.960764   -1.338636   -0.435397
     13          6           0       -0.760234    0.826850   -1.588168
     14          1           0       -0.156109    1.733888   -1.488130
     15          1           0       -0.341134    0.272642   -2.438134
     16          1           0       -1.811522    1.067056   -1.797968
     17          6           0        0.625292   -1.424671    1.333372
     18          1           0       -0.387458   -1.716039    1.644229
     19          1           0        1.142197   -2.366856    1.081622
     20          1           0        1.136147   -1.017919    2.223804
     21          6           0        3.115194   -0.485969    0.277978
     22          1           0        3.974670   -0.048598   -0.244896
     23          1           0        3.177635   -0.233969    1.347129
     24          1           0        3.164695   -1.583320    0.198533
 ---------------------------------------------------------------------
 Rotational constants (GHZ):           1.3784217           0.8177427           0.7388856
 Standard basis: def2SVP (5D, 7F)
 There are   224 symmetry adapted cartesian basis functions of A   symmetry.
 There are   214 symmetry adapted basis functions of A   symmetry.
   214 basis functions,   360 primitive gaussians,   224 cartesian basis functions
    44 alpha electrons       44 beta electrons
       nuclear repulsion energy       670.2680252899 Hartrees.
 NAtoms=   24 NActive=   24 NUniq=   24 SFac= 1.00D+00 NAtFMM=   60 NAOKFM=F Big=F
 Integral buffers will be    131072 words long.
 Raffenetti 2 integral format.
 Two-electron integral symmetry is turned on.
 Nuclear repulsion after empirical dispersion term =      670.2502238065 Hartrees.
 ------------------------------------------------------------------------------
 Polarizable Continuum Model (PCM)
 =================================
 Model                : PCM.
 Atomic radii         : UFF (Universal Force Field).
 Polarization charges : Total charges.
 Charge compensation  : None.
 Solution method      : On-the-fly selection.
 Cavity type          : Scaled VdW (van der Waals Surface) (Alpha=1.100).
 Cavity algorithm     : GePol (No added spheres)
                        Default sphere list used, NSphG=   24.
                        Lebedev-Laikov grids with approx.  5.0 points / Ang**2.
                        Smoothing algorithm: York/Karplus (Gamma=1.0000).
                        Polarization charges: spherical gaussians, with
                                              point-specific exponents (IZeta= 3).
                        Self-potential: point-specific (ISelfS= 7).
                        Self-field    : sphere-specific E.n sum rule (ISelfD= 2).
 1st derivatives      : Analytical E(r).r(x)/FMM algorithm (CHGder, D1EAlg=3).
                        Cavity 1st derivative terms included.
 Solvent              : Toluene, Eps=   2.374100 Eps(inf)=   2.238315
 ------------------------------------------------------------------------------
 One-electron integrals computed using PRISM.
   1 Symmetry operations used in ECPInt.
 ECPInt:  NShTT=    5460 NPrTT=   19488 LenC2=    5394 LenP2D=   15047.
 LDataN:  DoStor=T MaxTD1= 4 Len=   56
 NBasis=   214 RedAO= T EigKep=  9.68D-04  NBF=   214
 NBsUse=   214 1.00D-06 EigRej= -1.00D+00 NBFU=   214
 Initial guess from the checkpoint file:  "TS-898_opt_sqm_re.chk"
 B after Tr=     0.000000   -0.000000    0.000000
         Rot=    0.999971    0.004804   -0.002654    0.005290 Ang=   0.87 deg.
 ExpMin= 1.22D-01 ExpMax= 1.04D+04 ExpMxC= 1.57D+03 IAcc=3 IRadAn=         5 AccDes= 0.00D+00
 Harris functional with IExCor= 4639 and IRadAn=       5 diagonalized for initial guess.
 HarFok:  IExCor= 4639 AccDes= 0.00D+00 IRadAn=         5 IDoV= 1 UseB2=F ITyADJ=14
 ICtDFT=  3500011 ScaDFX=  1.000000  1.000000  1.000000  1.000000
 FoFCou: FMM=F IPFlag=           0 FMFlag=      100000 FMFlg1=           0
         NFxFlg=           0 DoJE=T BraDBF=F KetDBF=T FulRan=T
         wScrn=  0.000000 ICntrl=       500 IOpCl=  0 I1Cent=   200000004 NGrid=           0
         NMat0=    1 NMatS0=      1 NMatT0=    0 NMatD0=    1 NMtDS0=    0 NMtDT0=    0
 Petite list used in FoFCou.
 Requested convergence on RMS density matrix=1.00D-08 within 128 cycles.
 Requested convergence on MAX density matrix=1.00D-06.
 Requested convergence on             energy=1.00D-06.
 No special actions if energy rises.
 Inv3:  Mode=1 IEnd=     8517675.
 Iteration    1 A*A^-1 deviation from unit magnitude is 3.00D-15 for   1441.
 Iteration    1 A*A^-1 deviation from orthogonality  is 1.85D-15 for   1261    482.
 Iteration    1 A^-1*A deviation from unit magnitude is 2.66D-15 for    640.
 Iteration    1 A^-1*A deviation from orthogonality  is 1.72D-15 for   1245    369.
 Error on total polarization charges =  0.00561
 SCF Done:  E(RwB97XD) =  -864.737759518     A.U. after   12 cycles
            NFock= 12  Conv=0.67D-08     -V/T= 2.0064
   1 Symmetry operations used in ECPInt.
 ECPInt:  NShTT=    5460 NPrTT=   19488 LenC2=    5394 LenP2D=   15047.
 LDataN:  DoStor=T MaxTD1= 5 Len=  102
 D1PCM: PCM CHGder 1st derivatives, ID1Alg=3 FixD1E=F DoIter=F DoCFld=F I1PDM=0.
 Calling FoFJK, ICntrl=      2127 FMM=F ISym2X=0 I1Cent= 0 IOpClX= 0 NMat=1 NMatS=1 NMatT=0.
 ***** Axes restored to original set *****
 -------------------------------------------------------------------
 Center     Atomic                   Forces (Hartrees/Bohr)
 Number     Number              X              Y              Z
 -------------------------------------------------------------------
      1        6          -0.000082822   -0.001230596    0.000284375
      2        6          -0.001411397    0.000686849    0.000369550
      3        8           0.001197762    0.000407307   -0.000003125
      4        6          -0.000278403    0.001036651    0.000016170
      5        6           0.000622281    0.000810955    0.001236305
      6        1           0.000027788   -0.000227475   -0.000336820
      7        1          -0.000423980    0.000220757   -0.000013334
      8        1          -0.000298899   -0.000700914   -0.000705104
      9        7           0.000974269   -0.002442719   -0.002683116
     10        1          -0.000197389    0.002167311    0.002352310
     11        1          -0.000503705    0.000058559   -0.000301011
     12       17          -0.000044192    0.000033940   -0.000087963
     13        6          -0.000605312   -0.001085216    0.000351872
     14        1          -0.000389575    0.000283158   -0.000181236
     15        1           0.000450116    0.000206647    0.000087158
     16        1           0.000211252   -0.000086558    0.000235382
     17        6          -0.000611429    0.000348460   -0.000132894
     18        1           0.000422917    0.000067258   -0.000145139
     19        1           0.000047541    0.000170422    0.000150059
     20        1           0.000207257   -0.000058326   -0.000107564
     21        6           0.000643558   -0.000988109    0.000867328
     22        1           0.000145327    0.000292881    0.000047389
     23        1           0.000014550   -0.000187315   -0.000787725
     24        1          -0.000117514    0.000216074   -0.000512866
 -------------------------------------------------------------------
 Cartesian Forces:  Max     0.002683116 RMS     0.000764654

 GradGradGradGradGradGradGradGradGradGradGradGradGradGradGradGradGradGrad
 Berny optimization.
 FormGI is forming the generalized inverse of G from B-inverse, IUseBI=4.
 Internal  Forces:  Max     0.003198354 RMS     0.000454682
 Search for a saddle point.
 Step number   2 out of a maximum of   50
 All quantities printed in internal units (Hartrees-Bohrs-Radians)
 Swapping is turned off.
 Update second derivatives using D2CorX and points    1    2
 ITU=  0  0
     Eigenvalues ---   -0.00377  -0.00103   0.00070   0.00108   0.00149
     Eigenvalues ---    0.00218   0.00557   0.00883   0.01343   0.03086
     Eigenvalues ---    0.03420   0.03453   0.03553   0.03583   0.03738
     Eigenvalues ---    0.03771   0.04188   0.04386   0.04494   0.04600
     Eigenvalues ---    0.04743   0.06907   0.08695   0.09519   0.10113
     Eigenvalues ---    0.10198   0.10378   0.10932   0.11423   0.11815
     Eigenvalues ---    0.12100   0.12371   0.12411   0.12996   0.13351
     Eigenvalues ---    0.13670   0.14960   0.15157   0.16123   0.16213
     Eigenvalues ---    0.17943   0.19012   0.21043   0.24124   0.25464
     Eigenvalues ---    0.25570   0.25606   0.25827   0.25977   0.26071
     Eigenvalues ---    0.26237   0.26403   0.26654   0.27344   0.27711
     Eigenvalues ---    0.28061   0.28238   0.29664   0.31534   0.37990
     Eigenvalues ---    0.42161   0.45278   0.48107   0.53409   0.62415
     Eigenvalues ---    0.78607
 Eigenvectors required to have negative eigenvalues:
                          R6        D6        D5        D9        D8
   1                    0.58603   0.37189   0.28983   0.26845   0.18639
                          R7        D38       D34       D48       D33
   1                   -0.16982  -0.15608   0.14378  -0.13482   0.13462
 RFO step:  Lambda0=4.481023444D-05 Lambda=-1.08002967D-03.
 Linear search not attempted -- option 19 set.
 Maximum step size (   0.100) exceeded in Quadratic search.
    -- Step size scaled by   0.767
 Iteration  1 RMS(Cart)=  0.03002459 RMS(Int)=  0.00041096
 Iteration  2 RMS(Cart)=  0.00057016 RMS(Int)=  0.00007565
 Iteration  3 RMS(Cart)=  0.00000018 RMS(Int)=  0.00007565
 Variable       Old X    -DE/DX   Delta X   Delta X   Delta X     New X
                                 (Linear)    (Quad)   (Total)
    R1        2.72564  -0.00027   0.00000  -0.00379  -0.00379   2.72185
    R2        2.66995  -0.00035   0.00000   0.00781   0.00781   2.67776
    R3        2.86472  -0.00017   0.00000  -0.00106  -0.00106   2.86366
    R4        2.33671   0.00015   0.00000   0.00172   0.00172   2.33843
    R5        2.89030  -0.00018   0.00000  -0.00161  -0.00161   2.88869
    R6        3.40808   0.00035   0.00000  -0.08275  -0.08275   3.32533
    R7        3.51217  -0.00006   0.00000   0.02777   0.02777   3.53994
    R8        2.84803  -0.00000   0.00000   0.00210   0.00210   2.85013
    R9        2.07394   0.00022   0.00000   0.00156   0.00156   2.07549
   R10        2.07862   0.00035   0.00000   0.00218   0.00218   2.08080
   R11        2.07420  -0.00102   0.00000  -0.00365  -0.00365   2.07054
   R12        2.75921   0.00008   0.00000   0.00339   0.00339   2.76260
   R13        1.93741  -0.00320   0.00000  -0.00802  -0.00802   1.92939
   R14        1.93267  -0.00055   0.00000   0.00252   0.00252   1.93519
   R15        2.06810   0.00047   0.00000   0.00280   0.00280   2.07090
   R16        2.07460  -0.00021   0.00000  -0.00140  -0.00140   2.07320
   R17        2.07605   0.00023   0.00000   0.00061   0.00061   2.07666
   R18        2.07628   0.00041   0.00000   0.00197   0.00197   2.07825
   R19        2.08580  -0.00013   0.00000  -0.00028  -0.00028   2.08552
   R20        2.08666  -0.00003   0.00000  -0.00077  -0.00077   2.08589
   R21        2.07301   0.00003   0.00000  -0.00014  -0.00014   2.07287
   R22        2.07912   0.00072   0.00000   0.00364   0.00364   2.08276
   R23        2.08122  -0.00024   0.00000  -0.00147  -0.00147   2.07976
    A1        2.11082  -0.00096   0.00000  -0.00254  -0.00257   2.10825
    A2        2.08437   0.00073   0.00000   0.00470   0.00466   2.08903
    A3        2.08786   0.00022   0.00000  -0.00238  -0.00241   2.08546
    A4        2.20851  -0.00110   0.00000  -0.00398  -0.00399   2.20452
    A5        2.02755  -0.00062   0.00000  -0.00320  -0.00320   2.02434
    A6        2.04712   0.00172   0.00000   0.00720   0.00720   2.05432
    A7        1.90951  -0.00035   0.00000   0.01152   0.01150   1.92102
    A8        2.01405   0.00016   0.00000  -0.01234  -0.01262   2.00142
    A9        2.14157  -0.00035   0.00000  -0.00602  -0.00655   2.13502
   A10        1.65123  -0.00018   0.00000   0.00741   0.00762   1.65884
   A11        1.78298   0.00083   0.00000   0.02375   0.02375   1.80673
   A12        1.88547   0.00000   0.00000  -0.01358  -0.01391   1.87156
   A13        1.91973  -0.00012   0.00000  -0.00097  -0.00096   1.91876
   A14        1.90827   0.00016   0.00000   0.00433   0.00434   1.91261
   A15        1.94647  -0.00038   0.00000  -0.00617  -0.00616   1.94031
   A16        1.90422  -0.00032   0.00000  -0.00488  -0.00489   1.89933
   A17        1.87279   0.00043   0.00000   0.00561   0.00562   1.87841
   A18        1.91173   0.00022   0.00000   0.00201   0.00201   1.91374
   A19        1.95842   0.00003   0.00000  -0.00362  -0.00362   1.95480
   A20        1.80204   0.00005   0.00000   0.01233   0.01232   1.81436
   A21        1.90841   0.00015   0.00000   0.00265   0.00262   1.91103
   A22        1.94382  -0.00002   0.00000  -0.00202  -0.00202   1.94180
   A23        1.97621  -0.00017   0.00000  -0.00612  -0.00613   1.97008
   A24        1.86480  -0.00002   0.00000  -0.00146  -0.00150   1.86330
   A25        1.93138  -0.00032   0.00000  -0.00271  -0.00270   1.92868
   A26        1.89777   0.00046   0.00000   0.00373   0.00373   1.90150
   A27        1.93075   0.00008   0.00000   0.00106   0.00106   1.93180
   A28        1.85296   0.00000   0.00000  -0.00005  -0.00005   1.85291
   A29        1.94388   0.00015   0.00000   0.00419   0.00419   1.94807
   A30        1.90481  -0.00037   0.00000  -0.00634  -0.00634   1.89847
   A31        1.94821  -0.00019   0.00000  -0.00184  -0.00184   1.94636
   A32        1.96825  -0.00024   0.00000  -0.00175  -0.00175   1.96650
   A33        1.96771   0.00028   0.00000   0.00269   0.00269   1.97040
   A34        1.84401   0.00020   0.00000  -0.00109  -0.00109   1.84292
   A35        1.87127  -0.00014   0.00000   0.00022   0.00022   1.87149
   A36        1.85637   0.00010   0.00000   0.00177   0.00177   1.85813
   A37        1.89159  -0.00040   0.00000  -0.00188  -0.00188   1.88970
   A38        1.94706   0.00006   0.00000  -0.00093  -0.00093   1.94613
   A39        1.94458   0.00054   0.00000   0.00498   0.00498   1.94956
   A40        1.90434   0.00012   0.00000   0.00099   0.00099   1.90533
   A41        1.90462   0.00016   0.00000   0.00473   0.00472   1.90934
   A42        1.87105  -0.00048   0.00000  -0.00776  -0.00775   1.86330
    D1        0.01750   0.00018   0.00000   0.02868   0.02865   0.04615
    D2       -3.12007   0.00004   0.00000   0.02149   0.02149  -3.09857
    D3       -3.10660   0.00042   0.00000   0.04351   0.04351  -3.06309
    D4        0.03902   0.00028   0.00000   0.03633   0.03635   0.07537
[...]
    19  H    5.436937   1.102029   1.756171   0.000000
    20  H    5.330139   1.106179   1.775918   1.767384   0.000000
    21  C    5.566815   2.864662   3.949747   2.732876   2.948786
    22  H    6.094600   3.950898   5.031685   3.803988   3.984591
    23  H    6.029483   2.753227   3.835931   2.741769   2.420314
    24  H    5.991410   2.853489   3.860564   2.308837   3.140316
                   21         22         23         24
    21  C    0.000000
    22  H    1.097110   0.000000
    23  H    1.101044   1.792719   0.000000
    24  H    1.101266   1.790890   1.769844   0.000000
 Stoichiometry    C7H14ClNO
 Framework group  C1[X(C7H14ClNO)]
 Deg. of freedom    66
 Full point group                 C1      NOp   1
 Largest Abelian subgroup         C1      NOp   1
 Largest concise Abelian subgroup C1      NOp   1
                         Standard orientation:                         
 ---------------------------------------------------------------------
 Center     Atomic      Atomic             Coordinates (Angstroms)
 Number     Number       Type             X           Y           Z
 ---------------------------------------------------------------------
      1          6           0        0.588966   -0.475458    0.152355
      2          6           0        1.831592    0.042011   -0.367224
      3          8           0        1.958509    0.881128   -1.266627
      4          6           0       -0.651011   -0.023012   -0.353103
      5          6           0       -0.683473    2.142638    1.283006
      6          1           0       -1.011925    2.550213    2.248019
      7          1           0        0.366885    1.821970    1.351466
      8          1           0       -0.770381    2.915240    0.510427
      9          7           0       -1.474623    0.976167    0.900087
     10          1           0       -1.585347    0.327823    1.681651
     11          1           0       -2.414809    1.218072    0.580996
     12         17           0       -1.998967   -1.302755   -0.429462
     13          6           0       -0.763407    0.838514   -1.584128
     14          1           0       -0.128014    1.725461   -1.491359
     15          1           0       -0.382798    0.275926   -2.446307
     16          1           0       -1.811358    1.110913   -1.772644
     17          6           0        0.610553   -1.439350    1.321115
     18          1           0       -0.393599   -1.834708    1.529571
     19          1           0        1.247200   -2.318944    1.132797
     20          1           0        0.983313   -0.979968    2.255807
     21          6           0        3.107611   -0.515371    0.264113
     22          1           0        3.968032   -0.020765   -0.203531
     23          1           0        3.136270   -0.343861    1.351339
     24          1           0        3.188279   -1.602560    0.108231
 ---------------------------------------------------------------------
 Rotational constants (GHZ):           1.3850812           0.8171311           0.7405773

 **********************************************************************

            Population analysis using the SCF Density.

 **********************************************************************

 Orbital symmetries:
       Occupied  (A) (A) (A) (A) (A) (A) (A) (A) (A) (A) (A) (A)
                 (A) (A) (A) (A) (A) (A) (A) (A) (A) (A) (A) (A)
                 (A) (A) (A) (A) (A) (A) (A) (A) (A) (A) (A) (A)
                 (A) (A) (A) (A) (A) (A) (A) (A)
       Virtual   (A) (A) (A) (A) (A) (A) (A) (A) (A) (A) (A) (A)
                 (A) (A) (A) (A) (A) (A) (A) (A) (A) (A) (A) (A)
                 (A) (A) (A) (A) (A) (A) (A) (A) (A) (A) (A) (A)
                 (A) (A) (A) (A) (A) (A) (A) (A) (A) (A) (A) (A)
                 (A) (A) (A) (A) (A) (A) (A) (A) (A) (A) (A) (A)
                 (A) (A) (A) (A) (A) (A) (A) (A) (A) (A) (A) (A)
                 (A) (A) (A) (A) (A) (A) (A) (A) (A) (A) (A) (A)
                 (A) (A) (A) (A) (A) (A) (A) (A) (A) (A) (A) (A)
                 (A) (A) (A) (A) (A) (A) (A) (A) (A) (A) (A) (A)
                 (A) (A) (A) (A) (A) (A) (A) (A) (A) (A) (A) (A)
                 (A) (A) (A) (A) (A) (A) (A) (A) (A) (A) (A) (A)
                 (A) (A) (A) (A) (A) (A) (A) (A) (A) (A) (A) (A)
                 (A) (A) (A) (A) (A) (A) (A) (A) (A) (A) (A) (A)
                 (A) (A) (A) (A) (A) (A) (A) (A) (A) (A) (A) (A)
                 (A) (A)
 The electronic state is 1-A.
 Alpha  occ. eigenvalues -- -101.66009 -19.18330 -14.53291 -10.40653 -10.35276
 Alpha  occ. eigenvalues --  -10.34214 -10.29622 -10.28403 -10.27306 -10.25550
 Alpha  occ. eigenvalues --   -9.56779  -7.32097  -7.31233  -7.31201  -1.07209
 Alpha  occ. eigenvalues --   -1.06384  -0.94770  -0.86176  -0.83060  -0.80246
 Alpha  occ. eigenvalues --   -0.78770  -0.73327  -0.67036  -0.65297  -0.60127
 Alpha  occ. eigenvalues --   -0.58359  -0.56003  -0.53705  -0.51968  -0.50907
 Alpha  occ. eigenvalues --   -0.49767  -0.49438  -0.47963  -0.46958  -0.46331
 Alpha  occ. eigenvalues --   -0.44967  -0.44101  -0.44047  -0.42679  -0.40558
 Alpha  occ. eigenvalues --   -0.38426  -0.37841  -0.28808  -0.25258
 Alpha virt. eigenvalues --    0.08285   0.08754   0.11084   0.14213   0.15420
 Alpha virt. eigenvalues --    0.16556   0.17185   0.19229   0.19767   0.20875
 Alpha virt. eigenvalues --    0.21501   0.22706   0.22947   0.24416   0.24950
 Alpha virt. eigenvalues --    0.25225   0.26992   0.28821   0.31099   0.31892
 Alpha virt. eigenvalues --    0.35491   0.37953   0.40834   0.46042   0.46440
 Alpha virt. eigenvalues --    0.48992   0.50540   0.50952   0.53233   0.53787
 Alpha virt. eigenvalues --    0.56650   0.57288   0.59137   0.60969   0.61521
 Alpha virt. eigenvalues --    0.63600   0.66737   0.68617   0.69398   0.71009
 Alpha virt. eigenvalues --    0.72540   0.72766   0.73266   0.73590   0.73873
 Alpha virt. eigenvalues --    0.74639   0.74984   0.75401   0.75879   0.77184
 Alpha virt. eigenvalues --    0.77318   0.78000   0.78746   0.79441   0.80100
 Alpha virt. eigenvalues --    0.81320   0.81628   0.83762   0.84149   0.85304
 Alpha virt. eigenvalues --    0.85596   0.86898   0.89581   0.91554   0.93143
 Alpha virt. eigenvalues --    0.93923   0.95030   0.96689   1.01582   1.03734
 Alpha virt. eigenvalues --    1.04863   1.08377   1.10874   1.13214   1.16708
 Alpha virt. eigenvalues --    1.18842   1.20395   1.25528   1.26005   1.26999
 Alpha virt. eigenvalues --    1.32463   1.35629   1.38182   1.41422   1.42613
 Alpha virt. eigenvalues --    1.43107   1.46310   1.46609   1.54661   1.56768
 Alpha virt. eigenvalues --    1.58521   1.61034   1.62207   1.63882   1.66690
 Alpha virt. eigenvalues --    1.67836   1.69132   1.72530   1.72840   1.77244
 Alpha virt. eigenvalues --    1.78794   1.82348   1.83638   1.84370   1.85093
 Alpha virt. eigenvalues --    1.86675   1.87585   1.89116   1.89812   1.91303
 Alpha virt. eigenvalues --    1.92290   1.92514   1.94157   1.95040   1.96611
 Alpha virt. eigenvalues --    1.99862   2.00737   2.03820   2.05965   2.06583
 Alpha virt. eigenvalues --    2.08305   2.09256   2.11999   2.13615   2.14832
 Alpha virt. eigenvalues --    2.18618   2.20154   2.21872   2.23097   2.30273
 Alpha virt. eigenvalues --    2.31719   2.35815   2.40371   2.40655   2.45561
 Alpha virt. eigenvalues --    2.45644   2.46765   2.50142   2.52336   2.55629
 Alpha virt. eigenvalues --    2.57646   2.58104   2.59104   2.65182   2.66879
 Alpha virt. eigenvalues --    2.69830   2.72768   2.75036   2.80158   2.81537
 Alpha virt. eigenvalues --    2.82651   2.84868   2.86575   2.91947   2.93889
 Alpha virt. eigenvalues --    3.00903   3.02350   3.02560   3.03360   3.05198
 Alpha virt. eigenvalues --    3.05562   3.06756   3.09736   3.12057   3.20319
 Alpha virt. eigenvalues --    3.24216   3.27619   3.47926   3.53587   3.76278
          Condensed to atoms (all electrons):
               1          2          3          4          5          6
     1  C    5.854043   0.222960  -0.123380   0.391086  -0.011288  -0.000784
     2  C    0.222960   4.721896   0.705922  -0.048128  -0.000328  -0.000025
     3  O   -0.123380   0.705922   7.829285  -0.019414   0.000108   0.000012
     4  C    0.391086  -0.048128  -0.019414   5.328149  -0.029596   0.003312
     5  C   -0.011288  -0.000328   0.000108  -0.029596   4.528233   0.403868
     6  H   -0.000784  -0.000025   0.000012   0.003312   0.403868   0.583818
     7  H    0.021684   0.006551   0.000468  -0.005187   0.402538  -0.018767
     8  H   -0.001227  -0.000256  -0.000370  -0.002358   0.406019  -0.019212
     9  N   -0.112445  -0.002241   0.000170   0.101679   0.311953  -0.015818
    10  H   -0.005577   0.000059  -0.000024  -0.004751  -0.016302  -0.009029
    11  H    0.008563  -0.000002  -0.000007  -0.006591  -0.016386  -0.002968
    12  Cl  -0.079853  -0.001152  -0.000008   0.259718   0.002923  -0.000164
    13  C   -0.054269   0.001222  -0.004315   0.375053   0.000485  -0.000076
    14  H   -0.027717   0.003577   0.026549   0.012415   0.003345   0.000025
    15  H   -0.011757   0.000178   0.003205  -0.003210  -0.000133   0.000007
    16  H    0.011723   0.001208   0.001861  -0.031719  -0.001397  -0.000020
    17  C    0.328127  -0.009435   0.004040  -0.069868  -0.000587   0.000096
    18  H   -0.023741   0.007744  -0.000073  -0.017138  -0.000079  -0.000012
    19  H   -0.001122  -0.018811   0.000006   0.005742  -0.000052  -0.000002
    20  H   -0.023889  -0.012433   0.000042   0.000110   0.000972   0.000038
    21  C   -0.196864   0.425982  -0.087781   0.007542  -0.000095  -0.000000
    22  H    0.018860  -0.014932   0.013050  -0.000242  -0.000003   0.000000
    23  H   -0.006070   0.002456   0.002436  -0.000289   0.000141  -0.000001
    24  H    0.000943  -0.007614   0.001898   0.000641  -0.000002   0.000000
               7          8          9         10         11         12
     1  C    0.021684  -0.001227  -0.112445  -0.005577   0.008563  -0.079853
     2  C    0.006551  -0.000256  -0.002241   0.000059  -0.000002  -0.001152
     3  O    0.000468  -0.000370   0.000170  -0.000024  -0.000007  -0.000008
     4  C   -0.005187  -0.002358   0.101679  -0.004751  -0.006591   0.259718
     5  C    0.402538   0.406019   0.311953  -0.016302  -0.016386   0.002923
     6  H   -0.018767  -0.019212  -0.015818  -0.009029  -0.002968  -0.000164
     7  H    0.545230  -0.014950  -0.028511  -0.001906   0.006373   0.000392
     8  H   -0.014950   0.567786  -0.020955   0.005692  -0.008211   0.000020
     9  N   -0.028511  -0.020955   6.368285   0.338103   0.333060  -0.084317
    10  H   -0.001906   0.005692   0.338103   0.508951  -0.013062   0.009006
    11  H    0.006373  -0.008211   0.333060  -0.013062   0.514596   0.011187
    12  Cl   0.000392   0.000020  -0.084317   0.009006   0.011187  17.088677
    13  C   -0.002666   0.006032  -0.045261   0.004664  -0.004280  -0.062012
    14  H    0.000068   0.001877  -0.000255  -0.000131  -0.000647   0.002921
    15  H    0.000013  -0.000176   0.003598  -0.000232  -0.000095   0.002506
    16  H   -0.000021  -0.000117  -0.002424  -0.000051   0.004439   0.001377
    17  C   -0.002575   0.000065   0.003079   0.004793  -0.000488  -0.015602
    18  H    0.000025  -0.000015  -0.002699   0.004101  -0.000082   0.021689
    19  H    0.000130   0.000002  -0.000315  -0.000124   0.000017   0.001309
    20  H   -0.000668  -0.000009   0.002868  -0.000163  -0.000119   0.000009
    21  C    0.000131  -0.000036  -0.000100  -0.000027   0.000009  -0.000112
    22  H   -0.000059   0.000001   0.000004   0.000000  -0.000000   0.000002
    23  H   -0.000469   0.000007   0.000042  -0.000004  -0.000001  -0.000001
    24  H    0.000034   0.000001  -0.000010   0.000002   0.000000   0.000013
              13         14         15         16         17         18
     1  C   -0.054269  -0.027717  -0.011757   0.011723   0.328127  -0.023741
     2  C    0.001222   0.003577   0.000178   0.001208  -0.009435   0.007744
     3  O   -0.004315   0.026549   0.003205   0.001861   0.004040  -0.000073
     4  C    0.375053   0.012415  -0.003210  -0.031719  -0.069868  -0.017138
     5  C    0.000485   0.003345  -0.000133  -0.001397  -0.000587  -0.000079
     6  H   -0.000076   0.000025   0.000007  -0.000020   0.000096  -0.000012
     7  H   -0.002666   0.000068   0.000013  -0.000021  -0.002575   0.000025
     8  H    0.006032   0.001877  -0.000176  -0.000117   0.000065  -0.000015
     9  N   -0.045261  -0.000255   0.003598  -0.002424   0.003079  -0.002699
    10  H    0.004664  -0.000131  -0.000232  -0.000051   0.004793   0.004101
    11  H   -0.004280  -0.000647  -0.000095   0.004439  -0.000488  -0.000082
    12  Cl  -0.062012   0.002921   0.002506   0.001377  -0.015602   0.021689
    13  C    4.553959   0.362377   0.391281   0.368324   0.006867   0.001208
    14  H    0.362377   0.575938  -0.010848  -0.017801  -0.000124  -0.000106
    15  H    0.391281  -0.010848   0.573228  -0.020230   0.000023  -0.000014
    16  H    0.368324  -0.017801  -0.020230   0.660408  -0.000257  -0.000025
    17  C    0.006867  -0.000124   0.000023  -0.000257   4.564947   0.383403
    18  H    0.001208  -0.000106  -0.000014  -0.000025   0.383403   0.651739
    19  H   -0.000249  -0.000017   0.000033  -0.000001   0.372899  -0.017001
    20  H   -0.000227   0.000046  -0.000013   0.000013   0.385834  -0.027075
    21  C    0.000427   0.001120   0.000021   0.000063   0.010198  -0.000332
    22  H   -0.000058  -0.000024   0.000007  -0.000003  -0.000481  -0.000016
    23  H    0.000041  -0.000083   0.000002  -0.000002   0.006544   0.000312
    24  H   -0.000051  -0.000019  -0.000021  -0.000003  -0.001028   0.000155
              19         20         21         22         23         24
     1  C   -0.001122  -0.023889  -0.196864   0.018860  -0.006070   0.000943
     2  C   -0.018811  -0.012433   0.425982  -0.014932   0.002456  -0.007614
     3  O    0.000006   0.000042  -0.087781   0.013050   0.002436   0.001898
     4  C    0.005742   0.000110   0.007542  -0.000242  -0.000289   0.000641
     5  C   -0.000052   0.000972  -0.000095  -0.000003   0.000141  -0.000002
     6  H   -0.000002   0.000038  -0.000000   0.000000  -0.000001   0.000000
     7  H    0.000130  -0.000668   0.000131  -0.000059  -0.000469   0.000034
     8  H    0.000002  -0.000009  -0.000036   0.000001   0.000007   0.000001
     9  N   -0.000315   0.002868  -0.000100   0.000004   0.000042  -0.000010
    10  H   -0.000124  -0.000163  -0.000027   0.000000  -0.000004   0.000002
    11  H    0.000017  -0.000119   0.000009  -0.000000  -0.000001   0.000000
    12  Cl   0.001309   0.000009  -0.000112   0.000002  -0.000001   0.000013
    13  C   -0.000249  -0.000227   0.000427  -0.000058   0.000041  -0.000051
    14  H   -0.000017   0.000046   0.001120  -0.000024  -0.000083  -0.000019
    15  H    0.000033  -0.000013   0.000021   0.000007   0.000002  -0.000021
    16  H   -0.000001   0.000013   0.000063  -0.000003  -0.000002  -0.000003
    17  C    0.372899   0.385834   0.010198  -0.000481   0.006544  -0.001028
    18  H   -0.017001  -0.027075  -0.000332  -0.000016   0.000312   0.000155
    19  H    0.647446  -0.029248   0.010676   0.000055  -0.003365   0.001462
    20  H   -0.029248   0.682673   0.002806   0.000069   0.001500  -0.001335
    21  C    0.010676   0.002806   4.780233   0.349250   0.351552   0.366448
    22  H    0.000055   0.000069   0.349250   0.628610  -0.014974  -0.013181
    23  H   -0.003365   0.001500   0.351552  -0.014974   0.644178  -0.016173
    24  H    0.001462  -0.001335   0.366448  -0.013181  -0.016173   0.621183
 Mulliken charges:
               1
     1  C   -0.178004
     2  C    0.015604
     3  O   -0.353680
     4  C   -0.246954
     5  C    0.015664
     6  H    0.075701
     7  H    0.092142
     8  H    0.080391
     9  N   -0.147491
    10  H    0.176013
    11  H    0.174695
    12  Cl  -0.158528
    13  C    0.101523
    14  H    0.067515
    15  H    0.072627
    16  H    0.024656
    17  C    0.029531
    18  H    0.018034
    19  H    0.030531
    20  H    0.018198
    21  C   -0.021110
    22  H    0.034063
    23  H    0.032223
    24  H    0.046659
 Sum of Mulliken charges =  -0.00000
 Mulliken charges with hydrogens summed into heavy atoms:
               1
     1  C   -0.178004
     2  C    0.015604
     3  O   -0.353680
     4  C   -0.246954
     5  C    0.263897
     9  N    0.203217
    12  Cl  -0.158528
    13  C    0.266321
    17  C    0.096293
    21  C    0.091834
 Electronic spatial extent (au):  <R**2>=           1844.8380
 Charge=             -0.0000 electrons
 Dipole moment (field-independent basis, Debye):
    X=             -4.9604    Y=              2.7818    Z=              4.8825  Tot=              7.4955
 Quadrupole moment (field-independent basis, Debye-Ang):
   XX=            -70.4253   YY=            -66.8926   ZZ=            -67.6868
   XY=            -10.8632   XZ=              1.0715   YZ=              4.9401
 Traceless Quadrupole moment (field-independent basis, Debye-Ang):
   XX=             -2.0904   YY=              1.4423   ZZ=              0.6481
   XY=            -10.8632   XZ=              1.0715   YZ=              4.9401
 Octapole moment (field-independent basis, Debye-Ang**2):
  XXX=            -31.3899  YYY=             16.7795  ZZZ=              8.0326  XYY=            -11.3728
  XXY=              4.1578  XXZ=             18.2697  XZZ=            -17.7795  YZZ=              4.3547
  YYZ=              7.7284  XYZ=              4.0608
 Hexadecapole moment (field-independent basis, Debye-Ang**3):
 XXXX=          -1251.2398 YYYY=           -615.3534 ZZZZ=           -475.1322 XXXY=            -29.5825
 XXXZ=             -8.1942 YYYX=             -9.1780 YYYZ=             19.3642 ZZZX=            -10.9434
 ZZZY=             23.4346 XXYY=           -313.2743 XXZZ=           -300.0678 YYZZ=           -186.6037
 XXYZ=             18.5870 YYXZ=             -4.1035 ZZXY=             -9.5518
 N-N= 6.706490254088D+02 E-N=-3.375343384272D+03  KE= 8.592689922222D+02
 Unable to Open any file for archive entry.
 1\1\GINC-NODE-005\FTS\RwB97XD\def2SVP\C7H14Cl1N1O1\JP2658\19-Dec-2023\
 0\\# wb97xd def2svp scrf=(iefpcm,solvent=toluene) opt=(readfc,ts,noeig
 en,maxcycles=50,maxstep=10)\\TS-898_opt_sqm.out\\0,1\C,-0.585680982,-0
 .4686005505,-0.1509301\C,-1.8222678578,0.0722206828,0.3591903196\O,-1.
 9401511367,0.9148385362,1.2565461207\C,0.6587726199,-0.0381091456,0.36
 26356947\C,0.74224079,2.1241719547,-1.2761190109\H,1.0848404116,2.5242
 629385,-2.2393429194\H,-0.3132900047,1.8226216274,-1.3515403922\H,0.83
 78167357,2.8961989947,-0.5039881561\N,1.5092586336,0.9440264862,-0.886
 0681967\H,1.6136085421,0.2926184477,-1.6659593588\H,2.4514426027,1.169
 2073578,-0.5606921385\Cl,1.9825728098,-1.3421200216,0.4502074864\C,0.7
 782390131,0.8230373212,1.5932611308\H,0.1598101835,1.7212922086,1.4948
 256145\H,0.3813842112,0.2687595361,2.4534954525\H,1.8296397166,1.07654
 7517,1.7887836028\C,-0.6166617951,-1.4336615799,-1.3185140353\H,0.3815
 426731,-1.8475822791,-1.5193623632\H,-1.2705661632,-2.3012137315,-1.13
 34982525\H,-0.9744070422,-0.9689334376,-2.2564253398\C,-3.1037889501,-
 0.462717653,-0.2803640727\H,-3.958296836,0.0481944267,0.1805438232\H,-
 3.1216850648,-0.2923168875,-1.3679952311\H,-3.2053831103,-1.5480227496
 ,-0.1235896781\\Version=ES64L-G16RevC.01\State=1-A\HF=-864.7378439\RMS
 D=2.453e-09\RMSF=2.599e-05\Dipole=1.9846647,1.0558348,-1.9086036\Quadr
 upole=-1.2685813,0.7658862,0.5026951,8.1457867,0.7051573,-3.6301474\PG
 =C01 [X(C7H14Cl1N1O1)]\\@
 The archive entry for this job was punched.


 DEMOCRATS BUY MOST OF THE BOOKS THAT HAVE BEEN
 BANNED; REPUBLICANS FORM CENSORSHIP COMMITTEES AND
 READ THEM AS A GROUP.
 Job cpu time:       0 days  2 hours 57 minutes 46.9 seconds.
 Elapsed time:       0 days  0 hours 15 minutes 16.0 seconds.
 File lengths (MBytes):  RWF=    125 Int=      0 D2E=      0 Chk=     10 Scr=      1
 Normal termination of Gaussian 16 at Tue Dec 19 17:48:25 2023.
