Unloading slurm/anatra/current
  ERROR: No such file or directory on
    '/cm/local/modulefiles/slurm/anatra/current'
environment: line 0: unalias: gv: not found
environment: line 0: unalias: sl: not found
 Entering Gaussian System, Link 0=g16
 Initial command:
 /apps/gaussian/g16/C.01/g16/l1.exe "/local/jobs/1153188/Gau-1742728.inp" -scrdir="/local/jobs/1153188/"
 Entering Link 1 = /apps/gaussian/g16/C.01/g16/l1.exe PID=   1742731.
  
 Copyright (c) 1988-2019, Gaussian, Inc.  All Rights Reserved.
  
 This is part of the Gaussian(R) 16 program.  It is based on
 the Gaussian(R) 09 system (copyright 2009, Gaussian, Inc.),
 the Gaussian(R) 03 system (copyright 2003, Gaussian, Inc.),
 the Gaussian(R) 98 system (copyright 1998, Gaussian, Inc.),
 the Gaussian(R) 94 system (copyright 1995, Gaussian, Inc.),
 the Gaussian 92(TM) system (copyright 1992, Gaussian, Inc.),
 the Gaussian 90(TM) system (copyright 1990, Gaussian, Inc.),
 the Gaussian 88(TM) system (copyright 1988, Gaussian, Inc.),
 the Gaussian 86(TM) system (copyright 1986, Carnegie Mellon
 University), and the Gaussian 82(TM) system (copyright 1983,
 Carnegie Mellon University). Gaussian is a federally registered
 trademark of Gaussian, Inc.
  
 This software contains proprietary and confidential information,
 including trade secrets, belonging to Gaussian, Inc.
  
 This software is provided under written license and may be
 used, copied, transmitted, or stored only in accord with that
 written license.
  
 The following legend is applicable only to US Government
 contracts under FAR:
  
                    RESTRICTED RIGHTS LEGEND
  
 Use, reproduction and disclosure by the US Government is
 subject to restrictions as set forth in subparagraphs (a)
 and (c) of the Commercial Computer Software - Restricted
 Rights clause in FAR 52.227-19.
  
 Gaussian, Inc.
 340 Quinnipiac St., Bldg. 40, Wallingford CT 06492
  
  
 ---------------------------------------------------------------
 Warning -- This program may not be used in any manner that
 competes with the business of Gaussian, Inc. or will provide
 assistance to any competitor of Gaussian, Inc.  The licensee
 of this program is prohibited from giving any competitor of
 Gaussian, Inc. access to this program.  By using this program,
 the user acknowledges that Gaussian, Inc. is engaged in the
 business of creating and licensing software in the field of
 computational chemistry and represents and warrants to the
 licensee that it is not a competitor of Gaussian, Inc. and that
 it will not use this program in any manner prohibited above.
 ---------------------------------------------------------------
  

 Cite this work as:
 Gaussian 16, Revision C.01,
 M. J. Frisch, G. W. Trucks, H. B. Schlegel, G. E. Scuseria, 
 M. A. Robb, J. R. Cheeseman, G. Scalmani, V. Barone, 
 G. A. Petersson, H. Nakatsuji, X. Li, M. Caricato, A. V. Marenich, 
 J. Bloino, B. G. Janesko, R. Gomperts, B. Mennucci, H. P. Hratchian, 
 J. V. Ortiz, A. F. Izmaylov, J. L. Sonnenberg, D. Williams-Young, 
 F. Ding, F. Lipparini, F. Egidi, J. Goings, B. Peng, A. Petrone, 
 T. Henderson, D. Ranasinghe, V. G. Zakrzewski, J. Gao, N. Rega, 
 G. Zheng, W. Liang, M. Hada, M. Ehara, K. Toyota, R. Fukuda, 
 J. Hasegawa, M. Ishida, T. Nakajima, Y. Honda, O. Kitao, H. Nakai, 
 T. Vreven, K. Throssell, J. A. Montgomery, Jr., J. E. Peralta, 
 F. Ogliaro, M. J. Bearpark, J. J. Heyd, E. N. Brothers, K. N. Kudin, 
 V. N. Staroverov, T. A. Keith, R. Kobayashi, J. Normand, 
 K. Raghavachari, A. P. Rendell, J. C. Burant, S. S. Iyengar, 
 J. Tomasi, M. Cossi, J. M. Millam, M. Klene, C. Adamo, R. Cammi, 
 J. W. Ochterski, R. L. Martin, K. Morokuma, O. Farkas, 
 J. B. Foresman, and D. J. Fox, Gaussian, Inc., Wallingford CT, 2019.
 
 ******************************************
 Gaussian 16:  ES64L-G16RevC.01  3-Jul-2019
                30-Dec-2023 
 ******************************************
 %chk=TS-92_opt_dft_freq.chk
 %nprocshared=12
 Will use up to   12 processors via shared memory.
 %mem=48GB
 -----------------------------------------------------------
 # wb97xd def2svp scrf=(iefpcm,solvent=toluene) freq=noraman
 -----------------------------------------------------------
 1/10=4,30=1,38=1/1,3;
 2/12=2,17=6,18=5,40=1/2;
 3/5=43,7=101,11=2,25=1,30=1,70=2201,71=2,72=13,74=-58,140=1/1,2,3;
 4//1;
 5/5=2,38=5,53=13,98=1/2;
 8/6=4,10=90,11=11/1;
 11/6=1,8=1,9=11,15=111,16=1/1,2,10;
 10/6=1/2;
 6/7=2,8=2,9=2,10=2,28=1/1;
 7/8=1,10=1,25=1/1,2,3,16;
 1/10=4,30=1/3;
 99//99;
 -----------------
 TS-92_opt_dft.out
 -----------------
 Symbolic Z-matrix:
 Charge =  0 Multiplicity = 1
 C                    -0.90919  -0.70553   0.18653 
 C                    -2.28943  -0.46048   0.15146 
 O                    -2.8568    0.64005   0.02883 
 C                     0.04985   0.41206   0.27113 
 C                    -0.80151   2.63752  -1.05713 
 H                    -0.19028   3.33575  -0.4758 
 H                    -0.91387   3.01855  -2.08076 
 H                    -1.78347   2.4891   -0.5956 
 N                    -0.14111   1.31963  -1.10943 
 H                    -0.70374   0.67558  -1.67449 
 H                     0.77321   1.39699  -1.56211 
 C                     1.49452  -0.07387   0.16154 
 C                     1.83911  -0.97863  -0.85537 
 C                     3.15035  -1.41922  -1.01272 
 C                     4.14914  -0.96803  -0.14948 
 C                     3.82134  -0.07304   0.86562 
 C                     2.50773   0.37409   1.01618 
 H                     1.05863  -1.3533   -1.52214 
 H                     3.39173  -2.12612  -1.80963 
 H                     5.17771  -1.31588  -0.26675 
 H                     4.59281   0.28368   1.5516 
 H                     2.28156   1.07282   1.82183 
 C                    -0.18503   1.36861   1.43888 
 H                    -1.24399   1.64936   1.47144 
 H                     0.04544   0.82422   2.36409 
 H                     0.43649   2.27708   1.41031 
 H                    -0.54352  -1.72919   0.23702 
 O                    -3.05105  -1.59948   0.22211 
 C                    -4.43989  -1.42627   0.0985 
 H                    -4.88757  -2.4263    0.17276 
 H                    -4.84752  -0.78306   0.89449 
 H                    -4.71503  -0.97441  -0.86864 
 

 GradGradGradGradGradGradGradGradGradGradGradGradGradGradGradGradGradGrad
 Berny optimization.
 Initialization pass.
 Trust Radius=3.00D-01 FncErr=1.00D-07 GrdErr=1.00D-07 EigMax=2.50D+02 EigMin=1.00D-04
 Number of steps in this run=      2 maximum allowed number of steps=      2.
 GradGradGradGradGradGradGradGradGradGradGradGradGradGradGradGradGradGrad

                          Input orientation:                          
 ---------------------------------------------------------------------
 Center     Atomic      Atomic             Coordinates (Angstroms)
 Number     Number       Type             X           Y           Z
 ---------------------------------------------------------------------
      1          6           0       -0.909190   -0.705530    0.186530
      2          6           0       -2.289430   -0.460480    0.151460
      3          8           0       -2.856800    0.640050    0.028830
      4          6           0        0.049850    0.412060    0.271130
      5          6           0       -0.801510    2.637520   -1.057130
      6          1           0       -0.190280    3.335750   -0.475800
      7          1           0       -0.913870    3.018550   -2.080760
      8          1           0       -1.783470    2.489100   -0.595600
      9          7           0       -0.141110    1.319630   -1.109430
     10          1           0       -0.703740    0.675580   -1.674490
     11          1           0        0.773210    1.396990   -1.562110
     12          6           0        1.494520   -0.073870    0.161540
     13          6           0        1.839110   -0.978630   -0.855370
     14          6           0        3.150350   -1.419220   -1.012720
     15          6           0        4.149140   -0.968030   -0.149480
     16          6           0        3.821340   -0.073040    0.865620
     17          6           0        2.507730    0.374090    1.016180
     18          1           0        1.058630   -1.353300   -1.522140
     19          1           0        3.391730   -2.126120   -1.809630
     20          1           0        5.177710   -1.315880   -0.266750
     21          1           0        4.592810    0.283680    1.551600
     22          1           0        2.281560    1.072820    1.821830
     23          6           0       -0.185030    1.368610    1.438880
     24          1           0       -1.243990    1.649360    1.471440
     25          1           0        0.045440    0.824220    2.364090
     26          1           0        0.436490    2.277080    1.410310
     27          1           0       -0.543520   -1.729190    0.237020
     28          8           0       -3.051050   -1.599480    0.222110
     29          6           0       -4.439890   -1.426270    0.098500
     30          1           0       -4.887570   -2.426300    0.172760
     31          1           0       -4.847520   -0.783060    0.894490
     32          1           0       -4.715030   -0.974410   -0.868640
 ---------------------------------------------------------------------
                    Distance matrix (angstroms):
                    1          2          3          4          5
     1  C    0.000000
     2  C    1.402263   0.000000
     3  O    2.372475   1.244232   0.000000
     4  C    1.475101   2.499576   2.925629   0.000000
     5  C    3.568511   3.643103   3.064867   2.727959   0.000000
     6  H    4.157819   4.383064   3.825151   3.027132   1.095021
     7  H    4.359977   4.356446   3.725937   3.640595   1.098010
     8  H    3.403198   3.084496   2.227316   2.902822   1.095118
     9  N    2.524031   3.061685   3.021992   1.663158   1.475025
    10  H    2.326601   2.671917   2.745584   2.103040   2.059102
    11  H    3.210732   3.970678   4.034975   2.203204   2.067284
    12  C    2.485446   3.803662   4.411494   1.528139   3.756134
    13  C    2.951829   4.281008   5.045147   2.530706   4.482201
    14  C    4.292717   5.644972   6.435159   3.822951   5.663595
    15  C    5.076269   6.465551   7.190335   4.345773   6.191345
    16  C    4.820697   6.164547   6.768033   3.848750   5.693404
    17  C    3.678212   4.945401   5.461115   2.568602   4.513624
    18  H    2.685419   3.848061   4.659350   2.711079   4.427527
    19  H    4.949812   6.236651   7.076423   4.684024   6.390758
    20  H    6.134194   7.527602   8.274441   5.437834   7.211459
    21  H    5.754473   7.062534   7.611998   4.721713   6.437758
    22  H    4.002202   5.102460   5.459385   2.796749   4.499113
    23  C    2.528803   3.071078   3.107635   1.527677   2.867097
    24  H    2.703441   2.699392   2.387674   2.155383   2.750621
    25  H    2.827229   3.463785   3.729659   2.133161   3.963600
    26  H    3.493487   4.063198   3.928627   2.219352   2.784030
    27  H    1.088184   2.159895   3.317816   2.222207   4.561747
    28  O    2.321202   1.371998   2.256232   3.696522   4.964781
    29  C    3.604588   2.357972   2.603979   4.854588   5.575633
    30  H    4.334599   3.258103   3.680658   5.695971   6.621993
    31  H    4.002207   2.683277   2.595684   5.079481   5.646183
    32  H    3.958547   2.681094   2.620105   5.091705   5.328903
                    6          7          8          9         10
     6  H    0.000000
     7  H    1.788881   0.000000
     8  H    1.808154   1.800617   0.000000
     9  N    2.113917   2.104036   2.080632   0.000000
    10  H    2.962601   2.387199   2.370375   1.025010   0.000000
    11  H    2.422225   2.396809   2.943375   1.023174   1.647557
    12  C    3.856198   4.515674   4.229337   2.496496   2.960579
    13  C    4.782925   5.005789   5.021525   3.044309   3.142205
    14  C    5.835909   6.111661   6.308053   4.283032   4.436230
    15  C    6.120423   6.727312   6.880889   4.955919   5.345798
    16  C    5.432527   6.376621   6.333531   4.641267   5.242990
    17  C    4.275125   5.318980   5.048317   3.525424   4.200493
    18  H    4.964050   4.828653   4.868269   2.958760   2.691749
    19  H    6.666477   6.714114   7.039660   4.984419   4.963936
    20  H    7.106102   7.693196   7.940028   5.995487   6.367032
    21  H    6.025233   7.141224   7.080345   5.528496   6.214071
    22  H    4.063244   5.406186   4.937032   3.810844   4.614550
    23  C    2.745117   3.954918   2.819507   2.549159   3.231474
    24  H    2.783156   3.821228   2.295399   2.825943   3.337213
    25  H    3.798463   5.048965   3.857007   3.513627   4.110169
    26  H    2.251896   3.815864   2.999475   2.756705   3.657994
    27  H    5.127037   5.296253   4.474897   3.357107   3.076111
    28  O    5.746963   5.585423   4.357969   4.331507   3.779266
    29  C    6.408263   6.077698   4.782098   5.242001   4.638974
    30  H    7.462331   7.107393   5.864041   6.181010   5.526158
    31  H    6.366488   6.227195   4.723960   5.530578   5.089028
    32  H    6.261403   5.644624   4.545822   5.122631   4.411611
                   11         12         13         14         15
    11  H    0.000000
    12  C    2.377958   0.000000
    13  C    2.697998   1.404079   0.000000
    14  C    3.726079   2.435288   1.392203   0.000000
    15  C    4.357264   2.818379   2.415498   1.395112   0.000000
    16  C    4.164848   2.431012   2.776893   2.406364   1.392440
    17  C    3.271462   1.399168   2.404081   2.783048   2.419561
    18  H    2.765349   2.159102   1.092753   2.153868   3.403510
    19  H    4.396614   3.420036   2.153596   1.092263   2.161236
    20  H    5.332658   3.910487   3.406826   2.162716   1.092112
    21  H    5.052128   3.414602   3.869082   3.399455   2.158076
    22  H    3.719040   2.165847   3.401707   3.872949   3.396908
    23  C    3.150392   2.556019   3.856198   4.990701   5.173761
    24  H    3.651741   3.490673   4.671818   5.907407   6.209989
    25  H    4.033951   2.785251   4.102736   5.106499   5.135226
    26  H    3.118208   2.864580   4.207172   5.186400   5.171794
    27  H    3.839746   2.626669   2.726460   3.911855   4.769676
    28  O    5.175639   4.795139   5.045799   6.325714   7.237371
    29  C    6.156690   6.086886   6.366796   7.671154   8.604819
    30  H    7.047819   6.801847   6.957084   8.187047   9.159286
    31  H    6.510001   6.423522   6.914570   8.246701   9.058917
    32  H    6.018739   6.358518   6.554155   7.879265   8.893298
                   16         17         18         19         20
    16  C    0.000000
    17  C    1.395767   0.000000
    18  H    3.869500   3.395119   0.000000
    19  H    3.399509   3.875269   2.474522   0.000000
    20  H    2.160244   3.410381   4.306301   2.495334   0.000000
    21  H    1.092238   2.154625   4.961654   4.306692   2.491405
    22  H    2.144354   1.090160   4.308567   4.965199   4.296014
    23  C    4.296275   2.901500   4.209884   5.963151   6.234953
    24  H    5.384352   3.988606   4.824888   6.819792   7.283693
    25  H    4.160277   2.842947   4.568471   6.109182   6.151548
    26  H    4.156556   2.840201   4.708076   6.204001   6.180701
    27  H    4.710623   3.786952   2.408905   4.453372   5.758219
    28  O    7.069220   5.951938   4.471295   6.776041   8.248146
    29  C    8.406404   7.235527   5.732846   8.091046   9.625166
    30  H    9.047817   7.952610   6.275453   8.518614  10.135880
    31  H    8.697936   7.446711   6.406862   8.775039  10.106315
    32  H    8.757268   7.585464   5.822866   8.242054   9.916914
                   21         22         23         24         25
    21  H    0.000000
    22  H    2.457162   0.000000
    23  C    4.900769   2.513605   0.000000
    24  H    5.994976   3.589523   1.096028   0.000000
    25  H    4.650903   2.314321   1.097948   1.772092   0.000000
    26  H    4.611789   2.241400   1.101100   1.794932   1.781409
    27  H    5.671124   4.282985   3.342057   3.664567   3.375086
    28  O    7.983886   6.175518   4.301646   3.921894   4.477795
    29  C    9.307260   7.375175   5.264200   4.643085   5.505978
    30  H    9.956043   8.146146   6.174001   5.619008   6.300984
    31  H    9.523107   7.424825   5.163803   4.385769   5.355757
    32  H    9.699291   7.770589   5.597793   4.940472   6.028904
                   26         27         28         29         30
    26  H    0.000000
    27  H    4.288033   0.000000
    28  O    5.348128   2.510927   0.000000
    29  C    6.262166   3.910581   1.405047   0.000000
    30  H    7.211028   4.400098   2.014664   1.098177   0.000000
    31  H    6.127911   4.455541   2.084692   1.101581   1.795198
    32  H    6.504149   4.381058   2.085492   1.102379   1.795068
                   31         32
    31  H    0.000000
    32  H    1.778425   0.000000
 Stoichiometry    C12H17NO2
 Framework group  C1[X(C12H17NO2)]
 Deg. of freedom    90
 Full point group                 C1      NOp   1
 Largest Abelian subgroup         C1      NOp   1
 Largest concise Abelian subgroup C1      NOp   1
                         Standard orientation:                         
 ---------------------------------------------------------------------
 Center     Atomic      Atomic             Coordinates (Angstroms)
 Number     Number       Type             X           Y           Z
 ---------------------------------------------------------------------
      1          6           0       -0.909190   -0.705531    0.186530
      2          6           0       -2.289430   -0.460481    0.151460
      3          8           0       -2.856800    0.640049    0.028830
      4          6           0        0.049850    0.412059    0.271130
      5          6           0       -0.801510    2.637519   -1.057130
      6          1           0       -0.190280    3.335749   -0.475800
      7          1           0       -0.913870    3.018549   -2.080760
      8          1           0       -1.783470    2.489099   -0.595600
      9          7           0       -0.141110    1.319629   -1.109430
     10          1           0       -0.703740    0.675579   -1.674490
     11          1           0        0.773210    1.396989   -1.562110
     12          6           0        1.494520   -0.073871    0.161540
     13          6           0        1.839110   -0.978631   -0.855370
     14          6           0        3.150351   -1.419221   -1.012720
     15          6           0        4.149140   -0.968030   -0.149480
     16          6           0        3.821340   -0.073040    0.865620
     17          6           0        2.507730    0.374089    1.016180
     18          1           0        1.058631   -1.353301   -1.522140
     19          1           0        3.391731   -2.126120   -1.809630
     20          1           0        5.177711   -1.315880   -0.266750
     21          1           0        4.592810    0.283680    1.551600
     22          1           0        2.281560    1.072819    1.821830
     23          6           0       -0.185030    1.368609    1.438880
     24          1           0       -1.243990    1.649359    1.471440
     25          1           0        0.045440    0.824219    2.364090
     26          1           0        0.436490    2.277079    1.410310
     27          1           0       -0.543519   -1.729191    0.237020
     28          8           0       -3.051049   -1.599481    0.222110
     29          6           0       -4.439889   -1.426271    0.098500
     30          1           0       -4.887569   -2.426301    0.172760
     31          1           0       -4.847520   -0.783061    0.894490
     32          1           0       -4.715030   -0.974411   -0.868640
 ---------------------------------------------------------------------
 Rotational constants (GHZ):           1.1152683           0.3327488           0.2966513
 Standard basis: def2SVP (5D, 7F)
 There are   310 symmetry adapted cartesian basis functions of A   symmetry.
 There are   295 symmetry adapted basis functions of A   symmetry.
   295 basis functions,   494 primitive gaussians,   310 cartesian basis functions
    56 alpha electrons       56 beta electrons
       nuclear repulsion energy      1010.4988765602 Hartrees.
 NAtoms=   32 NActive=   32 NUniq=   32 SFac= 1.00D+00 NAtFMM=   60 NAOKFM=F Big=F
 Integral buffers will be    131072 words long.
 Raffenetti 2 integral format.
 Two-electron integral symmetry is turned on.
 Nuclear repulsion after empirical dispersion term =     1010.4750891558 Hartrees.
 Force inversion solution in PCM.
 ------------------------------------------------------------------------------
 Polarizable Continuum Model (PCM)
 =================================
 Model                : PCM.
 Atomic radii         : UFF (Universal Force Field).
 Polarization charges : Total charges.
 Charge compensation  : None.
 Solution method      : Matrix inversion.
 Cavity type          : Scaled VdW (van der Waals Surface) (Alpha=1.100).
 Cavity algorithm     : GePol (No added spheres)
                        Default sphere list used, NSphG=   32.
                        Lebedev-Laikov grids with approx.  5.0 points / Ang**2.
                        Smoothing algorithm: York/Karplus (Gamma=1.0000).
                        Polarization charges: spherical gaussians, with
                                              point-specific exponents (IZeta= 3).
                        Self-potential: point-specific (ISelfS= 7).
                        Self-field    : sphere-specific E.n sum rule (ISelfD= 2).
 1st derivatives      : Analytical E(r).r(x)/FMM algorithm (CHGder, D1EAlg=3).
                        Cavity 1st derivative terms included.
 2nd derivatives      : Analytical E(r).r(xy)/FMM algorithm (CHGder, D2EAlg=3).
                        Cavity 2nd derivative terms included.
 Solvent              : Toluene, Eps=   2.374100 Eps(inf)=   2.238315
 ------------------------------------------------------------------------------
 One-electron integrals computed using PRISM.
   1 Symmetry operations used in ECPInt.
 ECPInt:  NShTT=   10011 NPrTT=   35491 LenC2=    9437 LenP2D=   24602.
 LDataN:  DoStor=T MaxTD1= 4 Len=   56
 NBasis=   295 RedAO= T EigKep=  2.79D-04  NBF=   295
 NBsUse=   295 1.00D-06 EigRej= -1.00D+00 NBFU=   295
 ExpMin= 1.22D-01 ExpMax= 2.27D+03 ExpMxC= 3.41D+02 IAcc=3 IRadAn=         5 AccDes= 0.00D+00
 Harris functional with IExCor= 4639 and IRadAn=       5 diagonalized for initial guess.
 HarFok:  IExCor= 4639 AccDes= 0.00D+00 IRadAn=         5 IDoV= 1 UseB2=F ITyADJ=14
 ICtDFT=  3500011 ScaDFX=  1.000000  1.000000  1.000000  1.000000
 FoFCou: FMM=F IPFlag=           0 FMFlag=      100000 FMFlg1=           0
         NFxFlg=           0 DoJE=T BraDBF=F KetDBF=T FulRan=T
         wScrn=  0.000000 ICntrl=       500 IOpCl=  0 I1Cent=   200000004 NGrid=           0
         NMat0=    1 NMatS0=      1 NMatT0=    0 NMatD0=    1 NMtDS0=    0 NMtDT0=    0
 Petite list used in FoFCou.
 Requested convergence on RMS density matrix=1.00D-08 within 128 cycles.
 Requested convergence on MAX density matrix=1.00D-06.
 Requested convergence on             energy=1.00D-06.
 No special actions if energy rises.
 Inv3:  Mode=1 IEnd=    14665563.
 Iteration    1 A*A^-1 deviation from unit magnitude is 3.11D-15 for   2037.
 Iteration    1 A*A^-1 deviation from orthogonality  is 2.12D-15 for   1346    379.
 Iteration    1 A^-1*A deviation from unit magnitude is 3.11D-15 for   2037.
 Iteration    1 A^-1*A deviation from orthogonality  is 4.93D-15 for   1598   1564.
 Error on total polarization charges =  0.00655
 SCF Done:  E(RwB97XD) =  -671.970647932     A.U. after   14 cycles
            NFock= 14  Conv=0.73D-08     -V/T= 2.0108
 DoSCS=F DFT=T ScalE2(SS,OS)=  1.000000  1.000000
 Range of M.O.s used for correlation:     1   295
 NBasis=   295 NAE=    56 NBE=    56 NFC=     0 NFV=     0
 NROrb=    295 NOA=    56 NOB=    56 NVA=   239 NVB=   239

 **** Warning!!: The largest alpha MO coefficient is  0.14177872D+02

   1 Symmetry operations used in ECPInt.
 ECPInt:  NShTT=   10011 NPrTT=   35491 LenC2=    9437 LenP2D=   24602.
 LDataN:  DoStor=T MaxTD1= 5 Len=  102
 Symmetrizing basis deriv contribution to polar:
 IMax=3 JMax=2 DiffMx= 0.00D+00
 G2DrvN: will do    33 centers at a time, making    1 passes.
 Calling FoFCou, ICntrl=  3107 FMM=F I1Cent=   0 AccDes= 0.00D+00.
 NEqPCM:  Using equilibrium solvation (IEInf=0, Eps=   2.3741, EpsInf=   2.2383)
 G2PCM: DoFxE=T DoFxN=T DoGrad=T DoDP/DQ/DG/TGxP=FFFF NFrqRd=   0 IEInf=0 SqF1=F DoCFld=F IF1Alg=4.
 End of G2Drv F.D. properties file   721 does not exist.
 End of G2Drv F.D. properties file   722 does not exist.
 End of G2Drv F.D. properties file   788 does not exist.
          IDoAtm=11111111111111111111111111111111
 NEqPCM:  Using equilibrium solvation (IEInf=0, Eps=   2.3741, EpsInf=   2.2383)
          Differentiating once with respect to electric field.
                with respect to dipole field.
          Differentiating once with respect to nuclear coordinates.
 Keep R1 ints in memory in canonical form, NReq=1934262512.
          There are    99 degrees of freedom in the 1st order CPHF.  IDoFFX=6 NUNeed=     3.
     96 vectors produced by pass  0 Test12= 1.35D-14 1.01D-09 XBig12= 8.30D+01 3.09D+00.
 AX will form    96 AO Fock derivatives at one time.
     96 vectors produced by pass  1 Test12= 1.35D-14 1.01D-09 XBig12= 6.23D+00 3.93D-01.
     96 vectors produced by pass  2 Test12= 1.35D-14 1.01D-09 XBig12= 1.08D-01 8.09D-02.
     96 vectors produced by pass  3 Test12= 1.35D-14 1.01D-09 XBig12= 1.34D-03 5.93D-03.
     96 vectors produced by pass  4 Test12= 1.35D-14 1.01D-09 XBig12= 9.84D-06 3.79D-04.
     96 vectors produced by pass  5 Test12= 1.35D-14 1.01D-09 XBig12= 5.13D-08 1.95D-05.
     86 vectors produced by pass  6 Test12= 1.35D-14 1.01D-09 XBig12= 2.63D-10 1.40D-06.
     21 vectors produced by pass  7 Test12= 1.35D-14 1.01D-09 XBig12= 1.13D-12 7.81D-08.
      3 vectors produced by pass  8 Test12= 1.35D-14 1.01D-09 XBig12= 4.53D-15 5.84D-09.
 InvSVY:  IOpt=1 It=  1 EMax= 2.58D-15
 Solved reduced A of dimension   686 with    99 vectors.
 Isotropic polarizability for W=    0.000000      162.81 Bohr**3.
 End of Minotr F.D. properties file   721 does not exist.
 End of Minotr F.D. properties file   722 does not exist.
 End of Minotr F.D. properties file   788 does not exist.

 **********************************************************************

            Population analysis using the SCF Density.

 **********************************************************************

 Orbital symmetries:
       Occupied  (A) (A) (A) (A) (A) (A) (A) (A) (A) (A) (A) (A)
                 (A) (A) (A) (A) (A) (A) (A) (A) (A) (A) (A) (A)
                 (A) (A) (A) (A) (A) (A) (A) (A) (A) (A) (A) (A)
                 (A) (A) (A) (A) (A) (A) (A) (A) (A) (A) (A) (A)
                 (A) (A) (A) (A) (A) (A) (A) (A)
       Virtual   (A) (A) (A) (A) (A) (A) (A) (A) (A) (A) (A) (A)
                 (A) (A) (A) (A) (A) (A) (A) (A) (A) (A) (A) (A)
                 (A) (A) (A) (A) (A) (A) (A) (A) (A) (A) (A) (A)
                 (A) (A) (A) (A) (A) (A) (A) (A) (A) (A) (A) (A)
                 (A) (A) (A) (A) (A) (A) (A) (A) (A) (A) (A) (A)
                 (A) (A) (A) (A) (A) (A) (A) (A) (A) (A) (A) (A)
                 (A) (A) (A) (A) (A) (A) (A) (A) (A) (A) (A) (A)
                 (A) (A) (A) (A) (A) (A) (A) (A) (A) (A) (A) (A)
                 (A) (A) (A) (A) (A) (A) (A) (A) (A) (A) (A) (A)
                 (A) (A) (A) (A) (A) (A) (A) (A) (A) (A) (A) (A)
                 (A) (A) (A) (A) (A) (A) (A) (A) (A) (A) (A) (A)
                 (A) (A) (A) (A) (A) (A) (A) (A) (A) (A) (A) (A)
                 (A) (A) (A) (A) (A) (A) (A) (A) (A) (A) (A) (A)
                 (A) (A) (A) (A) (A) (A) (A) (A) (A) (A) (A) (A)
                 (A) (A) (A) (A) (A) (A) (A) (A) (A) (A) (A) (A)
                 (A) (A) (A) (A) (A) (A) (A) (A) (A) (A) (A) (A)
                 (A) (A) (A) (A) (A) (A) (A) (A) (A) (A) (A) (A)
                 (A) (A) (A) (A) (A) (A) (A) (A) (A) (A) (A) (A)
                 (A) (A) (A) (A) (A) (A) (A) (A) (A) (A) (A) (A)
                 (A) (A) (A) (A) (A) (A) (A) (A) (A) (A) (A)
 The electronic state is 1-A.
 Alpha  occ. eigenvalues --  -19.24621 -19.17821 -14.54335 -10.36532 -10.36363
 Alpha  occ. eigenvalues --  -10.34730 -10.32112 -10.31934 -10.31140 -10.31126
 Alpha  occ. eigenvalues --  -10.31095 -10.31049 -10.31005 -10.28936 -10.22717
 Alpha  occ. eigenvalues --   -1.13994  -1.07628  -1.03757  -0.96408  -0.89827
 Alpha  occ. eigenvalues --   -0.84787  -0.83123  -0.80997  -0.79896  -0.75076
 Alpha  occ. eigenvalues --   -0.71462  -0.69854  -0.66553  -0.65819  -0.62396
 Alpha  occ. eigenvalues --   -0.60918  -0.58526  -0.57616  -0.55609  -0.54046
 Alpha  occ. eigenvalues --   -0.53588  -0.52957  -0.52139  -0.51675  -0.50916
 Alpha  occ. eigenvalues --   -0.49318  -0.48658  -0.46590  -0.46313  -0.46076
 Alpha  occ. eigenvalues --   -0.45526  -0.44040  -0.43311  -0.42337  -0.41807
 Alpha  occ. eigenvalues --   -0.39540  -0.34172  -0.34021  -0.33903  -0.30970
 Alpha  occ. eigenvalues --   -0.23595
 Alpha virt. eigenvalues --    0.04212   0.05020   0.11321   0.13414   0.14063
 Alpha virt. eigenvalues --    0.15162   0.16707   0.18041   0.18346   0.18437
 Alpha virt. eigenvalues --    0.19102   0.20533   0.21305   0.21872   0.22311
 Alpha virt. eigenvalues --    0.23271   0.23554   0.23787   0.24239   0.24664
 Alpha virt. eigenvalues --    0.25277   0.25613   0.27287   0.28473   0.30905
 Alpha virt. eigenvalues --    0.32671   0.35833   0.36515   0.36774   0.38715
 Alpha virt. eigenvalues --    0.39372   0.40551   0.42621   0.45103   0.45951
 Alpha virt. eigenvalues --    0.46306   0.48352   0.48750   0.50165   0.51843
 Alpha virt. eigenvalues --    0.52870   0.54650   0.55387   0.55925   0.56237
 Alpha virt. eigenvalues --    0.56777   0.57679   0.59203   0.60330   0.60558
 Alpha virt. eigenvalues --    0.62015   0.62723   0.64715   0.65042   0.66335
 Alpha virt. eigenvalues --    0.67605   0.69090   0.70172   0.71592   0.71771
 Alpha virt. eigenvalues --    0.72645   0.73054   0.73399   0.73703   0.74081
 Alpha virt. eigenvalues --    0.74717   0.75042   0.75673   0.75982   0.76202
 Alpha virt. eigenvalues --    0.76891   0.77493   0.77858   0.79161   0.79440
 Alpha virt. eigenvalues --    0.79612   0.80080   0.81710   0.82315   0.82836
 Alpha virt. eigenvalues --    0.83316   0.84170   0.85559   0.86693   0.87090
 Alpha virt. eigenvalues --    0.88661   0.90184   0.90794   0.91838   0.94248
 Alpha virt. eigenvalues --    0.96162   0.97003   1.02455   1.02925   1.04205
 Alpha virt. eigenvalues --    1.05938   1.10132   1.13334   1.14984   1.16667
 Alpha virt. eigenvalues --    1.18072   1.20152   1.21418   1.23530   1.27627
 Alpha virt. eigenvalues --    1.28819   1.30565   1.32048   1.32675   1.33405
 Alpha virt. eigenvalues --    1.35602   1.37006   1.37813   1.38447   1.39787
 Alpha virt. eigenvalues --    1.40969   1.43065   1.48323   1.50283   1.51391
 Alpha virt. eigenvalues --    1.53211   1.55309   1.57687   1.59921   1.61172
 Alpha virt. eigenvalues --    1.62877   1.63640   1.64137   1.68603   1.70844
 Alpha virt. eigenvalues --    1.72902   1.74535   1.76807   1.77556   1.78517
 Alpha virt. eigenvalues --    1.80174   1.80580   1.80979   1.82437   1.83382
 Alpha virt. eigenvalues --    1.83695   1.84282   1.84818   1.85229   1.86070
 Alpha virt. eigenvalues --    1.87639   1.88725   1.90314   1.90854   1.91739
 Alpha virt. eigenvalues --    1.93378   1.94378   1.95446   1.95715   1.98163
 Alpha virt. eigenvalues --    1.98678   1.98988   1.99544   2.00561   2.02192
 Alpha virt. eigenvalues --    2.03198   2.04934   2.05894   2.07368   2.08087
 Alpha virt. eigenvalues --    2.08720   2.09639   2.11903   2.12654   2.13010
 Alpha virt. eigenvalues --    2.15948   2.16474   2.19007   2.20270   2.21270
 Alpha virt. eigenvalues --    2.23362   2.24041   2.25513   2.28892   2.32137
 Alpha virt. eigenvalues --    2.35354   2.35461   2.37597   2.38758   2.39491
 Alpha virt. eigenvalues --    2.40508   2.41330   2.43101   2.43679   2.45024
 Alpha virt. eigenvalues --    2.46119   2.48520   2.50289   2.50529   2.52534
 Alpha virt. eigenvalues --    2.56573   2.59019   2.61862   2.62665   2.67332
 Alpha virt. eigenvalues --    2.70935   2.71547   2.73053   2.73981   2.76630
 Alpha virt. eigenvalues --    2.77527   2.78871   2.80003   2.81066   2.81840
 Alpha virt. eigenvalues --    2.82466   2.83815   2.87099   2.89980   2.91666
 Alpha virt. eigenvalues --    2.93261   2.96239   2.97176   2.99616   3.02715
 Alpha virt. eigenvalues --    3.03819   3.04189   3.05971   3.08710   3.09984
 Alpha virt. eigenvalues --    3.12354   3.13225   3.16289   3.20928   3.24446
 Alpha virt. eigenvalues --    3.28876   3.31408   3.32511   3.34469   3.47556
 Alpha virt. eigenvalues --    3.58545   3.71238   3.74153   3.82654
          Condensed to atoms (all electrons):
               1          2          3          4          5          6
     1  C    5.738105   0.352988  -0.141290   0.255414   0.002725  -0.000578
     2  C    0.352988   4.449353   0.636640  -0.016508  -0.000908   0.000199
     3  O   -0.141290   0.636640   7.928188   0.016851  -0.017129   0.000478
     4  C    0.255414  -0.016508   0.016851   5.474405  -0.031412  -0.012681
     5  C    0.002725  -0.000908  -0.017129  -0.031412   4.540181   0.395592
     6  H   -0.000578   0.000199   0.000478  -0.012681   0.395592   0.592379
     7  H   -0.000490   0.000014   0.000255   0.005240   0.397470  -0.021129
     8  H   -0.002443   0.000397   0.041299  -0.003706   0.385453  -0.012187
     9  N   -0.092106  -0.004904   0.001555   0.095377   0.303742  -0.015111
    10  H    0.001667   0.006778   0.002440   0.012837  -0.014502   0.005528
    11  H    0.006530  -0.000331  -0.000008  -0.004782  -0.015639  -0.006060
    12  C   -0.051491   0.010352   0.000818   0.166165   0.004263   0.000661
    13  C   -0.014892   0.000362  -0.000004  -0.097465   0.000064   0.000154
    14  C    0.000757  -0.000005  -0.000000   0.013083   0.000009  -0.000001
    15  C    0.000004   0.000000  -0.000000  -0.001744  -0.000001  -0.000000
    16  C   -0.000469   0.000007  -0.000000   0.021151  -0.000001  -0.000005
    17  C    0.007217  -0.000553  -0.000003  -0.089718   0.000139  -0.000151
    18  H    0.018653  -0.000762  -0.000036  -0.014645   0.000026  -0.000023
    19  H   -0.000018  -0.000001   0.000000  -0.000297  -0.000000  -0.000000
    20  H    0.000001   0.000000   0.000000   0.000020   0.000000   0.000000
    21  H    0.000005  -0.000000   0.000000  -0.000276  -0.000000  -0.000000
    22  H    0.000442  -0.000025   0.000004  -0.034898  -0.000089  -0.000080
    23  C   -0.043451  -0.016346  -0.016171   0.402145   0.020657   0.007122
    24  H   -0.024618   0.003024   0.024916   0.007938   0.004760  -0.002372
    25  H   -0.000229  -0.001285   0.000018  -0.009024  -0.000055   0.000110
    26  H    0.009573   0.000999   0.000052   0.004267  -0.002094   0.001062
    27  H    0.404036  -0.010857   0.004199  -0.062926  -0.000052   0.000004
    28  O   -0.131486   0.364728  -0.083526   0.005267  -0.000041   0.000001
    29  C    0.010640  -0.039268   0.001375  -0.000480   0.000006   0.000000
    30  H    0.000165   0.005688   0.001056   0.000001  -0.000000  -0.000000
    31  H    0.000779  -0.005484   0.009389   0.000055   0.000004  -0.000000
    32  H    0.001088  -0.003952   0.008333   0.000047  -0.000005  -0.000000
               7          8          9         10         11         12
     1  C   -0.000490  -0.002443  -0.092106   0.001667   0.006530  -0.051491
     2  C    0.000014   0.000397  -0.004904   0.006778  -0.000331   0.010352
     3  O    0.000255   0.041299   0.001555   0.002440  -0.000008   0.000818
     4  C    0.005240  -0.003706   0.095377   0.012837  -0.004782   0.166165
     5  C    0.397470   0.385453   0.303742  -0.014502  -0.015639   0.004263
     6  H   -0.021129  -0.012187  -0.015111   0.005528  -0.006060   0.000661
     7  H    0.588704  -0.014130  -0.016519  -0.006378  -0.005450  -0.000278
     8  H   -0.014130   0.520916  -0.016647  -0.004431   0.005268   0.000369
     9  N   -0.016519  -0.016647   6.306270   0.320779   0.332742  -0.025179
    10  H   -0.006378  -0.004431   0.320779   0.491691  -0.007054  -0.008732
    11  H   -0.005450   0.005268   0.332742  -0.007054   0.509029  -0.008659
    12  C   -0.000278   0.000369  -0.025179  -0.008732  -0.008659   5.496724
    13  C   -0.000073  -0.000020  -0.010233   0.005240   0.005568   0.273912
    14  C   -0.000001  -0.000001  -0.000343   0.000123  -0.000338   0.071190
    15  C    0.000000   0.000000   0.000046   0.000008  -0.000030  -0.142769
    16  C    0.000000  -0.000001  -0.000177   0.000003  -0.000306   0.065551
    17  C   -0.000005  -0.000017  -0.000185  -0.000370   0.002138   0.344466
    18  H   -0.000012   0.000008  -0.003162   0.002183   0.001868  -0.080221
    19  H    0.000000   0.000000   0.000003  -0.000006   0.000013   0.014306
    20  H   -0.000000   0.000000  -0.000000   0.000000  -0.000003  -0.001482
    21  H    0.000000   0.000000   0.000002  -0.000000   0.000002   0.014434
    22  H    0.000000   0.000011   0.000377  -0.000021   0.000106  -0.050056
    23  C   -0.000267  -0.001559  -0.060137   0.006035   0.002688  -0.069460
    24  H    0.000183  -0.001096  -0.010356   0.000259  -0.000160   0.007030
    25  H   -0.000017   0.000088   0.005998  -0.000250  -0.000241  -0.008942
    26  H    0.000314  -0.000663  -0.002467  -0.000740   0.000621  -0.016191
    27  H    0.000011  -0.000131   0.003454   0.000461  -0.000100  -0.004256
    28  O    0.000001   0.000299   0.000052  -0.000509   0.000003  -0.000017
    29  C    0.000000  -0.000037   0.000012  -0.000041  -0.000001   0.000005
    30  H   -0.000000   0.000001   0.000000  -0.000002   0.000000  -0.000001
    31  H    0.000000  -0.000046   0.000004  -0.000032  -0.000000   0.000001
    32  H   -0.000002   0.000043  -0.000027   0.000167   0.000001  -0.000004
              13         14         15         16         17         18
     1  C   -0.014892   0.000757   0.000004  -0.000469   0.007217   0.018653
     2  C    0.000362  -0.000005   0.000000   0.000007  -0.000553  -0.000762
     3  O   -0.000004  -0.000000  -0.000000  -0.000000  -0.000003  -0.000036
     4  C   -0.097465   0.013083  -0.001744   0.021151  -0.089718  -0.014645
     5  C    0.000064   0.000009  -0.000001  -0.000001   0.000139   0.000026
     6  H    0.000154  -0.000001  -0.000000  -0.000005  -0.000151  -0.000023
     7  H   -0.000073  -0.000001   0.000000   0.000000  -0.000005  -0.000012
     8  H   -0.000020  -0.000001   0.000000  -0.000001  -0.000017   0.000008
     9  N   -0.010233  -0.000343   0.000046  -0.000177  -0.000185  -0.003162
    10  H    0.005240   0.000123   0.000008   0.000003  -0.000370   0.002183
    11  H    0.005568  -0.000338  -0.000030  -0.000306   0.002138   0.001868
    12  C    0.273912   0.071190  -0.142769   0.065551   0.344466  -0.080221
    13  C    5.177308   0.323133   0.073158  -0.131975   0.031709   0.453623
    14  C    0.323133   5.021755   0.296288   0.075206  -0.122570  -0.055166
    15  C    0.073158   0.296288   5.076898   0.305240   0.068689   0.013102
    16  C   -0.131975   0.075206   0.305240   5.061489   0.301163  -0.002029
    17  C    0.031709  -0.122570   0.068689   0.301163   5.068353   0.012880
    18  H    0.453623  -0.055166   0.013102  -0.002029   0.012880   0.643065
    19  H   -0.063371   0.449284  -0.067073   0.012344  -0.001627  -0.011541
    20  H    0.012520  -0.064074   0.447531  -0.062608   0.012556  -0.000187
    21  H   -0.001599   0.012221  -0.067269   0.445040  -0.058967   0.000021
    22  H    0.013412  -0.001868   0.013116  -0.067820   0.448237  -0.000137
    23  C    0.014782  -0.000475   0.000143  -0.000907   0.009332   0.000964
    24  H   -0.000096   0.000006   0.000003  -0.000045   0.000707   0.000051
    25  H   -0.000133   0.000024  -0.000048   0.000671   0.000075  -0.000029
    26  H   -0.001273  -0.000002  -0.000050   0.000934   0.004108  -0.000094
    27  H   -0.003706   0.000733  -0.000098   0.000005   0.000463   0.000715
    28  O   -0.000021  -0.000000  -0.000000   0.000000   0.000000  -0.000018
    29  C    0.000000   0.000000  -0.000000   0.000000  -0.000000  -0.000005
    30  H    0.000000  -0.000000   0.000000  -0.000000   0.000000   0.000000
    31  H   -0.000000  -0.000000  -0.000000  -0.000000   0.000000  -0.000000
    32  H    0.000001   0.000000  -0.000000   0.000000  -0.000000   0.000000
              19         20         21         22         23         24
     1  C   -0.000018   0.000001   0.000005   0.000442  -0.043451  -0.024618
     2  C   -0.000001   0.000000  -0.000000  -0.000025  -0.016346   0.003024
     3  O    0.000000   0.000000   0.000000   0.000004  -0.016171   0.024916
     4  C   -0.000297   0.000020  -0.000276  -0.034898   0.402145   0.007938
     5  C   -0.000000   0.000000  -0.000000  -0.000089   0.020657   0.004760
     6  H   -0.000000   0.000000  -0.000000  -0.000080   0.007122  -0.002372
     7  H    0.000000  -0.000000   0.000000   0.000000  -0.000267   0.000183
     8  H    0.000000   0.000000   0.000000   0.000011  -0.001559  -0.001096
     9  N    0.000003  -0.000000   0.000002   0.000377  -0.060137  -0.010356
    10  H   -0.000006   0.000000  -0.000000  -0.000021   0.006035   0.000259
    11  H    0.000013  -0.000003   0.000002   0.000106   0.002688  -0.000160
    12  C    0.014306  -0.001482   0.014434  -0.050056  -0.069460   0.007030
    13  C   -0.063371   0.012520  -0.001599   0.013412   0.014782  -0.000096
    14  C    0.449284  -0.064074   0.012221  -0.001868  -0.000475   0.000006
    15  C   -0.067073   0.447531  -0.067269   0.013116   0.000143   0.000003
    16  C    0.012344  -0.062608   0.445040  -0.067820  -0.000907  -0.000045
    17  C   -0.001627   0.012556  -0.058967   0.448237   0.009332   0.000707
    18  H   -0.011541  -0.000187   0.000021  -0.000137   0.000964   0.000051
    19  H    0.647171  -0.010562  -0.000208   0.000023   0.000004  -0.000000
    20  H   -0.010562   0.644719  -0.010587  -0.000202   0.000000   0.000000
    21  H   -0.000208  -0.010587   0.649008  -0.011790  -0.000002  -0.000000
    22  H    0.000023  -0.000202  -0.011790   0.653590   0.019736   0.000023
    23  C    0.000004   0.000000  -0.000002   0.019736   4.543032   0.373661
    24  H   -0.000000   0.000000  -0.000000   0.000023   0.373661   0.594140
    25  H    0.000000  -0.000000   0.000011   0.000632   0.388107  -0.012008
    26  H    0.000000  -0.000000   0.000019  -0.001145   0.355335  -0.027058
    27  H    0.000040  -0.000001   0.000000   0.000011   0.002021   0.000048
    28  O    0.000000  -0.000000   0.000000   0.000000  -0.000166   0.000068
    29  C   -0.000000   0.000000  -0.000000  -0.000000   0.000009  -0.000067
    30  H   -0.000000  -0.000000   0.000000  -0.000000   0.000002  -0.000003
    31  H    0.000000  -0.000000  -0.000000  -0.000000  -0.000037   0.000159
    32  H   -0.000000  -0.000000   0.000000  -0.000000   0.000014  -0.000049
              25         26         27         28         29         30
     1  C   -0.000229   0.009573   0.404036  -0.131486   0.010640   0.000165
     2  C   -0.001285   0.000999  -0.010857   0.364728  -0.039268   0.005688
     3  O    0.000018   0.000052   0.004199  -0.083526   0.001375   0.001056
     4  C   -0.009024   0.004267  -0.062926   0.005267  -0.000480   0.000001
     5  C   -0.000055  -0.002094  -0.000052  -0.000041   0.000006  -0.000000
     6  H    0.000110   0.001062   0.000004   0.000001   0.000000  -0.000000
     7  H   -0.000017   0.000314   0.000011   0.000001   0.000000  -0.000000
     8  H    0.000088  -0.000663  -0.000131   0.000299  -0.000037   0.000001
     9  N    0.005998  -0.002467   0.003454   0.000052   0.000012   0.000000
    10  H   -0.000250  -0.000740   0.000461  -0.000509  -0.000041  -0.000002
    11  H   -0.000241   0.000621  -0.000100   0.000003  -0.000001   0.000000
    12  C   -0.008942  -0.016191  -0.004256  -0.000017   0.000005  -0.000001
    13  C   -0.000133  -0.001273  -0.003706  -0.000021   0.000000   0.000000
    14  C    0.000024  -0.000002   0.000733  -0.000000   0.000000  -0.000000
    15  C   -0.000048  -0.000050  -0.000098  -0.000000  -0.000000   0.000000
    16  C    0.000671   0.000934   0.000005   0.000000   0.000000  -0.000000
    17  C    0.000075   0.004108   0.000463   0.000000  -0.000000   0.000000
    18  H   -0.000029  -0.000094   0.000715  -0.000018  -0.000005   0.000000
    19  H    0.000000   0.000000   0.000040   0.000000  -0.000000  -0.000000
    20  H   -0.000000  -0.000000  -0.000001  -0.000000   0.000000  -0.000000
    21  H    0.000011   0.000019   0.000000   0.000000  -0.000000   0.000000
    22  H    0.000632  -0.001145   0.000011   0.000000  -0.000000  -0.000000
    23  C    0.388107   0.355335   0.002021  -0.000166   0.000009   0.000002
    24  H   -0.012008  -0.027058   0.000048   0.000068  -0.000067  -0.000003
    25  H    0.604331  -0.024928   0.000784  -0.000010  -0.000001  -0.000000
    26  H   -0.024928   0.682685  -0.000158  -0.000000   0.000000   0.000000
    27  H    0.000784  -0.000158   0.658654   0.006003  -0.000183  -0.000177
    28  O   -0.000010  -0.000000   0.006003   8.011958   0.289109  -0.025949
    29  C   -0.000001   0.000000  -0.000183   0.289109   4.392629   0.395433
    30  H   -0.000000   0.000000  -0.000177  -0.025949   0.395433   0.645781
    31  H    0.000001   0.000001   0.000027  -0.030502   0.401684  -0.027323
    32  H   -0.000000  -0.000001   0.000032  -0.031989   0.397284  -0.027669
              31         32
     1  C    0.000779   0.001088
     2  C   -0.005484  -0.003952
     3  O    0.009389   0.008333
     4  C    0.000055   0.000047
     5  C    0.000004  -0.000005
     6  H   -0.000000  -0.000000
     7  H    0.000000  -0.000002
     8  H   -0.000046   0.000043
     9  N    0.000004  -0.000027
    10  H   -0.000032   0.000167
    11  H   -0.000000   0.000001
    12  C    0.000001  -0.000004
    13  C   -0.000000   0.000001
    14  C   -0.000000   0.000000
    15  C   -0.000000  -0.000000
    16  C   -0.000000   0.000000
    17  C    0.000000  -0.000000
    18  H   -0.000000   0.000000
    19  H    0.000000  -0.000000
    20  H   -0.000000  -0.000000
    21  H   -0.000000   0.000000
    22  H   -0.000000  -0.000000
    23  C   -0.000037   0.000014
    24  H    0.000159  -0.000049
    25  H    0.000001  -0.000000
    26  H    0.000001  -0.000001
    27  H    0.000027   0.000032
    28  O   -0.030502  -0.031989
    29  C    0.401684   0.397284
    30  H   -0.027323  -0.027669
    31  H    0.663676  -0.038577
    32  H   -0.038577   0.676420
 Mulliken charges:
               1
     1  C   -0.307229
     2  C    0.269660
     3  O   -0.419699
     4  C   -0.099700
     5  C    0.026837
     6  H    0.067089
     7  H    0.072558
     8  H    0.102962
     9  N   -0.112861
    10  H    0.186867
    11  H    0.182584
    12  C   -0.002511
    13  C   -0.060085
    14  C   -0.018967
    15  C   -0.015145
    16  C   -0.022461
    17  C   -0.038063
    18  H    0.020909
    19  H    0.031516
    20  H    0.032361
    21  H    0.029937
    22  H    0.018413
    23  C    0.063189
    24  H    0.060952
    25  H    0.056350
    26  H    0.016894
    27  H    0.000942
    28  O   -0.373254
    29  C    0.151896
    30  H    0.032996
    31  H    0.026220
    32  H    0.018845
 Sum of Mulliken charges =  -0.00000
 Mulliken charges with hydrogens summed into heavy atoms:
               1
     1  C   -0.306286
     2  C    0.269660
     3  O   -0.419699
     4  C   -0.099700
     5  C    0.269446
     9  N    0.256589
    12  C   -0.002511
    13  C   -0.039176
    14  C    0.012549
    15  C    0.017216
    16  C    0.007476
    17  C   -0.019649
    23  C    0.197384
    28  O   -0.373254
    29  C    0.229956
 APT charges:
               1
     1  C   -1.046833
     2  C    1.704833
     3  O   -1.057994
     4  C    0.958533
     5  C    0.154774
     6  H    0.030747
     7  H    0.007552
     8  H    0.131173
     9  N   -0.592331
    10  H    0.221632
    11  H    0.208941
    12  C   -0.002989
    13  C   -0.106205
    14  C   -0.021504
    15  C   -0.049848
    16  C   -0.023061
    17  C   -0.083927
    18  H    0.074743
    19  H    0.035285
    20  H    0.038189
    21  H    0.033553
    22  H    0.065542
    23  C   -0.117758
    24  H    0.065870
    25  H    0.028659
    26  H   -0.028287
    27  H    0.042493
    28  O   -1.156318
    29  C    0.634893
    30  H   -0.037945
    31  H   -0.051390
    32  H   -0.061022
 Sum of APT charges =  -0.00000
 APT charges with hydrogens summed into heavy atoms:
               1
     1  C   -1.004340
     2  C    1.704833
     3  O   -1.057994
     4  C    0.958533
     5  C    0.324246
     9  N   -0.161758
    12  C   -0.002989
    13  C   -0.031462
    14  C    0.013781
    15  C   -0.011659
    16  C    0.010493
    17  C   -0.018385
    23  C   -0.051516
    28  O   -1.156318
    29  C    0.484536
 Electronic spatial extent (au):  <R**2>=           3887.8566
 Charge=             -0.0000 electrons
 Dipole moment (field-independent basis, Debye):
    X=              5.2347    Y=              4.0256    Z=             -3.3728  Tot=              7.4151
 Quadrupole moment (field-independent basis, Debye-Ang):
   XX=            -92.4997   YY=            -85.3925   ZZ=            -82.7110
   XY=              0.2289   XZ=              2.1489   YZ=             -1.0251
 Traceless Quadrupole moment (field-independent basis, Debye-Ang):
   XX=             -5.6320   YY=              1.4753   ZZ=              4.1567
   XY=              0.2289   XZ=              2.1489   YZ=             -1.0251
 Octapole moment (field-independent basis, Debye-Ang**2):
  XXX=             15.3056  YYY=             30.7318  ZZZ=            -14.9349  XYY=             -3.6783
  XXY=            -24.9984  XXZ=              2.0817  XZZ=             -6.1997  YZZ=             11.7464
  YYZ=            -16.7774  XYZ=             10.1318
 Hexadecapole moment (field-independent basis, Debye-Ang**3):
 XXXX=          -3435.0945 YYYY=           -913.3905 ZZZZ=           -450.4705 XXXY=             50.3078
 XXXZ=             24.7958 YYYX=             -2.7299 YYYZ=            -21.6993 ZZZX=              7.9232
 ZZZY=            -13.7738 XXYY=           -775.8042 XXZZ=           -683.5566 YYZZ=           -219.4837
 XXYZ=             29.7440 YYXZ=             -8.2222 ZZXY=             -1.2279
 N-N= 1.010475089156D+03 E-N=-3.583081953233D+03  KE= 6.648222441367D+02
  Exact polarizability:     214.984      -5.103     142.536       4.729      16.508     130.923
 Approx polarizability:     183.485      -7.306     145.875       5.591      18.324     138.914
   1 Symmetry operations used in ECPInt.
 ECPInt:  NShTT=   10011 NPrTT=   35491 LenC2=    9437 LenP2D=   24602.
 LDataN:  DoStor=T MaxTD1= 6 Len=  172
 D2PCM: PCM CHGder 2nd derivatives, FixD1E=F FixD2E=F DoIter=F DoCFld=F I1PDM=0
 Calling FoFJK, ICntrl=    100127 FMM=F ISym2X=0 I1Cent= 0 IOpClX= 0 NMat=1 NMatS=1 NMatT=0.
 Full mass-weighted force constant matrix:
 Low frequencies ---  -75.5722   -6.2738   -0.0009    0.0006    0.0006    7.4043
 Low frequencies ---   12.3357   49.6411   73.4062
 ******    1 imaginary frequencies (negative Signs) ****** 
 Diagonal vibrational polarizability:
       90.4611878      54.0607037      64.5583895
 Harmonic frequencies (cm**-1), IR intensities (KM/Mole), Raman scattering
 activities (A**4/AMU), depolarization ratios for plane and unpolarized
 incident light, reduced masses (AMU), force constants (mDyne/A),
 and normal coordinates:
                      1                      2                      3
                      A                      A                      A
 Frequencies --    -75.5365                49.5086                73.3656
 Red. masses --      2.8107                 3.8062                 3.0785
 Frc consts  --      0.0094                 0.0055                 0.0098
 IR Inten    --      2.1171                 0.5049                 5.3572
  Atom  AN      X      Y      Z        X      Y      Z        X      Y      Z
     1   6    -0.01   0.06  -0.08    -0.02  -0.01   0.01    -0.02  -0.04  -0.16
     2   6    -0.03   0.04   0.03    -0.02   0.01   0.01    -0.02  -0.01  -0.09
     3   8    -0.09   0.02   0.20    -0.02   0.02   0.07     0.00   0.00  -0.05
     4   6     0.01   0.00  -0.01     0.00  -0.03   0.05    -0.01  -0.05  -0.06
     5   6    -0.13  -0.05  -0.09    -0.00  -0.02   0.07     0.07   0.03   0.05
     6   1    -0.37   0.04   0.05    -0.04  -0.01   0.10     0.08  -0.02   0.10
     7   1    -0.05  -0.01  -0.09     0.01   0.01   0.07     0.10   0.09   0.07
     8   1    -0.17  -0.28  -0.24    -0.01  -0.06   0.04     0.06   0.03   0.02
     9   7     0.16   0.09  -0.05     0.04   0.01   0.06     0.04   0.02  -0.01
    10   1     0.42   0.00  -0.21     0.09   0.00   0.01     0.04   0.06  -0.05
    11   1     0.24   0.32   0.16     0.06   0.05   0.10     0.05   0.02   0.01
    12   6     0.00  -0.03   0.01     0.00  -0.04   0.03    -0.00  -0.03  -0.02
    13   6     0.02  -0.01  -0.00    -0.04  -0.17   0.14     0.05  -0.04   0.01
    14   6     0.02  -0.01   0.01    -0.03  -0.14   0.10     0.07   0.00   0.04
    15   6     0.01  -0.02   0.02     0.02   0.04  -0.05     0.04   0.06   0.04
    16   6    -0.00  -0.04   0.03     0.06   0.19  -0.17    -0.01   0.08   0.01
    17   6    -0.00  -0.04   0.02     0.05   0.14  -0.12    -0.03   0.03  -0.02
    18   1     0.03   0.01  -0.03    -0.07  -0.29   0.24     0.07  -0.08   0.00
    19   1     0.03   0.00  -0.00    -0.06  -0.25   0.19     0.11  -0.01   0.06
    20   1     0.01  -0.02   0.03     0.03   0.07  -0.09     0.06   0.10   0.06
    21   1    -0.01  -0.05   0.05     0.10   0.33  -0.29    -0.03   0.13   0.02
    22   1    -0.01  -0.05   0.03     0.09   0.25  -0.21    -0.06   0.04  -0.04
    23   6     0.01   0.02  -0.04     0.01  -0.05   0.06    -0.06  -0.13  -0.01
    24   1     0.02   0.05  -0.06     0.00  -0.07   0.09    -0.07  -0.14  -0.02
    25   1    -0.01   0.04  -0.02     0.05  -0.06   0.05    -0.08  -0.18  -0.04
    26   1     0.03   0.01  -0.05    -0.02  -0.04   0.06    -0.08  -0.11   0.07
    27   1    -0.03   0.04  -0.26    -0.05  -0.02  -0.04    -0.04  -0.05  -0.13
    28   8     0.02  -0.00  -0.06    -0.03   0.01  -0.09    -0.04   0.01  -0.05
    29   6     0.01  -0.04   0.02    -0.02   0.02  -0.14    -0.07   0.07   0.26
    30   1     0.05  -0.07  -0.04    -0.03   0.02  -0.20    -0.08   0.07   0.16
    31   1     0.03  -0.13   0.10    -0.05  -0.00  -0.14     0.11  -0.08   0.47
    32   1    -0.06   0.04   0.08     0.02   0.06  -0.14    -0.25   0.26   0.41
                      4                      5                      6
                      A                      A                      A
 Frequencies --     84.7239               102.2916               118.4576
 Red. masses --      4.4210                 1.8650                 2.1233
 Frc consts  --      0.0187                 0.0115                 0.0176
 IR Inten    --      5.2514                 7.5695                 4.0837
  Atom  AN      X      Y      Z        X      Y      Z        X      Y      Z
     1   6    -0.04  -0.08   0.08     0.02  -0.01   0.05     0.00  -0.02  -0.09
     2   6    -0.04  -0.01   0.08     0.02  -0.01   0.03    -0.00  -0.01   0.04
     3   8     0.03   0.03   0.14     0.02  -0.00   0.12     0.00   0.00   0.16
     4   6    -0.02  -0.12   0.06    -0.01   0.00   0.01    -0.01  -0.02  -0.06
     5   6     0.10  -0.11  -0.12     0.07   0.06  -0.03     0.06   0.08   0.02
     6   1     0.14  -0.11  -0.16     0.21   0.02  -0.14     0.17   0.02  -0.02
     7   1     0.11  -0.15  -0.14    -0.02   0.03  -0.04    -0.00   0.11   0.04
     8   1     0.09  -0.02  -0.10     0.10   0.19   0.09     0.09   0.16   0.10
     9   7     0.02  -0.14  -0.04    -0.09  -0.01  -0.05    -0.05   0.03  -0.06
    10   1    -0.01  -0.15   0.00    -0.22   0.02   0.06    -0.15   0.08  -0.01
    11   1     0.03  -0.22  -0.05    -0.13  -0.14  -0.16    -0.08  -0.04  -0.14
    12   6    -0.01  -0.09   0.07    -0.00   0.03  -0.02    -0.00   0.01  -0.06
    13   6     0.04   0.01  -0.00    -0.01   0.01  -0.00     0.04  -0.01  -0.04
    14   6     0.08   0.16  -0.09    -0.02  -0.02   0.02     0.04  -0.03   0.04
    15   6     0.07   0.20  -0.09    -0.02  -0.04   0.04     0.01  -0.02   0.07
    16   6     0.01   0.06   0.01    -0.01  -0.01   0.01    -0.03   0.02   0.03
    17   6    -0.03  -0.08   0.08    -0.00   0.02  -0.01    -0.03   0.03  -0.04
    18   1     0.06  -0.01  -0.02    -0.01   0.02  -0.01     0.07  -0.01  -0.07
    19   1     0.13   0.25  -0.15    -0.02  -0.04   0.04     0.07  -0.05   0.07
    20   1     0.10   0.33  -0.16    -0.03  -0.07   0.06     0.01  -0.04   0.13
    21   1    -0.01   0.08   0.02    -0.02  -0.02   0.02    -0.05   0.03   0.05
    22   1    -0.07  -0.16   0.14    -0.00   0.04  -0.03    -0.05   0.05  -0.06
    23   6    -0.02  -0.03  -0.02     0.00   0.04  -0.03    -0.03  -0.05  -0.04
    24   1    -0.01  -0.01  -0.05    -0.00   0.02  -0.01    -0.03  -0.09  -0.02
    25   1    -0.04   0.03   0.03     0.03   0.08  -0.01    -0.00  -0.07  -0.06
    26   1     0.01  -0.05  -0.08    -0.01   0.05  -0.08    -0.05  -0.04  -0.02
    27   1    -0.08  -0.10  -0.07     0.03  -0.01  -0.09     0.00  -0.03  -0.21
    28   8    -0.11   0.04  -0.02     0.03  -0.03  -0.12    -0.01  -0.01   0.05
    29   6    -0.09   0.14  -0.08     0.02  -0.02   0.00     0.00  -0.01  -0.04
    30   1    -0.17   0.17  -0.13     0.06  -0.07  -0.42    -0.04   0.04   0.38
    31   1    -0.09   0.16  -0.10     0.02  -0.40   0.31     0.02   0.36  -0.34
    32   1    -0.01   0.18  -0.09    -0.03   0.40   0.22     0.04  -0.43  -0.26
                      7                      8                      9
                      A                      A                      A
 Frequencies --    137.2763               159.9202               215.0114
 Red. masses --      3.6211                 2.1894                 3.7371
 Frc consts  --      0.0402                 0.0330                 0.1018
 IR Inten    --      1.2013                 1.7928                19.9644
  Atom  AN      X      Y      Z        X      Y      Z        X      Y      Z
     1   6    -0.04   0.05   0.01    -0.02   0.00  -0.07     0.10  -0.11  -0.01
     2   6    -0.05   0.02   0.00    -0.02   0.02   0.04     0.11  -0.11   0.02
     3   8    -0.10  -0.02  -0.03    -0.02   0.01  -0.02     0.19  -0.08   0.01
     4   6    -0.02  -0.01   0.06    -0.00  -0.01  -0.05    -0.02  -0.06   0.07
     5   6     0.27   0.13  -0.06     0.01   0.02   0.03    -0.03   0.08  -0.12
     6   1     0.30   0.05   0.00    -0.00  -0.00   0.07    -0.20   0.06   0.09
     7   1     0.37   0.18  -0.05     0.02   0.06   0.04     0.20   0.17  -0.11
     8   1     0.23   0.24  -0.12     0.01  -0.01   0.01    -0.12   0.02  -0.34
     9   7     0.13   0.07  -0.03     0.02   0.02  -0.02     0.04   0.11  -0.04
    10   1     0.09   0.12  -0.04     0.03   0.04  -0.05     0.14   0.09  -0.12
    11   1     0.16  -0.04   0.02     0.03   0.05  -0.00     0.09   0.15   0.08
    12   6    -0.04  -0.05   0.08     0.00  -0.01  -0.04    -0.03   0.03   0.05
    13   6    -0.08  -0.03   0.05     0.03  -0.02  -0.03    -0.08   0.03   0.02
    14   6    -0.07   0.02  -0.03     0.04  -0.00   0.00    -0.11  -0.01  -0.01
    15   6    -0.04   0.05  -0.09     0.02   0.01   0.02    -0.09  -0.03  -0.02
    16   6    -0.01   0.01  -0.04    -0.01   0.01   0.01    -0.03   0.00  -0.03
    17   6    -0.02  -0.04   0.04    -0.02  -0.00  -0.02    -0.02   0.04   0.01
    18   1    -0.10  -0.03   0.08     0.05  -0.03  -0.05    -0.11   0.07   0.04
    19   1    -0.10   0.04  -0.06     0.07  -0.01   0.01    -0.14  -0.01  -0.01
    20   1    -0.03   0.10  -0.17     0.03   0.01   0.05    -0.10  -0.06  -0.04
    21   1     0.02   0.02  -0.09    -0.03   0.02   0.03     0.00  -0.01  -0.06
    22   1    -0.01  -0.06   0.07    -0.04   0.00  -0.03    -0.00   0.05   0.01
    23   6    -0.05   0.04   0.00    -0.01  -0.05  -0.02    -0.15  -0.06   0.03
    24   1    -0.04   0.09  -0.07    -0.01  -0.05  -0.02    -0.17  -0.11  -0.06
    25   1    -0.12   0.07   0.04    -0.02  -0.09  -0.04    -0.17  -0.02   0.06
    26   1    -0.01   0.02   0.00    -0.01  -0.05   0.02    -0.19  -0.03   0.04
    27   1    -0.05   0.04  -0.09    -0.03  -0.00  -0.02     0.15  -0.09  -0.19
    28   8     0.03  -0.04   0.04    -0.03   0.03   0.23     0.03  -0.04   0.06
    29   6     0.02  -0.19   0.03    -0.00  -0.02  -0.09     0.05   0.15  -0.01
    30   1     0.12  -0.23   0.11     0.05  -0.09  -0.64    -0.09   0.21  -0.09
    31   1    -0.05  -0.17  -0.03    -0.29  -0.40   0.07     0.10   0.17  -0.01
    32   1    -0.03  -0.30  -0.01     0.24   0.37   0.02     0.18   0.24  -0.00
                     10                     11                     12
                      A                      A                      A
 Frequencies --    236.3467               265.1413               284.3630
 Red. masses --      3.4817                 1.3529                 3.5186
 Frc consts  --      0.1146                 0.0560                 0.1676
 IR Inten    --     36.8401                 1.2427                 1.3635
  Atom  AN      X      Y      Z        X      Y      Z        X      Y      Z
     1   6    -0.00  -0.02   0.11    -0.02  -0.01   0.08    -0.04  -0.02   0.05
     2   6    -0.02  -0.03   0.01    -0.03  -0.02   0.02    -0.08  -0.05   0.01
     3   8     0.01  -0.04  -0.09    -0.03  -0.03  -0.01    -0.10  -0.07  -0.03
     4   6    -0.00  -0.12   0.09    -0.00  -0.01   0.01     0.00  -0.04   0.09
     5   6    -0.12   0.16   0.01     0.02   0.03  -0.00     0.03   0.02  -0.09
     6   1    -0.03   0.21  -0.14    -0.22  -0.14   0.45     0.14   0.16  -0.36
     7   1    -0.39   0.16   0.03     0.54   0.29   0.04    -0.24  -0.16  -0.13
     8   1    -0.02   0.15   0.22    -0.19  -0.01  -0.46     0.14   0.08   0.15
     9   7    -0.07   0.19  -0.10    -0.03   0.00   0.00     0.06   0.05  -0.00
    10   1    -0.08   0.21  -0.10    -0.05   0.03  -0.01     0.12   0.01  -0.01
    11   1    -0.09   0.22  -0.11    -0.03  -0.03   0.01     0.09   0.05   0.06
    12   6    -0.00  -0.11   0.02     0.01   0.01  -0.04     0.07   0.08   0.03
    13   6     0.05  -0.12   0.04     0.04   0.02  -0.04     0.07   0.15  -0.04
    14   6     0.08  -0.03   0.02     0.04   0.00  -0.00     0.03   0.03  -0.02
    15   6     0.08   0.05  -0.02     0.02  -0.02   0.03     0.05  -0.14   0.04
    16   6     0.02  -0.00   0.01     0.01   0.01   0.00     0.12  -0.03  -0.03
    17   6    -0.01  -0.10   0.03     0.01   0.02  -0.04     0.15   0.10  -0.05
    18   1     0.08  -0.15   0.02     0.05   0.01  -0.06     0.06   0.22  -0.07
    19   1     0.12  -0.01   0.01     0.05  -0.00   0.01    -0.03   0.03  -0.04
    20   1     0.11   0.15  -0.06     0.02  -0.05   0.07     0.00  -0.30   0.12
    21   1    -0.00   0.04   0.01    -0.01   0.01   0.02     0.14  -0.06  -0.04
    22   1    -0.03  -0.13   0.05     0.01   0.03  -0.05     0.21   0.16  -0.08
    23   6     0.09   0.06  -0.05     0.05   0.02  -0.00    -0.05  -0.04   0.08
    24   1     0.10   0.09  -0.02     0.07   0.12  -0.04    -0.08  -0.18   0.13
    25   1     0.14   0.22   0.03    -0.03   0.01   0.01     0.09   0.01   0.08
    26   1     0.11   0.04  -0.26     0.13  -0.03   0.01    -0.17   0.04   0.01
    27   1    -0.02  -0.05  -0.26    -0.01  -0.01   0.05    -0.03  -0.02  -0.12
    28   8    -0.03  -0.01   0.00    -0.04  -0.02  -0.02    -0.12  -0.04   0.01
    29   6    -0.03   0.01   0.01    -0.04  -0.00   0.00    -0.13   0.01  -0.00
    30   1    -0.05   0.02   0.03    -0.05   0.01   0.01    -0.16   0.03  -0.01
    31   1    -0.01   0.03   0.01    -0.02   0.01   0.00    -0.11   0.02  -0.01
    32   1    -0.03   0.01   0.01    -0.05  -0.00   0.00    -0.10   0.02  -0.01
                     13                     14                     15
                      A                      A                      A
 Frequencies --    298.2210               320.0829               356.9724
 Red. masses --      3.2245                 3.7000                 3.0825
 Frc consts  --      0.1690                 0.2233                 0.2314
 IR Inten    --     21.7719                12.1819                36.1556
  Atom  AN      X      Y      Z        X      Y      Z        X      Y      Z
     1   6     0.01  -0.02   0.06    -0.01  -0.02   0.15     0.01   0.03  -0.15
     2   6     0.00  -0.11   0.02     0.01   0.06   0.03    -0.01  -0.07  -0.03
     3   8    -0.01  -0.12   0.00     0.09   0.09  -0.04    -0.08  -0.10   0.02
     4   6    -0.00   0.02  -0.05    -0.01  -0.08   0.07     0.00   0.08  -0.03
     5   6     0.09  -0.05   0.17     0.02  -0.01  -0.10     0.01   0.07  -0.15
     6   1     0.16  -0.03   0.06     0.02   0.08  -0.20     0.02   0.16  -0.27
     7   1    -0.15  -0.03   0.20    -0.06  -0.12  -0.13     0.07  -0.15  -0.24
     8   1     0.18  -0.13   0.34     0.05   0.01  -0.02    -0.02   0.19  -0.17
     9   7     0.15  -0.00   0.01     0.07   0.02   0.02    -0.04   0.02   0.09
    10   1     0.26   0.05  -0.16     0.17   0.00  -0.06    -0.06  -0.03   0.17
    11   1     0.21   0.12   0.14     0.12   0.06   0.14    -0.05  -0.06   0.05
    12   6    -0.04  -0.00  -0.04    -0.06  -0.06  -0.09    -0.01   0.02  -0.02
    13   6    -0.03   0.02  -0.06    -0.02  -0.00  -0.13    -0.03  -0.03   0.02
    14   6    -0.03   0.02  -0.01     0.01   0.03  -0.02    -0.02  -0.01   0.03
    15   6    -0.07   0.01   0.04    -0.08   0.00   0.10    -0.01   0.06  -0.01
    16   6    -0.08   0.04   0.01    -0.13   0.07   0.02    -0.03   0.01   0.02
    17   6    -0.08   0.04  -0.04    -0.13   0.05  -0.10    -0.03  -0.03   0.03
    18   1    -0.02   0.02  -0.08     0.03   0.00  -0.20    -0.04  -0.06   0.05
    19   1     0.01   0.02   0.00     0.10   0.04  -0.01    -0.01  -0.03   0.05
    20   1    -0.07  -0.01   0.09    -0.09  -0.04   0.22    -0.00   0.11  -0.05
    21   1    -0.10   0.05   0.02    -0.18   0.11   0.05    -0.04   0.01   0.03
    22   1    -0.10   0.06  -0.07    -0.18   0.09  -0.16    -0.02  -0.06   0.06
    23   6     0.09   0.13  -0.11     0.12  -0.12   0.13     0.21  -0.03   0.12
    24   1     0.10   0.16  -0.05     0.10  -0.22   0.31     0.25   0.10   0.28
    25   1     0.14   0.23  -0.07     0.34  -0.12   0.08     0.26  -0.17   0.02
    26   1     0.10   0.12  -0.25     0.01  -0.04   0.04     0.32  -0.10   0.14
    27   1     0.08   0.00   0.08    -0.04  -0.04  -0.07     0.06   0.06   0.11
    28   8    -0.04  -0.09  -0.00     0.03   0.06  -0.03    -0.01  -0.08   0.03
    29   6    -0.03   0.10  -0.01     0.02  -0.09   0.02     0.01   0.08  -0.01
    30   1    -0.17   0.16  -0.03     0.13  -0.14   0.06    -0.12   0.14  -0.05
    31   1     0.06   0.15  -0.01    -0.03  -0.12   0.02     0.07   0.13  -0.01
    32   1     0.05   0.16  -0.01    -0.07  -0.15   0.01     0.10   0.15  -0.00
                     16                     17                     18
                      A                      A                      A
 Frequencies --    374.6556               392.9482               403.2190
 Red. masses --      3.8734                 2.1323                 1.3059
 Frc consts  --      0.3203                 0.1940                 0.1251
 IR Inten    --     19.1364                10.5422                 6.0178
  Atom  AN      X      Y      Z        X      Y      Z        X      Y      Z
     1   6     0.01  -0.10  -0.15     0.01  -0.03  -0.01     0.00  -0.00  -0.03
     2   6     0.00  -0.04  -0.05     0.01  -0.04   0.01     0.00  -0.02  -0.01
     3   8     0.20   0.06   0.02     0.11   0.02   0.03     0.03   0.00   0.02
     4   6    -0.01  -0.05  -0.02    -0.02   0.06  -0.00    -0.01   0.05  -0.02
     5   6    -0.02  -0.01   0.03    -0.01   0.05  -0.04     0.01   0.02  -0.01
     6   1    -0.05  -0.04   0.09     0.02   0.19  -0.23    -0.05   0.03   0.03
     7   1     0.00   0.06   0.05    -0.05  -0.21  -0.13     0.14  -0.01  -0.04
     8   1    -0.02  -0.06  -0.00     0.01   0.15   0.01    -0.04   0.04  -0.11
     9   7    -0.00  -0.00  -0.04     0.01   0.03   0.16    -0.00   0.00   0.07
    10   1    -0.01   0.00  -0.04     0.09   0.02   0.08     0.02   0.01   0.04
    11   1    -0.01   0.01  -0.04     0.05   0.05   0.24     0.01   0.00   0.09
    12   6     0.01   0.05   0.09    -0.01  -0.02  -0.05    -0.00  -0.00  -0.02
    13   6    -0.05   0.09   0.07     0.04  -0.03  -0.05     0.01  -0.05   0.02
    14   6    -0.09   0.03   0.03     0.05  -0.03  -0.00     0.03   0.01  -0.02
    15   6    -0.06  -0.00  -0.00     0.04  -0.00  -0.00     0.03   0.01  -0.02
    16   6     0.03   0.02   0.01    -0.00  -0.00  -0.02    -0.00  -0.05   0.02
    17   6     0.04   0.05   0.08    -0.02  -0.04  -0.04     0.00  -0.01  -0.02
    18   1    -0.10   0.14   0.10     0.06  -0.06  -0.06     0.01  -0.10   0.05
    19   1    -0.14   0.03   0.02     0.07  -0.05   0.02     0.04   0.03  -0.04
    20   1    -0.07  -0.05  -0.04     0.05   0.01   0.03     0.04   0.05  -0.03
    21   1     0.08  -0.00  -0.04    -0.03   0.02  -0.00    -0.02  -0.08   0.06
    22   1     0.11   0.04   0.10    -0.05  -0.06  -0.04     0.00   0.03  -0.05
    23   6     0.18   0.02  -0.06    -0.08   0.08  -0.01    -0.04   0.05  -0.01
    24   1     0.23   0.18   0.09    -0.02   0.33  -0.32    -0.15  -0.39   0.25
    25   1     0.26   0.06  -0.05    -0.50   0.02   0.06     0.48   0.25  -0.02
    26   1     0.31  -0.08  -0.23     0.15  -0.06   0.15    -0.42   0.30  -0.28
    27   1     0.03  -0.09  -0.14     0.07   0.01   0.24     0.03   0.02   0.13
    28   8    -0.13   0.03   0.01    -0.06  -0.01  -0.01    -0.02  -0.00   0.00
    29   6    -0.16  -0.15   0.00    -0.07  -0.06  -0.00    -0.03  -0.02  -0.00
    30   1    -0.00  -0.22   0.01    -0.03  -0.08   0.00    -0.02  -0.03  -0.00
    31   1    -0.28  -0.22   0.00    -0.10  -0.08   0.00    -0.04  -0.03  -0.00
    32   1    -0.23  -0.22  -0.01    -0.10  -0.08  -0.00    -0.04  -0.03  -0.00
                     19                     20                     21
                      A                      A                      A
 Frequencies --    426.0603               460.8022               545.3489
 Red. masses --      2.6198                 2.9898                 2.8963
 Frc consts  --      0.2802                 0.3740                 0.5075
 IR Inten    --      0.1277                 8.5183                20.9249
  Atom  AN      X      Y      Z        X      Y      Z        X      Y      Z
     1   6    -0.00  -0.01  -0.01     0.02   0.04   0.16     0.04   0.08  -0.08
     2   6     0.00   0.00  -0.00     0.01  -0.03   0.07     0.01  -0.04  -0.05
     3   8    -0.00  -0.00   0.00     0.05  -0.02   0.00     0.06  -0.02  -0.00
     4   6     0.00  -0.02   0.01     0.02   0.13  -0.13    -0.03   0.11   0.10
     5   6    -0.01   0.00   0.00     0.01   0.01  -0.01     0.02  -0.08   0.02
     6   1     0.01   0.01  -0.02     0.04  -0.03   0.01     0.02  -0.17   0.12
     7   1    -0.05   0.00   0.00    -0.10   0.09   0.03    -0.06   0.11   0.10
     8   1     0.01   0.00   0.03     0.06  -0.08   0.07     0.05  -0.19   0.06
     9   7    -0.00   0.01  -0.02     0.05   0.03  -0.14     0.01  -0.02  -0.12
    10   1    -0.00   0.00  -0.01     0.09   0.06  -0.21    -0.09  -0.11   0.08
    11   1    -0.00   0.00  -0.02     0.07   0.10  -0.09    -0.04  -0.11  -0.24
    12   6     0.00  -0.01   0.01     0.03   0.13  -0.09    -0.06  -0.02  -0.01
    13   6    -0.04  -0.14   0.12    -0.01  -0.02   0.04     0.01  -0.03  -0.01
    14   6     0.03   0.15  -0.12    -0.02  -0.05   0.04     0.04   0.00   0.01
    15   6    -0.01  -0.01   0.01     0.02   0.09  -0.08     0.06  -0.02   0.01
    16   6    -0.03  -0.13   0.11    -0.01  -0.06   0.05    -0.02  -0.02  -0.03
    17   6     0.04   0.16  -0.12     0.00  -0.02   0.03    -0.04  -0.04  -0.07
    18   1    -0.09  -0.29   0.26    -0.05  -0.12   0.14     0.09  -0.05  -0.09
    19   1     0.07   0.33  -0.26    -0.05  -0.15   0.12     0.05   0.03  -0.02
    20   1    -0.02  -0.02   0.02     0.04   0.17  -0.15     0.07   0.01   0.02
    21   1    -0.07  -0.30   0.24    -0.03  -0.17   0.13    -0.07   0.04  -0.01
    22   1     0.09   0.35  -0.27    -0.01  -0.11   0.10    -0.03  -0.01  -0.09
    23   6     0.02  -0.01  -0.00    -0.01  -0.09   0.04    -0.04   0.16   0.22
    24   1     0.06   0.17  -0.12    -0.03  -0.16   0.11    -0.03   0.18   0.25
    25   1    -0.19  -0.09   0.01    -0.02  -0.40  -0.14    -0.05   0.08   0.18
    26   1     0.17  -0.12   0.10    -0.04  -0.06   0.36    -0.02   0.14   0.29
    27   1    -0.02  -0.01   0.02     0.12   0.08   0.33     0.15   0.10  -0.54
    28   8     0.00  -0.00  -0.00    -0.07  -0.02  -0.03    -0.03  -0.02   0.03
    29   6     0.01   0.00  -0.00    -0.09  -0.03  -0.01    -0.05  -0.01   0.00
    30   1     0.00   0.00  -0.00    -0.07  -0.04   0.01    -0.05  -0.01  -0.01
    31   1     0.01   0.00  -0.00    -0.09  -0.04   0.00    -0.06  -0.01  -0.00
    32   1     0.01   0.00   0.00    -0.13  -0.05  -0.01    -0.03  -0.01  -0.00
                     22                     23                     24
                      A                      A                      A
 Frequencies --    567.5819               604.2552               623.3046
 Red. masses --      1.8450                 3.1798                 2.0204
 Frc consts  --      0.3502                 0.6841                 0.4625
 IR Inten    --     13.4194                29.6275               126.0804
  Atom  AN      X      Y      Z        X      Y      Z        X      Y      Z
     1   6    -0.01   0.02  -0.03     0.11   0.04  -0.07    -0.04  -0.08  -0.10
     2   6    -0.00  -0.01   0.02     0.04   0.00  -0.00    -0.02   0.01  -0.02
     3   8     0.03   0.00   0.02    -0.05  -0.05   0.01    -0.01   0.02   0.02
     4   6    -0.02   0.05  -0.05     0.21  -0.03   0.10    -0.06  -0.10   0.12
     5   6    -0.02   0.03  -0.01    -0.02   0.00  -0.00     0.01  -0.01   0.00
     6   1     0.00  -0.01   0.02    -0.08   0.02   0.04     0.05  -0.07   0.03
     7   1    -0.05   0.10   0.02    -0.04   0.04   0.02    -0.05   0.10   0.05
     8   1     0.01  -0.01   0.03    -0.02  -0.07  -0.03     0.04  -0.02   0.05
     9   7    -0.00   0.02  -0.08     0.03   0.03  -0.03    -0.00   0.01  -0.07
    10   1    -0.00   0.03  -0.09    -0.18  -0.07   0.29     0.10  -0.02  -0.13
    11   1     0.00   0.03  -0.07    -0.12  -0.09  -0.33     0.06   0.04   0.07
    12   6    -0.05  -0.12   0.10     0.14  -0.07  -0.04    -0.02   0.07  -0.06
    13   6    -0.00  -0.01   0.02    -0.04  -0.08  -0.11    -0.00   0.04  -0.04
    14   6     0.02   0.07  -0.03    -0.04  -0.04  -0.07    -0.01  -0.02   0.06
    15   6     0.01  -0.09   0.07    -0.15   0.06   0.03     0.05   0.05  -0.04
    16   6     0.03   0.06  -0.06     0.01   0.07   0.08     0.00  -0.05   0.03
    17   6    -0.01  -0.05   0.01     0.02   0.03   0.05     0.01   0.01  -0.06
    18   1     0.03   0.10  -0.08    -0.13  -0.01  -0.04    -0.02  -0.08   0.05
    19   1     0.05   0.23  -0.17     0.12  -0.05  -0.01    -0.05  -0.18   0.19
    20   1     0.00  -0.12   0.09    -0.15   0.06   0.03     0.04   0.01  -0.03
    21   1     0.05   0.25  -0.19     0.08   0.01   0.03    -0.07  -0.18   0.18
    22   1     0.04   0.07  -0.08    -0.14   0.02   0.00    -0.01  -0.11   0.03
    23   6    -0.00  -0.01   0.01    -0.00   0.02   0.03    -0.01   0.04   0.06
    24   1    -0.01  -0.03   0.10    -0.07  -0.16  -0.26     0.02   0.13   0.08
    25   1     0.05  -0.13  -0.07    -0.16   0.16   0.15     0.01   0.18   0.14
    26   1    -0.01   0.01   0.12    -0.17   0.14   0.08     0.06  -0.01  -0.10
    27   1     0.02   0.07   0.78     0.07   0.04   0.41    -0.11  -0.07   0.75
    28   8    -0.00  -0.02  -0.02    -0.04   0.05  -0.01     0.03   0.01  -0.01
    29   6    -0.00  -0.00  -0.00    -0.09  -0.01  -0.01     0.04   0.01   0.00
    30   1    -0.02   0.01  -0.01    -0.00  -0.05   0.00     0.04   0.01  -0.00
    31   1     0.01   0.01  -0.00    -0.14  -0.04  -0.00     0.05   0.01  -0.00
    32   1     0.01   0.01  -0.00    -0.13  -0.05  -0.01     0.05   0.01   0.00
                     25                     26                     27
                      A                      A                      A
 Frequencies --    636.1847               726.7412               730.7552
 Red. masses --      6.0258                 4.7126                 1.6543
 Frc consts  --      1.4369                 1.4665                 0.5205
 IR Inten    --      3.1734                 7.9454                39.8031
  Atom  AN      X      Y      Z        X      Y      Z        X      Y      Z
     1   6    -0.01   0.01   0.02     0.19  -0.09   0.00    -0.03   0.02  -0.01
     2   6    -0.00  -0.01   0.00     0.14  -0.01   0.03    -0.02   0.00   0.01
     3   8     0.02   0.01  -0.00    -0.13  -0.18   0.01     0.02   0.03  -0.01
     4   6    -0.01   0.03  -0.03     0.03  -0.00   0.00     0.00  -0.00  -0.00
     5   6     0.00  -0.00   0.00     0.01   0.00  -0.00    -0.00   0.00  -0.00
     6   1     0.00   0.00  -0.01    -0.02   0.03  -0.01    -0.02   0.01   0.00
     7   1     0.02  -0.03  -0.01     0.01  -0.03  -0.01    -0.01  -0.00  -0.00
     8   1    -0.00   0.01  -0.01     0.00  -0.02  -0.01    -0.00  -0.01  -0.00
     9   7    -0.00  -0.01   0.02     0.01   0.01   0.02     0.00   0.00   0.00
    10   1     0.00   0.01  -0.00    -0.03  -0.00   0.07    -0.03   0.01   0.03
    11   1     0.00   0.01   0.03    -0.01  -0.03  -0.03    -0.01  -0.01  -0.03
    12   6    -0.04  -0.08  -0.09    -0.11   0.01   0.02    -0.01  -0.07   0.05
    13   6    -0.27  -0.04  -0.12    -0.01   0.07   0.08     0.02   0.05  -0.05
    14   6    -0.17   0.21   0.21    -0.02   0.05   0.12    -0.02  -0.11   0.07
    15   6     0.04   0.07   0.10     0.12  -0.04  -0.01    -0.00   0.04  -0.03
    16   6     0.30   0.05   0.15    -0.08  -0.08  -0.06    -0.02  -0.10   0.09
    17   6     0.16  -0.19  -0.18    -0.07  -0.05  -0.09     0.02   0.05  -0.03
    18   1    -0.15  -0.11  -0.23     0.10   0.15  -0.10     0.09   0.36  -0.31
    19   1    -0.02   0.23   0.24    -0.14   0.19  -0.04     0.05   0.13  -0.12
    20   1    -0.07  -0.15  -0.23     0.16   0.15  -0.16     0.10   0.46  -0.37
    21   1     0.20   0.16   0.21    -0.17   0.15  -0.09     0.05   0.15  -0.12
    22   1    -0.00  -0.17  -0.24     0.05   0.09  -0.18     0.10   0.40  -0.31
    23   6    -0.01  -0.02  -0.04     0.02  -0.03  -0.03     0.00  -0.00  -0.00
    24   1    -0.02  -0.04  -0.03     0.02  -0.03  -0.05     0.00   0.00  -0.02
    25   1    -0.01  -0.05  -0.06     0.00  -0.03  -0.03    -0.01  -0.01  -0.00
    26   1    -0.02  -0.01  -0.01     0.02  -0.04  -0.04    -0.00  -0.00   0.01
    27   1    -0.00   0.01  -0.24     0.26  -0.06   0.09    -0.03   0.02   0.04
    28   8    -0.00  -0.02   0.00    -0.01   0.28  -0.03     0.00  -0.04  -0.00
    29   6     0.00  -0.00   0.00    -0.05   0.02  -0.01     0.01  -0.00   0.00
    30   1    -0.02   0.01  -0.00     0.35  -0.16   0.04    -0.05   0.02  -0.01
    31   1     0.01   0.01   0.00    -0.27  -0.14   0.01     0.04   0.02  -0.00
    32   1     0.01   0.01   0.00    -0.26  -0.15  -0.02     0.03   0.02   0.00
                     28                     29                     30
                      A                      A                      A
 Frequencies --    755.6492               789.6695               808.3571
 Red. masses --      2.0632                 7.1751                 2.2000
 Frc consts  --      0.6941                 2.6362                 0.8470
 IR Inten    --     61.0038                25.1816                 7.7201
  Atom  AN      X      Y      Z        X      Y      Z        X      Y      Z
[...]
 -0.00003999,0.00011622,-0.00013766,-0.00002148,-0.00011555,-0.00024910
 ,0.00002389,-0.00163190,-0.00181254,0.00033849,-0.00025479,-0.00009886
 ,0.00003699,0.00032317,-0.00025608,0.00035162,-0.00012802,-0.00181025,
 0.00023135,-0.00146589,-0.00059001,0.00090483,0.00006340,0.00001118,0.
 00003027,-0.00001981,0.00000234,-0.00013556,-0.00011787,0.00008133,0.0
 0010125,0.00037745,0.00003388,0.00011172,-0.00072308,-0.00017306,0.000
 51492,-0.00000514,-0.00006681,0.00005433,0.00001289,0.00000965,-0.0000
 0661,0.00000997,0.00001095,-0.00000172,0.00003497,-0.00001980,0.000051
 04,-0.00143549,-0.00094865,0.00011175,-0.00012160,-0.00015468,-0.00011
 664,0.00002734,0.00000293,-0.00011904,0.00007888,-0.00027840,-0.000555
 83,0.09230560,0.09807703,-0.31892004,0.01471480,-0.00298539,-0.0033916
 8,0.00024955,0.00063080,0.00161648,0.00007436,0.00738314,-0.01273893,0
 .00058377,-0.00010935,0.00017666,0.00033784,0.00000300,-0.00000076,-0.
 00004457,0.00004312,-0.00013345,-0.00000036,-0.00004299,0.00002389,-0.
 00001701,-0.00075090,-0.00092366,-0.00066887,-0.00007648,-0.00011901,-
 0.00031564,0.00020461,-0.00022533,0.00016417,0.00190608,0.00011616,-0.
 00001159,0.00060472,0.00038269,-0.00084266,-0.00049656,0.00035875,-0.0
 0000402,0.00021214,0.00019981,0.00047066,0.00041012,-0.00031622,-0.000
 22458,-0.00081082,0.00018086,-0.00028182,0.00017970,0.00007720,0.00056
 270,-0.00001830,0.00002655,-0.00003996,0.00001977,-0.00001640,0.000046
 53,-0.00001807,-0.00000813,0.00002029,0.00006858,0.00001145,0.00004338
 ,-0.00142641,-0.00088682,0.00085136,0.00001900,0.00014287,0.00015135,-
 0.00000444,-0.00002602,-0.00018789,0.00000826,-0.00039088,-0.00061839,
 -0.10210985,0.33461072,-0.00116721,0.01975479,-0.00440040,-0.00131561,
 0.00023115,-0.00417011,-0.00044869,-0.00067238,0.00709231,-0.00404375,
 -0.01157345,0.00136159,0.00013349,-0.00020997,-0.00105784,0.00001858,-
 0.00001933,-0.00003127,-0.00024703,0.00044614,-0.00001143,0.00007041,0
 .00010361,0.00002290,0.00220285,0.00666618,-0.00618522,0.00024399,0.00
 146221,0.00080852,-0.00014176,0.00070353,-0.00068570,-0.00073235,0.000
 30970,-0.00049273,0.00105533,0.00059072,0.00033521,-0.00041354,-0.0002
 5239,-0.00029296,0.00012886,0.00013189,0.00013008,-0.00006310,-0.00021
 548,-0.00021792,-0.00012677,0.00001472,-0.00012752,0.00101914,-0.00008
 966,-0.00114426,0.00000600,-0.00001586,0.00002013,-0.00004636,-0.00000
 005,-0.00004061,-0.00000719,-0.00000172,-0.00000810,-0.00001668,-0.000
 02175,-0.00006780,-0.00136538,-0.00251864,0.00030941,0.00013714,0.0001
 4738,0.00026420,-0.00007925,0.00028465,-0.00012466,-0.00013805,-0.0006
 3524,-0.00094585,0.00516305,-0.01492331,0.01258249,-0.05544379,-0.0487
 5408,0.00311285,-0.15835764,-0.06311830,0.00111320,0.02701469,-0.00681
 633,0.00059808,-0.00013735,0.01405622,-0.00408830,-0.00098191,0.000755
 57,0.00121254,0.00000084,-0.00021566,-0.00010946,0.00023473,-0.0006892
 3,0.00011778,-0.00003852,0.00052463,-0.00025428,-0.00105011,-0.0068862
 3,0.00411900,0.00010817,0.00147893,-0.00198385,0.00033878,-0.00048340,
 0.00034412,0.00120870,-0.00211515,-0.00079910,-0.00078465,0.00023417,0
 .00051346,-0.00000411,-0.00010243,-0.00045817,-0.00048909,0.00018045,0
 .00004299,-0.00006177,0.00006832,-0.00020679,-0.00099826,0.00060965,0.
 00044768,0.00036792,-0.00055486,-0.00047126,-0.00012805,0.00010978,0.0
 0011444,-0.00016325,-0.00001680,0.00002641,-0.00022698,-0.00000219,-0.
 00005546,0.00018991,-0.00010403,0.00004563,-0.00096445,-0.00165551,0.0
 0120469,0.00015635,0.00023608,0.00031373,-0.00017973,0.00003074,0.0001
 6176,-0.00031849,-0.00150437,-0.00075817,-0.00030552,-0.00114514,0.000
 40912,0.52478529,-0.02937381,-0.00172068,0.00251914,-0.02592381,-0.179
 99579,0.00921670,-0.01756230,-0.09639014,0.01097718,0.00695633,0.00907
 206,-0.00324920,-0.00093697,-0.00077323,0.00076145,-0.00041691,-0.0001
 6074,0.00008973,-0.00012132,-0.00037993,0.00025396,0.00069778,0.002486
 23,-0.00057214,-0.00090923,-0.00490843,0.00292212,0.00049737,0.0006497
 7,-0.00175233,0.00022368,-0.00043975,0.00019655,0.00129748,0.00004197,
 -0.00040701,-0.00066026,0.00019906,0.00038595,-0.00002366,-0.00005537,
 -0.00033348,-0.00032592,0.00014586,0.00001848,-0.00001019,0.00003215,0
 .00001114,-0.00037742,0.00020393,0.00017953,0.00023823,-0.00048368,-0.
 00034055,-0.00010336,0.00005978,0.00009188,-0.00011112,-0.00002047,0.0
 0002225,-0.00011602,-0.00001341,-0.00003092,0.00016182,-0.00002133,0.0
 0006853,-0.00100186,-0.00189251,0.00009281,0.00041328,0.00063294,0.001
 11589,-0.00037844,0.00009416,0.00006361,-0.00034565,-0.00091148,-0.000
 41836,-0.00050712,-0.00011888,0.00051414,0.05551441,0.36334671,0.00278
 646,0.00017700,0.01384849,-0.00259254,0.00925208,-0.06319363,0.0007071
 6,0.01000137,0.02175203,-0.00108145,-0.00137330,0.00425669,-0.00039657
 ,0.00014481,-0.00016918,-0.00003200,0.00001647,0.00005234,0.00008256,0
 .00009712,-0.00006625,0.00016992,0.00012277,0.00014968,-0.00063300,-0.
 00031820,-0.00007973,0.00011604,0.00003579,-0.00010032,-0.00008337,-0.
 00011877,-0.00000322,-0.00033371,0.00006933,-0.00022513,-0.00004721,-0
 .00006898,-0.00007820,0.00000707,-0.00004807,0.00005557,0.00002794,-0.
 00001798,-0.00001366,-0.00003670,-0.00002745,-0.00001342,-0.00000730,0
 .00004569,0.00004018,0.00005445,0.00002014,-0.00007358,-0.00000614,-0.
 00000079,-0.00000347,0.00000672,0.00001081,-0.00001108,0.00000541,0.00
 000996,0.00000133,-0.00000957,0.00001839,-0.00001379,0.00050701,0.0006
 9458,0.00004226,0.00001071,-0.00013761,-0.00023028,0.00000006,-0.00002
 175,-0.00000127,0.00027869,0.00016022,0.00009857,-0.00000325,-0.000074
 67,-0.00180954,0.02291439,-0.02777956,0.07689942,0.01068834,0.00110180
 ,-0.00086265,-0.05567793,-0.03504127,0.00032503,-0.00274807,0.01701741
 ,-0.00148258,-0.00260696,-0.00490360,0.00236774,0.00053788,-0.00004964
 ,-0.00051683,0.00008769,0.00010308,0.00001283,-0.00003504,0.00028149,-
 0.00010773,-0.00015319,-0.00077133,0.00021273,0.00048177,0.00310941,-0
 .00194973,-0.00023208,-0.00060310,0.00097004,-0.00014388,0.00021151,-0
 .00012782,-0.00070505,0.00026574,0.00020174,0.00030437,-0.00009984,-0.
 00029071,-0.00000738,0.00008182,0.00020284,0.00018896,-0.00006555,-0.0
 0000551,0.00002146,-0.00001850,0.00001984,0.00026363,-0.00015403,-0.00
 012119,-0.00016895,0.00021780,0.00025716,0.00003859,-0.00004655,-0.000
 04209,0.00007186,0.00000273,-0.00000502,0.00008006,0.00000418,0.000029
 21,-0.00008296,0.00001910,-0.00001549,0.00050528,0.00093913,-0.0003308
 3,-0.00015973,-0.00033650,-0.00037691,0.00009526,-0.00004266,-0.000084
 63,0.00018354,0.00061155,0.00026958,0.00019073,0.00027729,-0.00036044,
 -0.24115664,0.01873517,-0.01473355,0.50562351,-0.00044041,-0.00479513,
 0.00041705,-0.04162208,0.00866539,-0.00404471,-0.00176343,-0.00211670,
 -0.00050116,-0.00131099,0.00052158,0.00045848,-0.00002749,0.00008647,0
 .00000878,0.00000949,-0.00000735,0.00000099,-0.00000407,-0.00002227,0.
 00000272,-0.00001570,-0.00001668,-0.00000517,-0.00001983,0.00002257,-0
 .00007204,-0.00001448,0.00003194,-0.00009948,-0.00000443,-0.00001731,0
 .00000087,-0.00017084,-0.00036209,-0.00006296,-0.00002435,-0.00002286,
 -0.00001259,0.00000221,-0.00000192,0.00000617,-0.00001189,-0.00000558,
 0.00000002,-0.00001412,0.00000893,-0.00003310,-0.00008647,0.00006469,0
 .00005315,0.00000808,0.00000659,-0.00000797,-0.00000196,0.00000541,-0.
 00000146,-0.00000119,0.00000300,-0.00000080,-0.00001351,0.00000374,-0.
 00000129,0.00000103,-0.00000890,-0.00000064,0.00005030,0.00009175,0.00
 008485,-0.00001366,-0.00000862,0.00000081,-0.00000509,0.00000765,-0.00
 000061,-0.00002182,-0.00001954,-0.00002028,-0.00022682,0.00025151,-0.0
 0020970,0.04243573,-0.09968349,0.00708913,0.02444323,0.62065764,0.0006
 5742,0.00077899,0.00228687,0.00046240,-0.00356694,-0.00165204,0.000356
 85,0.00135883,-0.00476333,0.00046295,0.00006514,0.00215319,0.00002533,
 0.00000654,0.00001432,-0.00001417,0.00000746,-0.00000044,0.00004607,0.
 00003439,-0.00003479,-0.00001599,-0.00006224,0.00005890,-0.00029505,-0
 .00021156,0.00017053,-0.00001939,-0.00017615,0.00010068,0.00001560,-0.
 00003345,0.00008615,-0.00018186,0.00016604,-0.00011603,0.00002057,-0.0
 0001302,-0.00007668,0.00000753,-0.00001735,0.00003530,0.00002545,-0.00
 002010,-0.00002000,-0.00003235,-0.00001590,0.00000521,0.00004731,0.000
 00434,0.00001379,0.00001396,0.00002135,0.00001388,0.00000984,-0.000008
 38,-0.00000330,0.00000475,0.00000344,-0.00000399,0.00000227,0.00000174
 ,0.00000183,-0.00001043,0.00000049,-0.00000730,0.00017707,0.00015093,-
 0.00010111,-0.00001364,-0.00008282,0.00000260,-0.00004714,-0.00000249,
 0.00000649,0.00004428,0.00006032,0.00005687,0.00001391,-0.00000274,-0.
 00098936,-0.01705176,0.00513562,-0.06705569,-0.00994314,-0.00142583,0.
 58202393,-0.00128957,-0.00187339,0.00006484,-0.00320849,0.00698213,-0.
 00106465,0.00259138,-0.00080230,0.00022316,-0.00020821,0.00081078,-0.0
 0016774,-0.00006200,0.00003609,0.00006392,-0.00000205,-0.00001221,-0.0
 0000565,0.00001256,-0.00003581,0.00000725,0.00001297,0.00004880,-0.000
 01995,-0.00004065,-0.00034021,0.00020484,0.00002766,0.00008731,-0.0001
 1554,0.00002080,-0.00002454,0.00001223,0.00004765,-0.00016109,-0.00005
 178,-0.00005146,0.00001228,0.00002765,0.00000457,-0.00000450,-0.000026
 42,-0.00003222,0.00001007,0.00000075,-0.00000606,0.00000792,-0.0000152
 7,-0.00006645,0.00004173,0.00003220,0.00002581,-0.00003299,-0.00002763
 ,-0.00000942,0.00000618,0.00000837,-0.00000991,-0.00000136,0.00000197,
 -0.00001455,0.,-0.00000291,0.00001144,-0.00000769,0.00000403,-0.000028
 86,-0.00006142,0.00007310,0.00001911,0.00002587,0.00002106,-0.00000601
 ,0.00000047,0.00000767,-0.00002008,-0.00007967,-0.00003649,0.00002088,
 0.00002466,-0.00000467,-0.03246900,-0.03689370,0.00163735,-0.08192015,
 -0.08918542,0.00730383,0.10725051,-0.00082603,0.00020125,0.00000808,0.
 00388130,-0.00040438,0.00017223,-0.00276745,0.00022816,-0.00011753,0.0
 0028757,0.00042077,-0.00014831,-0.00002945,-0.00000651,0.00003057,-0.0
 0001654,-0.00000795,-0.00000159,0.00000415,-0.00001650,0.00001106,0.00
 002851,0.00008848,-0.00001632,-0.00002487,-0.00022763,0.00015016,0.000
 04940,0.00003422,-0.00008323,0.00001945,-0.00001419,0.00000211,0.00007
 577,-0.00001762,-0.00002877,-0.00003813,0.00000832,0.00002273,0.000000
 51,-0.00000570,-0.00001811,-0.00001962,0.00000784,0.00000015,-0.000001
 59,0.00000306,-0.00000052,-0.00002939,0.00001610,0.00001456,0.00001869
 ,-0.00002422,-0.00002222,-0.00000542,0.00000420,0.00000581,-0.00000785
 ,-0.00000056,0.00000129,-0.00000832,-0.00000107,-0.00000259,0.00001113
 ,-0.00000111,0.00000476,-0.00003807,-0.00007574,0.00000861,0.00002296,
 0.00004679,0.00005130,-0.00001503,0.00000296,0.00000270,-0.00002002,-0
 .00004773,-0.00001631,-0.00005442,0.00001362,0.00001514,0.00302345,0.0
 0852178,-0.00056922,-0.09995103,-0.28850721,0.01798667,0.10625032,0.30
 042711,-0.00004435,-0.00013755,0.00012863,-0.00059731,0.00051659,0.000
 23755,0.00032352,-0.00005286,0.00078068,-0.00004220,0.00002567,0.00006
 329,-0.00000448,0.00000300,0.00000374,0.00000414,-0.00000161,0.0000005
 2,-0.00000449,-0.00000479,0.00000308,-0.00000404,-0.00000371,-0.000008
 82,0.00001049,-0.00000832,-0.00000453,-0.00001556,0.00000733,-0.000008
 89,-0.00000034,0.00000229,-0.00000093,-0.00001907,-0.00000453,-0.00000
 962,0.00000302,-0.00000032,-0.00000078,-0.00000016,-0.00000055,0.00000
 110,0.00000026,-0.00000117,-0.00000145,-0.00000289,-0.00000005,-0.0000
 0176,-0.00000197,0.00000072,0.00000284,0.00000285,0.00000343,-0.000002
 35,0.00000128,-0.00000030,-0.00000009,-0.00000018,0.00000014,0.,-0.000
 00099,-0.00000027,-0.00000006,0.00000006,-0.00000105,-0.00000094,0.000
 01037,-0.00000183,0.00001285,0.00000705,-0.00000343,-0.00000973,0.0000
 0420,-0.00000009,0.00000044,-0.00000270,-0.00000006,-0.00000157,0.0000
 0938,-0.00000058,-0.00001959,-0.00280377,-0.00356421,0.00097949,0.0085
 9658,0.01883582,-0.05354476,-0.00684113,-0.01956687,0.04699840,-0.0019
 5612,-0.00104503,-0.00031896,0.00415699,0.00971793,0.00040355,0.001768
 42,-0.00325097,-0.00052536,0.00028167,0.00084212,-0.00070461,-0.000073
 84,0.00004017,0.00008514,0.00000036,-0.00001650,-0.00000728,0.00001733
 ,-0.00004780,0.00000488,0.00001228,0.00003212,-0.00001654,-0.00002367,
 -0.00047665,0.00027513,0.00001299,0.00015031,-0.00011124,0.00002003,-0
 .00002292,0.00001802,0.00014814,-0.00007375,-0.00003702,-0.00003547,0.
 00002194,0.00006377,-0.00000021,-0.00000919,-0.00004270,-0.00003264,0.
 00001428,0.00000452,0.00000079,0.00000389,-0.00001085,-0.00005030,0.00
 002146,0.00001932,0.00002277,-0.00003723,-0.00004082,-0.00000566,0.000
 00638,0.00000669,-0.00001106,-0.00000258,0.00000179,-0.00001311,-0.000
 00134,-0.00000383,0.00000850,-0.00000799,0.00000050,-0.00011835,-0.000
 18644,0.00008030,-0.00000094,0.00002524,0.00004046,-0.00002067,0.00000
 480,0.00000949,-0.00001757,-0.00011471,-0.00007300,0.00018540,-0.00004
 186,0.00032864,-0.03289467,0.01867591,0.02487848,-0.07497209,0.0478512
 9,0.05987205,0.00556992,-0.00624715,-0.00958203,0.09391616,0.00049014,
 0.00008512,-0.00024079,-0.00248093,-0.00148043,0.00096406,-0.00077454,
 0.00036683,0.00006058,-0.00019777,-0.00025948,0.00008740,0.00004775,-0
 .00000261,-0.00001506,0.00001960,0.00000616,-0.00000480,-0.00000299,0.
 00000844,-0.00000680,-0.00003500,-0.00010725,0.00001420,0.00010684,0.0
 0016517,-0.00010009,-0.00005353,-0.00002314,0.00008957,-0.00000831,0.0
 0002561,-0.00001183,-0.00003767,0.00003842,0.00002529,0.00001952,-0.00
 000372,-0.00002183,0.00000158,0.00000684,0.00001279,0.00001262,-0.0000
 0433,0.00000072,0.00000481,-0.00000316,0.00000542,0.00002258,-0.000019
 58,-0.00001335,-0.00001007,0.00001365,0.00002099,0.00000191,-0.0000028
 6,-0.00000321,0.00000582,-0.00000009,-0.00000041,0.00000782,0.00000080
 ,0.00000201,-0.00000644,0.00000446,-0.00000276,0.00002457,0.00005120,-
 0.00000938,-0.00002244,-0.00001255,-0.00004399,0.00002960,-0.00000290,
 -0.00000270,0.00000071,0.00003905,0.00002083,0.00004402,0.00001979,-0.
 00011265,0.00815626,0.00159688,0.00052847,0.05210746,-0.14136222,-0.11
 742285,0.00916168,-0.01256436,-0.02084961,-0.06190386,0.14568626,-0.00
 007295,0.00049476,-0.00036020,-0.00025876,-0.00385681,0.00112456,-0.00
 265569,0.00099498,0.00057039,0.00000560,-0.00006997,-0.00005551,0.0000
 2895,-0.00003077,-0.00001044,-0.00000357,0.00000185,0.00000270,-0.0000
 1286,-0.00000179,0.00000799,0.00000739,0.00001780,-0.00001586,0.000068
 64,0.00006627,-0.00002585,-0.00002821,-0.00004137,-0.00000734,-0.00000
 163,0.00001173,-0.00001477,0.00001054,0.00000813,0.00000959,-0.0000135
 0,-0.00000382,-0.00000736,0.00000417,0.00000456,0.00000429,-0.00000144
 ,0.00000055,-0.00000022,0.00000242,0.00000227,0.00000420,0.00000139,-0
 .00000273,-0.00000349,-0.00000206,-0.00000025,0.00000321,-0.00000297,0
 .00000047,0.00000030,0.00000111,-0.00000031,0.00000059,0.00000170,-0.0
 0000011,0.00000102,0.00000213,0.00000162,0.00000285,0.00000402,-0.0000
 0518,-0.00001981,0.00000397,0.00001620,0.00001667,-0.00000216,0.000002
 07,-0.00000252,-0.00000976,0.00000967,0.00000691,-0.00005294,0.0000425
 3,-0.00003903,0.00262711,0.00576958,0.00992636,0.06463486,-0.11611218,
 -0.19828225,-0.00199251,0.00375545,0.00361045,-0.07067178,0.12607347,0
 .20241213,-0.00212364,-0.00090291,0.00075625,0.00447297,0.00891955,-0.
 00211481,0.00043642,-0.00297230,0.00073640,0.00047222,0.00107819,-0.00
 008582,-0.00008510,0.00003897,0.00010652,0.00000263,-0.00001446,-0.000
 00304,0.00001735,-0.00005969,0.00000824,0.00000547,0.00006182,-0.00003
 415,-0.00016057,-0.00069584,0.00045448,-0.00003895,0.00008120,-0.00018
 229,0.00001574,-0.00004874,0.00004746,0.00010322,-0.00003829,-0.000063
 72,-0.00006609,0.00000447,0.00003564,0.00000518,-0.00001236,-0.0000277
 5,-0.00003006,0.00000940,-0.00000082,-0.00000683,0.00000125,-0.0000048
 1,-0.00004413,0.00002705,0.00003009,0.00003159,-0.00003482,-0.00004547
 ,-0.00000802,0.00000778,0.00000622,-0.00001019,-0.00000056,0.00000070,
 -0.00001256,0.00000060,-0.00000391,0.00001220,-0.00000252,0.00000082,-
 0.00002104,-0.00010994,0.00007101,0.00000908,-0.00000448,0.00000397,-0
 .00001098,0.00000053,0.00002465,-0.00000951,-0.00010215,-0.00004112,0.
 00015779,-0.00003548,-0.00019878,-0.02725140,0.01268760,-0.03419405,-0
 .05859281,0.02019869,-0.04194451,0.00382985,-0.00357287,0.01099448,0.0
 0410464,-0.00473173,0.00837878,0.07479554,0.00049500,0.00005516,0.0001
 0861,-0.00224863,-0.00056805,-0.00095909,0.00016913,-0.00022617,0.0001
 0194,-0.00011726,-0.00023513,0.00005465,0.00001384,0.00002104,-0.00002
 206,0.00001301,0.00000692,0.00000037,0.00000730,0.00001955,-0.00001336
 ,-0.00002409,-0.00007080,0.00001786,-0.00000946,0.00014362,-0.00007697
 ,-0.00001738,-0.00002229,0.00008798,-0.00001067,0.00000675,0.00000581,
 -0.00004639,0.00003457,0.00000921,0.00003864,0.00000165,-0.00001119,-0
 .00000701,0.00000507,0.00000828,0.00001566,-0.00000248,0.00000190,0.00
 000289,-0.00000459,-0.00000152,0.00002071,-0.00001608,-0.00001571,-0.0
 0001157,0.00001413,0.00001841,0.00000589,-0.00000458,-0.00000300,0.000
 00432,-0.00000049,-0.00000022,0.00000558,-0.00000014,0.00000148,-0.000
 00840,-0.00000076,-0.00000309,0.00004578,0.00006766,-0.00000764,-0.000
 01983,-0.00006283,-0.00006325,0.00000583,-0.00000844,0.00000257,0.0000
 3557,0.00003042,0.00001603,0.00002832,0.00000721,0.00009563,0.00674930
 ,0.00088603,0.00206220,0.02255372,-0.09347102,0.09727950,0.00601001,-0
 .00810216,0.02480878,-0.00392185,0.00773401,-0.01714869,-0.02977796,0.
 09376222,-0.00065579,-0.00081351,-0.00024247,0.00151271,0.00564876,0.0
 0034675,0.00220991,-0.00151543,0.00093421,0.00009802,0.00044178,-0.000
 23994,-0.00003130,0.00002837,0.00005236,0.00001236,-0.00000634,-0.0000
 0551,-0.00000125,-0.00003380,0.00001160,-0.00002029,0.00000057,-0.0000
 2430,-0.00001003,-0.00024709,0.00016522,-0.00005088,0.00003833,-0.0000
 6618,0.00000988,-0.00001041,0.00001148,0.00004187,-0.00004478,0.000002
 97,-0.00002262,0.00000242,0.00001488,0.00000250,-0.00000551,-0.0000101
 7,-0.00001230,0.00000310,0.00000095,-0.00000006,0.00000125,0.00000018,
 -0.00001827,0.00000930,0.00001047,0.00001135,-0.00001075,-0.00001751,-
 0.00000336,0.00000490,0.00000150,-0.00000394,0.00000066,-0.00000017,-0
 .00000434,0.00000087,-0.00000238,0.00000631,0.00000162,-0.00000050,-0.
 00003406,-0.00005997,0.00006504,0.00000522,0.00002258,-0.00001780,0.00
 002742,0.00000295,0.00001508,-0.00002807,-0.00004903,-0.00001982,0.000
 08018,-0.00005463,-0.00006493,-0.01039861,-0.00195845,0.00503901,-0.04
 674331,0.09565314,-0.26037948,0.00067812,-0.00165180,0.00079281,-0.003
 94673,0.01095630,-0.01885957,0.05728935,-0.10635541,0.27248624\\-0.000
 00308,0.00001179,-0.00000307,-0.00000024,-0.00000327,0.00000556,-0.000
 00824,0.00000368,-0.00000196,0.00000244,-0.00000482,0.00001269,0.00000
 726,0.00001837,-0.00000247,0.00000306,-0.00000016,0.00000182,0.0000032
 0,0.00000073,0.00000656,0.00000062,-0.00000304,0.00000251,-0.00000327,
 -0.00000898,0.00000048,0.00000208,0.00000230,-0.00000366,-0.00000056,0
 .00000380,0.00000186,0.00000021,0.00000788,-0.00000255,0.00000005,-0.0
 0000449,-0.00000441,-0.00000168,0.00000274,0.00000102,-0.00000675,-0.0
 0000270,-0.00000598,0.00000533,-0.00000178,0.00000360,-0.00000170,-0.0
 0000747,-0.00000649,-0.00000188,0.00000144,-0.00000233,-0.00000296,-0.
 00000395,-0.00000768,0.00000105,-0.00000531,-0.00000539,-0.00000195,-0
 .00000735,-0.00000667,0.00000247,-0.00000311,0.00000076,-0.00000071,-0
 .00000877,0.00000328,0.00000451,-0.00000087,0.00000203,0.00000570,-0.0
 0000162,0.00000132,0.00000318,-0.00000038,0.00000353,0.00000104,-0.000
 00202,-0.00000508,-0.00000291,-0.00000011,0.00000691,-0.00000021,0.000
 00849,-0.00000536,-0.00000310,0.00000095,-0.00000013,-0.00000134,0.000
 00397,0.00000396,-0.00000162,0.00000408,0.00000531\\\@
 The archive entry for this job was punched.


 Change starts when someone sees the next step.
                            -- William Drayton
 Job cpu time:       0 days  0 hours 49 minutes 35.2 seconds.
 Elapsed time:       0 days  0 hours  4 minutes 10.3 seconds.
 File lengths (MBytes):  RWF=    400 Int=      0 D2E=      0 Chk=     14 Scr=      1
 Normal termination of Gaussian 16 at Sat Dec 30 21:06:44 2023.
