Unloading slurm/anatra/current
  ERROR: No such file or directory on
    '/cm/local/modulefiles/slurm/anatra/current'
environment: line 0: unalias: gv: not found
environment: line 0: unalias: sl: not found
 Entering Gaussian System, Link 0=g16
 Initial command:
 /apps/gaussian/g16/C.01/g16/l1.exe "/local/jobs/1153190/Gau-1743397.inp" -scrdir="/local/jobs/1153190/"
 Entering Link 1 = /apps/gaussian/g16/C.01/g16/l1.exe PID=   1743399.
  
 Copyright (c) 1988-2019, Gaussian, Inc.  All Rights Reserved.
  
 This is part of the Gaussian(R) 16 program.  It is based on
 the Gaussian(R) 09 system (copyright 2009, Gaussian, Inc.),
 the Gaussian(R) 03 system (copyright 2003, Gaussian, Inc.),
 the Gaussian(R) 98 system (copyright 1998, Gaussian, Inc.),
 the Gaussian(R) 94 system (copyright 1995, Gaussian, Inc.),
 the Gaussian 92(TM) system (copyright 1992, Gaussian, Inc.),
 the Gaussian 90(TM) system (copyright 1990, Gaussian, Inc.),
 the Gaussian 88(TM) system (copyright 1988, Gaussian, Inc.),
 the Gaussian 86(TM) system (copyright 1986, Carnegie Mellon
 University), and the Gaussian 82(TM) system (copyright 1983,
 Carnegie Mellon University). Gaussian is a federally registered
 trademark of Gaussian, Inc.
  
 This software contains proprietary and confidential information,
 including trade secrets, belonging to Gaussian, Inc.
  
 This software is provided under written license and may be
 used, copied, transmitted, or stored only in accord with that
 written license.
  
 The following legend is applicable only to US Government
 contracts under FAR:
  
                    RESTRICTED RIGHTS LEGEND
  
 Use, reproduction and disclosure by the US Government is
 subject to restrictions as set forth in subparagraphs (a)
 and (c) of the Commercial Computer Software - Restricted
 Rights clause in FAR 52.227-19.
  
 Gaussian, Inc.
 340 Quinnipiac St., Bldg. 40, Wallingford CT 06492
  
  
 ---------------------------------------------------------------
 Warning -- This program may not be used in any manner that
 competes with the business of Gaussian, Inc. or will provide
 assistance to any competitor of Gaussian, Inc.  The licensee
 of this program is prohibited from giving any competitor of
 Gaussian, Inc. access to this program.  By using this program,
 the user acknowledges that Gaussian, Inc. is engaged in the
 business of creating and licensing software in the field of
 computational chemistry and represents and warrants to the
 licensee that it is not a competitor of Gaussian, Inc. and that
 it will not use this program in any manner prohibited above.
 ---------------------------------------------------------------
  

 Cite this work as:
 Gaussian 16, Revision C.01,
 M. J. Frisch, G. W. Trucks, H. B. Schlegel, G. E. Scuseria, 
 M. A. Robb, J. R. Cheeseman, G. Scalmani, V. Barone, 
 G. A. Petersson, H. Nakatsuji, X. Li, M. Caricato, A. V. Marenich, 
 J. Bloino, B. G. Janesko, R. Gomperts, B. Mennucci, H. P. Hratchian, 
 J. V. Ortiz, A. F. Izmaylov, J. L. Sonnenberg, D. Williams-Young, 
 F. Ding, F. Lipparini, F. Egidi, J. Goings, B. Peng, A. Petrone, 
 T. Henderson, D. Ranasinghe, V. G. Zakrzewski, J. Gao, N. Rega, 
 G. Zheng, W. Liang, M. Hada, M. Ehara, K. Toyota, R. Fukuda, 
 J. Hasegawa, M. Ishida, T. Nakajima, Y. Honda, O. Kitao, H. Nakai, 
 T. Vreven, K. Throssell, J. A. Montgomery, Jr., J. E. Peralta, 
 F. Ogliaro, M. J. Bearpark, J. J. Heyd, E. N. Brothers, K. N. Kudin, 
 V. N. Staroverov, T. A. Keith, R. Kobayashi, J. Normand, 
 K. Raghavachari, A. P. Rendell, J. C. Burant, S. S. Iyengar, 
 J. Tomasi, M. Cossi, J. M. Millam, M. Klene, C. Adamo, R. Cammi, 
 J. W. Ochterski, R. L. Martin, K. Morokuma, O. Farkas, 
 J. B. Foresman, and D. J. Fox, Gaussian, Inc., Wallingford CT, 2019.
 
 ******************************************
 Gaussian 16:  ES64L-G16RevC.01  3-Jul-2019
                30-Dec-2023 
 ******************************************
 %chk=TS-92_opt_hf_reopt_freq.chk
 %nprocshared=12
 Will use up to   12 processors via shared memory.
 %mem=48GB
 -----------------------------------------------------------
 # wb97xd def2svp scrf=(iefpcm,solvent=toluene) freq=noraman
 -----------------------------------------------------------
 1/10=4,30=1,38=1/1,3;
 2/12=2,17=6,18=5,40=1/2;
 3/5=43,7=101,11=2,25=1,30=1,70=2201,71=2,72=13,74=-58,140=1/1,2,3;
 4//1;
 5/5=2,38=5,53=13,98=1/2;
 8/6=4,10=90,11=11/1;
 11/6=1,8=1,9=11,15=111,16=1/1,2,10;
 10/6=1/2;
 6/7=2,8=2,9=2,10=2,28=1/1;
 7/8=1,10=1,25=1/1,2,3,16;
 1/10=4,30=1/3;
 99//99;
 ----------------------
 TS-92_opt_hf_reopt.out
 ----------------------
 Symbolic Z-matrix:
 Charge =  0 Multiplicity = 1
 C                    -0.90911  -0.70554   0.1862 
 C                    -2.28936  -0.46051   0.15132 
 O                    -2.8568    0.64003   0.02904 
 C                     0.04987   0.41227   0.27079 
 C                    -0.80205   2.63715  -1.05714 
 H                    -0.19106   3.33564  -0.47586 
 H                    -0.91448   3.01801  -2.08082 
 H                    -1.78397   2.48842  -0.59561 
 N                    -0.14117   1.31948  -1.10935 
 H                    -0.70352   0.67521  -1.67447 
 H                     0.77315   1.39714  -1.56201 
 C                     1.49457  -0.07372   0.1614 
 C                     1.8393   -0.97838  -0.85554 
 C                     3.15056  -1.419    -1.01273 
 C                     4.14922  -0.96793  -0.14927 
 C                     3.82127  -0.07304   0.86587 
 C                     2.50766   0.37411   1.01627 
 H                     1.05893  -1.35301  -1.52247 
 H                     3.39206  -2.12582  -1.80967 
 H                     5.1778   -1.31579  -0.26641 
 H                     4.59264   0.28358   1.55203 
 H                     2.28136   1.07276   1.82195 
 C                    -0.18504   1.36867   1.4387 
 H                    -1.244     1.64945   1.47127 
 H                     0.04532   0.82413   2.36384 
 H                     0.43651   2.27712   1.41029 
 H                    -0.54339  -1.72915   0.23723 
 O                    -3.05092  -1.59957   0.22185 
 C                    -4.43981  -1.42637   0.09891 
 H                    -4.88737  -2.42652   0.17223 
 H                    -4.84724  -0.7841    0.89578 
 H                    -4.71533  -0.97343  -0.86762 
 

 GradGradGradGradGradGradGradGradGradGradGradGradGradGradGradGradGradGrad
 Berny optimization.
 Initialization pass.
 Trust Radius=3.00D-01 FncErr=1.00D-07 GrdErr=1.00D-07 EigMax=2.50D+02 EigMin=1.00D-04
 Number of steps in this run=      2 maximum allowed number of steps=      2.
 GradGradGradGradGradGradGradGradGradGradGradGradGradGradGradGradGradGrad

                          Input orientation:                          
 ---------------------------------------------------------------------
 Center     Atomic      Atomic             Coordinates (Angstroms)
 Number     Number       Type             X           Y           Z
 ---------------------------------------------------------------------
      1          6           0       -0.909110   -0.705540    0.186200
      2          6           0       -2.289360   -0.460510    0.151320
      3          8           0       -2.856800    0.640030    0.029040
      4          6           0        0.049870    0.412270    0.270790
      5          6           0       -0.802050    2.637150   -1.057140
      6          1           0       -0.191060    3.335640   -0.475860
      7          1           0       -0.914480    3.018010   -2.080820
      8          1           0       -1.783970    2.488420   -0.595610
      9          7           0       -0.141170    1.319480   -1.109350
     10          1           0       -0.703520    0.675210   -1.674470
     11          1           0        0.773150    1.397140   -1.562010
     12          6           0        1.494570   -0.073720    0.161400
     13          6           0        1.839300   -0.978380   -0.855540
     14          6           0        3.150560   -1.419000   -1.012730
     15          6           0        4.149220   -0.967930   -0.149270
     16          6           0        3.821270   -0.073040    0.865870
     17          6           0        2.507660    0.374110    1.016270
     18          1           0        1.058930   -1.353010   -1.522470
     19          1           0        3.392060   -2.125820   -1.809670
     20          1           0        5.177800   -1.315790   -0.266410
     21          1           0        4.592640    0.283580    1.552030
     22          1           0        2.281360    1.072760    1.821950
     23          6           0       -0.185040    1.368670    1.438700
     24          1           0       -1.244000    1.649450    1.471270
     25          1           0        0.045320    0.824130    2.363840
     26          1           0        0.436510    2.277120    1.410290
     27          1           0       -0.543390   -1.729150    0.237230
     28          8           0       -3.050920   -1.599570    0.221850
     29          6           0       -4.439810   -1.426370    0.098910
     30          1           0       -4.887370   -2.426520    0.172230
     31          1           0       -4.847240   -0.784100    0.895780
     32          1           0       -4.715330   -0.973430   -0.867620
 ---------------------------------------------------------------------
                    Distance matrix (angstroms):
                    1          2          3          4          5
     1  C    0.000000
     2  C    1.402265   0.000000
     3  O    2.372500   1.244238   0.000000
     4  C    1.475228   2.499603   2.925585   0.000000
     5  C    3.568043   3.642522   3.064355   2.727500   0.000000
     6  H    4.157530   4.382576   3.824579   3.026818   1.095027
     7  H    4.359384   4.355783   3.725440   3.640044   1.098005
     8  H    3.402644   3.083750   2.226589   2.902416   1.095124
     9  N    2.523666   3.061433   3.021958   1.662622   1.475040
    10  H    2.326119   2.671752   2.745869   2.102563   2.059129
    11  H    3.210530   3.970558   4.034996   2.202784   2.067311
    12  C    2.485456   3.803661   4.411505   1.528172   3.756078
    13  C    2.951851   4.281097   5.045304   2.530728   4.482123
    14  C    4.292712   5.645037   6.435314   3.822990   5.663696
    15  C    5.076228   6.465535   7.190386   4.345811   6.191599
    16  C    4.820633   6.164456   6.767967   3.848780   5.693697
    17  C    3.678176   4.945314   5.461023   2.568643   4.513819
    18  H    2.685508   3.848269   4.659649   2.711125   4.427319
    19  H    4.949824   6.236768   7.076654   4.684063   6.390833
    20  H    6.134145   7.527581   8.274498   5.437871   7.211768
    21  H    5.754399   7.062406   7.611880   4.721747   6.438147
    22  H    4.002140   5.102294   5.459164   2.796765   4.499321
    23  C    2.528909   3.071060   3.107468   1.527710   2.866873
    24  H    2.703615   2.699440   2.387484   2.155427   2.750223
    25  H    2.827179   3.463564   3.729274   2.133192   3.963355
    26  H    3.493616   4.063249   3.928588   2.219373   2.784217
    27  H    1.088179   2.159916   3.317864   2.222333   4.561455
    28  O    2.321187   1.372008   2.256251   3.696592   4.964174
    29  C    3.604588   2.357980   2.603999   4.854623   5.575118
    30  H    4.334573   3.258111   3.680686   5.696032   6.621325
    31  H    4.002317   2.683595   2.596389   5.079724   5.646451
    32  H    3.958486   2.680794   2.619425   5.091490   5.327848
                    6          7          8          9         10
     6  H    0.000000
     7  H    1.788888   0.000000
     8  H    1.808171   1.800646   0.000000
     9  N    2.113930   2.103988   2.080659   0.000000
    10  H    2.962629   2.387119   2.370452   1.025028   0.000000
    11  H    2.422231   2.396764   2.943414   1.023188   1.647539
    12  C    3.856317   4.515514   4.229238   2.496289   2.960222
    13  C    4.783021   5.005572   5.021389   3.044149   3.141805
    14  C    5.836202   6.111663   6.308051   4.283001   4.435938
    15  C    6.120899   6.727530   6.881011   4.955950   5.345580
    16  C    5.433059   6.376904   6.333697   4.641286   5.242798
    17  C    4.275535   5.319137   5.048421   3.525377   4.200288
    18  H    4.964001   4.828242   4.868032   2.958566   2.691284
    19  H    6.666734   6.714074   7.039633   4.984401   4.963650
    20  H    7.106640   7.693490   7.940191   5.995551   6.366839
    21  H    6.025877   7.141644   7.080595   5.528561   6.213935
    22  H    4.063670   5.406386   4.937165   3.810780   4.614381
    23  C    2.744913   3.954671   2.819368   2.548902   3.231337
    24  H    2.782667   3.820849   2.295088   2.825724   3.337206
    25  H    3.798349   5.048696   3.856748   3.513289   4.109852
    26  H    2.252081   3.816011   2.999802   2.756696   3.658077
    27  H    5.126864   5.295903   4.474434   3.356963   3.075904
    28  O    5.746468   5.584685   4.357185   4.331234   3.779013
    29  C    6.407728   6.077145   4.781362   5.241936   4.639114
    30  H    7.461758   7.106546   5.863216   6.180726   5.525905
    31  H    6.366606   6.227583   4.724114   5.531066   5.089812
    32  H    6.260238   5.643572   4.544366   5.122383   4.411762
                   11         12         13         14         15
    11  H    0.000000
    12  C    2.377818   0.000000
    13  C    2.697938   1.404071   0.000000
    14  C    3.726182   2.435295   1.392213   0.000000
    15  C    4.357435   2.818385   2.415503   1.395116   0.000000
    16  C    4.164981   2.431010   2.776886   2.406366   1.392440
    17  C    3.271489   1.399180   2.404081   2.783057   2.419561
    18  H    2.765241   2.159116   1.092758   2.153858   3.403507
    19  H    4.396734   3.420044   2.153612   1.092259   2.161233
    20  H    5.332871   3.910491   3.406832   2.162718   1.092110
    21  H    5.052303   3.414609   3.869085   3.399466   2.158083
    22  H    3.719019   2.165844   3.401697   3.872956   3.396914
    23  C    3.150111   2.555988   3.856181   4.990675   5.173699
    24  H    3.651485   3.490679   4.671860   5.907436   6.209964
    25  H    4.033655   2.785175   4.102659   5.106405   5.135095
    26  H    3.118054   2.864553   4.207147   5.186366   5.171730
    27  H    3.839822   2.626686   2.726722   3.912015   4.769636
    28  O    5.175513   4.795138   5.045879   6.325753   7.237314
    29  C    6.156770   6.086907   6.367016   7.671344   8.604836
    30  H    7.047656   6.801834   6.957119   8.187035   9.159192
    31  H    6.510555   6.423590   6.914816   8.246837   9.058820
    32  H    6.018737   6.358555   6.554643   7.879836   8.893610
                   16         17         18         19         20
    16  C    0.000000
    17  C    1.395756   0.000000
    18  H    3.869498   3.395138   0.000000
    19  H    3.399506   3.875274   2.474513   0.000000
    20  H    2.160245   3.410378   4.306293   2.495329   0.000000
    21  H    1.092248   2.154617   4.961661   4.306696   2.491409
    22  H    2.144358   1.090158   4.308578   4.965202   4.296019
    23  C    4.296182   2.901419   4.209932   5.963138   6.234884
    24  H    5.384277   3.988542   4.825011   6.819845   7.283659
    25  H    4.160123   2.842812   4.568452   6.109096   6.151408
    26  H    4.156470   2.840134   4.708113   6.203974   6.180627
    27  H    4.710429   3.786755   2.409451   4.453640   5.758171
    28  O    7.069091   5.951834   4.471500   6.776135   8.248076
    29  C    8.406258   7.235373   5.733271   8.091359   9.625181
    30  H    9.047675   7.952509   6.275581   8.518645  10.135767
    31  H    8.697676   7.446511   6.407374   8.775291  10.106177
    32  H    8.757239   7.585281   5.823658   8.242890   9.917292
                   21         22         23         24         25
    21  H    0.000000
    22  H    2.457169   0.000000
    23  C    4.900662   2.513478   0.000000
    24  H    5.994872   3.589389   1.096036   0.000000
    25  H    4.650736   2.314160   1.097941   1.772055   0.000000
    26  H    4.611693   2.241298   1.101096   1.794938   1.781423
    27  H    5.670854   4.282669   3.341921   3.664512   3.374654
    28  O    7.983711   6.175344   4.301679   3.922007   4.477627
    29  C    9.307021   7.374866   5.264062   4.642978   5.505547
    30  H    9.955857   8.145995   6.174085   5.619180   6.300898
    31  H    9.522706   7.424463   5.163844   4.385965   5.355254
    32  H    9.699128   7.770093   5.597149   4.939639   6.028046
                   26         27         28         29         30
    26  H    0.000000
    27  H    4.287945   0.000000
    28  O    5.348204   2.510923   0.000000
    29  C    6.262112   3.910613   1.405037   0.000000
    30  H    7.211152   4.400081   2.014661   1.098174   0.000000
    31  H    6.128116   4.455326   2.084691   1.101595   1.795182
    32  H    6.503569   4.381426   2.085487   1.102382   1.795092
                   31         32
    31  H    0.000000
    32  H    1.778433   0.000000
 Stoichiometry    C12H17NO2
 Framework group  C1[X(C12H17NO2)]
 Deg. of freedom    90
 Full point group                 C1      NOp   1
 Largest Abelian subgroup         C1      NOp   1
 Largest concise Abelian subgroup C1      NOp   1
                         Standard orientation:                         
 ---------------------------------------------------------------------
 Center     Atomic      Atomic             Coordinates (Angstroms)
 Number     Number       Type             X           Y           Z
 ---------------------------------------------------------------------
      1          6           0       -0.909109   -0.705539    0.186200
      2          6           0       -2.289359   -0.460509    0.151320
      3          8           0       -2.856799    0.640031    0.029040
      4          6           0        0.049871    0.412271    0.270790
      5          6           0       -0.802049    2.637151   -1.057140
      6          1           0       -0.191059    3.335641   -0.475860
      7          1           0       -0.914479    3.018011   -2.080820
      8          1           0       -1.783969    2.488421   -0.595610
      9          7           0       -0.141169    1.319481   -1.109350
     10          1           0       -0.703519    0.675211   -1.674470
     11          1           0        0.773151    1.397141   -1.562010
     12          6           0        1.494571   -0.073720    0.161400
     13          6           0        1.839301   -0.978380   -0.855540
     14          6           0        3.150560   -1.419000   -1.012730
     15          6           0        4.149221   -0.967930   -0.149270
     16          6           0        3.821271   -0.073040    0.865870
     17          6           0        2.507661    0.374110    1.016270
     18          1           0        1.058930   -1.353009   -1.522470
     19          1           0        3.392060   -2.125820   -1.809670
     20          1           0        5.177800   -1.315790   -0.266410
     21          1           0        4.592641    0.283580    1.552030
     22          1           0        2.281361    1.072760    1.821950
     23          6           0       -0.185039    1.368671    1.438700
     24          1           0       -1.243999    1.649451    1.471270
     25          1           0        0.045321    0.824131    2.363840
     26          1           0        0.436511    2.277121    1.410290
     27          1           0       -0.543390   -1.729149    0.237230
     28          8           0       -3.050920   -1.599569    0.221850
     29          6           0       -4.439810   -1.426369    0.098910
     30          1           0       -4.887370   -2.426519    0.172230
     31          1           0       -4.847239   -0.784099    0.895780
     32          1           0       -4.715329   -0.973429   -0.867620
 ---------------------------------------------------------------------
 Rotational constants (GHZ):           1.1153756           0.3327472           0.2966569
 Standard basis: def2SVP (5D, 7F)
 There are   310 symmetry adapted cartesian basis functions of A   symmetry.
 There are   295 symmetry adapted basis functions of A   symmetry.
   295 basis functions,   494 primitive gaussians,   310 cartesian basis functions
    56 alpha electrons       56 beta electrons
       nuclear repulsion energy      1010.5154724163 Hartrees.
 NAtoms=   32 NActive=   32 NUniq=   32 SFac= 1.00D+00 NAtFMM=   60 NAOKFM=F Big=F
 Integral buffers will be    131072 words long.
 Raffenetti 2 integral format.
 Two-electron integral symmetry is turned on.
 Nuclear repulsion after empirical dispersion term =     1010.4916846011 Hartrees.
 Force inversion solution in PCM.
 ------------------------------------------------------------------------------
 Polarizable Continuum Model (PCM)
 =================================
 Model                : PCM.
 Atomic radii         : UFF (Universal Force Field).
 Polarization charges : Total charges.
 Charge compensation  : None.
 Solution method      : Matrix inversion.
 Cavity type          : Scaled VdW (van der Waals Surface) (Alpha=1.100).
 Cavity algorithm     : GePol (No added spheres)
                        Default sphere list used, NSphG=   32.
                        Lebedev-Laikov grids with approx.  5.0 points / Ang**2.
                        Smoothing algorithm: York/Karplus (Gamma=1.0000).
                        Polarization charges: spherical gaussians, with
                                              point-specific exponents (IZeta= 3).
                        Self-potential: point-specific (ISelfS= 7).
                        Self-field    : sphere-specific E.n sum rule (ISelfD= 2).
 1st derivatives      : Analytical E(r).r(x)/FMM algorithm (CHGder, D1EAlg=3).
                        Cavity 1st derivative terms included.
 2nd derivatives      : Analytical E(r).r(xy)/FMM algorithm (CHGder, D2EAlg=3).
                        Cavity 2nd derivative terms included.
 Solvent              : Toluene, Eps=   2.374100 Eps(inf)=   2.238315
 ------------------------------------------------------------------------------
 One-electron integrals computed using PRISM.
   1 Symmetry operations used in ECPInt.
 ECPInt:  NShTT=   10011 NPrTT=   35491 LenC2=    9437 LenP2D=   24603.
 LDataN:  DoStor=T MaxTD1= 4 Len=   56
 NBasis=   295 RedAO= T EigKep=  2.79D-04  NBF=   295
 NBsUse=   295 1.00D-06 EigRej= -1.00D+00 NBFU=   295
 ExpMin= 1.22D-01 ExpMax= 2.27D+03 ExpMxC= 3.41D+02 IAcc=3 IRadAn=         5 AccDes= 0.00D+00
 Harris functional with IExCor= 4639 and IRadAn=       5 diagonalized for initial guess.
 HarFok:  IExCor= 4639 AccDes= 0.00D+00 IRadAn=         5 IDoV= 1 UseB2=F ITyADJ=14
 ICtDFT=  3500011 ScaDFX=  1.000000  1.000000  1.000000  1.000000
 FoFCou: FMM=F IPFlag=           0 FMFlag=      100000 FMFlg1=           0
         NFxFlg=           0 DoJE=T BraDBF=F KetDBF=T FulRan=T
         wScrn=  0.000000 ICntrl=       500 IOpCl=  0 I1Cent=   200000004 NGrid=           0
         NMat0=    1 NMatS0=      1 NMatT0=    0 NMatD0=    1 NMtDS0=    0 NMtDT0=    0
 Petite list used in FoFCou.
 Requested convergence on RMS density matrix=1.00D-08 within 128 cycles.
 Requested convergence on MAX density matrix=1.00D-06.
 Requested convergence on             energy=1.00D-06.
 No special actions if energy rises.
 Inv3:  Mode=1 IEnd=    14652300.
 Iteration    1 A*A^-1 deviation from unit magnitude is 3.33D-15 for   1131.
 Iteration    1 A*A^-1 deviation from orthogonality  is 3.36D-15 for   1853    723.
 Iteration    1 A^-1*A deviation from unit magnitude is 3.00D-15 for   1664.
 Iteration    1 A^-1*A deviation from orthogonality  is 2.63D-15 for   1598   1564.
 Error on total polarization charges =  0.00655
 SCF Done:  E(RwB97XD) =  -671.970647944     A.U. after   14 cycles
            NFock= 14  Conv=0.73D-08     -V/T= 2.0108
 DoSCS=F DFT=T ScalE2(SS,OS)=  1.000000  1.000000
 Range of M.O.s used for correlation:     1   295
 NBasis=   295 NAE=    56 NBE=    56 NFC=     0 NFV=     0
 NROrb=    295 NOA=    56 NOB=    56 NVA=   239 NVB=   239

 **** Warning!!: The largest alpha MO coefficient is  0.14176032D+02

   1 Symmetry operations used in ECPInt.
 ECPInt:  NShTT=   10011 NPrTT=   35491 LenC2=    9437 LenP2D=   24603.
 LDataN:  DoStor=T MaxTD1= 5 Len=  102
 Symmetrizing basis deriv contribution to polar:
 IMax=3 JMax=2 DiffMx= 0.00D+00
 G2DrvN: will do    33 centers at a time, making    1 passes.
 Calling FoFCou, ICntrl=  3107 FMM=F I1Cent=   0 AccDes= 0.00D+00.
 NEqPCM:  Using equilibrium solvation (IEInf=0, Eps=   2.3741, EpsInf=   2.2383)
 G2PCM: DoFxE=T DoFxN=T DoGrad=T DoDP/DQ/DG/TGxP=FFFF NFrqRd=   0 IEInf=0 SqF1=F DoCFld=F IF1Alg=4.
 End of G2Drv F.D. properties file   721 does not exist.
 End of G2Drv F.D. properties file   722 does not exist.
 End of G2Drv F.D. properties file   788 does not exist.
          IDoAtm=11111111111111111111111111111111
 NEqPCM:  Using equilibrium solvation (IEInf=0, Eps=   2.3741, EpsInf=   2.2383)
          Differentiating once with respect to electric field.
                with respect to dipole field.
          Differentiating once with respect to nuclear coordinates.
 Keep R1 ints in memory in canonical form, NReq=1934262512.
          There are    99 degrees of freedom in the 1st order CPHF.  IDoFFX=6 NUNeed=     3.
     96 vectors produced by pass  0 Test12= 1.35D-14 1.01D-09 XBig12= 8.30D+01 3.09D+00.
 AX will form    96 AO Fock derivatives at one time.
     96 vectors produced by pass  1 Test12= 1.35D-14 1.01D-09 XBig12= 6.23D+00 3.92D-01.
     96 vectors produced by pass  2 Test12= 1.35D-14 1.01D-09 XBig12= 1.08D-01 8.08D-02.
     96 vectors produced by pass  3 Test12= 1.35D-14 1.01D-09 XBig12= 1.34D-03 5.93D-03.
     96 vectors produced by pass  4 Test12= 1.35D-14 1.01D-09 XBig12= 9.84D-06 3.79D-04.
     96 vectors produced by pass  5 Test12= 1.35D-14 1.01D-09 XBig12= 5.13D-08 1.95D-05.
     86 vectors produced by pass  6 Test12= 1.35D-14 1.01D-09 XBig12= 2.63D-10 1.40D-06.
     21 vectors produced by pass  7 Test12= 1.35D-14 1.01D-09 XBig12= 1.12D-12 7.81D-08.
      3 vectors produced by pass  8 Test12= 1.35D-14 1.01D-09 XBig12= 4.53D-15 5.83D-09.
 InvSVY:  IOpt=1 It=  1 EMax= 8.88D-15
 Solved reduced A of dimension   686 with    99 vectors.
 Isotropic polarizability for W=    0.000000      162.80 Bohr**3.
 End of Minotr F.D. properties file   721 does not exist.
 End of Minotr F.D. properties file   722 does not exist.
 End of Minotr F.D. properties file   788 does not exist.

 **********************************************************************

            Population analysis using the SCF Density.

 **********************************************************************

 Orbital symmetries:
       Occupied  (A) (A) (A) (A) (A) (A) (A) (A) (A) (A) (A) (A)
                 (A) (A) (A) (A) (A) (A) (A) (A) (A) (A) (A) (A)
                 (A) (A) (A) (A) (A) (A) (A) (A) (A) (A) (A) (A)
                 (A) (A) (A) (A) (A) (A) (A) (A) (A) (A) (A) (A)
                 (A) (A) (A) (A) (A) (A) (A) (A)
       Virtual   (A) (A) (A) (A) (A) (A) (A) (A) (A) (A) (A) (A)
                 (A) (A) (A) (A) (A) (A) (A) (A) (A) (A) (A) (A)
                 (A) (A) (A) (A) (A) (A) (A) (A) (A) (A) (A) (A)
                 (A) (A) (A) (A) (A) (A) (A) (A) (A) (A) (A) (A)
                 (A) (A) (A) (A) (A) (A) (A) (A) (A) (A) (A) (A)
                 (A) (A) (A) (A) (A) (A) (A) (A) (A) (A) (A) (A)
                 (A) (A) (A) (A) (A) (A) (A) (A) (A) (A) (A) (A)
                 (A) (A) (A) (A) (A) (A) (A) (A) (A) (A) (A) (A)
                 (A) (A) (A) (A) (A) (A) (A) (A) (A) (A) (A) (A)
                 (A) (A) (A) (A) (A) (A) (A) (A) (A) (A) (A) (A)
                 (A) (A) (A) (A) (A) (A) (A) (A) (A) (A) (A) (A)
                 (A) (A) (A) (A) (A) (A) (A) (A) (A) (A) (A) (A)
                 (A) (A) (A) (A) (A) (A) (A) (A) (A) (A) (A) (A)
                 (A) (A) (A) (A) (A) (A) (A) (A) (A) (A) (A) (A)
                 (A) (A) (A) (A) (A) (A) (A) (A) (A) (A) (A) (A)
                 (A) (A) (A) (A) (A) (A) (A) (A) (A) (A) (A) (A)
                 (A) (A) (A) (A) (A) (A) (A) (A) (A) (A) (A) (A)
                 (A) (A) (A) (A) (A) (A) (A) (A) (A) (A) (A) (A)
                 (A) (A) (A) (A) (A) (A) (A) (A) (A) (A) (A) (A)
                 (A) (A) (A) (A) (A) (A) (A) (A) (A) (A) (A)
 The electronic state is 1-A.
 Alpha  occ. eigenvalues --  -19.24619 -19.17819 -14.54343 -10.36532 -10.36361
 Alpha  occ. eigenvalues --  -10.34732 -10.32111 -10.31934 -10.31140 -10.31126
 Alpha  occ. eigenvalues --  -10.31095 -10.31049 -10.31005 -10.28936 -10.22716
 Alpha  occ. eigenvalues --   -1.13992  -1.07638  -1.03756  -0.96408  -0.89826
 Alpha  occ. eigenvalues --   -0.84787  -0.83123  -0.81000  -0.79896  -0.75075
 Alpha  occ. eigenvalues --   -0.71462  -0.69854  -0.66557  -0.65822  -0.62401
 Alpha  occ. eigenvalues --   -0.60917  -0.58527  -0.57618  -0.55608  -0.54046
 Alpha  occ. eigenvalues --   -0.53586  -0.52956  -0.52139  -0.51675  -0.50916
 Alpha  occ. eigenvalues --   -0.49318  -0.48659  -0.46590  -0.46312  -0.46077
 Alpha  occ. eigenvalues --   -0.45526  -0.44040  -0.43311  -0.42337  -0.41806
 Alpha  occ. eigenvalues --   -0.39538  -0.34172  -0.34019  -0.33903  -0.30969
 Alpha  occ. eigenvalues --   -0.23593
 Alpha virt. eigenvalues --    0.04214   0.05020   0.11319   0.13421   0.14063
 Alpha virt. eigenvalues --    0.15163   0.16706   0.18042   0.18345   0.18437
 Alpha virt. eigenvalues --    0.19103   0.20533   0.21307   0.21872   0.22312
 Alpha virt. eigenvalues --    0.23271   0.23554   0.23786   0.24239   0.24663
 Alpha virt. eigenvalues --    0.25277   0.25615   0.27290   0.28472   0.30906
 Alpha virt. eigenvalues --    0.32670   0.35831   0.36513   0.36775   0.38714
 Alpha virt. eigenvalues --    0.39372   0.40551   0.42620   0.45104   0.45950
 Alpha virt. eigenvalues --    0.46309   0.48352   0.48750   0.50165   0.51843
 Alpha virt. eigenvalues --    0.52870   0.54650   0.55387   0.55928   0.56236
 Alpha virt. eigenvalues --    0.56777   0.57679   0.59206   0.60331   0.60557
 Alpha virt. eigenvalues --    0.62015   0.62723   0.64714   0.65042   0.66336
 Alpha virt. eigenvalues --    0.67603   0.69092   0.70171   0.71591   0.71769
 Alpha virt. eigenvalues --    0.72643   0.73054   0.73397   0.73705   0.74079
 Alpha virt. eigenvalues --    0.74715   0.75042   0.75673   0.75982   0.76203
 Alpha virt. eigenvalues --    0.76893   0.77494   0.77857   0.79161   0.79440
 Alpha virt. eigenvalues --    0.79612   0.80081   0.81710   0.82313   0.82835
 Alpha virt. eigenvalues --    0.83317   0.84169   0.85556   0.86696   0.87089
 Alpha virt. eigenvalues --    0.88661   0.90181   0.90792   0.91836   0.94248
 Alpha virt. eigenvalues --    0.96158   0.97004   1.02456   1.02928   1.04206
 Alpha virt. eigenvalues --    1.05937   1.10128   1.13338   1.14987   1.16670
 Alpha virt. eigenvalues --    1.18073   1.20152   1.21416   1.23531   1.27626
 Alpha virt. eigenvalues --    1.28823   1.30566   1.32044   1.32675   1.33404
 Alpha virt. eigenvalues --    1.35601   1.37006   1.37818   1.38449   1.39786
 Alpha virt. eigenvalues --    1.40973   1.43064   1.48321   1.50284   1.51397
 Alpha virt. eigenvalues --    1.53216   1.55321   1.57688   1.59921   1.61180
 Alpha virt. eigenvalues --    1.62881   1.63637   1.64137   1.68609   1.70845
 Alpha virt. eigenvalues --    1.72902   1.74534   1.76814   1.77563   1.78516
 Alpha virt. eigenvalues --    1.80177   1.80578   1.80981   1.82439   1.83380
 Alpha virt. eigenvalues --    1.83696   1.84282   1.84819   1.85231   1.86072
 Alpha virt. eigenvalues --    1.87639   1.88725   1.90315   1.90854   1.91741
 Alpha virt. eigenvalues --    1.93376   1.94380   1.95448   1.95715   1.98168
 Alpha virt. eigenvalues --    1.98678   1.98992   1.99543   2.00560   2.02190
 Alpha virt. eigenvalues --    2.03196   2.04936   2.05894   2.07367   2.08087
 Alpha virt. eigenvalues --    2.08719   2.09640   2.11900   2.12651   2.13012
 Alpha virt. eigenvalues --    2.15948   2.16477   2.19004   2.20270   2.21272
 Alpha virt. eigenvalues --    2.23362   2.24037   2.25513   2.28892   2.32132
 Alpha virt. eigenvalues --    2.35357   2.35463   2.37598   2.38760   2.39493
 Alpha virt. eigenvalues --    2.40510   2.41330   2.43100   2.43684   2.45025
 Alpha virt. eigenvalues --    2.46120   2.48521   2.50287   2.50528   2.52537
 Alpha virt. eigenvalues --    2.56568   2.59017   2.61860   2.62663   2.67332
 Alpha virt. eigenvalues --    2.70937   2.71548   2.73056   2.73982   2.76629
 Alpha virt. eigenvalues --    2.77525   2.78873   2.80001   2.81067   2.81841
 Alpha virt. eigenvalues --    2.82464   2.83817   2.87100   2.89980   2.91666
 Alpha virt. eigenvalues --    2.93259   2.96239   2.97176   2.99614   3.02717
 Alpha virt. eigenvalues --    3.03820   3.04189   3.05971   3.08714   3.09989
 Alpha virt. eigenvalues --    3.12356   3.13226   3.16287   3.20928   3.24448
 Alpha virt. eigenvalues --    3.28885   3.31405   3.32510   3.34468   3.47552
 Alpha virt. eigenvalues --    3.58547   3.71237   3.74154   3.82656
          Condensed to atoms (all electrons):
               1          2          3          4          5          6
     1  C    5.738233   0.353057  -0.141280   0.255279   0.002720  -0.000578
     2  C    0.353057   4.449313   0.636570  -0.016479  -0.000906   0.000199
     3  O   -0.141280   0.636570   7.928264   0.016862  -0.017159   0.000478
     4  C    0.255279  -0.016479   0.016862   5.474586  -0.031453  -0.012691
     5  C    0.002720  -0.000906  -0.017159  -0.031453   4.540293   0.395578
     6  H   -0.000578   0.000199   0.000478  -0.012691   0.395578   0.592369
     7  H   -0.000490   0.000013   0.000255   0.005247   0.397464  -0.021128
     8  H   -0.002444   0.000393   0.041347  -0.003703   0.385426  -0.012179
     9  N   -0.092151  -0.004915   0.001549   0.095530   0.303734  -0.015101
    10  H    0.001706   0.006782   0.002429   0.012835  -0.014498   0.005524
    11  H    0.006537  -0.000332  -0.000008  -0.004783  -0.015636  -0.006061
    12  C   -0.051515   0.010344   0.000818   0.166192   0.004270   0.000661
    13  C   -0.014891   0.000362  -0.000004  -0.097482   0.000064   0.000154
    14  C    0.000757  -0.000005  -0.000000   0.013078   0.000009  -0.000001
    15  C    0.000004   0.000000  -0.000000  -0.001744  -0.000001  -0.000000
    16  C   -0.000469   0.000007  -0.000000   0.021154  -0.000001  -0.000005
    17  C    0.007217  -0.000552  -0.000003  -0.089722   0.000138  -0.000152
    18  H    0.018658  -0.000760  -0.000036  -0.014644   0.000026  -0.000023
    19  H   -0.000018  -0.000001   0.000000  -0.000297  -0.000000  -0.000000
    20  H    0.000001   0.000000   0.000000   0.000020   0.000000   0.000000
    21  H    0.000005  -0.000000   0.000000  -0.000276  -0.000000  -0.000000
    22  H    0.000442  -0.000025   0.000004  -0.034902  -0.000089  -0.000080
    23  C   -0.043453  -0.016346  -0.016180   0.402101   0.020664   0.007131
    24  H   -0.024614   0.003020   0.024930   0.007929   0.004766  -0.002377
    25  H   -0.000223  -0.001284   0.000018  -0.009023  -0.000055   0.000110
    26  H    0.009569   0.000999   0.000053   0.004283  -0.002099   0.001064
    27  H    0.404044  -0.010855   0.004199  -0.062933  -0.000052   0.000004
    28  O   -0.131491   0.364726  -0.083517   0.005267  -0.000041   0.000001
    29  C    0.010644  -0.039267   0.001374  -0.000479   0.000006   0.000000
    30  H    0.000165   0.005689   0.001056   0.000001  -0.000000  -0.000000
    31  H    0.000778  -0.005471   0.009360   0.000055   0.000004  -0.000000
    32  H    0.001088  -0.003965   0.008362   0.000047  -0.000005   0.000000
               7          8          9         10         11         12
     1  C   -0.000490  -0.002444  -0.092151   0.001706   0.006537  -0.051515
     2  C    0.000013   0.000393  -0.004915   0.006782  -0.000332   0.010344
     3  O    0.000255   0.041347   0.001549   0.002429  -0.000008   0.000818
     4  C    0.005247  -0.003703   0.095530   0.012835  -0.004783   0.166192
     5  C    0.397464   0.385426   0.303734  -0.014498  -0.015636   0.004270
     6  H   -0.021128  -0.012179  -0.015101   0.005524  -0.006061   0.000661
     7  H    0.588680  -0.014118  -0.016522  -0.006378  -0.005447  -0.000278
     8  H   -0.014118   0.520830  -0.016634  -0.004430   0.005266   0.000368
     9  N   -0.016522  -0.016634   6.306055   0.320743   0.332736  -0.025186
    10  H   -0.006378  -0.004430   0.320743   0.491664  -0.007049  -0.008743
    11  H   -0.005447   0.005266   0.332736  -0.007049   0.509002  -0.008674
    12  C   -0.000278   0.000368  -0.025186  -0.008743  -0.008674   5.496741
    13  C   -0.000073  -0.000020  -0.010225   0.005244   0.005572   0.273908
    14  C   -0.000001  -0.000001  -0.000342   0.000123  -0.000338   0.071188
    15  C    0.000000   0.000000   0.000046   0.000008  -0.000030  -0.142766
    16  C    0.000000  -0.000001  -0.000177   0.000003  -0.000306   0.065549
    17  C   -0.000005  -0.000017  -0.000178  -0.000370   0.002138   0.344508
    18  H   -0.000012   0.000008  -0.003163   0.002188   0.001869  -0.080226
    19  H    0.000000   0.000000   0.000003  -0.000006   0.000013   0.014306
    20  H   -0.000000   0.000000  -0.000000   0.000000  -0.000003  -0.001482
    21  H    0.000000   0.000000   0.000002  -0.000000   0.000002   0.014434
    22  H    0.000000   0.000011   0.000377  -0.000021   0.000106  -0.050054
    23  C   -0.000267  -0.001569  -0.060157   0.006046   0.002689  -0.069463
    24  H    0.000184  -0.001102  -0.010360   0.000261  -0.000160   0.007031
    25  H   -0.000018   0.000088   0.006001  -0.000250  -0.000241  -0.008943
    26  H    0.000314  -0.000660  -0.002475  -0.000741   0.000622  -0.016197
    27  H    0.000011  -0.000131   0.003454   0.000463  -0.000100  -0.004249
    28  O    0.000001   0.000299   0.000052  -0.000509   0.000003  -0.000017
    29  C    0.000000  -0.000037   0.000012  -0.000041  -0.000001   0.000005
    30  H   -0.000000   0.000001   0.000000  -0.000002   0.000000  -0.000001
    31  H    0.000000  -0.000046   0.000004  -0.000032  -0.000000   0.000001
    32  H   -0.000002   0.000043  -0.000027   0.000166   0.000001  -0.000004
              13         14         15         16         17         18
     1  C   -0.014891   0.000757   0.000004  -0.000469   0.007217   0.018658
     2  C    0.000362  -0.000005   0.000000   0.000007  -0.000552  -0.000760
     3  O   -0.000004  -0.000000  -0.000000  -0.000000  -0.000003  -0.000036
     4  C   -0.097482   0.013078  -0.001744   0.021154  -0.089722  -0.014644
     5  C    0.000064   0.000009  -0.000001  -0.000001   0.000138   0.000026
     6  H    0.000154  -0.000001  -0.000000  -0.000005  -0.000152  -0.000023
     7  H   -0.000073  -0.000001   0.000000   0.000000  -0.000005  -0.000012
     8  H   -0.000020  -0.000001   0.000000  -0.000001  -0.000017   0.000008
     9  N   -0.010225  -0.000342   0.000046  -0.000177  -0.000178  -0.003163
    10  H    0.005244   0.000123   0.000008   0.000003  -0.000370   0.002188
    11  H    0.005572  -0.000338  -0.000030  -0.000306   0.002138   0.001869
    12  C    0.273908   0.071188  -0.142766   0.065549   0.344508  -0.080226
    13  C    5.177308   0.323156   0.073152  -0.131978   0.031710   0.453618
    14  C    0.323156   5.021714   0.296307   0.075203  -0.122566  -0.055159
    15  C    0.073152   0.296307   5.076885   0.305238   0.068688   0.013101
    16  C   -0.131978   0.075203   0.305238   5.061518   0.301153  -0.002029
    17  C    0.031710  -0.122566   0.068688   0.301153   5.068297   0.012877
    18  H    0.453618  -0.055159   0.013101  -0.002029   0.012877   0.643057
    19  H   -0.063371   0.449284  -0.067071   0.012344  -0.001627  -0.011541
    20  H    0.012520  -0.064074   0.447530  -0.062608   0.012556  -0.000187
    21  H   -0.001599   0.012221  -0.067268   0.445036  -0.058966   0.000021
    22  H    0.013412  -0.001868   0.013116  -0.067824   0.448239  -0.000137
    23  C    0.014784  -0.000475   0.000143  -0.000907   0.009330   0.000965
    24  H   -0.000096   0.000006   0.000003  -0.000045   0.000706   0.000051
    25  H   -0.000133   0.000024  -0.000048   0.000671   0.000074  -0.000029
    26  H   -0.001273  -0.000002  -0.000050   0.000934   0.004109  -0.000094
    27  H   -0.003706   0.000733  -0.000097   0.000005   0.000464   0.000716
    28  O   -0.000021  -0.000000  -0.000000   0.000000   0.000000  -0.000018
    29  C    0.000000   0.000000  -0.000000   0.000000  -0.000000  -0.000004
    30  H    0.000000   0.000000   0.000000  -0.000000   0.000000   0.000000
    31  H   -0.000000  -0.000000  -0.000000  -0.000000   0.000000  -0.000000
    32  H    0.000001   0.000000  -0.000000   0.000000  -0.000000   0.000000
              19         20         21         22         23         24
     1  C   -0.000018   0.000001   0.000005   0.000442  -0.043453  -0.024614
     2  C   -0.000001   0.000000  -0.000000  -0.000025  -0.016346   0.003020
     3  O    0.000000   0.000000   0.000000   0.000004  -0.016180   0.024930
     4  C   -0.000297   0.000020  -0.000276  -0.034902   0.402101   0.007929
     5  C   -0.000000   0.000000  -0.000000  -0.000089   0.020664   0.004766
     6  H   -0.000000   0.000000  -0.000000  -0.000080   0.007131  -0.002377
     7  H    0.000000  -0.000000   0.000000   0.000000  -0.000267   0.000184
     8  H    0.000000   0.000000   0.000000   0.000011  -0.001569  -0.001102
     9  N    0.000003  -0.000000   0.000002   0.000377  -0.060157  -0.010360
    10  H   -0.000006   0.000000  -0.000000  -0.000021   0.006046   0.000261
    11  H    0.000013  -0.000003   0.000002   0.000106   0.002689  -0.000160
    12  C    0.014306  -0.001482   0.014434  -0.050054  -0.069463   0.007031
    13  C   -0.063371   0.012520  -0.001599   0.013412   0.014784  -0.000096
    14  C    0.449284  -0.064074   0.012221  -0.001868  -0.000475   0.000006
    15  C   -0.067071   0.447530  -0.067268   0.013116   0.000143   0.000003
    16  C    0.012344  -0.062608   0.445036  -0.067824  -0.000907  -0.000045
    17  C   -0.001627   0.012556  -0.058966   0.448239   0.009330   0.000706
    18  H   -0.011541  -0.000187   0.000021  -0.000137   0.000965   0.000051
    19  H    0.647170  -0.010562  -0.000208   0.000023   0.000004  -0.000000
    20  H   -0.010562   0.644719  -0.010587  -0.000202   0.000000   0.000000
    21  H   -0.000208  -0.010587   0.649006  -0.011790  -0.000002  -0.000000
    22  H    0.000023  -0.000202  -0.011790   0.653589   0.019740   0.000023
    23  C    0.000004   0.000000  -0.000002   0.019740   4.543096   0.373659
    24  H   -0.000000   0.000000  -0.000000   0.000023   0.373659   0.594147
    25  H    0.000000  -0.000000   0.000011   0.000632   0.388104  -0.012011
    26  H    0.000000  -0.000000   0.000019  -0.001146   0.355337  -0.027061
    27  H    0.000040  -0.000001   0.000000   0.000011   0.002019   0.000047
    28  O    0.000000  -0.000000   0.000000   0.000000  -0.000166   0.000068
    29  C   -0.000000   0.000000  -0.000000  -0.000000   0.000009  -0.000066
    30  H   -0.000000  -0.000000   0.000000  -0.000000   0.000002  -0.000003
    31  H    0.000000  -0.000000  -0.000000  -0.000000  -0.000037   0.000159
    32  H   -0.000000  -0.000000   0.000000  -0.000000   0.000014  -0.000049
              25         26         27         28         29         30
     1  C   -0.000223   0.009569   0.404044  -0.131491   0.010644   0.000165
     2  C   -0.001284   0.000999  -0.010855   0.364726  -0.039267   0.005689
     3  O    0.000018   0.000053   0.004199  -0.083517   0.001374   0.001056
     4  C   -0.009023   0.004283  -0.062933   0.005267  -0.000479   0.000001
     5  C   -0.000055  -0.002099  -0.000052  -0.000041   0.000006  -0.000000
     6  H    0.000110   0.001064   0.000004   0.000001   0.000000  -0.000000
     7  H   -0.000018   0.000314   0.000011   0.000001   0.000000  -0.000000
     8  H    0.000088  -0.000660  -0.000131   0.000299  -0.000037   0.000001
     9  N    0.006001  -0.002475   0.003454   0.000052   0.000012   0.000000
    10  H   -0.000250  -0.000741   0.000463  -0.000509  -0.000041  -0.000002
    11  H   -0.000241   0.000622  -0.000100   0.000003  -0.000001   0.000000
    12  C   -0.008943  -0.016197  -0.004249  -0.000017   0.000005  -0.000001
    13  C   -0.000133  -0.001273  -0.003706  -0.000021   0.000000   0.000000
    14  C    0.000024  -0.000002   0.000733  -0.000000   0.000000   0.000000
    15  C   -0.000048  -0.000050  -0.000097  -0.000000  -0.000000   0.000000
    16  C    0.000671   0.000934   0.000005   0.000000   0.000000  -0.000000
    17  C    0.000074   0.004109   0.000464   0.000000  -0.000000   0.000000
    18  H   -0.000029  -0.000094   0.000716  -0.000018  -0.000004   0.000000
    19  H    0.000000   0.000000   0.000040   0.000000  -0.000000  -0.000000
    20  H   -0.000000  -0.000000  -0.000001  -0.000000   0.000000  -0.000000
    21  H    0.000011   0.000019   0.000000   0.000000  -0.000000   0.000000
    22  H    0.000632  -0.001146   0.000011   0.000000  -0.000000  -0.000000
    23  C    0.388104   0.355337   0.002019  -0.000166   0.000009   0.000002
    24  H   -0.012011  -0.027061   0.000047   0.000068  -0.000066  -0.000003
    25  H    0.604335  -0.024924   0.000785  -0.000010  -0.000001  -0.000000
    26  H   -0.024924   0.682678  -0.000158  -0.000000   0.000000   0.000000
    27  H    0.000785  -0.000158   0.658655   0.006002  -0.000183  -0.000177
    28  O   -0.000010  -0.000000   0.006002   8.011969   0.289118  -0.025950
    29  C   -0.000001   0.000000  -0.000183   0.289118   4.392609   0.395431
    30  H   -0.000000   0.000000  -0.000177  -0.025950   0.395431   0.645798
    31  H    0.000001   0.000001   0.000027  -0.030508   0.401689  -0.027335
    32  H   -0.000000  -0.000001   0.000032  -0.031987   0.397281  -0.027660
              31         32
     1  C    0.000778   0.001088
     2  C   -0.005471  -0.003965
     3  O    0.009360   0.008362
     4  C    0.000055   0.000047
     5  C    0.000004  -0.000005
     6  H   -0.000000   0.000000
     7  H    0.000000  -0.000002
     8  H   -0.000046   0.000043
     9  N    0.000004  -0.000027
    10  H   -0.000032   0.000166
    11  H   -0.000000   0.000001
    12  C    0.000001  -0.000004
    13  C   -0.000000   0.000001
    14  C   -0.000000   0.000000
    15  C   -0.000000  -0.000000
    16  C   -0.000000   0.000000
    17  C    0.000000  -0.000000
    18  H   -0.000000   0.000000
    19  H    0.000000  -0.000000
    20  H   -0.000000  -0.000000
    21  H   -0.000000   0.000000
    22  H   -0.000000  -0.000000
    23  C   -0.000037   0.000014
    24  H    0.000159  -0.000049
    25  H    0.000001  -0.000000
    26  H    0.000001  -0.000001
    27  H    0.000027   0.000032
    28  O   -0.030508  -0.031987
    29  C    0.401689   0.397281
    30  H   -0.027335  -0.027660
    31  H    0.663736  -0.038581
    32  H   -0.038581   0.676396
 Mulliken charges:
               1
     1  C   -0.307285
     2  C    0.269688
     3  O   -0.419741
     4  C   -0.099852
     5  C    0.026833
     6  H    0.067102
     7  H    0.072568
     8  H    0.103013
     9  N   -0.112689
    10  H    0.186884
    11  H    0.182615
    12  C   -0.002526
    13  C   -0.060093
    14  C   -0.018969
    15  C   -0.015145
    16  C   -0.022466
    17  C   -0.038047
    18  H    0.020909
    19  H    0.031516
    20  H    0.032360
    21  H    0.029941
    22  H    0.018413
    23  C    0.063186
    24  H    0.060955
    25  H    0.056338
    26  H    0.016899
    27  H    0.000929
    28  O   -0.373271
    29  C    0.151904
    30  H    0.032986
    31  H    0.026195
    32  H    0.018850
 Sum of Mulliken charges =  -0.00000
 Mulliken charges with hydrogens summed into heavy atoms:
               1
     1  C   -0.306356
     2  C    0.269688
     3  O   -0.419741
     4  C   -0.099852
     5  C    0.269516
     9  N    0.256810
    12  C   -0.002526
    13  C   -0.039184
    14  C    0.012547
    15  C    0.017216
    16  C    0.007475
    17  C   -0.019634
    23  C    0.197379
    28  O   -0.373271
    29  C    0.229935
 APT charges:
               1
     1  C   -1.046382
     2  C    1.704632
     3  O   -1.058150
     4  C    0.957341
     5  C    0.154773
     6  H    0.030764
     7  H    0.007609
     8  H    0.131349
     9  N   -0.591817
    10  H    0.221804
    11  H    0.208989
    12  C   -0.002977
    13  C   -0.106218
    14  C   -0.021515
    15  C   -0.049844
    16  C   -0.023049
    17  C   -0.083925
    18  H    0.074765
    19  H    0.035287
    20  H    0.038191
    21  H    0.033550
    22  H    0.065523
    23  C   -0.117729
    24  H    0.065875
    25  H    0.028682
    26  H   -0.028301
    27  H    0.042522
    28  O   -1.156250
    29  C    0.634910
    30  H   -0.037954
    31  H   -0.051509
    32  H   -0.060943
 Sum of APT charges =  -0.00000
 APT charges with hydrogens summed into heavy atoms:
               1
     1  C   -1.003861
     2  C    1.704632
     3  O   -1.058150
     4  C    0.957341
     5  C    0.324494
     9  N   -0.161024
    12  C   -0.002977
    13  C   -0.031453
    14  C    0.013772
    15  C   -0.011654
    16  C    0.010500
    17  C   -0.018402
    23  C   -0.051472
    28  O   -1.156250
    29  C    0.484505
 Electronic spatial extent (au):  <R**2>=           3887.7884
 Charge=             -0.0000 electrons
 Dipole moment (field-independent basis, Debye):
    X=              5.2355    Y=              4.0273    Z=             -3.3729  Tot=              7.4166
 Quadrupole moment (field-independent basis, Debye-Ang):
   XX=            -92.5046   YY=            -85.3930   ZZ=            -82.7089
   XY=              0.2256   XZ=              2.1483   YZ=             -1.0304
 Traceless Quadrupole moment (field-independent basis, Debye-Ang):
   XX=             -5.6358   YY=              1.4758   ZZ=              4.1599
   XY=              0.2256   XZ=              2.1483   YZ=             -1.0304
 Octapole moment (field-independent basis, Debye-Ang**2):
  XXX=             15.3220  YYY=             30.7350  ZZZ=            -14.9345  XYY=             -3.6809
  XXY=            -24.9990  XXZ=              2.0871  XZZ=             -6.1975  YZZ=             11.7468
  YYZ=            -16.7752  XYZ=             10.1388
 Hexadecapole moment (field-independent basis, Debye-Ang**3):
 XXXX=          -3435.2537 YYYY=           -913.2737 ZZZZ=           -450.4585 XXXY=             50.2664
 XXXZ=             24.8019 YYYX=             -2.7428 YYYZ=            -21.7046 ZZZX=              7.9183
 ZZZY=            -13.7788 XXYY=           -775.7940 XXZZ=           -683.5490 YYZZ=           -219.4632
 XXYZ=             29.7172 YYXZ=             -8.2196 ZZXY=             -1.2324
 N-N= 1.010491684601D+03 E-N=-3.583114836055D+03  KE= 6.648222854793D+02
  Exact polarizability:     214.959      -5.122     142.517       4.730      16.513     130.927
 Approx polarizability:     183.470      -7.321     145.860       5.590      18.330     138.918
   1 Symmetry operations used in ECPInt.
 ECPInt:  NShTT=   10011 NPrTT=   35491 LenC2=    9437 LenP2D=   24603.
 LDataN:  DoStor=T MaxTD1= 6 Len=  172
 D2PCM: PCM CHGder 2nd derivatives, FixD1E=F FixD2E=F DoIter=F DoCFld=F I1PDM=0
 Calling FoFJK, ICntrl=    100127 FMM=F ISym2X=0 I1Cent= 0 IOpClX= 0 NMat=1 NMatS=1 NMatT=0.
 Full mass-weighted force constant matrix:
 Low frequencies ---  -75.9947   -6.4996   -0.0009   -0.0005    0.0003    7.3751
 Low frequencies ---   12.2958   49.6149   73.3847
 ******    1 imaginary frequencies (negative Signs) ****** 
 Diagonal vibrational polarizability:
       90.0561833      53.3576355      64.6718367
 Harmonic frequencies (cm**-1), IR intensities (KM/Mole), Raman scattering
 activities (A**4/AMU), depolarization ratios for plane and unpolarized
 incident light, reduced masses (AMU), force constants (mDyne/A),
 and normal coordinates:
                      1                      2                      3
                      A                      A                      A
 Frequencies --    -75.9596                49.4804                73.3461
 Red. masses --      2.8026                 3.8046                 3.0828
 Frc consts  --      0.0095                 0.0055                 0.0098
 IR Inten    --      2.1509                 0.5069                 5.3668
  Atom  AN      X      Y      Z        X      Y      Z        X      Y      Z
     1   6    -0.01   0.06  -0.08    -0.02  -0.01   0.01    -0.02  -0.04  -0.16
     2   6    -0.03   0.04   0.03    -0.02   0.01   0.00    -0.02  -0.01  -0.09
     3   8    -0.09   0.02   0.20    -0.02   0.02   0.07     0.00   0.00  -0.05
     4   6     0.01   0.01  -0.01     0.00  -0.03   0.05    -0.01  -0.05  -0.06
     5   6    -0.13  -0.05  -0.09    -0.00  -0.02   0.07     0.07   0.03   0.05
     6   1    -0.37   0.04   0.05    -0.04  -0.01   0.10     0.08  -0.02   0.10
     7   1    -0.05  -0.01  -0.08     0.01   0.01   0.07     0.10   0.09   0.07
     8   1    -0.17  -0.28  -0.24    -0.01  -0.06   0.04     0.06   0.03   0.02
     9   7     0.16   0.09  -0.05     0.04   0.01   0.06     0.04   0.02  -0.01
    10   1     0.42   0.00  -0.21     0.09   0.00   0.01     0.04   0.06  -0.05
    11   1     0.24   0.32   0.16     0.06   0.05   0.10     0.05   0.02   0.01
    12   6     0.00  -0.03   0.01     0.00  -0.04   0.03    -0.00  -0.03  -0.02
    13   6     0.02  -0.01  -0.00    -0.04  -0.17   0.13     0.05  -0.04   0.01
    14   6     0.02  -0.01   0.01    -0.03  -0.14   0.10     0.07   0.00   0.04
    15   6     0.01  -0.02   0.02     0.02   0.04  -0.05     0.04   0.06   0.04
    16   6    -0.00  -0.04   0.03     0.06   0.19  -0.17    -0.01   0.08   0.01
    17   6    -0.00  -0.04   0.02     0.05   0.14  -0.12    -0.03   0.03  -0.02
    18   1     0.03   0.01  -0.03    -0.07  -0.29   0.24     0.07  -0.08   0.00
    19   1     0.02   0.00  -0.00    -0.06  -0.25   0.19     0.11  -0.01   0.06
    20   1     0.01  -0.02   0.03     0.03   0.07  -0.09     0.06   0.10   0.06
    21   1    -0.01  -0.05   0.04     0.10   0.33  -0.29    -0.03   0.13   0.02
    22   1    -0.01  -0.05   0.03     0.09   0.25  -0.21    -0.06   0.04  -0.04
    23   6     0.01   0.02  -0.04     0.01  -0.05   0.06    -0.06  -0.13  -0.01
    24   1     0.02   0.05  -0.06     0.00  -0.07   0.09    -0.07  -0.14  -0.02
    25   1    -0.01   0.04  -0.02     0.05  -0.06   0.05    -0.08  -0.18  -0.04
    26   1     0.03   0.01  -0.05    -0.02  -0.04   0.06    -0.08  -0.11   0.07
    27   1    -0.03   0.04  -0.26    -0.05  -0.02  -0.04    -0.04  -0.05  -0.13
    28   8     0.02  -0.00  -0.06    -0.03   0.01  -0.09    -0.05   0.01  -0.05
    29   6     0.01  -0.04   0.02    -0.02   0.02  -0.14    -0.07   0.07   0.26
    30   1     0.05  -0.07  -0.04    -0.03   0.02  -0.20    -0.08   0.07   0.16
    31   1     0.03  -0.13   0.10    -0.05  -0.00  -0.14     0.11  -0.08   0.47
    32   1    -0.06   0.03   0.08     0.02   0.06  -0.14    -0.25   0.26   0.41
                      4                      5                      6
                      A                      A                      A
 Frequencies --     84.7890               102.3254               118.6083
 Red. masses --      4.4221                 1.8842                 2.1163
 Frc consts  --      0.0187                 0.0116                 0.0175
 IR Inten    --      5.2133                 7.5771                 3.9888
  Atom  AN      X      Y      Z        X      Y      Z        X      Y      Z
     1   6    -0.04  -0.08   0.08     0.02  -0.01   0.04     0.00  -0.02  -0.09
     2   6    -0.04  -0.01   0.08     0.02  -0.01   0.03    -0.00  -0.01   0.04
     3   8     0.03   0.03   0.14     0.02  -0.00   0.13     0.00   0.00   0.16
     4   6    -0.02  -0.12   0.06    -0.01   0.00   0.00    -0.01  -0.02  -0.06
     5   6     0.10  -0.11  -0.12     0.07   0.06  -0.03     0.06   0.08   0.02
     6   1     0.13  -0.11  -0.16     0.21   0.02  -0.14     0.17   0.02  -0.02
     7   1     0.11  -0.15  -0.14    -0.02   0.03  -0.04    -0.00   0.11   0.04
     8   1     0.09  -0.02  -0.10     0.10   0.19   0.09     0.09   0.16   0.10
     9   7     0.03  -0.14  -0.04    -0.09  -0.01  -0.05    -0.05   0.03  -0.06
    10   1    -0.00  -0.15   0.00    -0.23   0.02   0.06    -0.15   0.08  -0.01
    11   1     0.03  -0.22  -0.05    -0.13  -0.14  -0.17    -0.08  -0.04  -0.13
    12   6    -0.01  -0.09   0.07    -0.00   0.03  -0.02     0.00   0.01  -0.06
    13   6     0.04   0.01  -0.00    -0.01   0.01  -0.00     0.04  -0.01  -0.04
    14   6     0.08   0.16  -0.09    -0.02  -0.02   0.02     0.04  -0.03   0.04
    15   6     0.07   0.20  -0.09    -0.02  -0.04   0.04     0.01  -0.02   0.07
    16   6     0.01   0.06   0.01    -0.01  -0.01   0.01    -0.03   0.02   0.03
    17   6    -0.03  -0.08   0.08    -0.00   0.03  -0.01    -0.03   0.03  -0.04
    18   1     0.06  -0.01  -0.02    -0.01   0.02  -0.01     0.07  -0.01  -0.07
    19   1     0.13   0.25  -0.15    -0.02  -0.04   0.04     0.07  -0.05   0.07
    20   1     0.10   0.33  -0.16    -0.03  -0.07   0.06     0.01  -0.04   0.13
    21   1    -0.01   0.08   0.02    -0.02  -0.02   0.02    -0.05   0.03   0.05
    22   1    -0.07  -0.16   0.14    -0.00   0.04  -0.03    -0.05   0.05  -0.06
    23   6    -0.02  -0.03  -0.02     0.00   0.04  -0.03    -0.03  -0.06  -0.04
    24   1    -0.01  -0.01  -0.05    -0.00   0.02  -0.01    -0.03  -0.09  -0.02
    25   1    -0.04   0.03   0.03     0.03   0.08  -0.01    -0.00  -0.07  -0.06
    26   1     0.01  -0.05  -0.08    -0.01   0.05  -0.08    -0.05  -0.04  -0.02
    27   1    -0.08  -0.10  -0.07     0.03  -0.01  -0.09     0.00  -0.03  -0.20
    28   8    -0.11   0.04  -0.02     0.03  -0.03  -0.12    -0.01  -0.01   0.05
    29   6    -0.09   0.14  -0.08     0.02  -0.02   0.00     0.00  -0.01  -0.05
    30   1    -0.17   0.17  -0.13     0.06  -0.07  -0.42    -0.04   0.04   0.38
    31   1    -0.09   0.16  -0.10     0.02  -0.40   0.31     0.02   0.37  -0.35
    32   1    -0.01   0.18  -0.09    -0.03   0.40   0.22     0.04  -0.43  -0.26
                      7                      8                      9
                      A                      A                      A
 Frequencies --    137.2988               160.0771               215.2856
 Red. masses --      3.6219                 2.1742                 3.7208
 Frc consts  --      0.0402                 0.0328                 0.1016
 IR Inten    --      1.2361                 1.7722                18.7554
  Atom  AN      X      Y      Z        X      Y      Z        X      Y      Z
     1   6    -0.04   0.05   0.01    -0.02   0.00  -0.07     0.10  -0.11  -0.01
     2   6    -0.05   0.02   0.00    -0.02   0.02   0.04     0.11  -0.11   0.02
     3   8    -0.10  -0.02  -0.03    -0.02   0.01  -0.02     0.19  -0.08   0.01
     4   6    -0.02  -0.01   0.06    -0.00  -0.01  -0.05    -0.02  -0.06   0.07
     5   6     0.27   0.13  -0.06     0.01   0.02   0.03    -0.02   0.08  -0.12
     6   1     0.30   0.05   0.00    -0.00  -0.00   0.07    -0.20   0.06   0.09
     7   1     0.37   0.18  -0.05     0.02   0.06   0.04     0.21   0.17  -0.11
     8   1     0.23   0.24  -0.11     0.01  -0.01   0.01    -0.12   0.02  -0.34
     9   7     0.13   0.07  -0.03     0.02   0.02  -0.02     0.04   0.11  -0.04
    10   1     0.09   0.12  -0.04     0.03   0.04  -0.05     0.14   0.09  -0.11
    11   1     0.16  -0.04   0.02     0.03   0.05  -0.00     0.09   0.15   0.08
    12   6    -0.04  -0.05   0.08     0.00  -0.01  -0.04    -0.03   0.03   0.05
    13   6    -0.08  -0.03   0.05     0.03  -0.02  -0.03    -0.08   0.04   0.02
    14   6    -0.07   0.02  -0.03     0.04  -0.00   0.00    -0.11  -0.00  -0.01
    15   6    -0.04   0.05  -0.09     0.02   0.01   0.02    -0.09  -0.03  -0.02
    16   6    -0.01   0.01  -0.04    -0.01   0.01   0.01    -0.03   0.00  -0.03
    17   6    -0.02  -0.04   0.04    -0.02  -0.00  -0.02    -0.02   0.04   0.01
    18   1    -0.10  -0.03   0.08     0.05  -0.03  -0.05    -0.11   0.07   0.04
    19   1    -0.10   0.04  -0.06     0.07  -0.01   0.01    -0.14  -0.01  -0.01
    20   1    -0.03   0.10  -0.17     0.03   0.01   0.05    -0.10  -0.06  -0.03
    21   1     0.02   0.02  -0.08    -0.03   0.02   0.03     0.00  -0.01  -0.06
    22   1    -0.01  -0.06   0.07    -0.04   0.00  -0.03    -0.00   0.05   0.01
    23   6    -0.05   0.04   0.00    -0.01  -0.05  -0.02    -0.15  -0.06   0.03
    24   1    -0.04   0.09  -0.07    -0.01  -0.05  -0.02    -0.17  -0.11  -0.06
    25   1    -0.12   0.07   0.04    -0.02  -0.09  -0.04    -0.18  -0.02   0.06
    26   1    -0.01   0.02   0.00    -0.01  -0.05   0.02    -0.19  -0.03   0.04
    27   1    -0.05   0.04  -0.09    -0.03  -0.00  -0.02     0.15  -0.09  -0.18
    28   8     0.03  -0.04   0.04    -0.03   0.03   0.23     0.03  -0.04   0.06
    29   6     0.02  -0.19   0.03    -0.00  -0.02  -0.09     0.05   0.15  -0.01
    30   1     0.12  -0.23   0.10     0.05  -0.09  -0.64    -0.09   0.21  -0.09
    31   1    -0.05  -0.17  -0.02    -0.29  -0.40   0.07     0.10   0.17  -0.01
    32   1    -0.03  -0.30  -0.01     0.24   0.37   0.03     0.19   0.24  -0.00
                     10                     11                     12
                      A                      A                      A
 Frequencies --    237.1593               265.2361               284.4081
 Red. masses --      3.4995                 1.3506                 3.5269
 Frc consts  --      0.1160                 0.0560                 0.1681
 IR Inten    --     37.0225                 1.2758                 1.3082
  Atom  AN      X      Y      Z        X      Y      Z        X      Y      Z
     1   6    -0.00  -0.02   0.11    -0.02  -0.01   0.08    -0.04  -0.02   0.05
     2   6    -0.02  -0.03   0.01    -0.03  -0.02   0.02    -0.08  -0.05   0.01
     3   8     0.01  -0.04  -0.09    -0.02  -0.03  -0.01    -0.10  -0.07  -0.03
     4   6    -0.00  -0.12   0.09    -0.01  -0.01   0.01     0.00  -0.04   0.09
     5   6    -0.12   0.17   0.01     0.02   0.03  -0.00     0.03   0.02  -0.09
     6   1    -0.03   0.21  -0.14    -0.22  -0.14   0.45     0.14   0.16  -0.36
     7   1    -0.38   0.16   0.03     0.54   0.29   0.04    -0.24  -0.16  -0.13
     8   1    -0.02   0.15   0.21    -0.19  -0.01  -0.46     0.14   0.08   0.15
     9   7    -0.07   0.19  -0.10    -0.03   0.00   0.00     0.06   0.05  -0.00
    10   1    -0.08   0.21  -0.10    -0.05   0.03  -0.01     0.12   0.01  -0.01
    11   1    -0.08   0.22  -0.11    -0.03  -0.02   0.01     0.09   0.05   0.06
    12   6    -0.00  -0.11   0.02     0.01   0.01  -0.04     0.07   0.08   0.03
    13   6     0.05  -0.12   0.04     0.03   0.02  -0.04     0.07   0.15  -0.04
    14   6     0.08  -0.03   0.02     0.04   0.00  -0.00     0.03   0.03  -0.02
    15   6     0.08   0.05  -0.02     0.02  -0.02   0.03     0.05  -0.14   0.04
    16   6     0.02  -0.00   0.01     0.01   0.01   0.00     0.12  -0.02  -0.03
    17   6    -0.01  -0.10   0.03     0.01   0.02  -0.04     0.15   0.10  -0.05
    18   1     0.07  -0.15   0.02     0.05   0.01  -0.06     0.06   0.22  -0.07
    19   1     0.11  -0.01   0.01     0.05  -0.00   0.01    -0.03   0.03  -0.04
    20   1     0.11   0.15  -0.06     0.02  -0.05   0.07     0.00  -0.30   0.12
    21   1    -0.00   0.04   0.01    -0.01   0.01   0.02     0.14  -0.06  -0.04
    22   1    -0.03  -0.13   0.05     0.01   0.03  -0.05     0.20   0.16  -0.08
    23   6     0.09   0.06  -0.05     0.05   0.02  -0.01    -0.05  -0.04   0.08
    24   1     0.10   0.09  -0.02     0.07   0.12  -0.04    -0.08  -0.17   0.13
    25   1     0.14   0.22   0.03    -0.03   0.02   0.01     0.09   0.02   0.08
    26   1     0.10   0.04  -0.26     0.13  -0.03   0.01    -0.16   0.04   0.01
    27   1    -0.02  -0.05  -0.27    -0.01  -0.01   0.05    -0.03  -0.03  -0.12
    28   8    -0.03  -0.01   0.00    -0.04  -0.02  -0.02    -0.12  -0.04   0.01
    29   6    -0.03   0.01   0.01    -0.04  -0.00   0.00    -0.13   0.01  -0.00
    30   1    -0.05   0.02   0.03    -0.06   0.01   0.01    -0.16   0.03  -0.01
    31   1    -0.01   0.03   0.01    -0.02   0.01   0.00    -0.11   0.03  -0.01
    32   1    -0.03   0.01   0.01    -0.05  -0.00   0.00    -0.10   0.02  -0.01
                     13                     14                     15
                      A                      A                      A
 Frequencies --    298.3274               320.2215               357.1190
 Red. masses --      3.2165                 3.7066                 3.0813
 Frc consts  --      0.1687                 0.2239                 0.2315
 IR Inten    --     21.7149                12.2137                36.0952
  Atom  AN      X      Y      Z        X      Y      Z        X      Y      Z
     1   6     0.01  -0.02   0.06    -0.01  -0.02   0.15     0.01   0.03  -0.15
     2   6     0.00  -0.11   0.02     0.01   0.06   0.03    -0.01  -0.07  -0.03
     3   8    -0.01  -0.12   0.00     0.09   0.09  -0.04    -0.08  -0.10   0.02
     4   6    -0.00   0.02  -0.05    -0.01  -0.08   0.08     0.00   0.08  -0.03
     5   6     0.09  -0.05   0.17     0.02  -0.01  -0.10     0.01   0.07  -0.15
     6   1     0.16  -0.03   0.05     0.02   0.08  -0.20     0.01   0.16  -0.26
     7   1    -0.15  -0.04   0.20    -0.06  -0.12  -0.13     0.07  -0.15  -0.24
     8   1     0.18  -0.13   0.35     0.05   0.01  -0.03    -0.02   0.19  -0.17
     9   7     0.15  -0.00   0.01     0.07   0.02   0.02    -0.04   0.02   0.09
    10   1     0.26   0.05  -0.16     0.17   0.00  -0.06    -0.07  -0.03   0.17
    11   1     0.21   0.12   0.14     0.12   0.06   0.14    -0.05  -0.06   0.04
    12   6    -0.04  -0.00  -0.04    -0.06  -0.06  -0.09    -0.01   0.02  -0.02
    13   6    -0.03   0.02  -0.06    -0.02  -0.00  -0.13    -0.03  -0.03   0.02
    14   6    -0.03   0.02  -0.01     0.01   0.03  -0.02    -0.02  -0.01   0.03
    15   6    -0.07   0.01   0.04    -0.08   0.00   0.10    -0.01   0.06  -0.01
    16   6    -0.08   0.04   0.01    -0.13   0.07   0.02    -0.03   0.01   0.02
    17   6    -0.08   0.04  -0.04    -0.13   0.05  -0.10    -0.03  -0.03   0.03
    18   1    -0.02   0.02  -0.08     0.03   0.00  -0.20    -0.04  -0.06   0.05
    19   1     0.01   0.02   0.00     0.10   0.04  -0.01    -0.01  -0.03   0.05
    20   1    -0.07  -0.01   0.09    -0.08  -0.04   0.22    -0.00   0.11  -0.05
    21   1    -0.10   0.05   0.02    -0.18   0.11   0.05    -0.04   0.01   0.03
    22   1    -0.10   0.06  -0.07    -0.18   0.08  -0.16    -0.02  -0.06   0.06
    23   6     0.09   0.13  -0.11     0.12  -0.12   0.13     0.21  -0.03   0.12
    24   1     0.10   0.15  -0.05     0.10  -0.22   0.31     0.25   0.11   0.28
    25   1     0.15   0.23  -0.07     0.33  -0.12   0.08     0.25  -0.18   0.02
    26   1     0.10   0.12  -0.25     0.01  -0.05   0.04     0.32  -0.10   0.15
    27   1     0.08   0.00   0.08    -0.04  -0.04  -0.07     0.06   0.06   0.11
    28   8    -0.04  -0.09  -0.00     0.03   0.06  -0.03    -0.01  -0.08   0.03
    29   6    -0.03   0.10  -0.01     0.02  -0.09   0.02     0.01   0.08  -0.01
    30   1    -0.17   0.16  -0.03     0.13  -0.14   0.06    -0.12   0.14  -0.05
    31   1     0.06   0.15  -0.01    -0.03  -0.12   0.02     0.07   0.12  -0.01
    32   1     0.05   0.16  -0.01    -0.08  -0.15   0.01     0.10   0.15  -0.00
                     16                     17                     18
                      A                      A                      A
 Frequencies --    374.6599               393.1592               403.4520
 Red. masses --      3.8733                 2.1111                 1.3147
 Frc consts  --      0.3203                 0.1923                 0.1261
 IR Inten    --     19.2203                10.4882                 6.1736
  Atom  AN      X      Y      Z        X      Y      Z        X      Y      Z
     1   6     0.01  -0.10  -0.15     0.01  -0.03  -0.01     0.00  -0.00  -0.03
     2   6     0.00  -0.04  -0.05     0.01  -0.04   0.01     0.00  -0.02  -0.01
     3   8     0.20   0.06   0.02     0.10   0.02   0.03     0.04   0.00   0.02
     4   6    -0.01  -0.05  -0.02    -0.02   0.06  -0.00    -0.01   0.05  -0.02
     5   6    -0.02  -0.01   0.03    -0.01   0.05  -0.04     0.01   0.02  -0.01
     6   1    -0.05  -0.04   0.09     0.02   0.18  -0.23    -0.05   0.03   0.03
     7   1     0.00   0.06   0.05    -0.05  -0.21  -0.13     0.14  -0.01  -0.04
     8   1    -0.02  -0.06  -0.00     0.01   0.15   0.02    -0.04   0.05  -0.11
     9   7    -0.00  -0.00  -0.04     0.01   0.03   0.16    -0.00   0.00   0.07
    10   1    -0.01   0.00  -0.04     0.09   0.02   0.08     0.02   0.01   0.04
    11   1    -0.01   0.01  -0.04     0.05   0.05   0.24     0.01   0.00   0.10
    12   6     0.01   0.05   0.09    -0.01  -0.02  -0.05    -0.00  -0.00  -0.02
    13   6    -0.05   0.09   0.07     0.04  -0.03  -0.05     0.01  -0.05   0.02
    14   6    -0.09   0.03   0.03     0.05  -0.03  -0.00     0.03   0.01  -0.02
    15   6    -0.06  -0.00  -0.00     0.04  -0.00   0.00     0.03   0.01  -0.02
    16   6     0.03   0.02   0.01    -0.00  -0.00  -0.02    -0.01  -0.05   0.02
    17   6     0.04   0.05   0.08    -0.02  -0.03  -0.04     0.00  -0.01  -0.02
    18   1    -0.10   0.14   0.10     0.06  -0.06  -0.06     0.01  -0.10   0.05
    19   1    -0.14   0.03   0.02     0.07  -0.05   0.02     0.04   0.03  -0.04
    20   1    -0.07  -0.05  -0.04     0.05   0.01   0.03     0.04   0.05  -0.03
    21   1     0.08  -0.00  -0.04    -0.03   0.02  -0.00    -0.02  -0.08   0.06
    22   1     0.11   0.04   0.10    -0.05  -0.06  -0.03     0.00   0.03  -0.05
    23   6     0.18   0.02  -0.06    -0.07   0.08  -0.01    -0.04   0.05  -0.01
    24   1     0.23   0.18   0.09    -0.02   0.34  -0.33    -0.15  -0.38   0.25
    25   1     0.26   0.06  -0.05    -0.50   0.02   0.06     0.47   0.25  -0.02
    26   1     0.31  -0.08  -0.23     0.15  -0.07   0.16    -0.42   0.30  -0.28
    27   1     0.03  -0.09  -0.14     0.06   0.01   0.24     0.03   0.02   0.13
    28   8    -0.13   0.03   0.01    -0.06  -0.01  -0.01    -0.02  -0.00   0.00
    29   6    -0.16  -0.15   0.00    -0.07  -0.06  -0.00    -0.03  -0.02  -0.00
    30   1    -0.00  -0.22   0.01    -0.03  -0.08   0.00    -0.02  -0.03  -0.00
    31   1    -0.28  -0.22   0.00    -0.10  -0.08   0.00    -0.04  -0.03  -0.00
    32   1    -0.23  -0.22  -0.01    -0.10  -0.08  -0.00    -0.04  -0.03  -0.00
                     19                     20                     21
                      A                      A                      A
 Frequencies --    426.0776               460.8298               545.4005
 Red. masses --      2.6154                 2.9899                 2.8851
 Frc consts  --      0.2797                 0.3741                 0.5056
 IR Inten    --      0.1284                 8.5240                20.8217
  Atom  AN      X      Y      Z        X      Y      Z        X      Y      Z
     1   6    -0.00  -0.01  -0.01     0.02   0.04   0.16     0.04   0.08  -0.08
     2   6     0.00   0.00  -0.00     0.01  -0.03   0.07     0.01  -0.04  -0.05
     3   8    -0.00  -0.00   0.00     0.05  -0.02   0.00     0.06  -0.02  -0.00
     4   6     0.00  -0.02   0.01     0.02   0.13  -0.13    -0.03   0.11   0.10
     5   6    -0.01   0.00   0.00     0.01   0.01  -0.01     0.02  -0.08   0.02
     6   1     0.01   0.01  -0.02     0.04  -0.03   0.01     0.02  -0.17   0.12
     7   1    -0.05   0.00   0.00    -0.10   0.09   0.03    -0.06   0.11   0.10
     8   1     0.01   0.00   0.03     0.05  -0.08   0.07     0.05  -0.19   0.06
     9   7    -0.00   0.01  -0.02     0.05   0.03  -0.14     0.01  -0.02  -0.12
    10   1    -0.00   0.00  -0.01     0.09   0.06  -0.21    -0.09  -0.11   0.08
    11   1    -0.00   0.00  -0.02     0.07   0.10  -0.09    -0.04  -0.11  -0.24
    12   6     0.00  -0.01   0.01     0.03   0.13  -0.09    -0.06  -0.02  -0.01
    13   6    -0.04  -0.14   0.12    -0.01  -0.02   0.04     0.01  -0.03  -0.01
    14   6     0.03   0.15  -0.12    -0.02  -0.05   0.04     0.04   0.00   0.01
    15   6    -0.01  -0.01   0.01     0.02   0.09  -0.08     0.06  -0.02   0.01
    16   6    -0.03  -0.13   0.11    -0.01  -0.06   0.05    -0.02  -0.02  -0.03
    17   6     0.04   0.16  -0.12     0.00  -0.02   0.03    -0.03  -0.04  -0.07
    18   1    -0.09  -0.29   0.26    -0.05  -0.12   0.14     0.09  -0.05  -0.09
    19   1     0.07   0.33  -0.26    -0.05  -0.15   0.12     0.05   0.03  -0.02
    20   1    -0.02  -0.02   0.02     0.04   0.17  -0.15     0.07   0.01   0.02
    21   1    -0.07  -0.30   0.24    -0.03  -0.17   0.13    -0.07   0.04  -0.01
    22   1     0.09   0.35  -0.27    -0.01  -0.11   0.10    -0.03  -0.01  -0.09
    23   6     0.02  -0.01  -0.00    -0.01  -0.09   0.04    -0.04   0.16   0.22
    24   1     0.06   0.17  -0.12    -0.03  -0.17   0.11    -0.03   0.18   0.25
    25   1    -0.19  -0.09   0.01    -0.02  -0.40  -0.14    -0.05   0.08   0.18
    26   1     0.18  -0.12   0.10    -0.04  -0.05   0.36    -0.02   0.14   0.29
    27   1    -0.02  -0.01   0.02     0.12   0.08   0.33     0.15   0.10  -0.55
    28   8     0.00  -0.00  -0.00    -0.07  -0.02  -0.03    -0.03  -0.02   0.03
    29   6     0.01   0.00  -0.00    -0.09  -0.03  -0.01    -0.05  -0.01   0.00
    30   1     0.00   0.00  -0.00    -0.07  -0.04   0.01    -0.05  -0.01  -0.00
    31   1     0.01   0.00  -0.00    -0.09  -0.04   0.00    -0.06  -0.01  -0.00
    32   1     0.01   0.00   0.00    -0.13  -0.05  -0.01    -0.03  -0.01  -0.00
                     22                     23                     24
                      A                      A                      A
 Frequencies --    567.5474               604.2915               623.3501
 Red. masses --      1.8439                 3.1871                 2.0257
 Frc consts  --      0.3499                 0.6857                 0.4638
 IR Inten    --     13.3693                29.4335               126.4895
  Atom  AN      X      Y      Z        X      Y      Z        X      Y      Z
     1   6    -0.01   0.02  -0.03     0.11   0.04  -0.07    -0.04  -0.08  -0.10
     2   6    -0.00  -0.01   0.02     0.04   0.00  -0.00    -0.02   0.01  -0.02
     3   8     0.03   0.00   0.02    -0.05  -0.05   0.01    -0.01   0.02   0.02
     4   6    -0.02   0.05  -0.05     0.22  -0.03   0.10    -0.06  -0.10   0.12
     5   6    -0.01   0.03  -0.01    -0.02   0.00  -0.00     0.01  -0.01   0.00
     6   1     0.00  -0.01   0.02    -0.08   0.03   0.04     0.05  -0.07   0.03
     7   1    -0.05   0.10   0.02    -0.04   0.04   0.02    -0.05   0.10   0.05
     8   1     0.01  -0.01   0.03    -0.02  -0.07  -0.03     0.04  -0.02   0.05
     9   7    -0.00   0.02  -0.08     0.03   0.03  -0.03    -0.00   0.01  -0.07
    10   1    -0.00   0.03  -0.09    -0.18  -0.07   0.29     0.10  -0.02  -0.13
    11   1     0.00   0.03  -0.07    -0.12  -0.09  -0.34     0.06   0.04   0.07
    12   6    -0.05  -0.12   0.10     0.14  -0.07  -0.04    -0.02   0.07  -0.06
    13   6    -0.00  -0.01   0.02    -0.04  -0.08  -0.11    -0.00   0.04  -0.04
    14   6     0.02   0.07  -0.03    -0.04  -0.04  -0.07    -0.01  -0.02   0.06
    15   6     0.01  -0.09   0.07    -0.15   0.06   0.03     0.05   0.05  -0.04
    16   6     0.03   0.06  -0.06     0.01   0.07   0.08     0.01  -0.05   0.03
    17   6    -0.01  -0.05   0.01     0.02   0.03   0.05     0.01   0.01  -0.06
    18   1     0.03   0.10  -0.08    -0.13  -0.01  -0.04    -0.02  -0.08   0.05
    19   1     0.05   0.23  -0.17     0.12  -0.05  -0.01    -0.05  -0.18   0.19
    20   1     0.00  -0.12   0.09    -0.15   0.06   0.03     0.04   0.01  -0.03
    21   1     0.05   0.25  -0.19     0.08   0.01   0.03    -0.07  -0.18   0.18
    22   1     0.04   0.07  -0.08    -0.14   0.03   0.00    -0.01  -0.11   0.03
    23   6    -0.00  -0.01   0.02    -0.00   0.02   0.03    -0.01   0.04   0.06
    24   1    -0.01  -0.03   0.10    -0.07  -0.17  -0.26     0.02   0.13   0.08
    25   1     0.05  -0.13  -0.07    -0.16   0.16   0.15     0.01   0.18   0.14
    26   1    -0.01   0.01   0.12    -0.17   0.14   0.08     0.06  -0.01  -0.10
    27   1     0.02   0.07   0.78     0.07   0.04   0.41    -0.11  -0.07   0.75
    28   8    -0.00  -0.02  -0.02    -0.04   0.05  -0.01     0.03   0.01  -0.01
    29   6    -0.00  -0.00  -0.00    -0.09  -0.01  -0.01     0.04   0.01   0.00
    30   1    -0.02   0.01  -0.01    -0.00  -0.05   0.00     0.04   0.01  -0.00
    31   1     0.01   0.01  -0.00    -0.14  -0.04  -0.00     0.05   0.01  -0.00
    32   1     0.01   0.01  -0.00    -0.13  -0.05  -0.01     0.05   0.01   0.00
                     25                     26                     27
                      A                      A                      A
 Frequencies --    636.1866               726.7207               730.7545
 Red. masses --      6.0258                 4.7203                 1.6534
 Frc consts  --      1.4369                 1.4688                 0.5202
 IR Inten    --      3.1963                 7.9495                39.7882
  Atom  AN      X      Y      Z        X      Y      Z        X      Y      Z
     1   6    -0.01   0.01   0.02     0.19  -0.09   0.00    -0.03   0.02  -0.01
     2   6    -0.00  -0.01   0.00     0.14  -0.01   0.03    -0.02   0.00   0.01
     3   8     0.02   0.01  -0.00    -0.13  -0.18   0.01     0.02   0.03  -0.01
     4   6    -0.01   0.03  -0.03     0.03  -0.00   0.00     0.00  -0.00  -0.00
     5   6     0.00  -0.00   0.00     0.01   0.00  -0.00    -0.00   0.00  -0.00
     6   1     0.00   0.00  -0.01    -0.02   0.03  -0.01    -0.02   0.01   0.00
     7   1     0.02  -0.03  -0.01     0.01  -0.03  -0.01    -0.01  -0.00  -0.00
     8   1    -0.00   0.01  -0.01     0.00  -0.02  -0.01    -0.00  -0.01  -0.00
     9   7    -0.00  -0.01   0.02     0.01   0.01   0.02     0.00   0.00   0.00
    10   1     0.00   0.01  -0.00    -0.03  -0.00   0.07    -0.03   0.01   0.03
    11   1     0.00   0.01   0.03    -0.01  -0.03  -0.03    -0.01  -0.01  -0.03
    12   6    -0.04  -0.08  -0.09    -0.11   0.01   0.02    -0.01  -0.07   0.05
    13   6    -0.27  -0.04  -0.12    -0.01   0.07   0.08     0.02   0.05  -0.05
    14   6    -0.17   0.21   0.21    -0.02   0.05   0.12    -0.02  -0.11   0.07
    15   6     0.04   0.07   0.10     0.12  -0.04  -0.01    -0.00   0.04  -0.03
    16   6     0.30   0.05   0.15    -0.08  -0.08  -0.06    -0.02  -0.10   0.09
    17   6     0.16  -0.19  -0.18    -0.07  -0.05  -0.09     0.02   0.05  -0.03
    18   1    -0.15  -0.11  -0.23     0.10   0.15  -0.10     0.09   0.36  -0.31
    19   1    -0.02   0.23   0.24    -0.14   0.19  -0.04     0.05   0.13  -0.12
    20   1    -0.07  -0.15  -0.23     0.16   0.15  -0.16     0.10   0.46  -0.37
    21   1     0.20   0.16   0.21    -0.17   0.15  -0.09     0.05   0.15  -0.12
    22   1    -0.00  -0.17  -0.24     0.05   0.09  -0.18     0.10   0.40  -0.31
    23   6    -0.01  -0.02  -0.04     0.02  -0.03  -0.03     0.00  -0.00  -0.00
    24   1    -0.02  -0.04  -0.03     0.02  -0.03  -0.05     0.00   0.00  -0.02
    25   1    -0.01  -0.05  -0.06     0.00  -0.03  -0.03    -0.01  -0.01  -0.00
    26   1    -0.02  -0.01  -0.01     0.02  -0.04  -0.04    -0.00  -0.00   0.01
    27   1    -0.00   0.01  -0.24     0.26  -0.06   0.09    -0.03   0.02   0.04
    28   8    -0.00  -0.02   0.00    -0.01   0.28  -0.03     0.00  -0.04  -0.00
    29   6     0.00  -0.00   0.00    -0.05   0.02  -0.01     0.01  -0.00   0.00
    30   1    -0.02   0.01  -0.00     0.35  -0.16   0.04    -0.05   0.02  -0.01
    31   1     0.01   0.01   0.00    -0.27  -0.14   0.01     0.04   0.02  -0.00
    32   1     0.01   0.01   0.00    -0.26  -0.15  -0.02     0.03   0.02   0.00
                     28                     29                     30
                      A                      A                      A
 Frequencies --    755.6465               789.6467               808.3691
 Red. masses --      2.0633                 7.1772                 2.1999
 Frc consts  --      0.6942                 2.6368                 0.8470
 IR Inten    --     61.0832                25.1513                 7.6992
  Atom  AN      X      Y      Z        X      Y      Z        X      Y      Z
[...]
 002416,-0.00163369,-0.00181703,0.00034152,-0.00025524,-0.00010004,0.00
 003695,0.00032351,-0.00025656,0.00035221,-0.00012625,-0.00181078,0.000
 23168,-0.00146318,-0.00058929,0.00090274,0.00006356,0.00001147,0.00003
 046,-0.00001976,0.00000228,-0.00013546,-0.00011779,0.00008129,0.000101
 16,0.00037722,0.00003389,0.00011162,-0.00072276,-0.00017182,0.00051454
 ,-0.00000516,-0.00006674,0.00005428,0.00001290,0.00000963,-0.00000656,
 0.00000995,0.00001094,-0.00000170,0.00003493,-0.00001981,0.00005101,-0
 .00143341,-0.00094687,0.00011233,-0.00012171,-0.00015479,-0.00011679,0
 .00002740,0.00000306,-0.00011902,0.00007887,-0.00027789,-0.00055532,0.
 09230683,0.09809237,-0.31891113,0.01486516,-0.00298457,-0.00339034,0.0
 0025026,0.00062998,0.00161731,0.00007765,0.00738376,-0.01273628,0.0005
 9428,-0.00010958,0.00017703,0.00033753,0.00000304,-0.00000084,-0.00004
 455,0.00004315,-0.00013339,-0.00000033,-0.00004301,0.00002381,-0.00001
 702,-0.00075167,-0.00092424,-0.00066940,-0.00007673,-0.00011880,-0.000
 31566,0.00020480,-0.00022541,0.00016421,0.00190589,0.00011660,-0.00001
 170,0.00060413,0.00038259,-0.00084146,-0.00049688,0.00035847,-0.000004
 35,0.00021207,0.00019985,0.00047067,0.00040997,-0.00031629,-0.00022465
 ,-0.00081076,0.00018096,-0.00028196,0.00018027,0.00007705,0.00056194,-
 0.00001832,0.00002650,-0.00003989,0.00001972,-0.00001640,0.00004647,-0
 .00001808,-0.00000812,0.00002028,0.00006851,0.00001141,0.00004334,-0.0
 0142523,-0.00088688,0.00085101,0.00001901,0.00014269,0.00015121,-0.000
 00447,-0.00002592,-0.00018805,0.00000821,-0.00039073,-0.00061840,-0.10
 212535,0.33459746,-0.00126066,0.01992141,-0.00440748,-0.00128473,0.000
 21900,-0.00417091,-0.00045026,-0.00066365,0.00709353,-0.00403517,-0.01
 156418,0.00135281,0.00013306,-0.00020876,-0.00105558,0.00001870,-0.000
 01940,-0.00003132,-0.00024658,0.00044505,-0.00001144,0.00007033,0.0001
 0288,0.00002298,0.00220227,0.00666044,-0.00618299,0.00024352,0.0014645
 5,0.00080975,-0.00014064,0.00070390,-0.00068547,-0.00073316,0.00030858
 ,-0.00048889,0.00105215,0.00058987,0.00033677,-0.00041239,-0.00025292,
 -0.00029264,0.00012832,0.00013141,0.00012916,-0.00006393,-0.00021463,-
 0.00021745,-0.00012508,0.00001478,-0.00012705,0.00101859,-0.00009032,-
 0.00114434,0.00000596,-0.00001589,0.00002022,-0.00004639,0.00000003,-0
 .00004070,-0.00000723,-0.00000174,-0.00000812,-0.00001674,-0.00002188,
 -0.00006778,-0.00136533,-0.00251594,0.00030725,0.00013699,0.00014678,0
 .00026382,-0.00007929,0.00028382,-0.00012538,-0.00013772,-0.00063428,-
 0.00094566,0.00522701,-0.01508523,0.01258859,-0.05543220,-0.04874996,0
 .00312627,-0.15835561,-0.06311015,0.00112285,0.02701646,-0.00680960,0.
 00059060,-0.00014678,0.01403592,-0.00407727,-0.00098262,0.00075553,0.0
 0120940,0.00000109,-0.00021594,-0.00010943,0.00023419,-0.00068788,0.00
 011788,-0.00003819,0.00052536,-0.00025467,-0.00105055,-0.00688025,0.00
 410804,0.00011031,0.00148346,-0.00198442,0.00033809,-0.00048318,0.0003
 4363,0.00120874,-0.00211579,-0.00079788,-0.00078462,0.00023429,0.00051
 367,-0.00000417,-0.00010258,-0.00045822,-0.00048898,0.00018052,0.00004
 295,-0.00006168,0.00006837,-0.00020692,-0.00099809,0.00060961,0.000447
 36,0.00036814,-0.00055499,-0.00047155,-0.00012805,0.00010974,0.0001144
 1,-0.00016325,-0.00001678,0.00002635,-0.00022696,-0.00000218,-0.000055
 50,0.00018985,-0.00010403,0.00004564,-0.00096505,-0.00165541,0.0012036
 0,0.00015626,0.00023609,0.00031360,-0.00017961,0.00003106,0.00016189,-
 0.00031852,-0.00150439,-0.00075884,-0.00030537,-0.00114489,0.00040167,
 0.52482603,-0.02937311,-0.00171923,0.00253422,-0.02591600,-0.17998976,
 0.00919090,-0.01755386,-0.09639013,0.01094980,0.00695134,0.00906083,-0
 .00324326,-0.00093939,-0.00077559,0.00076096,-0.00041697,-0.00016101,0
 .00008982,-0.00012199,-0.00037912,0.00025418,0.00070074,0.00249018,-0.
 00057531,-0.00090904,-0.00490568,0.00291588,0.00049852,0.00065320,-0.0
 0175262,0.00022334,-0.00043928,0.00019602,0.00129715,0.00004188,-0.000
 40648,-0.00066018,0.00019919,0.00038620,-0.00002375,-0.00005551,-0.000
 33356,-0.00032582,0.00014593,0.00001845,-0.00001022,0.00003211,0.00001
 103,-0.00037736,0.00020388,0.00017941,0.00023850,-0.00048385,-0.000340
 93,-0.00010337,0.00005975,0.00009188,-0.00011115,-0.00002046,0.0000222
 0,-0.00011602,-0.00001340,-0.00003095,0.00016173,-0.00002129,0.0000685
 4,-0.00100292,-0.00189361,0.00009213,0.00041329,0.00063304,0.00111595,
 -0.00037829,0.00009444,0.00006370,-0.00034598,-0.00091167,-0.00041896,
 -0.00050604,-0.00011900,0.00050762,0.05549691,0.36334369,0.00278346,0.
 00018000,0.01384820,-0.00257387,0.00924043,-0.06318227,0.00070321,0.00
 997467,0.02175250,-0.00107626,-0.00136752,0.00425451,-0.00039711,0.000
 14394,-0.00016872,-0.00003204,0.00001648,0.00005236,0.00008243,0.00009
 693,-0.00006613,0.00016997,0.00012319,0.00014993,-0.00063253,-0.000320
 90,-0.00007797,0.00011640,0.00003575,-0.00010050,-0.00008320,-0.000118
 81,-0.00000324,-0.00033314,0.00006983,-0.00022472,-0.00004740,-0.00006
 894,-0.00007821,0.00000711,-0.00004806,0.00005554,0.00002787,-0.000017
 99,-0.00001370,-0.00003671,-0.00002738,-0.00001334,-0.00000708,0.00004
 553,0.00004016,0.00005447,0.00002008,-0.00007354,-0.00000616,-0.000000
 79,-0.00000346,0.00000672,0.00001081,-0.00001108,0.00000543,0.00000996
 ,0.00000134,-0.00000958,0.00001838,-0.00001378,0.00050696,0.00069471,0
 .00004240,0.00001101,-0.00013771,-0.00023015,-0.00000005,-0.00002180,-
 0.00000132,0.00027890,0.00016025,0.00009866,-0.00000171,-0.00007475,-0
 .00180791,0.02276174,-0.02771622,0.07685584,0.01068358,0.00109876,-0.0
 0086809,-0.05567091,-0.03504356,0.00033393,-0.00274576,0.01701884,-0.0
 0148285,-0.00260292,-0.00489497,0.00236261,0.00053863,-0.00004900,-0.0
 0051578,0.00008769,0.00010323,0.00001280,-0.00003470,0.00028090,-0.000
 10782,-0.00015390,-0.00077254,0.00021347,0.00048160,0.00310683,-0.0019
 4487,-0.00023294,-0.00060517,0.00097022,-0.00014360,0.00021132,-0.0001
 2753,-0.00070500,0.00026592,0.00020140,0.00030435,-0.00009986,-0.00029
 085,-0.00000735,0.00008189,0.00020287,0.00018891,-0.00006559,-0.000005
 50,0.00002144,-0.00001849,0.00001991,0.00026360,-0.00015404,-0.0001211
 0,-0.00016904,0.00021790,0.00025732,0.00003859,-0.00004653,-0.00004209
 ,0.00007187,0.00000272,-0.00000500,0.00008005,0.00000418,0.00002923,-0
 .00008293,0.00001909,-0.00001549,0.00050577,0.00093929,-0.00033043,-0.
 00015978,-0.00033657,-0.00037703,0.00009519,-0.00004283,-0.00008470,0.
 00018365,0.00061162,0.00026992,0.00019085,0.00027729,-0.00035725,-0.24
 119315,0.01873963,-0.01464691,0.50562810,-0.00044026,-0.00479609,0.000
 41547,-0.04162578,0.00866553,-0.00402819,-0.00176339,-0.00211447,-0.00
 050324,-0.00131141,0.00052174,0.00045754,-0.00002745,0.00008662,0.0000
 0877,0.00000953,-0.00000734,0.00000097,-0.00000409,-0.00002230,0.00000
 274,-0.00001567,-0.00001667,-0.00000522,-0.00001962,0.00002262,-0.0000
 7203,-0.00001450,0.00003201,-0.00009949,-0.00000440,-0.00001727,0.0000
 0083,-0.00017070,-0.00036228,-0.00006284,-0.00002439,-0.00002282,-0.00
 001257,0.00000222,-0.00000192,0.00000615,-0.00001193,-0.00000557,0.000
 00001,-0.00001410,0.00000896,-0.00003310,-0.00008652,0.00006469,0.0000
 5312,0.00000809,0.00000659,-0.00000798,-0.00000196,0.00000542,-0.00000
 146,-0.00000120,0.00000300,-0.00000080,-0.00001351,0.00000374,-0.00000
 130,0.00000105,-0.00000891,-0.00000063,0.00005031,0.00009172,0.0000848
 6,-0.00001360,-0.00000856,0.00000084,-0.00000509,0.00000766,-0.0000006
 2,-0.00002189,-0.00001956,-0.00002031,-0.00022672,0.00025137,-0.000209
 60,0.04243948,-0.09968561,0.00706376,0.02445238,0.62065664,0.00065503,
 0.00077622,0.00228451,0.00046079,-0.00356365,-0.00165547,0.00034618,0.
 00135041,-0.00476332,0.00046267,0.00006694,0.00215373,0.00002526,0.000
 00648,0.00001439,-0.00001427,0.00000746,-0.00000043,0.00004604,0.00003
 434,-0.00003471,-0.00001588,-0.00006166,0.00005883,-0.00029489,-0.0002
 1197,0.00017104,-0.00001946,-0.00017671,0.00010024,0.00001563,-0.00003
 355,0.00008619,-0.00018177,0.00016540,-0.00011581,0.00002039,-0.000012
 99,-0.00007663,0.00000758,-0.00001743,0.00003529,0.00002535,-0.0000201
 1,-0.00002003,-0.00003240,-0.00001582,0.00000519,0.00004716,0.00000446
 ,0.00001391,0.00001406,0.00002131,0.00001373,0.00000982,-0.00000835,-0
 .00000328,0.00000472,0.00000345,-0.00000399,0.00000222,0.00000174,0.00
 000181,-0.00001038,0.00000047,-0.00000727,0.00017710,0.00015100,-0.000
 10101,-0.00001344,-0.00008250,0.00000303,-0.00004722,-0.00000239,0.000
 00650,0.00004417,0.00006019,0.00005685,0.00001458,-0.00000379,-0.00098
 983,-0.01695911,0.00512326,-0.06703548,-0.00988950,-0.00143329,0.58200
 330,-0.00128895,-0.00187294,0.00006625,-0.00320914,0.00698184,-0.00106
 648,0.00259143,-0.00080246,0.00022189,-0.00020866,0.00080973,-0.000166
 79,-0.00006208,0.00003608,0.00006378,-0.00000204,-0.00001222,-0.000005
 65,0.00001253,-0.00003574,0.00000725,0.00001303,0.00004889,-0.00002001
 ,-0.00004069,-0.00033991,0.00020426,0.00002776,0.00008752,-0.00011557,
 0.00002077,-0.00002453,0.00001221,0.00004761,-0.00016111,-0.00005173,-
 0.00005147,0.00001228,0.00002764,0.00000458,-0.00000451,-0.00002641,-0
 .00003221,0.00001007,0.00000074,-0.00000606,0.00000792,-0.00001528,-0.
 00006644,0.00004173,0.00003219,0.00002583,-0.00003300,-0.00002765,-0.0
 0000942,0.00000617,0.00000837,-0.00000991,-0.00000136,0.00000196,-0.00
 001455,0.,-0.00000291,0.00001144,-0.00000768,0.00000403,-0.00002887,-0
 .00006141,0.00007303,0.00001912,0.00002587,0.00002106,-0.00000600,0.00
 000049,0.00000768,-0.00002008,-0.00007966,-0.00003653,0.00002087,0.000
 02465,-0.00000511,-0.03246730,-0.03689989,0.00161843,-0.08189536,-0.08
 916791,0.00721397,0.10722522,-0.00082583,0.00020151,0.00000832,0.00388
 187,-0.00040353,0.00017052,-0.00276692,0.00022780,-0.00011702,0.000287
 29,0.00042014,-0.00014815,-0.00002949,-0.00000659,0.00003048,-0.000016
 54,-0.00000796,-0.00000159,0.00000412,-0.00001645,0.00001107,0.0000285
 9,0.00008860,-0.00001642,-0.00002483,-0.00022742,0.00014980,0.00004947
 ,0.00003437,-0.00008324,0.00001943,-0.00001417,0.00000209,0.00007579,-
 0.00001765,-0.00002869,-0.00003814,0.00000831,0.00002274,0.00000051,-0
 .00000570,-0.00001811,-0.00001962,0.00000784,0.00000015,-0.00000158,0.
 00000306,-0.00000053,-0.00002939,0.00001610,0.00001455,0.00001870,-0.0
 0002424,-0.00002223,-0.00000542,0.00000420,0.00000581,-0.00000786,-0.0
 0000056,0.00000128,-0.00000832,-0.00000107,-0.00000259,0.00001113,-0.0
 0000110,0.00000476,-0.00003813,-0.00007578,0.00000860,0.00002297,0.000
 04682,0.00005129,-0.00001500,0.00000297,0.00000271,-0.00002004,-0.0000
 4774,-0.00001633,-0.00005442,0.00001361,0.00001492,0.00302126,0.008523
 59,-0.00055968,-0.09993496,-0.28856514,0.01776498,0.10623303,0.3004897
 8,-0.00004453,-0.00013690,0.00012873,-0.00059119,0.00051943,0.00023741
 ,0.00032535,-0.00005233,0.00078072,-0.00004191,0.00002566,0.00006329,-
 0.00000448,0.00000300,0.00000374,0.00000414,-0.00000161,0.00000051,-0.
 00000447,-0.00000478,0.00000307,-0.00000406,-0.00000376,-0.00000880,0.
 00001049,-0.00000835,-0.00000448,-0.00001553,0.00000735,-0.00000882,-0
 .00000033,0.00000229,-0.00000092,-0.00001903,-0.00000446,-0.00000961,0
 .00000301,-0.00000032,-0.00000078,-0.00000016,-0.00000055,0.00000110,0
 .00000026,-0.00000117,-0.00000145,-0.00000289,-0.00000005,-0.00000175,
 -0.00000196,0.00000070,0.00000283,0.00000285,0.00000343,-0.00000235,0.
 00000128,-0.00000031,-0.00000008,-0.00000019,0.00000014,0.,-0.00000099
 ,-0.00000027,-0.00000006,0.00000006,-0.00000105,-0.00000094,0.00001038
 ,-0.00000184,0.00001283,0.00000704,-0.00000344,-0.00000978,0.00000422,
 -0.00000009,0.00000044,-0.00000269,-0.00000006,-0.00000155,0.00000938,
 -0.00000066,-0.00001957,-0.00279060,-0.00354231,0.00097573,0.00849370,
 0.01860777,-0.05350783,-0.00674723,-0.01932562,0.04695734,-0.00195857,
 -0.00104452,-0.00031794,0.00415918,0.00971535,0.00040627,0.00176294,-0
 .00324985,-0.00052501,0.00028182,0.00084213,-0.00070479,-0.00007400,0.
 00004016,0.00008504,0.00000035,-0.00001655,-0.00000728,0.00001729,-0.0
 0004777,0.00000493,0.00001234,0.00003239,-0.00001664,-0.00002373,-0.00
 047695,0.00027477,0.00001324,0.00015084,-0.00011154,0.00002002,-0.0000
 2293,0.00001798,0.00014834,-0.00007380,-0.00003706,-0.00003556,0.00002
 195,0.00006387,-0.00000022,-0.00000920,-0.00004276,-0.00003268,0.00001
 431,0.00000453,0.00000079,0.00000389,-0.00001086,-0.00005037,0.0000215
 0,0.00001933,0.00002281,-0.00003731,-0.00004089,-0.00000567,0.00000639
 ,0.00000670,-0.00001108,-0.00000258,0.00000179,-0.00001313,-0.00000135
 ,-0.00000384,0.00000852,-0.00000799,0.00000051,-0.00011856,-0.00018675
 ,0.00008029,-0.00000092,0.00002528,0.00004055,-0.00002072,0.00000483,0
 .00000952,-0.00001763,-0.00011488,-0.00007313,0.00018487,-0.00004151,0
 .00032845,-0.03289183,0.01864568,0.02491589,-0.07493203,0.04773717,0.0
 5988469,0.00556556,-0.00623335,-0.00958686,0.09388152,0.00048897,0.000
 08549,-0.00024070,-0.00247754,-0.00147856,0.00096447,-0.00077158,0.000
 37009,0.00006132,-0.00019724,-0.00025867,0.00008711,0.00004778,-0.0000
 0256,-0.00001501,0.00001958,0.00000615,-0.00000480,-0.00000294,0.00000
 840,-0.00000681,-0.00003506,-0.00010729,0.00001429,0.00010670,0.000164
 84,-0.00009971,-0.00005350,-0.00002320,0.00008947,-0.00000828,0.000025
 57,-0.00001179,-0.00003762,0.00003841,0.00002522,0.00001949,-0.0000037
 1,-0.00002180,0.00000158,0.00000683,0.00001277,0.00001260,-0.00000433,
 0.00000072,0.00000480,-0.00000316,0.00000542,0.00002255,-0.00001956,-0
 .00001332,-0.00001005,0.00001364,0.00002097,0.00000191,-0.00000285,-0.
 00000321,0.00000581,-0.00000009,-0.00000040,0.00000781,0.00000080,0.00
 000200,-0.00000643,0.00000445,-0.00000276,0.00002459,0.00005116,-0.000
 00938,-0.00002246,-0.00001256,-0.00004396,0.00002955,-0.00000291,-0.00
 000270,0.00000073,0.00003900,0.00002084,0.00004380,0.00001963,-0.00011
 248,0.00815051,0.00159828,0.00052060,0.05198372,-0.14109314,-0.1173494
 7,0.00915790,-0.01254765,-0.02087467,-0.06177076,0.14538833,-0.0000696
 4,0.00049538,-0.00036062,-0.00026422,-0.00386021,0.00112257,-0.0026536
 8,0.00099631,0.00057605,0.00000482,-0.00007151,-0.00005491,0.00002909,
 -0.00003081,-0.00001054,-0.00000353,0.00000187,0.00000271,-0.00001291,
 -0.00000174,0.00000798,0.00000733,0.00001761,-0.00001588,0.00006879,0.
 00006714,-0.00002634,-0.00002833,-0.00004152,-0.00000709,-0.00000168,0
 .00001180,-0.00001479,0.00001028,0.00000822,0.00000969,-0.00001339,-0.
 00000384,-0.00000746,0.00000417,0.00000458,0.00000436,-0.00000138,0.00
 000053,-0.00000022,0.00000243,0.00000226,0.00000422,0.00000149,-0.0000
 0278,-0.00000354,-0.00000210,-0.00000017,0.00000330,-0.00000296,0.0000
 0046,0.00000028,0.00000114,-0.00000031,0.00000058,0.00000173,-0.000000
 11,0.00000102,0.00000210,0.00000163,0.00000284,0.00000416,-0.00000493,
 -0.00001989,0.00000394,0.00001616,0.00001653,-0.00000207,0.00000205,-0
 .00000253,-0.00000975,0.00000985,0.00000701,-0.00005294,0.00004252,-0.
 00003928,0.00265255,0.00575487,0.00992556,0.06464682,-0.11603684,-0.19
 856955,-0.00198204,0.00373759,0.00359342,-0.07070629,0.12600147,0.2027
 2306,-0.00212088,-0.00090264,0.00075614,0.00447009,0.00892202,-0.00211
 157,0.00043081,-0.00298073,0.00073162,0.00047104,0.00107565,-0.0000845
 7,-0.00008509,0.00003892,0.00010621,0.00000267,-0.00001448,-0.00000304
 ,0.00001727,-0.00005954,0.00000825,0.00000545,0.00006184,-0.00003418,-
 0.00016051,-0.00069482,0.00045322,-0.00003883,0.00008145,-0.00018219,0
 .00001565,-0.00004870,0.00004740,0.00010310,-0.00003833,-0.00006352,-0
 .00006600,0.00000447,0.00003562,0.00000517,-0.00001237,-0.00002772,-0.
 00003002,0.00000939,-0.00000083,-0.00000683,0.00000125,-0.00000482,-0.
 00004407,0.00002702,0.00003005,0.00003158,-0.00003478,-0.00004546,-0.0
 0000800,0.00000777,0.00000621,-0.00001018,-0.00000056,0.00000069,-0.00
 001255,0.00000060,-0.00000391,0.00001218,-0.00000252,0.00000082,-0.000
 02104,-0.00010977,0.00007092,0.00000906,-0.00000453,0.00000390,-0.0000
 1093,0.00000056,0.00002466,-0.00000951,-0.00010207,-0.00004113,0.00015
 827,-0.00003577,-0.00019937,-0.02726655,0.01272450,-0.03416627,-0.0586
 3450,0.02028587,-0.04199909,0.00383349,-0.00358432,0.01098692,0.004107
 11,-0.00473693,0.00836607,0.07485256,0.00049538,0.00005505,0.00010872,
 -0.00225089,-0.00057371,-0.00095831,0.00015756,-0.00022127,0.00009639,
 -0.00011711,-0.00023503,0.00005459,0.00001391,0.00002106,-0.00002205,0
 .00001300,0.00000694,0.00000037,0.00000733,0.00001957,-0.00001338,-0.0
 0002417,-0.00007090,0.00001800,-0.00000956,0.00014368,-0.00007686,-0.0
 0001730,-0.00002246,0.00008803,-0.00001068,0.00000672,0.00000583,-0.00
 004641,0.00003460,0.00000920,0.00003866,0.00000165,-0.00001120,-0.0000
 0701,0.00000508,0.00000829,0.00001567,-0.00000248,0.00000190,0.0000028
 9,-0.00000459,-0.00000152,0.00002073,-0.00001608,-0.00001572,-0.000011
 59,0.00001414,0.00001843,0.00000589,-0.00000458,-0.00000300,0.00000433
 ,-0.00000049,-0.00000022,0.00000558,-0.00000014,0.00000149,-0.00000840
 ,-0.00000076,-0.00000309,0.00004581,0.00006776,-0.00000769,-0.00001985
 ,-0.00006286,-0.00006323,0.00000580,-0.00000846,0.00000256,0.00003562,
 0.00003046,0.00001607,0.00002840,0.00000742,0.00009586,0.00675991,0.00
 088420,0.00205523,0.02264861,-0.09368065,0.09745556,0.00602015,-0.0081
 2596,0.02479482,-0.00392381,0.00773916,-0.01711750,-0.02987845,0.09399
 292,-0.00065213,-0.00081274,-0.00024218,0.00150806,0.00564701,0.000349
 63,0.00220821,-0.00151738,0.00093015,0.00009698,0.00043956,-0.00023897
 ,-0.00003124,0.00002838,0.00005213,0.00001238,-0.00000634,-0.00000551,
 -0.00000126,-0.00003366,0.00001157,-0.00002035,0.00000042,-0.00002422,
 -0.00000998,-0.00024602,0.00016430,-0.00005076,0.00003842,-0.00006592,
 0.00000981,-0.00001036,0.00001144,0.00004165,-0.00004472,0.00000305,-0
 .00002248,0.00000242,0.00001483,0.00000248,-0.00000549,-0.00001013,-0.
 00001224,0.00000308,0.00000095,-0.00000005,0.00000124,0.00000018,-0.00
 001819,0.00000926,0.00001042,0.00001132,-0.00001069,-0.00001744,-0.000
 00334,0.00000488,0.00000149,-0.00000392,0.00000067,-0.00000018,-0.0000
 0431,0.00000087,-0.00000238,0.00000628,0.00000162,-0.00000051,-0.00003
 397,-0.00005974,0.00006488,0.00000515,0.00002251,-0.00001789,0.0000274
 4,0.00000294,0.00001506,-0.00002802,-0.00004889,-0.00001979,0.00008019
 ,-0.00005470,-0.00006505,-0.01037968,-0.00196645,0.00505279,-0.0468014
 3,0.09582665,-0.26012389,0.00068465,-0.00166147,0.00081760,-0.00396023
 ,0.01098630,-0.01886853,0.05733900,-0.10653758,0.27220210\\0.00002324,
 -0.00001612,-0.00000492,-0.00002821,0.00001756,-0.00000915,0.00000470,
 0.00000359,0.00000820,-0.00000314,0.00000929,-0.00001530,0.00000407,-0
 .00000120,-0.00000432,0.00000410,0.00000285,0.00000495,0.00000338,0.00
 000073,0.00000641,-0.00000467,0.00000011,0.00000810,-0.00000723,0.0000
 0356,0.00002760,0.00000309,-0.00000447,0.00000011,0.00000494,-0.000003
 00,-0.00000327,-0.00000701,-0.00000230,-0.00000487,-0.00000400,0.00000
 515,0.00000427,-0.00000227,-0.00000502,-0.00000827,-0.00000133,-0.0000
 0096,0.00000040,-0.00000648,-0.00000230,-0.00000434,0.00001293,-0.0000
 0591,0.00000174,-0.00000178,-0.00000128,-0.00000581,-0.00000173,-0.000
 00233,-0.00000602,0.00000025,-0.00000485,-0.00000589,0.00000212,-0.000
 00536,-0.00000212,-0.00000115,-0.00000275,-0.00000006,0.00001090,0.000
 00257,-0.00000233,-0.00000104,0.00000152,0.00000446,0.00000131,-0.0000
 0145,-0.00000160,0.00000084,-0.00000316,0.00000331,-0.00000324,-0.0000
 0104,-0.00000202,0.00000020,0.00000074,0.00000514,0.00000285,-0.000000
 82,-0.00000165,-0.00000215,0.00000331,0.00000006,-0.00000209,0.0000049
 0,0.00000687,-0.00000138,0.00000843,0.00000032\\\@
 The archive entry for this job was punched.


 A SCIENTIST IS SOMEONE WHOSE CURIOSITY SURVIVES
 EDUCATION'S ASSAULTS ON IT.
                          - SIR HERMANN BONDI
 Job cpu time:       0 days  0 hours 49 minutes 27.6 seconds.
 Elapsed time:       0 days  0 hours  4 minutes  9.9 seconds.
 File lengths (MBytes):  RWF=    400 Int=      0 D2E=      0 Chk=     14 Scr=      1
 Normal termination of Gaussian 16 at Sat Dec 30 21:06:54 2023.
