Unloading slurm/anatra/current
  ERROR: No such file or directory on
    '/cm/local/modulefiles/slurm/anatra/current'
environment: line 0: unalias: gv: not found
environment: line 0: unalias: sl: not found
 Entering Gaussian System, Link 0=g16
 Initial command:
 /apps/gaussian/g16/C.01/g16/l1.exe "/local/jobs/1153189/Gau-1743025.inp" -scrdir="/local/jobs/1153189/"
 Entering Link 1 = /apps/gaussian/g16/C.01/g16/l1.exe PID=   1743027.
  
 Copyright (c) 1988-2019, Gaussian, Inc.  All Rights Reserved.
  
 This is part of the Gaussian(R) 16 program.  It is based on
 the Gaussian(R) 09 system (copyright 2009, Gaussian, Inc.),
 the Gaussian(R) 03 system (copyright 2003, Gaussian, Inc.),
 the Gaussian(R) 98 system (copyright 1998, Gaussian, Inc.),
 the Gaussian(R) 94 system (copyright 1995, Gaussian, Inc.),
 the Gaussian 92(TM) system (copyright 1992, Gaussian, Inc.),
 the Gaussian 90(TM) system (copyright 1990, Gaussian, Inc.),
 the Gaussian 88(TM) system (copyright 1988, Gaussian, Inc.),
 the Gaussian 86(TM) system (copyright 1986, Carnegie Mellon
 University), and the Gaussian 82(TM) system (copyright 1983,
 Carnegie Mellon University). Gaussian is a federally registered
 trademark of Gaussian, Inc.
  
 This software contains proprietary and confidential information,
 including trade secrets, belonging to Gaussian, Inc.
  
 This software is provided under written license and may be
 used, copied, transmitted, or stored only in accord with that
 written license.
  
 The following legend is applicable only to US Government
 contracts under FAR:
  
                    RESTRICTED RIGHTS LEGEND
  
 Use, reproduction and disclosure by the US Government is
 subject to restrictions as set forth in subparagraphs (a)
 and (c) of the Commercial Computer Software - Restricted
 Rights clause in FAR 52.227-19.
  
 Gaussian, Inc.
 340 Quinnipiac St., Bldg. 40, Wallingford CT 06492
  
  
 ---------------------------------------------------------------
 Warning -- This program may not be used in any manner that
 competes with the business of Gaussian, Inc. or will provide
 assistance to any competitor of Gaussian, Inc.  The licensee
 of this program is prohibited from giving any competitor of
 Gaussian, Inc. access to this program.  By using this program,
 the user acknowledges that Gaussian, Inc. is engaged in the
 business of creating and licensing software in the field of
 computational chemistry and represents and warrants to the
 licensee that it is not a competitor of Gaussian, Inc. and that
 it will not use this program in any manner prohibited above.
 ---------------------------------------------------------------
  

 Cite this work as:
 Gaussian 16, Revision C.01,
 M. J. Frisch, G. W. Trucks, H. B. Schlegel, G. E. Scuseria, 
 M. A. Robb, J. R. Cheeseman, G. Scalmani, V. Barone, 
 G. A. Petersson, H. Nakatsuji, X. Li, M. Caricato, A. V. Marenich, 
 J. Bloino, B. G. Janesko, R. Gomperts, B. Mennucci, H. P. Hratchian, 
 J. V. Ortiz, A. F. Izmaylov, J. L. Sonnenberg, D. Williams-Young, 
 F. Ding, F. Lipparini, F. Egidi, J. Goings, B. Peng, A. Petrone, 
 T. Henderson, D. Ranasinghe, V. G. Zakrzewski, J. Gao, N. Rega, 
 G. Zheng, W. Liang, M. Hada, M. Ehara, K. Toyota, R. Fukuda, 
 J. Hasegawa, M. Ishida, T. Nakajima, Y. Honda, O. Kitao, H. Nakai, 
 T. Vreven, K. Throssell, J. A. Montgomery, Jr., J. E. Peralta, 
 F. Ogliaro, M. J. Bearpark, J. J. Heyd, E. N. Brothers, K. N. Kudin, 
 V. N. Staroverov, T. A. Keith, R. Kobayashi, J. Normand, 
 K. Raghavachari, A. P. Rendell, J. C. Burant, S. S. Iyengar, 
 J. Tomasi, M. Cossi, J. M. Millam, M. Klene, C. Adamo, R. Cammi, 
 J. W. Ochterski, R. L. Martin, K. Morokuma, O. Farkas, 
 J. B. Foresman, and D. J. Fox, Gaussian, Inc., Wallingford CT, 2019.
 
 ******************************************
 Gaussian 16:  ES64L-G16RevC.01  3-Jul-2019
                30-Dec-2023 
 ******************************************
 %chk=TS-92_opt_hf_re2_freq.chk
 %nprocshared=12
 Will use up to   12 processors via shared memory.
 %mem=48GB
 -----------------------------------------------------------
 # wb97xd def2svp scrf=(iefpcm,solvent=toluene) freq=noraman
 -----------------------------------------------------------
 1/10=4,30=1,38=1/1,3;
 2/12=2,17=6,18=5,40=1/2;
 3/5=43,7=101,11=2,25=1,30=1,70=2201,71=2,72=13,74=-58,140=1/1,2,3;
 4//1;
 5/5=2,38=5,53=13,98=1/2;
 8/6=4,10=90,11=11/1;
 11/6=1,8=1,9=11,15=111,16=1/1,2,10;
 10/6=1/2;
 6/7=2,8=2,9=2,10=2,28=1/1;
 7/8=1,10=1,25=1/1,2,3,16;
 1/10=4,30=1/3;
 99//99;
 --------------------
 TS-92_opt_hf_re2.out
 --------------------
 Symbolic Z-matrix:
 Charge =  0 Multiplicity = 1
 C                    -0.90917  -0.70548   0.18631 
 C                    -2.28942  -0.46048   0.15143 
 O                    -2.85691   0.64005   0.02932 
 C                     0.04985   0.41213   0.27099 
 C                    -0.80176   2.63746  -1.05723 
 H                    -0.19075   3.33586  -0.47587 
 H                    -0.91418   3.01847  -2.08086 
 H                    -1.78368   2.4888   -0.59569 
 N                    -0.14097   1.31976  -1.1095 
 H                    -0.70334   0.67562  -1.67471 
 H                     0.7734    1.39733  -1.56205 
 C                     1.49453  -0.07385   0.16151 
 C                     1.83916  -0.97868  -0.85532 
 C                     3.1504   -1.4193   -1.01259 
 C                     4.14916  -0.96805  -0.14934 
 C                     3.82132  -0.07298   0.86567 
 C                     2.50771   0.37418   1.01616 
 H                     1.0587   -1.3534   -1.52209 
 H                     3.39181  -2.12626  -1.80943 
 H                     5.17773  -1.31591  -0.26654 
 H                     4.59277   0.28379   1.55167 
 H                     2.28152   1.07298   1.82174 
 C                    -0.18507   1.36866   1.43876 
 H                    -1.24404   1.64938   1.47131 
 H                     0.0454    0.82427   2.36396 
 H                     0.43643   2.27714   1.41017 
 H                    -0.54351  -1.72915   0.23662 
 O                    -3.05093  -1.59957   0.22173 
 C                    -4.43983  -1.42642   0.0987 
 H                    -4.88739  -2.42653   0.17253 
 H                    -4.84725  -0.78373   0.89521 
 H                    -4.71534  -0.97402  -0.86809 
 

 GradGradGradGradGradGradGradGradGradGradGradGradGradGradGradGradGradGrad
 Berny optimization.
 Initialization pass.
 Trust Radius=3.00D-01 FncErr=1.00D-07 GrdErr=1.00D-07 EigMax=2.50D+02 EigMin=1.00D-04
 Number of steps in this run=      2 maximum allowed number of steps=      2.
 GradGradGradGradGradGradGradGradGradGradGradGradGradGradGradGradGradGrad

                          Input orientation:                          
 ---------------------------------------------------------------------
 Center     Atomic      Atomic             Coordinates (Angstroms)
 Number     Number       Type             X           Y           Z
 ---------------------------------------------------------------------
      1          6           0       -0.909170   -0.705480    0.186310
      2          6           0       -2.289420   -0.460480    0.151430
      3          8           0       -2.856910    0.640050    0.029320
      4          6           0        0.049850    0.412130    0.270990
      5          6           0       -0.801760    2.637460   -1.057230
      6          1           0       -0.190750    3.335860   -0.475870
      7          1           0       -0.914180    3.018470   -2.080860
      8          1           0       -1.783680    2.488800   -0.595690
      9          7           0       -0.140970    1.319760   -1.109500
     10          1           0       -0.703340    0.675620   -1.674710
     11          1           0        0.773400    1.397330   -1.562050
     12          6           0        1.494530   -0.073850    0.161510
     13          6           0        1.839160   -0.978680   -0.855320
     14          6           0        3.150400   -1.419300   -1.012590
     15          6           0        4.149160   -0.968050   -0.149340
     16          6           0        3.821320   -0.072980    0.865670
     17          6           0        2.507710    0.374180    1.016160
     18          1           0        1.058700   -1.353400   -1.522090
     19          1           0        3.391810   -2.126260   -1.809430
     20          1           0        5.177730   -1.315910   -0.266540
     21          1           0        4.592770    0.283790    1.551670
     22          1           0        2.281520    1.072980    1.821740
     23          6           0       -0.185070    1.368660    1.438760
     24          1           0       -1.244040    1.649380    1.471310
     25          1           0        0.045400    0.824270    2.363960
     26          1           0        0.436430    2.277140    1.410170
     27          1           0       -0.543510   -1.729150    0.236620
     28          8           0       -3.050930   -1.599570    0.221730
     29          6           0       -4.439830   -1.426420    0.098700
     30          1           0       -4.887390   -2.426530    0.172530
     31          1           0       -4.847250   -0.783730    0.895210
     32          1           0       -4.715340   -0.974020   -0.868090
 ---------------------------------------------------------------------
                    Distance matrix (angstroms):
                    1          2          3          4          5
     1  C    0.000000
     2  C    1.402259   0.000000
     3  O    2.372507   1.244236   0.000000
     4  C    1.475108   2.499585   2.925680   0.000000
     5  C    3.568358   3.642969   3.064944   2.727912   0.000000
     6  H    4.157768   4.382935   3.825051   3.027191   1.095023
     7  H    4.359804   4.356317   3.726116   3.640544   1.098010
     8  H    3.402898   3.084188   2.227181   2.902675   1.095119
     9  N    2.524055   3.061868   3.022457   1.663117   1.475028
    10  H    2.326628   2.672295   2.746424   2.102967   2.059074
    11  H    3.210859   3.970937   4.035478   2.203220   2.067340
    12  C    2.485427   3.803664   4.411594   1.528157   3.756258
    13  C    2.951771   4.281034   5.045389   2.530723   4.482376
    14  C    4.292669   5.644991   6.435392   3.822973   5.663821
    15  C    5.076249   6.465555   7.190474   4.345793   6.191573
    16  C    4.820697   6.164531   6.768061   3.848761   5.693584
    17  C    3.678231   4.945389   5.461107   2.568617   4.513754
    18  H    2.685320   3.848101   4.659691   2.711090   4.427682
    19  H    4.949750   6.236679   7.076721   4.684044   6.390999
    20  H    6.134171   7.527602   8.274585   5.437850   7.211701
    21  H    5.754494   7.062517   7.611978   4.721730   6.437940
    22  H    4.002256   5.102443   5.459273   2.796766   4.499187
    23  C    2.528835   3.071036   3.107430   1.527686   2.867076
    24  H    2.703466   2.699335   2.387348   2.155390   2.750532
    25  H    2.827278   3.463706   3.729328   2.133167   3.963569
    26  H    3.493493   4.063157   3.928473   2.219333   2.784063
    27  H    1.088181   2.159857   3.317816   2.222237   4.561581
    28  O    2.321161   1.371993   2.256228   3.696512   4.964567
    29  C    3.604579   2.357983   2.603987   4.854604   5.575558
    30  H    4.334563   3.258105   3.680662   5.695966   6.621833
    31  H    4.002141   2.683318   2.595837   5.079500   5.646464
    32  H    3.958637   2.681088   2.619986   5.091753   5.328665
                    6          7          8          9         10
     6  H    0.000000
     7  H    1.788877   0.000000
     8  H    1.808119   1.800642   0.000000
     9  N    2.113912   2.104046   2.080661   0.000000
    10  H    2.962574   2.387123   2.370452   1.025007   0.000000
    11  H    2.422245   2.396912   2.943436   1.023177   1.647519
    12  C    3.856494   4.515811   4.229325   2.496493   2.960412
    13  C    4.783280   5.006000   5.021533   3.044396   3.142040
    14  C    5.836343   6.111940   6.308106   4.283101   4.436035
    15  C    6.120873   6.727594   6.880961   4.955925   5.345574
    16  C    5.432921   6.376838   6.333586   4.641203   5.242755
    17  C    4.275440   5.319129   5.048337   3.525345   4.200296
    18  H    4.964359   4.828843   4.868248   2.958923   2.691654
    19  H    6.666924   6.714423   7.039719   4.984525   4.963762
    20  H    7.106572   7.693502   7.940113   5.995491   6.366798
    21  H    6.025621   7.141446   7.080419   5.528413   6.213843
    22  H    4.063466   5.406266   4.937040   3.810712   4.614374
    23  C    2.745126   3.954896   2.819442   2.549111   3.231502
    24  H    2.783010   3.821142   2.295283   2.825950   3.337365
    25  H    3.798485   5.048934   3.856906   3.513569   4.110178
    26  H    2.251975   3.815889   2.999527   2.756575   3.657927
    27  H    5.127027   5.296037   4.474580   3.357072   3.075979
    28  O    5.746803   5.585151   4.357622   4.331573   3.779438
    29  C    6.408129   6.077642   4.781868   5.242275   4.639495
    30  H    7.462170   7.107193   5.863757   6.181164   5.526473
    31  H    6.366622   6.227580   4.724161   5.531058   5.089812
    32  H    6.261056   5.644431   4.545322   5.122945   4.412266
                   11         12         13         14         15
    11  H    0.000000
    12  C    2.378037   0.000000
    13  C    2.698284   1.404076   0.000000
    14  C    3.726317   2.435293   1.392203   0.000000
    15  C    4.357353   2.818383   2.415496   1.395116   0.000000
    16  C    4.164787   2.431007   2.776879   2.406361   1.392435
    17  C    3.271366   1.399175   2.404085   2.783064   2.419572
    18  H    2.765774   2.159098   1.092756   2.153867   3.403510
    19  H    4.396926   3.420038   2.153599   1.092257   2.161233
    20  H    5.332742   3.910486   3.406822   2.162718   1.092107
    21  H    5.052011   3.414607   3.869083   3.399467   2.158084
    22  H    3.718826   2.165857   3.401712   3.872963   3.396916
    23  C    3.150293   2.556024   3.856205   4.990711   5.173763
    24  H    3.651694   3.490682   4.671834   5.907424   6.209996
    25  H    4.033849   2.785208   4.102678   5.106439   5.135166
    26  H    3.117965   2.864591   4.207191   5.186431   5.171817
    27  H    3.839836   2.626646   2.726290   3.911714   4.769632
    28  O    5.175788   4.795066   5.045644   6.325546   7.237251
    29  C    6.157063   6.086873   6.366816   7.671154   8.604788
    30  H    7.048065   6.801774   6.956955   8.186885   9.159148
    31  H    6.510519   6.423427   6.914509   8.246578   9.058722
    32  H    6.019232   6.358684   6.554514   7.879659   8.893593
                   16         17         18         19         20
    16  C    0.000000
    17  C    1.395769   0.000000
    18  H    3.869489   3.395125   0.000000
    19  H    3.399500   3.875280   2.474526   0.000000
    20  H    2.160237   3.410386   4.306300   2.495333   0.000000
    21  H    1.092253   2.154627   4.961657   4.306697   2.491406
    22  H    2.144360   1.090157   4.308574   4.965207   4.296015
    23  C    4.296268   2.901490   4.209894   5.963160   6.234949
    24  H    5.384347   3.988599   4.824909   6.819811   7.283694
    25  H    4.160229   2.842906   4.568414   6.109114   6.151480
    26  H    4.156564   2.840194   4.708098   6.204033   6.180719
    27  H    4.710663   3.787034   2.408594   4.453174   5.758170
    28  O    7.069155   5.951915   4.471081   6.775833   8.248013
    29  C    8.406345   7.235482   5.732898   8.091064   9.625127
    30  H    9.047722   7.952559   6.275295   8.518420  10.135724
    31  H    8.697709   7.446531   6.406880   8.774940  10.106092
    32  H    8.757417   7.585545   5.823331   8.242552   9.917237
                   21         22         23         24         25
    21  H    0.000000
    22  H    2.457160   0.000000
    23  C    4.900760   2.513596   0.000000
    24  H    5.994968   3.589514   1.096030   0.000000
    25  H    4.650861   2.314323   1.097940   1.772085   0.000000
    26  H    4.611792   2.241372   1.101097   1.794937   1.781418
    27  H    5.671213   4.283145   3.342162   3.664651   3.375255
    28  O    7.983855   6.175563   4.301710   3.921986   4.477880
    29  C    9.307191   7.375121   5.264144   4.643025   5.505842
    30  H    9.955968   8.146148   6.174028   5.619063   6.300991
    31  H    9.522842   7.424634   5.163734   4.385777   5.355457
    32  H    9.699394   7.770550   5.597593   4.940136   6.028652
                   26         27         28         29         30
    26  H    0.000000
    27  H    4.288107   0.000000
    28  O    5.348173   2.510810   0.000000
    29  C    6.262126   3.910496   1.405048   0.000000
    30  H    7.211056   4.399970   2.014663   1.098172   0.000000
    31  H    6.127918   4.455304   2.084691   1.101576   1.795180
    32  H    6.503941   4.381184   2.085493   1.102386   1.795070
                   31         32
    31  H    0.000000
    32  H    1.778437   0.000000
 Stoichiometry    C12H17NO2
 Framework group  C1[X(C12H17NO2)]
 Deg. of freedom    90
 Full point group                 C1      NOp   1
 Largest Abelian subgroup         C1      NOp   1
 Largest concise Abelian subgroup C1      NOp   1
                         Standard orientation:                         
 ---------------------------------------------------------------------
 Center     Atomic      Atomic             Coordinates (Angstroms)
 Number     Number       Type             X           Y           Z
 ---------------------------------------------------------------------
      1          6           0       -0.909170   -0.705480    0.186309
      2          6           0       -2.289420   -0.460480    0.151429
      3          8           0       -2.856911    0.640049    0.029319
      4          6           0        0.049849    0.412131    0.270989
      5          6           0       -0.801762    2.637460   -1.057231
      6          1           0       -0.190752    3.335860   -0.475871
      7          1           0       -0.914182    3.018470   -2.080861
      8          1           0       -1.783682    2.488800   -0.595691
      9          7           0       -0.140971    1.319760   -1.109501
     10          1           0       -0.703341    0.675620   -1.674711
     11          1           0        0.773399    1.397331   -1.562051
     12          6           0        1.494530   -0.073849    0.161509
     13          6           0        1.839160   -0.978679   -0.855321
     14          6           0        3.150400   -1.419298   -1.012591
     15          6           0        4.149160   -0.968048   -0.149341
     16          6           0        3.821320   -0.072978    0.865669
     17          6           0        2.507709    0.374182    1.016159
     18          1           0        1.058700   -1.353399   -1.522091
     19          1           0        3.391810   -2.126258   -1.809431
     20          1           0        5.177730   -1.315907   -0.266541
     21          1           0        4.592769    0.283793    1.551669
     22          1           0        2.281519    1.072982    1.821739
     23          6           0       -0.185071    1.368660    1.438759
     24          1           0       -1.244041    1.649380    1.471309
     25          1           0        0.045399    0.824271    2.363959
     26          1           0        0.436429    2.277141    1.410169
     27          1           0       -0.543510   -1.729150    0.236619
     28          8           0       -3.050930   -1.599571    0.221729
     29          6           0       -4.439830   -1.426421    0.098699
     30          1           0       -4.887389   -2.426532    0.172529
     31          1           0       -4.847250   -0.783732    0.895209
     32          1           0       -4.715340   -0.974022   -0.868091
 ---------------------------------------------------------------------
 Rotational constants (GHZ):           1.1152404           0.3327506           0.2966477
 Standard basis: def2SVP (5D, 7F)
 There are   310 symmetry adapted cartesian basis functions of A   symmetry.
 There are   295 symmetry adapted basis functions of A   symmetry.
   295 basis functions,   494 primitive gaussians,   310 cartesian basis functions
    56 alpha electrons       56 beta electrons
       nuclear repulsion energy      1010.4963221702 Hartrees.
 NAtoms=   32 NActive=   32 NUniq=   32 SFac= 1.00D+00 NAtFMM=   60 NAOKFM=F Big=F
 Integral buffers will be    131072 words long.
 Raffenetti 2 integral format.
 Two-electron integral symmetry is turned on.
 Nuclear repulsion after empirical dispersion term =     1010.4725347493 Hartrees.
 Force inversion solution in PCM.
 ------------------------------------------------------------------------------
 Polarizable Continuum Model (PCM)
 =================================
 Model                : PCM.
 Atomic radii         : UFF (Universal Force Field).
 Polarization charges : Total charges.
 Charge compensation  : None.
 Solution method      : Matrix inversion.
 Cavity type          : Scaled VdW (van der Waals Surface) (Alpha=1.100).
 Cavity algorithm     : GePol (No added spheres)
                        Default sphere list used, NSphG=   32.
                        Lebedev-Laikov grids with approx.  5.0 points / Ang**2.
                        Smoothing algorithm: York/Karplus (Gamma=1.0000).
                        Polarization charges: spherical gaussians, with
                                              point-specific exponents (IZeta= 3).
                        Self-potential: point-specific (ISelfS= 7).
                        Self-field    : sphere-specific E.n sum rule (ISelfD= 2).
 1st derivatives      : Analytical E(r).r(x)/FMM algorithm (CHGder, D1EAlg=3).
                        Cavity 1st derivative terms included.
 2nd derivatives      : Analytical E(r).r(xy)/FMM algorithm (CHGder, D2EAlg=3).
                        Cavity 2nd derivative terms included.
 Solvent              : Toluene, Eps=   2.374100 Eps(inf)=   2.238315
 ------------------------------------------------------------------------------
 One-electron integrals computed using PRISM.
   1 Symmetry operations used in ECPInt.
 ECPInt:  NShTT=   10011 NPrTT=   35491 LenC2=    9437 LenP2D=   24603.
 LDataN:  DoStor=T MaxTD1= 4 Len=   56
 NBasis=   295 RedAO= T EigKep=  2.79D-04  NBF=   295
 NBsUse=   295 1.00D-06 EigRej= -1.00D+00 NBFU=   295
 ExpMin= 1.22D-01 ExpMax= 2.27D+03 ExpMxC= 3.41D+02 IAcc=3 IRadAn=         5 AccDes= 0.00D+00
 Harris functional with IExCor= 4639 and IRadAn=       5 diagonalized for initial guess.
 HarFok:  IExCor= 4639 AccDes= 0.00D+00 IRadAn=         5 IDoV= 1 UseB2=F ITyADJ=14
 ICtDFT=  3500011 ScaDFX=  1.000000  1.000000  1.000000  1.000000
 FoFCou: FMM=F IPFlag=           0 FMFlag=      100000 FMFlg1=           0
         NFxFlg=           0 DoJE=T BraDBF=F KetDBF=T FulRan=T
         wScrn=  0.000000 ICntrl=       500 IOpCl=  0 I1Cent=   200000004 NGrid=           0
         NMat0=    1 NMatS0=      1 NMatT0=    0 NMatD0=    1 NMtDS0=    0 NMtDT0=    0
 Petite list used in FoFCou.
 Requested convergence on RMS density matrix=1.00D-08 within 128 cycles.
 Requested convergence on MAX density matrix=1.00D-06.
 Requested convergence on             energy=1.00D-06.
 No special actions if energy rises.
 Inv3:  Mode=1 IEnd=    14665563.
 Iteration    1 A*A^-1 deviation from unit magnitude is 3.44D-15 for    731.
 Iteration    1 A*A^-1 deviation from orthogonality  is 1.56D-15 for   2184    204.
 Iteration    1 A^-1*A deviation from unit magnitude is 3.11D-15 for    731.
 Iteration    1 A^-1*A deviation from orthogonality  is 4.53D-15 for   1945   1914.
 Error on total polarization charges =  0.00655
 SCF Done:  E(RwB97XD) =  -671.970647950     A.U. after   14 cycles
            NFock= 14  Conv=0.73D-08     -V/T= 2.0108
 DoSCS=F DFT=T ScalE2(SS,OS)=  1.000000  1.000000
 Range of M.O.s used for correlation:     1   295
 NBasis=   295 NAE=    56 NBE=    56 NFC=     0 NFV=     0
 NROrb=    295 NOA=    56 NOB=    56 NVA=   239 NVB=   239

 **** Warning!!: The largest alpha MO coefficient is  0.14176648D+02

   1 Symmetry operations used in ECPInt.
 ECPInt:  NShTT=   10011 NPrTT=   35491 LenC2=    9437 LenP2D=   24603.
 LDataN:  DoStor=T MaxTD1= 5 Len=  102
 Symmetrizing basis deriv contribution to polar:
 IMax=3 JMax=2 DiffMx= 0.00D+00
 G2DrvN: will do    33 centers at a time, making    1 passes.
 Calling FoFCou, ICntrl=  3107 FMM=F I1Cent=   0 AccDes= 0.00D+00.
 NEqPCM:  Using equilibrium solvation (IEInf=0, Eps=   2.3741, EpsInf=   2.2383)
 G2PCM: DoFxE=T DoFxN=T DoGrad=T DoDP/DQ/DG/TGxP=FFFF NFrqRd=   0 IEInf=0 SqF1=F DoCFld=F IF1Alg=4.
 End of G2Drv F.D. properties file   721 does not exist.
 End of G2Drv F.D. properties file   722 does not exist.
 End of G2Drv F.D. properties file   788 does not exist.
          IDoAtm=11111111111111111111111111111111
 NEqPCM:  Using equilibrium solvation (IEInf=0, Eps=   2.3741, EpsInf=   2.2383)
          Differentiating once with respect to electric field.
                with respect to dipole field.
          Differentiating once with respect to nuclear coordinates.
 Keep R1 ints in memory in canonical form, NReq=1934262512.
          There are    99 degrees of freedom in the 1st order CPHF.  IDoFFX=6 NUNeed=     3.
     96 vectors produced by pass  0 Test12= 1.35D-14 1.01D-09 XBig12= 8.30D+01 3.09D+00.
 AX will form    96 AO Fock derivatives at one time.
     96 vectors produced by pass  1 Test12= 1.35D-14 1.01D-09 XBig12= 6.23D+00 3.93D-01.
     96 vectors produced by pass  2 Test12= 1.35D-14 1.01D-09 XBig12= 1.08D-01 8.09D-02.
     96 vectors produced by pass  3 Test12= 1.35D-14 1.01D-09 XBig12= 1.34D-03 5.93D-03.
     96 vectors produced by pass  4 Test12= 1.35D-14 1.01D-09 XBig12= 9.84D-06 3.79D-04.
     96 vectors produced by pass  5 Test12= 1.35D-14 1.01D-09 XBig12= 5.13D-08 1.95D-05.
     86 vectors produced by pass  6 Test12= 1.35D-14 1.01D-09 XBig12= 2.63D-10 1.40D-06.
     21 vectors produced by pass  7 Test12= 1.35D-14 1.01D-09 XBig12= 1.13D-12 7.81D-08.
      3 vectors produced by pass  8 Test12= 1.35D-14 1.01D-09 XBig12= 4.53D-15 5.84D-09.
 InvSVY:  IOpt=1 It=  1 EMax= 1.07D-14
 Solved reduced A of dimension   686 with    99 vectors.
 Isotropic polarizability for W=    0.000000      162.81 Bohr**3.
 End of Minotr F.D. properties file   721 does not exist.
 End of Minotr F.D. properties file   722 does not exist.
 End of Minotr F.D. properties file   788 does not exist.

 **********************************************************************

            Population analysis using the SCF Density.

 **********************************************************************

 Orbital symmetries:
       Occupied  (A) (A) (A) (A) (A) (A) (A) (A) (A) (A) (A) (A)
                 (A) (A) (A) (A) (A) (A) (A) (A) (A) (A) (A) (A)
                 (A) (A) (A) (A) (A) (A) (A) (A) (A) (A) (A) (A)
                 (A) (A) (A) (A) (A) (A) (A) (A) (A) (A) (A) (A)
                 (A) (A) (A) (A) (A) (A) (A) (A)
       Virtual   (A) (A) (A) (A) (A) (A) (A) (A) (A) (A) (A) (A)
                 (A) (A) (A) (A) (A) (A) (A) (A) (A) (A) (A) (A)
                 (A) (A) (A) (A) (A) (A) (A) (A) (A) (A) (A) (A)
                 (A) (A) (A) (A) (A) (A) (A) (A) (A) (A) (A) (A)
                 (A) (A) (A) (A) (A) (A) (A) (A) (A) (A) (A) (A)
                 (A) (A) (A) (A) (A) (A) (A) (A) (A) (A) (A) (A)
                 (A) (A) (A) (A) (A) (A) (A) (A) (A) (A) (A) (A)
                 (A) (A) (A) (A) (A) (A) (A) (A) (A) (A) (A) (A)
                 (A) (A) (A) (A) (A) (A) (A) (A) (A) (A) (A) (A)
                 (A) (A) (A) (A) (A) (A) (A) (A) (A) (A) (A) (A)
                 (A) (A) (A) (A) (A) (A) (A) (A) (A) (A) (A) (A)
                 (A) (A) (A) (A) (A) (A) (A) (A) (A) (A) (A) (A)
                 (A) (A) (A) (A) (A) (A) (A) (A) (A) (A) (A) (A)
                 (A) (A) (A) (A) (A) (A) (A) (A) (A) (A) (A) (A)
                 (A) (A) (A) (A) (A) (A) (A) (A) (A) (A) (A) (A)
                 (A) (A) (A) (A) (A) (A) (A) (A) (A) (A) (A) (A)
                 (A) (A) (A) (A) (A) (A) (A) (A) (A) (A) (A) (A)
                 (A) (A) (A) (A) (A) (A) (A) (A) (A) (A) (A) (A)
                 (A) (A) (A) (A) (A) (A) (A) (A) (A) (A) (A) (A)
                 (A) (A) (A) (A) (A) (A) (A) (A) (A) (A) (A)
 The electronic state is 1-A.
 Alpha  occ. eigenvalues --  -19.24620 -19.17821 -14.54336 -10.36532 -10.36363
 Alpha  occ. eigenvalues --  -10.34730 -10.32111 -10.31934 -10.31140 -10.31126
 Alpha  occ. eigenvalues --  -10.31095 -10.31049 -10.31005 -10.28936 -10.22717
 Alpha  occ. eigenvalues --   -1.13994  -1.07629  -1.03757  -0.96408  -0.89826
 Alpha  occ. eigenvalues --   -0.84787  -0.83123  -0.80997  -0.79896  -0.75076
 Alpha  occ. eigenvalues --   -0.71461  -0.69854  -0.66553  -0.65819  -0.62396
 Alpha  occ. eigenvalues --   -0.60918  -0.58527  -0.57616  -0.55609  -0.54045
 Alpha  occ. eigenvalues --   -0.53587  -0.52957  -0.52139  -0.51675  -0.50916
 Alpha  occ. eigenvalues --   -0.49317  -0.48659  -0.46590  -0.46312  -0.46076
 Alpha  occ. eigenvalues --   -0.45525  -0.44040  -0.43312  -0.42337  -0.41806
 Alpha  occ. eigenvalues --   -0.39539  -0.34172  -0.34020  -0.33903  -0.30970
 Alpha  occ. eigenvalues --   -0.23595
 Alpha virt. eigenvalues --    0.04212   0.05020   0.11320   0.13415   0.14062
 Alpha virt. eigenvalues --    0.15162   0.16707   0.18041   0.18345   0.18437
 Alpha virt. eigenvalues --    0.19102   0.20534   0.21306   0.21873   0.22311
 Alpha virt. eigenvalues --    0.23271   0.23554   0.23786   0.24239   0.24664
 Alpha virt. eigenvalues --    0.25277   0.25614   0.27289   0.28473   0.30905
 Alpha virt. eigenvalues --    0.32671   0.35833   0.36515   0.36775   0.38714
 Alpha virt. eigenvalues --    0.39372   0.40551   0.42620   0.45103   0.45950
 Alpha virt. eigenvalues --    0.46307   0.48352   0.48750   0.50165   0.51843
 Alpha virt. eigenvalues --    0.52869   0.54650   0.55387   0.55926   0.56237
 Alpha virt. eigenvalues --    0.56777   0.57680   0.59204   0.60329   0.60558
 Alpha virt. eigenvalues --    0.62016   0.62723   0.64714   0.65042   0.66334
 Alpha virt. eigenvalues --    0.67604   0.69090   0.70172   0.71591   0.71770
 Alpha virt. eigenvalues --    0.72644   0.73055   0.73398   0.73704   0.74080
 Alpha virt. eigenvalues --    0.74717   0.75042   0.75673   0.75982   0.76202
 Alpha virt. eigenvalues --    0.76892   0.77493   0.77858   0.79162   0.79440
 Alpha virt. eigenvalues --    0.79612   0.80081   0.81710   0.82314   0.82836
 Alpha virt. eigenvalues --    0.83316   0.84170   0.85559   0.86694   0.87090
 Alpha virt. eigenvalues --    0.88661   0.90182   0.90793   0.91837   0.94251
 Alpha virt. eigenvalues --    0.96160   0.97005   1.02455   1.02926   1.04205
 Alpha virt. eigenvalues --    1.05937   1.10132   1.13337   1.14985   1.16665
 Alpha virt. eigenvalues --    1.18073   1.20152   1.21415   1.23531   1.27628
 Alpha virt. eigenvalues --    1.28819   1.30565   1.32046   1.32675   1.33404
 Alpha virt. eigenvalues --    1.35602   1.37006   1.37814   1.38448   1.39786
 Alpha virt. eigenvalues --    1.40970   1.43065   1.48323   1.50281   1.51392
 Alpha virt. eigenvalues --    1.53212   1.55307   1.57687   1.59921   1.61174
 Alpha virt. eigenvalues --    1.62879   1.63640   1.64138   1.68608   1.70842
 Alpha virt. eigenvalues --    1.72898   1.74535   1.76808   1.77556   1.78516
 Alpha virt. eigenvalues --    1.80175   1.80581   1.80980   1.82438   1.83382
 Alpha virt. eigenvalues --    1.83696   1.84282   1.84818   1.85231   1.86071
 Alpha virt. eigenvalues --    1.87639   1.88725   1.90313   1.90853   1.91740
 Alpha virt. eigenvalues --    1.93377   1.94378   1.95446   1.95714   1.98164
 Alpha virt. eigenvalues --    1.98679   1.98988   1.99541   2.00560   2.02192
 Alpha virt. eigenvalues --    2.03198   2.04935   2.05894   2.07367   2.08087
 Alpha virt. eigenvalues --    2.08721   2.09638   2.11902   2.12651   2.13010
 Alpha virt. eigenvalues --    2.15948   2.16473   2.19008   2.20271   2.21273
 Alpha virt. eigenvalues --    2.23362   2.24040   2.25514   2.28891   2.32135
 Alpha virt. eigenvalues --    2.35354   2.35462   2.37597   2.38759   2.39492
 Alpha virt. eigenvalues --    2.40509   2.41329   2.43101   2.43680   2.45024
 Alpha virt. eigenvalues --    2.46119   2.48521   2.50289   2.50527   2.52534
 Alpha virt. eigenvalues --    2.56573   2.59019   2.61862   2.62665   2.67332
 Alpha virt. eigenvalues --    2.70935   2.71547   2.73054   2.73979   2.76631
 Alpha virt. eigenvalues --    2.77528   2.78872   2.80002   2.81067   2.81839
 Alpha virt. eigenvalues --    2.82464   2.83814   2.87099   2.89981   2.91665
 Alpha virt. eigenvalues --    2.93260   2.96239   2.97176   2.99616   3.02714
 Alpha virt. eigenvalues --    3.03819   3.04191   3.05971   3.08710   3.09984
 Alpha virt. eigenvalues --    3.12354   3.13225   3.16288   3.20927   3.24446
 Alpha virt. eigenvalues --    3.28875   3.31409   3.32510   3.34469   3.47556
 Alpha virt. eigenvalues --    3.58545   3.71237   3.74154   3.82655
          Condensed to atoms (all electrons):
               1          2          3          4          5          6
     1  C    5.738111   0.352983  -0.141276   0.255404   0.002724  -0.000578
     2  C    0.352983   4.449344   0.636627  -0.016503  -0.000907   0.000199
     3  O   -0.141276   0.636627   7.928164   0.016852  -0.017139   0.000477
     4  C    0.255404  -0.016503   0.016852   5.474413  -0.031416  -0.012681
     5  C    0.002724  -0.000907  -0.017139  -0.031416   4.540230   0.395588
     6  H   -0.000578   0.000199   0.000477  -0.012681   0.395588   0.592379
     7  H   -0.000490   0.000014   0.000256   0.005240   0.397466  -0.021129
     8  H   -0.002448   0.000400   0.041317  -0.003705   0.385436  -0.012182
     9  N   -0.092122  -0.004902   0.001553   0.095367   0.303734  -0.015110
    10  H    0.001688   0.006774   0.002427   0.012847  -0.014501   0.005527
    11  H    0.006533  -0.000332  -0.000008  -0.004776  -0.015639  -0.006062
    12  C   -0.051477   0.010349   0.000817   0.166197   0.004266   0.000660
    13  C   -0.014899   0.000362  -0.000004  -0.097467   0.000064   0.000154
    14  C    0.000758  -0.000005  -0.000000   0.013081   0.000009  -0.000001
    15  C    0.000004   0.000000  -0.000000  -0.001744  -0.000001  -0.000000
    16  C   -0.000469   0.000007  -0.000000   0.021151  -0.000001  -0.000005
    17  C    0.007219  -0.000553  -0.000003  -0.089714   0.000139  -0.000151
    18  H    0.018647  -0.000761  -0.000036  -0.014645   0.000026  -0.000023
    19  H   -0.000018  -0.000001   0.000000  -0.000297  -0.000000  -0.000000
    20  H    0.000001   0.000000   0.000000   0.000020   0.000000   0.000000
    21  H    0.000005  -0.000000   0.000000  -0.000276  -0.000000  -0.000000
    22  H    0.000442  -0.000025   0.000004  -0.034896  -0.000089  -0.000080
    23  C   -0.043444  -0.016344  -0.016183   0.402120   0.020659   0.007127
    24  H   -0.024614   0.003019   0.024939   0.007934   0.004761  -0.002373
    25  H   -0.000232  -0.001284   0.000018  -0.009024  -0.000055   0.000110
    26  H    0.009572   0.000999   0.000053   0.004262  -0.002097   0.001062
    27  H    0.404031  -0.010850   0.004199  -0.062927  -0.000052   0.000004
    28  O   -0.131498   0.364737  -0.083524   0.005267  -0.000041   0.000001
    29  C    0.010643  -0.039266   0.001376  -0.000479   0.000006   0.000000
    30  H    0.000165   0.005688   0.001056   0.000001  -0.000000  -0.000000
    31  H    0.000780  -0.005479   0.009383   0.000055   0.000004  -0.000000
    32  H    0.001087  -0.003957   0.008339   0.000047  -0.000005   0.000000
               7          8          9         10         11         12
     1  C   -0.000490  -0.002448  -0.092122   0.001688   0.006533  -0.051477
     2  C    0.000014   0.000400  -0.004902   0.006774  -0.000332   0.010349
     3  O    0.000256   0.041317   0.001553   0.002427  -0.000008   0.000817
     4  C    0.005240  -0.003705   0.095367   0.012847  -0.004776   0.166197
     5  C    0.397466   0.385436   0.303734  -0.014501  -0.015639   0.004266
     6  H   -0.021129  -0.012182  -0.015110   0.005527  -0.006062   0.000660
     7  H    0.588701  -0.014125  -0.016519  -0.006381  -0.005448  -0.000278
     8  H   -0.014125   0.520896  -0.016636  -0.004430   0.005267   0.000369
     9  N   -0.016519  -0.016636   6.306316   0.320758   0.332737  -0.025183
    10  H   -0.006381  -0.004430   0.320758   0.491711  -0.007052  -0.008737
    11  H   -0.005448   0.005267   0.332737  -0.007052   0.509026  -0.008659
    12  C   -0.000278   0.000369  -0.025183  -0.008737  -0.008659   5.496674
    13  C   -0.000073  -0.000020  -0.010225   0.005242   0.005563   0.273929
    14  C   -0.000001  -0.000001  -0.000343   0.000123  -0.000338   0.071187
    15  C    0.000000   0.000000   0.000046   0.000008  -0.000030  -0.142766
    16  C    0.000000  -0.000001  -0.000177   0.000003  -0.000306   0.065550
    17  C   -0.000005  -0.000017  -0.000186  -0.000370   0.002140   0.344466
    18  H   -0.000012   0.000008  -0.003162   0.002185   0.001867  -0.080215
    19  H    0.000000   0.000000   0.000003  -0.000006   0.000013   0.014306
    20  H   -0.000000   0.000000  -0.000000   0.000000  -0.000003  -0.001482
    21  H    0.000000   0.000000   0.000002  -0.000000   0.000002   0.014434
    22  H    0.000000   0.000011   0.000377  -0.000021   0.000106  -0.050060
    23  C   -0.000267  -0.001566  -0.060137   0.006037   0.002687  -0.069451
    24  H    0.000183  -0.001098  -0.010357   0.000260  -0.000160   0.007029
    25  H   -0.000018   0.000088   0.005998  -0.000250  -0.000241  -0.008941
    26  H    0.000315  -0.000662  -0.002467  -0.000740   0.000621  -0.016193
    27  H    0.000011  -0.000131   0.003452   0.000461  -0.000100  -0.004261
    28  O    0.000001   0.000299   0.000052  -0.000509   0.000003  -0.000017
    29  C    0.000000  -0.000037   0.000012  -0.000041  -0.000001   0.000005
    30  H   -0.000000   0.000001   0.000000  -0.000002   0.000000  -0.000001
    31  H    0.000000  -0.000046   0.000004  -0.000032  -0.000000   0.000001
    32  H   -0.000002   0.000043  -0.000026   0.000166   0.000001  -0.000004
              13         14         15         16         17         18
     1  C   -0.014899   0.000758   0.000004  -0.000469   0.007219   0.018647
     2  C    0.000362  -0.000005   0.000000   0.000007  -0.000553  -0.000761
     3  O   -0.000004  -0.000000  -0.000000  -0.000000  -0.000003  -0.000036
     4  C   -0.097467   0.013081  -0.001744   0.021151  -0.089714  -0.014645
     5  C    0.000064   0.000009  -0.000001  -0.000001   0.000139   0.000026
     6  H    0.000154  -0.000001  -0.000000  -0.000005  -0.000151  -0.000023
     7  H   -0.000073  -0.000001   0.000000   0.000000  -0.000005  -0.000012
     8  H   -0.000020  -0.000001   0.000000  -0.000001  -0.000017   0.000008
     9  N   -0.010225  -0.000343   0.000046  -0.000177  -0.000186  -0.003162
    10  H    0.005242   0.000123   0.000008   0.000003  -0.000370   0.002185
    11  H    0.005563  -0.000338  -0.000030  -0.000306   0.002140   0.001867
    12  C    0.273929   0.071187  -0.142766   0.065550   0.344466  -0.080215
    13  C    5.177300   0.323131   0.073158  -0.131976   0.031705   0.453623
    14  C    0.323131   5.021755   0.296288   0.075205  -0.122565  -0.055166
    15  C    0.073158   0.296288   5.076893   0.305241   0.068686   0.013101
    16  C   -0.131976   0.075205   0.305241   5.061503   0.301166  -0.002029
    17  C    0.031705  -0.122565   0.068686   0.301166   5.068343   0.012878
    18  H    0.453623  -0.055166   0.013101  -0.002029   0.012878   0.643061
    19  H   -0.063372   0.449286  -0.067073   0.012345  -0.001627  -0.011541
    20  H    0.012520  -0.064075   0.447532  -0.062609   0.012556  -0.000187
    21  H   -0.001599   0.012221  -0.067267   0.445034  -0.058966   0.000021
    22  H    0.013412  -0.001868   0.013116  -0.067820   0.448239  -0.000137
    23  C    0.014781  -0.000475   0.000143  -0.000907   0.009331   0.000964
    24  H   -0.000096   0.000006   0.000003  -0.000045   0.000707   0.000051
    25  H   -0.000133   0.000024  -0.000048   0.000671   0.000073  -0.000029
    26  H   -0.001273  -0.000002  -0.000050   0.000934   0.004110  -0.000094
    27  H   -0.003707   0.000734  -0.000098   0.000005   0.000463   0.000716
    28  O   -0.000021  -0.000000  -0.000000   0.000000   0.000000  -0.000018
    29  C    0.000000   0.000000  -0.000000   0.000000  -0.000000  -0.000004
    30  H    0.000000  -0.000000   0.000000  -0.000000   0.000000   0.000000
    31  H   -0.000000  -0.000000  -0.000000  -0.000000   0.000000  -0.000000
    32  H    0.000001   0.000000  -0.000000   0.000000  -0.000000   0.000000
              19         20         21         22         23         24
     1  C   -0.000018   0.000001   0.000005   0.000442  -0.043444  -0.024614
     2  C   -0.000001   0.000000  -0.000000  -0.000025  -0.016344   0.003019
     3  O    0.000000   0.000000   0.000000   0.000004  -0.016183   0.024939
     4  C   -0.000297   0.000020  -0.000276  -0.034896   0.402120   0.007934
     5  C   -0.000000   0.000000  -0.000000  -0.000089   0.020659   0.004761
     6  H   -0.000000   0.000000  -0.000000  -0.000080   0.007127  -0.002373
     7  H    0.000000  -0.000000   0.000000   0.000000  -0.000267   0.000183
     8  H    0.000000   0.000000   0.000000   0.000011  -0.001566  -0.001098
     9  N    0.000003  -0.000000   0.000002   0.000377  -0.060137  -0.010357
    10  H   -0.000006   0.000000  -0.000000  -0.000021   0.006037   0.000260
    11  H    0.000013  -0.000003   0.000002   0.000106   0.002687  -0.000160
    12  C    0.014306  -0.001482   0.014434  -0.050060  -0.069451   0.007029
    13  C   -0.063372   0.012520  -0.001599   0.013412   0.014781  -0.000096
    14  C    0.449286  -0.064075   0.012221  -0.001868  -0.000475   0.000006
    15  C   -0.067073   0.447532  -0.067267   0.013116   0.000143   0.000003
    16  C    0.012345  -0.062609   0.445034  -0.067820  -0.000907  -0.000045
    17  C   -0.001627   0.012556  -0.058966   0.448239   0.009331   0.000707
    18  H   -0.011541  -0.000187   0.000021  -0.000137   0.000964   0.000051
    19  H    0.647173  -0.010562  -0.000208   0.000023   0.000004  -0.000000
    20  H   -0.010562   0.644721  -0.010588  -0.000202   0.000000   0.000000
    21  H   -0.000208  -0.010588   0.649006  -0.011790  -0.000002  -0.000000
    22  H    0.000023  -0.000202  -0.011790   0.653588   0.019736   0.000023
    23  C    0.000004   0.000000  -0.000002   0.019736   4.543062   0.373653
    24  H   -0.000000   0.000000  -0.000000   0.000023   0.373653   0.594123
    25  H    0.000000  -0.000000   0.000011   0.000632   0.388112  -0.012009
    26  H    0.000000  -0.000000   0.000019  -0.001144   0.355338  -0.027055
    27  H    0.000040  -0.000001   0.000000   0.000011   0.002023   0.000047
    28  O    0.000000  -0.000000   0.000000   0.000000  -0.000167   0.000069
    29  C   -0.000000   0.000000  -0.000000  -0.000000   0.000009  -0.000067
    30  H   -0.000000  -0.000000   0.000000  -0.000000   0.000002  -0.000003
    31  H    0.000000  -0.000000  -0.000000  -0.000000  -0.000037   0.000159
    32  H   -0.000000  -0.000000   0.000000  -0.000000   0.000014  -0.000049
              25         26         27         28         29         30
     1  C   -0.000232   0.009572   0.404031  -0.131498   0.010643   0.000165
     2  C   -0.001284   0.000999  -0.010850   0.364737  -0.039266   0.005688
     3  O    0.000018   0.000053   0.004199  -0.083524   0.001376   0.001056
     4  C   -0.009024   0.004262  -0.062927   0.005267  -0.000479   0.000001
     5  C   -0.000055  -0.002097  -0.000052  -0.000041   0.000006  -0.000000
     6  H    0.000110   0.001062   0.000004   0.000001   0.000000  -0.000000
     7  H   -0.000018   0.000315   0.000011   0.000001   0.000000  -0.000000
     8  H    0.000088  -0.000662  -0.000131   0.000299  -0.000037   0.000001
     9  N    0.005998  -0.002467   0.003452   0.000052   0.000012   0.000000
    10  H   -0.000250  -0.000740   0.000461  -0.000509  -0.000041  -0.000002
    11  H   -0.000241   0.000621  -0.000100   0.000003  -0.000001   0.000000
    12  C   -0.008941  -0.016193  -0.004261  -0.000017   0.000005  -0.000001
    13  C   -0.000133  -0.001273  -0.003707  -0.000021   0.000000   0.000000
    14  C    0.000024  -0.000002   0.000734  -0.000000   0.000000  -0.000000
    15  C   -0.000048  -0.000050  -0.000098  -0.000000  -0.000000   0.000000
    16  C    0.000671   0.000934   0.000005   0.000000   0.000000  -0.000000
    17  C    0.000073   0.004110   0.000463   0.000000  -0.000000   0.000000
    18  H   -0.000029  -0.000094   0.000716  -0.000018  -0.000004   0.000000
    19  H    0.000000   0.000000   0.000040   0.000000  -0.000000  -0.000000
    20  H   -0.000000  -0.000000  -0.000001  -0.000000   0.000000  -0.000000
    21  H    0.000011   0.000019   0.000000   0.000000  -0.000000   0.000000
    22  H    0.000632  -0.001144   0.000011   0.000000  -0.000000  -0.000000
    23  C    0.388112   0.355338   0.002023  -0.000167   0.000009   0.000002
    24  H   -0.012009  -0.027055   0.000047   0.000069  -0.000067  -0.000003
    25  H    0.604333  -0.024925   0.000784  -0.000010  -0.000001  -0.000000
    26  H   -0.024925   0.682684  -0.000158  -0.000000   0.000000   0.000000
    27  H    0.000784  -0.000158   0.658648   0.006007  -0.000183  -0.000177
    28  O   -0.000010  -0.000000   0.006007   8.011961   0.289108  -0.025949
    29  C   -0.000001   0.000000  -0.000183   0.289108   4.392617   0.395433
    30  H   -0.000000   0.000000  -0.000177  -0.025949   0.395433   0.645786
    31  H    0.000001   0.000001   0.000027  -0.030504   0.401684  -0.027324
    32  H   -0.000000  -0.000001   0.000032  -0.031987   0.397288  -0.027668
              31         32
     1  C    0.000780   0.001087
     2  C   -0.005479  -0.003957
     3  O    0.009383   0.008339
     4  C    0.000055   0.000047
     5  C    0.000004  -0.000005
     6  H   -0.000000   0.000000
     7  H    0.000000  -0.000002
     8  H   -0.000046   0.000043
     9  N    0.000004  -0.000026
    10  H   -0.000032   0.000166
    11  H   -0.000000   0.000001
    12  C    0.000001  -0.000004
    13  C   -0.000000   0.000001
    14  C   -0.000000   0.000000
    15  C   -0.000000  -0.000000
    16  C   -0.000000   0.000000
    17  C    0.000000  -0.000000
    18  H   -0.000000   0.000000
    19  H    0.000000  -0.000000
    20  H   -0.000000  -0.000000
    21  H   -0.000000   0.000000
    22  H   -0.000000  -0.000000
    23  C   -0.000037   0.000014
    24  H    0.000159  -0.000049
    25  H    0.000001  -0.000000
    26  H    0.000001  -0.000001
    27  H    0.000027   0.000032
    28  O   -0.030504  -0.031987
    29  C    0.401684   0.397288
    30  H   -0.027324  -0.027668
    31  H    0.663683  -0.038575
    32  H   -0.038575   0.676406
 Mulliken charges:
               1
     1  C   -0.307231
     2  C    0.269668
     3  O   -0.419682
     4  C   -0.099708
     5  C    0.026830
     6  H    0.067088
     7  H    0.072561
     8  H    0.102971
     9  N   -0.112858
    10  H    0.186853
    11  H    0.182589
    12  C   -0.002515
    13  C   -0.060081
    14  C   -0.018969
    15  C   -0.015143
    16  C   -0.022469
    17  C   -0.038063
    18  H    0.020913
    19  H    0.031513
    20  H    0.032358
    21  H    0.029942
    22  H    0.018413
    23  C    0.063178
    24  H    0.060960
    25  H    0.056344
    26  H    0.016891
    27  H    0.000947
    28  O   -0.373260
    29  C    0.151899
    30  H    0.032993
    31  H    0.026216
    32  H    0.018851
 Sum of Mulliken charges =  -0.00000
 Mulliken charges with hydrogens summed into heavy atoms:
               1
     1  C   -0.306284
     2  C    0.269668
     3  O   -0.419682
     4  C   -0.099708
     5  C    0.269450
     9  N    0.256584
    12  C   -0.002515
    13  C   -0.039168
    14  C    0.012545
    15  C    0.017215
    16  C    0.007472
    17  C   -0.019650
    23  C    0.197374
    28  O   -0.373260
    29  C    0.229958
 APT charges:
               1
     1  C   -1.046861
     2  C    1.704876
     3  O   -1.058064
     4  C    0.958504
     5  C    0.154778
     6  H    0.030756
     7  H    0.007557
     8  H    0.131215
     9  N   -0.592356
    10  H    0.221667
    11  H    0.208919
    12  C   -0.002964
    13  C   -0.106215
    14  C   -0.021492
    15  C   -0.049861
    16  C   -0.023052
    17  C   -0.083934
    18  H    0.074744
    19  H    0.035287
    20  H    0.038190
    21  H    0.033545
    22  H    0.065537
    23  C   -0.117770
    24  H    0.065900
    25  H    0.028659
    26  H   -0.028291
    27  H    0.042496
    28  O   -1.156317
    29  C    0.634898
    30  H   -0.037947
    31  H   -0.051402
    32  H   -0.061002
 Sum of APT charges =  -0.00000
 APT charges with hydrogens summed into heavy atoms:
               1
     1  C   -1.004365
     2  C    1.704876
     3  O   -1.058064
     4  C    0.958504
     5  C    0.324306
     9  N   -0.161771
    12  C   -0.002964
    13  C   -0.031471
    14  C    0.013795
    15  C   -0.011671
    16  C    0.010493
    17  C   -0.018396
    23  C   -0.051502
    28  O   -1.156317
    29  C    0.484547
 Electronic spatial extent (au):  <R**2>=           3887.8810
 Charge=             -0.0000 electrons
 Dipole moment (field-independent basis, Debye):
    X=              5.2349    Y=              4.0259    Z=             -3.3733  Tot=              7.4156
 Quadrupole moment (field-independent basis, Debye-Ang):
   XX=            -92.5011   YY=            -85.3909   ZZ=            -82.7107
   XY=              0.2297   XZ=              2.1491   YZ=             -1.0287
 Traceless Quadrupole moment (field-independent basis, Debye-Ang):
   XX=             -5.6336   YY=              1.4767   ZZ=              4.1569
   XY=              0.2297   XZ=              2.1491   YZ=             -1.0287
 Octapole moment (field-independent basis, Debye-Ang**2):
  XXX=             15.3085  YYY=             30.7326  ZZZ=            -14.9351  XYY=             -3.6779
  XXY=            -25.0022  XXZ=              2.0811  XZZ=             -6.2025  YZZ=             11.7478
  YYZ=            -16.7784  XYZ=             10.1400
 Hexadecapole moment (field-independent basis, Debye-Ang**3):
 XXXX=          -3435.1469 YYYY=           -913.4304 ZZZZ=           -450.4439 XXXY=             50.3235
 XXXZ=             24.8057 YYYX=             -2.7340 YYYZ=            -21.7003 ZZZX=              7.9175
 ZZZY=            -13.7802 XXYY=           -775.8000 XXZZ=           -683.5517 YYZZ=           -219.4846
 XXYZ=             29.7162 YYXZ=             -8.2256 ZZXY=             -1.2225
 N-N= 1.010472534749D+03 E-N=-3.583076930345D+03  KE= 6.648222430367D+02
  Exact polarizability:     214.984      -5.104     142.540       4.727      16.511     130.920
 Approx polarizability:     183.484      -7.307     145.879       5.588      18.330     138.910
   1 Symmetry operations used in ECPInt.
 ECPInt:  NShTT=   10011 NPrTT=   35491 LenC2=    9437 LenP2D=   24603.
 LDataN:  DoStor=T MaxTD1= 6 Len=  172
 D2PCM: PCM CHGder 2nd derivatives, FixD1E=F FixD2E=F DoIter=F DoCFld=F I1PDM=0
 Calling FoFJK, ICntrl=    100127 FMM=F ISym2X=0 I1Cent= 0 IOpClX= 0 NMat=1 NMatS=1 NMatT=0.
 Full mass-weighted force constant matrix:
 Low frequencies ---  -77.0876   -6.3582   -0.0009   -0.0006   -0.0004    7.3466
 Low frequencies ---   12.3131   49.5634   73.4374
 ******    1 imaginary frequencies (negative Signs) ****** 
 Diagonal vibrational polarizability:
       90.7002187      53.8796408      64.4286098
 Harmonic frequencies (cm**-1), IR intensities (KM/Mole), Raman scattering
 activities (A**4/AMU), depolarization ratios for plane and unpolarized
 incident light, reduced masses (AMU), force constants (mDyne/A),
 and normal coordinates:
                      1                      2                      3
                      A                      A                      A
 Frequencies --    -77.0552                49.4329                73.3979
 Red. masses --      2.7895                 3.8033                 3.0836
 Frc consts  --      0.0098                 0.0055                 0.0098
 IR Inten    --      2.1438                 0.5010                 5.4023
  Atom  AN      X      Y      Z        X      Y      Z        X      Y      Z
     1   6    -0.01   0.06  -0.08    -0.02  -0.01   0.01    -0.02  -0.04  -0.16
     2   6    -0.03   0.04   0.02    -0.02   0.01   0.00    -0.02  -0.01  -0.09
     3   8    -0.09   0.02   0.19    -0.02   0.02   0.07     0.00   0.00  -0.05
     4   6     0.01   0.00  -0.01     0.00  -0.03   0.05    -0.01  -0.05  -0.06
     5   6    -0.13  -0.05  -0.09    -0.00  -0.02   0.07     0.07   0.03   0.05
     6   1    -0.37   0.04   0.05    -0.04  -0.01   0.10     0.08  -0.02   0.10
     7   1    -0.04  -0.01  -0.08     0.01   0.01   0.07     0.10   0.09   0.07
     8   1    -0.17  -0.28  -0.24    -0.01  -0.06   0.04     0.06   0.03   0.02
     9   7     0.16   0.09  -0.05     0.04   0.01   0.06     0.04   0.02  -0.01
    10   1     0.42   0.00  -0.21     0.09   0.00   0.01     0.04   0.06  -0.05
    11   1     0.24   0.32   0.17     0.06   0.05   0.10     0.05   0.02   0.01
    12   6     0.00  -0.03   0.01     0.00  -0.04   0.03    -0.00  -0.03  -0.02
    13   6     0.01  -0.01  -0.00    -0.04  -0.17   0.14     0.05  -0.04   0.01
    14   6     0.02  -0.01   0.01    -0.03  -0.14   0.10     0.07   0.00   0.04
    15   6     0.01  -0.02   0.02     0.02   0.04  -0.05     0.04   0.06   0.04
    16   6    -0.00  -0.04   0.03     0.06   0.19  -0.17    -0.01   0.08   0.01
    17   6    -0.00  -0.04   0.02     0.05   0.14  -0.12    -0.03   0.03  -0.02
    18   1     0.03   0.00  -0.03    -0.07  -0.29   0.24     0.07  -0.08   0.00
    19   1     0.02   0.00  -0.00    -0.06  -0.25   0.19     0.11  -0.01   0.06
    20   1     0.01  -0.02   0.03     0.03   0.07  -0.09     0.06   0.10   0.06
    21   1    -0.01  -0.05   0.04     0.10   0.33  -0.29    -0.03   0.13   0.02
    22   1    -0.01  -0.05   0.03     0.09   0.25  -0.21    -0.06   0.04  -0.04
    23   6     0.01   0.02  -0.04     0.01  -0.05   0.06    -0.06  -0.13  -0.01
    24   1     0.02   0.05  -0.06     0.00  -0.07   0.09    -0.07  -0.14  -0.02
    25   1    -0.01   0.04  -0.02     0.05  -0.06   0.05    -0.08  -0.18  -0.04
    26   1     0.03   0.01  -0.05    -0.02  -0.04   0.06    -0.08  -0.11   0.07
    27   1    -0.03   0.04  -0.26    -0.05  -0.02  -0.04    -0.04  -0.05  -0.13
    28   8     0.02  -0.00  -0.06    -0.03   0.01  -0.09    -0.04   0.01  -0.05
    29   6     0.01  -0.04   0.02    -0.02   0.02  -0.14    -0.07   0.07   0.26
    30   1     0.05  -0.07  -0.04    -0.03   0.02  -0.20    -0.08   0.07   0.16
    31   1     0.03  -0.13   0.10    -0.05  -0.00  -0.14     0.11  -0.08   0.47
    32   1    -0.06   0.03   0.08     0.02   0.06  -0.14    -0.25   0.26   0.41
                      4                      5                      6
                      A                      A                      A
 Frequencies --     84.7436               102.0397               118.4663
 Red. masses --      4.4232                 1.8772                 2.1170
 Frc consts  --      0.0187                 0.0115                 0.0175
 IR Inten    --      5.2474                 7.5980                 4.0365
  Atom  AN      X      Y      Z        X      Y      Z        X      Y      Z
     1   6    -0.04  -0.08   0.08     0.02  -0.01   0.04     0.00  -0.02  -0.09
     2   6    -0.04  -0.01   0.08     0.02  -0.01   0.03    -0.00  -0.01   0.04
     3   8     0.03   0.03   0.14     0.02  -0.00   0.13     0.00   0.00   0.16
     4   6    -0.02  -0.12   0.06    -0.01   0.00   0.00    -0.01  -0.02  -0.06
     5   6     0.10  -0.11  -0.12     0.07   0.06  -0.03     0.06   0.08   0.02
     6   1     0.13  -0.11  -0.16     0.21   0.02  -0.14     0.17   0.02  -0.02
     7   1     0.11  -0.15  -0.14    -0.02   0.03  -0.04    -0.00   0.11   0.04
     8   1     0.09  -0.02  -0.10     0.10   0.19   0.08     0.09   0.16   0.10
     9   7     0.02  -0.14  -0.04    -0.09  -0.01  -0.05    -0.05   0.03  -0.06
    10   1    -0.01  -0.15   0.00    -0.22   0.02   0.06    -0.15   0.08  -0.01
    11   1     0.03  -0.22  -0.05    -0.13  -0.14  -0.16    -0.08  -0.04  -0.14
    12   6    -0.01  -0.09   0.07    -0.00   0.03  -0.02     0.00   0.01  -0.06
    13   6     0.04   0.01  -0.00    -0.01   0.01  -0.00     0.04  -0.01  -0.04
    14   6     0.08   0.16  -0.09    -0.02  -0.02   0.02     0.04  -0.03   0.04
    15   6     0.07   0.20  -0.09    -0.02  -0.04   0.04     0.01  -0.02   0.07
    16   6     0.01   0.06   0.01    -0.01  -0.01   0.01    -0.03   0.02   0.03
    17   6    -0.03  -0.08   0.08    -0.00   0.03  -0.01    -0.03   0.03  -0.04
    18   1     0.06  -0.01  -0.02    -0.01   0.02  -0.01     0.07  -0.01  -0.07
    19   1     0.13   0.25  -0.15    -0.02  -0.04   0.04     0.07  -0.05   0.07
    20   1     0.10   0.33  -0.16    -0.03  -0.07   0.06     0.01  -0.04   0.13
    21   1    -0.01   0.08   0.02    -0.02  -0.02   0.02    -0.05   0.03   0.05
    22   1    -0.07  -0.16   0.14    -0.00   0.04  -0.03    -0.05   0.05  -0.06
    23   6    -0.02  -0.03  -0.02     0.00   0.04  -0.03    -0.03  -0.05  -0.04
    24   1    -0.01  -0.01  -0.05    -0.00   0.02  -0.01    -0.03  -0.09  -0.02
    25   1    -0.04   0.03   0.03     0.03   0.08  -0.01    -0.00  -0.07  -0.06
    26   1     0.01  -0.05  -0.08    -0.01   0.05  -0.08    -0.05  -0.04  -0.02
    27   1    -0.08  -0.10  -0.07     0.03  -0.01  -0.09     0.00  -0.03  -0.21
    28   8    -0.11   0.04  -0.02     0.03  -0.03  -0.12    -0.01  -0.01   0.05
    29   6    -0.09   0.14  -0.08     0.02  -0.02   0.00     0.00  -0.01  -0.04
    30   1    -0.17   0.17  -0.13     0.06  -0.07  -0.42    -0.04   0.04   0.38
    31   1    -0.08   0.16  -0.09     0.02  -0.40   0.31     0.02   0.37  -0.34
    32   1    -0.01   0.18  -0.09    -0.03   0.40   0.22     0.04  -0.43  -0.26
                      7                      8                      9
                      A                      A                      A
 Frequencies --    137.2078               159.9230               215.0286
 Red. masses --      3.6196                 2.1876                 3.7407
 Frc consts  --      0.0401                 0.0330                 0.1019
 IR Inten    --      1.1871                 1.7933                19.8970
  Atom  AN      X      Y      Z        X      Y      Z        X      Y      Z
     1   6    -0.04   0.05   0.01    -0.02   0.00  -0.07     0.10  -0.11  -0.01
     2   6    -0.05   0.02   0.00    -0.02   0.02   0.04     0.11  -0.11   0.02
     3   8    -0.10  -0.02  -0.03    -0.02   0.01  -0.02     0.19  -0.08   0.01
     4   6    -0.02  -0.01   0.06    -0.00  -0.01  -0.05    -0.02  -0.06   0.07
     5   6     0.27   0.13  -0.06     0.01   0.02   0.03    -0.03   0.08  -0.12
     6   1     0.30   0.05   0.00    -0.00  -0.00   0.07    -0.20   0.06   0.09
     7   1     0.37   0.18  -0.05     0.02   0.06   0.04     0.20   0.17  -0.11
     8   1     0.23   0.24  -0.11     0.01  -0.01   0.01    -0.12   0.02  -0.34
     9   7     0.13   0.07  -0.03     0.02   0.02  -0.02     0.04   0.11  -0.04
    10   1     0.09   0.12  -0.04     0.03   0.04  -0.05     0.14   0.09  -0.12
    11   1     0.16  -0.04   0.02     0.03   0.05  -0.00     0.09   0.15   0.08
    12   6    -0.04  -0.05   0.08     0.00  -0.01  -0.04    -0.03   0.03   0.05
    13   6    -0.08  -0.03   0.05     0.03  -0.02  -0.03    -0.08   0.03   0.02
    14   6    -0.07   0.02  -0.03     0.04  -0.00   0.00    -0.11  -0.01  -0.01
    15   6    -0.04   0.05  -0.09     0.02   0.01   0.03    -0.09  -0.03  -0.02
    16   6    -0.01   0.01  -0.04    -0.01   0.01   0.01    -0.03   0.00  -0.03
    17   6    -0.02  -0.04   0.04    -0.02  -0.00  -0.02    -0.02   0.04   0.01
    18   1    -0.10  -0.03   0.08     0.05  -0.03  -0.05    -0.11   0.07   0.04
    19   1    -0.10   0.04  -0.06     0.07  -0.01   0.01    -0.14  -0.01  -0.01
    20   1    -0.03   0.10  -0.17     0.03   0.01   0.05    -0.10  -0.06  -0.03
    21   1     0.02   0.02  -0.08    -0.03   0.02   0.03     0.00  -0.01  -0.06
    22   1    -0.01  -0.06   0.07    -0.04   0.00  -0.03    -0.00   0.05   0.01
    23   6    -0.05   0.04   0.00    -0.01  -0.05  -0.02    -0.15  -0.06   0.03
    24   1    -0.04   0.09  -0.07    -0.01  -0.05  -0.02    -0.17  -0.11  -0.06
    25   1    -0.12   0.07   0.04    -0.02  -0.09  -0.04    -0.17  -0.02   0.06
    26   1    -0.01   0.02   0.00    -0.01  -0.05   0.02    -0.19  -0.03   0.04
    27   1    -0.05   0.04  -0.09    -0.03  -0.00  -0.02     0.15  -0.09  -0.19
    28   8     0.03  -0.04   0.04    -0.03   0.03   0.23     0.03  -0.04   0.06
    29   6     0.02  -0.19   0.03    -0.00  -0.02  -0.09     0.05   0.15  -0.01
    30   1     0.12  -0.23   0.10     0.05  -0.09  -0.64    -0.09   0.21  -0.09
    31   1    -0.05  -0.17  -0.02    -0.29  -0.40   0.07     0.10   0.17  -0.01
    32   1    -0.03  -0.30  -0.01     0.24   0.37   0.03     0.18   0.24  -0.00
                     10                     11                     12
                      A                      A                      A
 Frequencies --    236.4074               265.1097               284.3100
 Red. masses --      3.4850                 1.3503                 3.5275
 Frc consts  --      0.1148                 0.0559                 0.1680
 IR Inten    --     36.8651                 1.2487                 1.3535
  Atom  AN      X      Y      Z        X      Y      Z        X      Y      Z
     1   6    -0.00  -0.02   0.11    -0.02  -0.01   0.08    -0.04  -0.02   0.05
     2   6    -0.02  -0.03   0.01    -0.03  -0.02   0.02    -0.08  -0.05   0.01
     3   8     0.01  -0.04  -0.09    -0.02  -0.03  -0.01    -0.10  -0.07  -0.03
     4   6    -0.00  -0.12   0.09    -0.01  -0.01   0.01     0.00  -0.04   0.09
     5   6    -0.12   0.16   0.01     0.02   0.03  -0.00     0.03   0.02  -0.09
     6   1    -0.03   0.21  -0.14    -0.22  -0.14   0.45     0.14   0.16  -0.36
     7   1    -0.39   0.16   0.03     0.54   0.29   0.04    -0.24  -0.16  -0.13
     8   1    -0.02   0.15   0.22    -0.19  -0.01  -0.46     0.14   0.08   0.15
     9   7    -0.07   0.19  -0.10    -0.03   0.00   0.00     0.06   0.05  -0.00
    10   1    -0.08   0.21  -0.10    -0.05   0.03  -0.01     0.12   0.01  -0.01
    11   1    -0.09   0.22  -0.11    -0.03  -0.03   0.01     0.09   0.05   0.06
    12   6    -0.00  -0.11   0.02     0.01   0.01  -0.04     0.07   0.08   0.03
    13   6     0.05  -0.12   0.04     0.04   0.02  -0.04     0.07   0.15  -0.04
    14   6     0.08  -0.03   0.02     0.04   0.00  -0.00     0.03   0.03  -0.02
    15   6     0.08   0.05  -0.02     0.02  -0.02   0.03     0.05  -0.14   0.04
    16   6     0.02  -0.00   0.01     0.01   0.01   0.00     0.12  -0.02  -0.03
    17   6    -0.01  -0.10   0.03     0.01   0.02  -0.04     0.15   0.10  -0.05
    18   1     0.08  -0.15   0.02     0.05   0.01  -0.06     0.06   0.22  -0.07
    19   1     0.12  -0.01   0.01     0.05  -0.00   0.01    -0.03   0.03  -0.04
    20   1     0.11   0.15  -0.06     0.02  -0.05   0.07     0.00  -0.30   0.12
    21   1    -0.00   0.04   0.01    -0.01   0.01   0.02     0.14  -0.06  -0.04
    22   1    -0.03  -0.13   0.05     0.01   0.03  -0.05     0.20   0.16  -0.08
    23   6     0.09   0.06  -0.05     0.05   0.02  -0.01    -0.05  -0.04   0.08
    24   1     0.10   0.09  -0.02     0.07   0.12  -0.04    -0.08  -0.17   0.13
    25   1     0.14   0.22   0.03    -0.03   0.01   0.01     0.09   0.01   0.08
    26   1     0.11   0.04  -0.26     0.13  -0.03   0.01    -0.16   0.04   0.01
    27   1    -0.02  -0.05  -0.26    -0.01  -0.01   0.05    -0.03  -0.02  -0.12
    28   8    -0.03  -0.01   0.00    -0.04  -0.02  -0.02    -0.12  -0.04   0.01
    29   6    -0.03   0.01   0.01    -0.04  -0.00   0.00    -0.13   0.01  -0.00
    30   1    -0.05   0.02   0.03    -0.05   0.01   0.01    -0.16   0.03  -0.01
    31   1    -0.01   0.03   0.01    -0.02   0.01   0.00    -0.11   0.02  -0.01
    32   1    -0.03   0.01   0.01    -0.05  -0.00   0.00    -0.10   0.02  -0.01
                     13                     14                     15
                      A                      A                      A
 Frequencies --    298.1277               320.0611               356.9733
 Red. masses --      3.2209                 3.7071                 3.0822
 Frc consts  --      0.1687                 0.2237                 0.2314
 IR Inten    --     21.7382                12.2099                36.1556
  Atom  AN      X      Y      Z        X      Y      Z        X      Y      Z
     1   6     0.01  -0.02   0.06    -0.01  -0.02   0.15     0.01   0.03  -0.15
     2   6     0.00  -0.11   0.02     0.01   0.06   0.03    -0.01  -0.07  -0.03
     3   8    -0.01  -0.12   0.00     0.09   0.09  -0.04    -0.08  -0.10   0.02
     4   6    -0.00   0.02  -0.05    -0.01  -0.08   0.07     0.00   0.08  -0.03
     5   6     0.09  -0.05   0.17     0.02  -0.01  -0.10     0.01   0.07  -0.15
     6   1     0.16  -0.03   0.06     0.02   0.08  -0.20     0.01   0.16  -0.27
     7   1    -0.15  -0.03   0.20    -0.06  -0.12  -0.13     0.07  -0.15  -0.24
     8   1     0.18  -0.13   0.35     0.05   0.01  -0.03    -0.02   0.19  -0.17
     9   7     0.15  -0.00   0.01     0.07   0.02   0.02    -0.04   0.02   0.09
    10   1     0.26   0.05  -0.16     0.17   0.00  -0.06    -0.06  -0.03   0.17
    11   1     0.21   0.12   0.14     0.12   0.06   0.14    -0.05  -0.06   0.05
    12   6    -0.04  -0.00  -0.04    -0.06  -0.06  -0.09    -0.01   0.02  -0.02
    13   6    -0.03   0.02  -0.06    -0.02  -0.00  -0.13    -0.03  -0.03   0.02
    14   6    -0.03   0.02  -0.01     0.01   0.03  -0.02    -0.02  -0.01   0.03
    15   6    -0.07   0.01   0.04    -0.08   0.00   0.10    -0.01   0.06  -0.01
    16   6    -0.08   0.04   0.01    -0.13   0.07   0.02    -0.03   0.01   0.02
    17   6    -0.08   0.04  -0.04    -0.13   0.05  -0.10    -0.03  -0.03   0.03
    18   1    -0.02   0.02  -0.08     0.03   0.00  -0.20    -0.04  -0.06   0.05
    19   1     0.01   0.02   0.00     0.10   0.04  -0.01    -0.01  -0.03   0.05
    20   1    -0.07  -0.01   0.09    -0.09  -0.04   0.22    -0.00   0.11  -0.05
    21   1    -0.10   0.05   0.02    -0.18   0.11   0.05    -0.04   0.01   0.03
    22   1    -0.10   0.06  -0.07    -0.18   0.08  -0.16    -0.02  -0.06   0.06
    23   6     0.09   0.13  -0.11     0.12  -0.12   0.13     0.21  -0.03   0.12
    24   1     0.10   0.16  -0.05     0.10  -0.22   0.31     0.25   0.10   0.28
    25   1     0.14   0.23  -0.07     0.34  -0.12   0.08     0.26  -0.17   0.02
    26   1     0.10   0.12  -0.25     0.01  -0.05   0.04     0.32  -0.10   0.14
    27   1     0.08   0.00   0.08    -0.04  -0.04  -0.07     0.06   0.06   0.11
    28   8    -0.04  -0.09  -0.00     0.03   0.06  -0.03    -0.01  -0.08   0.03
    29   6    -0.03   0.10  -0.01     0.02  -0.09   0.02     0.01   0.08  -0.01
    30   1    -0.17   0.16  -0.03     0.13  -0.14   0.06    -0.12   0.14  -0.05
    31   1     0.06   0.15  -0.01    -0.03  -0.12   0.02     0.07   0.12  -0.01
    32   1     0.05   0.16  -0.01    -0.07  -0.15   0.01     0.10   0.15  -0.00
                     16                     17                     18
                      A                      A                      A
 Frequencies --    374.6401               392.9587               403.2632
 Red. masses --      3.8726                 2.1337                 1.3057
 Frc consts  --      0.3202                 0.1941                 0.1251
 IR Inten    --     19.2148                10.5316                 6.0082
  Atom  AN      X      Y      Z        X      Y      Z        X      Y      Z
     1   6     0.01  -0.10  -0.15     0.01  -0.03  -0.01     0.00  -0.00  -0.03
     2   6     0.00  -0.04  -0.05     0.01  -0.04   0.01     0.00  -0.02  -0.01
     3   8     0.20   0.06   0.02     0.11   0.02   0.03     0.03   0.00   0.02
     4   6    -0.01  -0.05  -0.02    -0.02   0.06  -0.00    -0.01   0.05  -0.02
     5   6    -0.02  -0.01   0.03    -0.01   0.05  -0.04     0.01   0.02  -0.01
     6   1    -0.05  -0.04   0.09     0.02   0.19  -0.23    -0.05   0.03   0.03
     7   1     0.00   0.06   0.05    -0.05  -0.21  -0.13     0.14  -0.01  -0.04
     8   1    -0.02  -0.06  -0.00     0.01   0.15   0.01    -0.04   0.04  -0.11
     9   7    -0.00  -0.00  -0.04     0.01   0.03   0.16    -0.00   0.00   0.07
    10   1    -0.01   0.00  -0.04     0.09   0.02   0.08     0.02   0.01   0.04
    11   1    -0.01   0.01  -0.04     0.05   0.05   0.24     0.01   0.00   0.09
    12   6     0.01   0.05   0.09    -0.01  -0.02  -0.05    -0.00  -0.00  -0.02
    13   6    -0.05   0.09   0.07     0.04  -0.03  -0.05     0.01  -0.05   0.02
    14   6    -0.09   0.03   0.03     0.05  -0.03  -0.00     0.03   0.01  -0.02
    15   6    -0.06  -0.00  -0.00     0.04  -0.00  -0.00     0.03   0.01  -0.02
    16   6     0.03   0.02   0.01    -0.00  -0.00  -0.02    -0.00  -0.05   0.02
    17   6     0.04   0.05   0.08    -0.02  -0.04  -0.04     0.00  -0.01  -0.02
    18   1    -0.10   0.15   0.10     0.06  -0.06  -0.06     0.01  -0.10   0.05
    19   1    -0.14   0.03   0.02     0.07  -0.05   0.02     0.04   0.03  -0.04
    20   1    -0.07  -0.05  -0.04     0.05   0.01   0.03     0.04   0.05  -0.03
    21   1     0.08  -0.00  -0.04    -0.03   0.02  -0.00    -0.02  -0.08   0.06
    22   1     0.11   0.04   0.10    -0.05  -0.06  -0.04     0.00   0.03  -0.05
    23   6     0.18   0.02  -0.06    -0.08   0.08  -0.01    -0.04   0.05  -0.01
    24   1     0.23   0.18   0.09    -0.02   0.33  -0.32    -0.15  -0.39   0.25
    25   1     0.26   0.06  -0.05    -0.50   0.02   0.06     0.48   0.25  -0.02
    26   1     0.31  -0.08  -0.23     0.15  -0.06   0.15    -0.42   0.30  -0.28
    27   1     0.03  -0.09  -0.14     0.07   0.01   0.24     0.03   0.02   0.13
    28   8    -0.13   0.03   0.01    -0.06  -0.01  -0.01    -0.02  -0.00   0.00
    29   6    -0.16  -0.15   0.00    -0.07  -0.06  -0.00    -0.03  -0.02  -0.00
    30   1    -0.00  -0.22   0.01    -0.03  -0.08   0.00    -0.02  -0.03  -0.00
    31   1    -0.28  -0.22   0.00    -0.10  -0.08   0.00    -0.04  -0.03  -0.00
    32   1    -0.23  -0.22  -0.01    -0.10  -0.08  -0.00    -0.04  -0.03  -0.00
                     19                     20                     21
                      A                      A                      A
 Frequencies --    426.0649               460.8055               545.3118
 Red. masses --      2.6187                 2.9894                 2.8969
 Frc consts  --      0.2801                 0.3740                 0.5075
 IR Inten    --      0.1278                 8.5364                20.9585
  Atom  AN      X      Y      Z        X      Y      Z        X      Y      Z
     1   6    -0.00  -0.01  -0.01     0.02   0.04   0.16     0.04   0.08  -0.08
     2   6     0.00   0.00  -0.00     0.01  -0.03   0.07     0.01  -0.04  -0.05
     3   8    -0.00  -0.00   0.00     0.05  -0.02   0.00     0.06  -0.02  -0.00
     4   6     0.00  -0.02   0.01     0.02   0.13  -0.13    -0.03   0.11   0.10
     5   6    -0.01   0.00   0.00     0.01   0.01  -0.01     0.02  -0.08   0.02
     6   1     0.01   0.01  -0.02     0.04  -0.03   0.01     0.02  -0.17   0.12
     7   1    -0.05   0.00   0.00    -0.10   0.09   0.03    -0.06   0.11   0.10
     8   1     0.01   0.00   0.03     0.06  -0.08   0.07     0.05  -0.19   0.06
     9   7    -0.00   0.01  -0.02     0.05   0.03  -0.14     0.01  -0.02  -0.12
    10   1    -0.00   0.00  -0.01     0.09   0.06  -0.21    -0.09  -0.11   0.08
    11   1    -0.00   0.00  -0.02     0.07   0.10  -0.09    -0.04  -0.11  -0.24
    12   6     0.00  -0.01   0.01     0.03   0.13  -0.09    -0.06  -0.02  -0.01
    13   6    -0.04  -0.14   0.12    -0.01  -0.02   0.04     0.01  -0.03  -0.01
    14   6     0.03   0.15  -0.12    -0.02  -0.05   0.04     0.04   0.00   0.01
    15   6    -0.01  -0.01   0.01     0.02   0.09  -0.08     0.06  -0.02   0.01
    16   6    -0.03  -0.13   0.11    -0.01  -0.06   0.05    -0.02  -0.02  -0.03
    17   6     0.04   0.16  -0.12     0.00  -0.02   0.03    -0.04  -0.04  -0.07
    18   1    -0.09  -0.29   0.26    -0.05  -0.12   0.14     0.09  -0.05  -0.09
    19   1     0.07   0.33  -0.26    -0.05  -0.15   0.12     0.05   0.03  -0.02
    20   1    -0.02  -0.02   0.02     0.04   0.17  -0.15     0.07   0.01   0.02
    21   1    -0.07  -0.30   0.24    -0.03  -0.17   0.13    -0.07   0.04  -0.01
    22   1     0.09   0.35  -0.27    -0.01  -0.11   0.10    -0.03  -0.01  -0.09
    23   6     0.02  -0.01  -0.00    -0.01  -0.09   0.04    -0.04   0.16   0.22
    24   1     0.06   0.17  -0.12    -0.03  -0.16   0.11    -0.03   0.18   0.25
    25   1    -0.19  -0.09   0.01    -0.02  -0.40  -0.14    -0.05   0.08   0.18
    26   1     0.17  -0.12   0.10    -0.04  -0.06   0.36    -0.02   0.14   0.29
    27   1    -0.02  -0.01   0.02     0.12   0.08   0.33     0.15   0.10  -0.54
    28   8     0.00  -0.00  -0.00    -0.07  -0.02  -0.03    -0.03  -0.02   0.03
    29   6     0.01   0.00  -0.00    -0.09  -0.03  -0.01    -0.05  -0.01   0.00
    30   1     0.00   0.00  -0.00    -0.07  -0.04   0.01    -0.05  -0.01  -0.01
    31   1     0.01   0.00  -0.00    -0.09  -0.04   0.00    -0.06  -0.01  -0.00
    32   1     0.01   0.00   0.00    -0.13  -0.05  -0.01    -0.03  -0.01  -0.00
                     22                     23                     24
                      A                      A                      A
 Frequencies --    567.6039               604.1793               623.3037
 Red. masses --      1.8443                 3.1800                 2.0198
 Frc consts  --      0.3501                 0.6839                 0.4623
 IR Inten    --     13.4208                29.3926               126.3559
  Atom  AN      X      Y      Z        X      Y      Z        X      Y      Z
     1   6    -0.01   0.02  -0.03     0.11   0.04  -0.07    -0.04  -0.08  -0.10
     2   6    -0.00  -0.01   0.02     0.04   0.00  -0.00    -0.02   0.01  -0.02
     3   8     0.03   0.00   0.02    -0.05  -0.05   0.01    -0.01   0.02   0.02
     4   6    -0.02   0.05  -0.05     0.21  -0.03   0.10    -0.06  -0.10   0.12
     5   6    -0.02   0.03  -0.01    -0.02   0.00  -0.00     0.01  -0.01   0.00
     6   1     0.00  -0.01   0.02    -0.08   0.03   0.04     0.05  -0.07   0.03
     7   1    -0.05   0.10   0.02    -0.04   0.04   0.01    -0.05   0.10   0.05
     8   1     0.01  -0.01   0.03    -0.02  -0.07  -0.03     0.04  -0.02   0.05
     9   7    -0.00   0.02  -0.08     0.03   0.03  -0.03    -0.00   0.01  -0.07
    10   1    -0.00   0.03  -0.09    -0.18  -0.07   0.29     0.10  -0.02  -0.13
    11   1     0.00   0.03  -0.07    -0.12  -0.09  -0.33     0.06   0.04   0.07
    12   6    -0.05  -0.12   0.10     0.14  -0.07  -0.04    -0.02   0.07  -0.06
    13   6    -0.00  -0.01   0.02    -0.04  -0.08  -0.11    -0.00   0.04  -0.04
    14   6     0.02   0.07  -0.03    -0.04  -0.04  -0.07    -0.01  -0.02   0.06
    15   6     0.01  -0.09   0.07    -0.15   0.06   0.03     0.05   0.05  -0.04
    16   6     0.03   0.06  -0.06     0.01   0.07   0.08     0.01  -0.05   0.03
    17   6    -0.01  -0.05   0.01     0.02   0.03   0.05     0.01   0.01  -0.06
    18   1     0.03   0.10  -0.08    -0.13  -0.01  -0.04    -0.02  -0.08   0.05
    19   1     0.05   0.23  -0.17     0.12  -0.05  -0.01    -0.05  -0.18   0.19
    20   1     0.00  -0.12   0.09    -0.15   0.06   0.03     0.04   0.01  -0.03
    21   1     0.05   0.25  -0.19     0.08   0.01   0.03    -0.07  -0.18   0.18
    22   1     0.04   0.07  -0.08    -0.14   0.03   0.00    -0.01  -0.11   0.03
    23   6    -0.00  -0.01   0.01    -0.00   0.02   0.03    -0.01   0.04   0.06
    24   1    -0.01  -0.03   0.10    -0.07  -0.17  -0.26     0.02   0.13   0.08
    25   1     0.05  -0.13  -0.07    -0.16   0.16   0.15     0.01   0.18   0.14
    26   1    -0.01   0.01   0.12    -0.17   0.14   0.08     0.06  -0.01  -0.10
    27   1     0.03   0.07   0.78     0.07   0.04   0.41    -0.11  -0.07   0.75
    28   8    -0.00  -0.02  -0.02    -0.04   0.05  -0.01     0.03   0.01  -0.01
    29   6    -0.00  -0.00  -0.00    -0.09  -0.01  -0.01     0.04   0.01   0.00
    30   1    -0.02   0.01  -0.01    -0.00  -0.05   0.00     0.04   0.01  -0.00
    31   1     0.01   0.01  -0.00    -0.14  -0.04  -0.00     0.05   0.01  -0.00
    32   1     0.01   0.01  -0.00    -0.13  -0.05  -0.01     0.05   0.01   0.00
                     25                     26                     27
                      A                      A                      A
 Frequencies --    636.1854               726.7412               730.7507
 Red. masses --      6.0248                 4.7080                 1.6555
 Frc consts  --      1.4367                 1.4650                 0.5208
 IR Inten    --      3.1850                 7.9482                39.6984
  Atom  AN      X      Y      Z        X      Y      Z        X      Y      Z
     1   6    -0.01   0.01   0.02     0.19  -0.09   0.00    -0.03   0.02  -0.01
     2   6    -0.00  -0.01   0.00     0.14  -0.01   0.03    -0.02   0.00   0.01
     3   8     0.02   0.01  -0.00    -0.13  -0.18   0.01     0.02   0.03  -0.01
     4   6    -0.01   0.03  -0.03     0.03  -0.00   0.00     0.00  -0.00  -0.00
     5   6     0.00  -0.00   0.00     0.01   0.00  -0.00    -0.00   0.00   0.00
     6   1     0.00   0.00  -0.01    -0.02   0.03  -0.01    -0.02   0.01   0.00
     7   1     0.02  -0.03  -0.01     0.01  -0.03  -0.01    -0.01  -0.00  -0.00
     8   1    -0.00   0.01  -0.01     0.00  -0.02  -0.01    -0.00  -0.01  -0.00
     9   7    -0.00  -0.01   0.02     0.01   0.01   0.02     0.00   0.00   0.00
    10   1     0.00   0.01  -0.00    -0.03  -0.00   0.07    -0.03   0.01   0.03
    11   1     0.00   0.01   0.03    -0.01  -0.03  -0.03    -0.01  -0.01  -0.03
    12   6    -0.04  -0.08  -0.09    -0.11   0.01   0.02    -0.01  -0.07   0.05
    13   6    -0.27  -0.04  -0.12    -0.01   0.07   0.08     0.02   0.05  -0.05
    14   6    -0.17   0.21   0.21    -0.02   0.05   0.12    -0.02  -0.11   0.07
    15   6     0.04   0.07   0.10     0.12  -0.04  -0.01    -0.00   0.04  -0.03
    16   6     0.30   0.05   0.15    -0.08  -0.08  -0.06    -0.02  -0.10   0.09
    17   6     0.16  -0.19  -0.18    -0.07  -0.05  -0.09     0.02   0.05  -0.03
    18   1    -0.15  -0.11  -0.23     0.10   0.15  -0.10     0.09   0.36  -0.31
    19   1    -0.02   0.23   0.24    -0.14   0.19  -0.04     0.05   0.13  -0.12
    20   1    -0.07  -0.15  -0.23     0.16   0.15  -0.16     0.10   0.46  -0.37
    21   1     0.20   0.16   0.21    -0.17   0.15  -0.09     0.05   0.15  -0.12
    22   1    -0.00  -0.17  -0.24     0.05   0.09  -0.18     0.10   0.40  -0.31
    23   6    -0.01  -0.02  -0.04     0.02  -0.03  -0.03     0.00  -0.00  -0.00
    24   1    -0.02  -0.04  -0.03     0.02  -0.03  -0.05     0.00   0.00  -0.02
    25   1    -0.01  -0.05  -0.06     0.00  -0.03  -0.03    -0.01  -0.01  -0.00
    26   1    -0.02  -0.01  -0.01     0.02  -0.04  -0.04    -0.00  -0.00   0.01
    27   1    -0.00   0.01  -0.24     0.26  -0.06   0.09    -0.03   0.02   0.04
    28   8    -0.00  -0.02   0.00    -0.01   0.28  -0.03     0.00  -0.04  -0.00
    29   6     0.00  -0.00   0.00    -0.05   0.02  -0.01     0.01  -0.00   0.00
    30   1    -0.02   0.01  -0.00     0.35  -0.16   0.04    -0.05   0.02  -0.01
    31   1     0.01   0.01   0.00    -0.27  -0.14   0.01     0.04   0.02  -0.00
    32   1     0.01   0.01   0.00    -0.26  -0.15  -0.02     0.03   0.02   0.00
                     28                     29                     30
                      A                      A                      A
 Frequencies --    755.3942               789.6558               808.3557
 Red. masses --      2.0595                 7.1951                 2.1995
 Frc consts  --      0.6924                 2.6434                 0.8468
 IR Inten    --     61.0870                25.2522                 7.7242
  Atom  AN      X      Y      Z        X      Y      Z        X      Y      Z
[...]
 2,0.00003703,0.00032314,-0.00025606,0.00035163,-0.00012836,-0.00181016
 ,0.00023096,-0.00146814,-0.00059042,0.00090595,0.00006343,0.00001102,0
 .00003027,-0.00001985,0.00000235,-0.00013567,-0.00011795,0.00008139,0.
 00010130,0.00037753,0.00003383,0.00011188,-0.00072392,-0.00017368,0.00
 051554,-0.00000514,-0.00006684,0.00005436,0.00001289,0.00000967,-0.000
 00663,0.00000998,0.00001096,-0.00000172,0.00003498,-0.00001979,0.00005
 107,-0.00143586,-0.00094929,0.00011169,-0.00012184,-0.00015476,-0.0001
 1666,0.00002731,0.00000295,-0.00011903,0.00007891,-0.00027856,-0.00055
 602,0.09231158,0.09807928,-0.31893010,0.01466056,-0.00298426,-0.003391
 93,0.00024936,0.00063064,0.00161646,0.00007403,0.00738344,-0.01273601,
 0.00057990,-0.00010937,0.00017680,0.00033772,0.00000300,-0.00000074,-0
 .00004455,0.00004316,-0.00013344,-0.00000034,-0.00004300,0.00002387,-0
 .00001705,-0.00075101,-0.00092415,-0.00066800,-0.00007644,-0.00011928,
 -0.00031564,0.00020460,-0.00022540,0.00016426,0.00190637,0.00011558,-0
 .00001108,0.00060522,0.00038283,-0.00084332,-0.00049648,0.00035891,-0.
 00000397,0.00021213,0.00019982,0.00047073,0.00041023,-0.00031623,-0.00
 022453,-0.00081084,0.00018088,-0.00028180,0.00017972,0.00007737,0.0005
 6296,-0.00001829,0.00002658,-0.00004000,0.00001978,-0.00001641,0.00004
 656,-0.00001808,-0.00000813,0.00002030,0.00006860,0.00001146,0.0000434
 0,-0.00142653,-0.00088682,0.00085150,0.00001901,0.00014286,0.00015131,
 -0.00000443,-0.00002602,-0.00018781,0.00000834,-0.00039088,-0.00061835
 ,-0.10211317,0.33461959,-0.00115252,0.01970276,-0.00439468,-0.00131162
 ,0.00022779,-0.00416945,-0.00044760,-0.00067338,0.00709251,-0.00404258
 ,-0.01157099,0.00135815,0.00013323,-0.00020994,-0.00105698,0.00001861,
 -0.00001940,-0.00003127,-0.00024692,0.00044579,-0.00001143,0.00007041,
 0.00010342,0.00002284,0.00220362,0.00666332,-0.00618373,0.00024440,0.0
 0146336,0.00080818,-0.00014157,0.00070369,-0.00068608,-0.00073129,0.00
 031009,-0.00049335,0.00105647,0.00059108,0.00033481,-0.00041399,-0.000
 25223,-0.00029323,0.00012897,0.00013211,0.00013040,-0.00006281,-0.0002
 1578,-0.00021798,-0.00012710,0.00001467,-0.00012768,0.00101998,-0.0000
 8946,-0.00114456,0.00000598,-0.00001585,0.00002013,-0.00004638,-0.0000
 0008,-0.00004059,-0.00000719,-0.00000173,-0.00000810,-0.00001665,-0.00
 002170,-0.00006783,-0.00136587,-0.00251960,0.00030967,0.00013733,0.000
 14738,0.00026405,-0.00007924,0.00028461,-0.00012447,-0.00013782,-0.000
 63561,-0.00094595,0.00513933,-0.01486637,0.01257884,-0.05544453,-0.048
 76179,0.00310191,-0.15835427,-0.06311972,0.00110220,0.02701707,-0.0068
 0389,0.00059293,-0.00013748,0.01405643,-0.00408677,-0.00098241,0.00075
 603,0.00121203,0.00000095,-0.00021563,-0.00010942,0.00023488,-0.000689
 01,0.00011776,-0.00003842,0.00052467,-0.00025449,-0.00105199,-0.006887
 45,0.00411963,0.00010901,0.00147911,-0.00198366,0.00033858,-0.00048402
 ,0.00034472,0.00120909,-0.00211559,-0.00079861,-0.00078480,0.00023452,
 0.00051354,-0.00000385,-0.00010242,-0.00045815,-0.00048920,0.00018037,
 0.00004285,-0.00006177,0.00006839,-0.00020675,-0.00099821,0.00060974,0
 .00044752,0.00036797,-0.00055485,-0.00047111,-0.00012805,0.00010980,0.
 00011440,-0.00016325,-0.00001681,0.00002642,-0.00022700,-0.00000221,-0
 .00005547,0.00018989,-0.00010408,0.00004564,-0.00096383,-0.00165487,0.
 00120466,0.00015651,0.00023621,0.00031357,-0.00017971,0.00003070,0.000
 16170,-0.00031851,-0.00150415,-0.00075798,-0.00030564,-0.00114614,0.00
 040754,0.52480347,-0.02938229,-0.00172717,0.00251699,-0.02592362,-0.18
 001649,0.00916745,-0.01755014,-0.09640407,0.01093095,0.00695673,0.0090
 7547,-0.00325065,-0.00093718,-0.00077377,0.00076213,-0.00041669,-0.000
 16079,0.00008964,-0.00012144,-0.00037998,0.00025404,0.00069860,0.00248
 691,-0.00057415,-0.00091100,-0.00491059,0.00292390,0.00049940,0.000651
 29,-0.00175248,0.00022373,-0.00043973,0.00019696,0.00129792,0.00004157
 ,-0.00040649,-0.00066058,0.00019929,0.00038601,-0.00002349,-0.00005533
 ,-0.00033351,-0.00032606,0.00014583,0.00001840,-0.00001017,0.00003226,
 0.00001120,-0.00037742,0.00020395,0.00017942,0.00023830,-0.00048375,-0
 .00034047,-0.00010338,0.00005981,0.00009187,-0.00011114,-0.00002048,0.
 00002226,-0.00011604,-0.00001342,-0.00003093,0.00016183,-0.00002134,0.
 00006857,-0.00100207,-0.00189313,0.00009257,0.00041399,0.00063364,0.00
 111625,-0.00037847,0.00009423,0.00006358,-0.00034613,-0.00091147,-0.00
 041832,-0.00050698,-0.00011967,0.00051298,0.05551744,0.36338639,0.0027
 7934,0.00017702,0.01385076,-0.00258374,0.00921440,-0.06318182,0.000699
 83,0.00995649,0.02176106,-0.00107670,-0.00137085,0.00425451,-0.0003971
 6,0.00014367,-0.00016871,-0.00003228,0.00001639,0.00005244,0.00008237,
 0.00009700,-0.00006612,0.00017023,0.00012405,0.00014939,-0.00063315,-0
 .00032035,-0.00007845,0.00011717,0.00003623,-0.00010122,-0.00008323,-0
 .00011879,-0.00000328,-0.00033295,0.00007024,-0.00022531,-0.00004727,-
 0.00006894,-0.00007810,0.00000698,-0.00004806,0.00005547,0.00002792,-0
 .00001791,-0.00001361,-0.00003664,-0.00002751,-0.00001339,-0.00000725,
 0.00004561,0.00004012,0.00005447,0.00001997,-0.00007366,-0.00000616,-0
 .00000078,-0.00000346,0.00000671,0.00001080,-0.00001107,0.00000542,0.0
 0000995,0.00000134,-0.00000956,0.00001840,-0.00001378,0.00050651,0.000
 69382,0.00004221,0.00001071,-0.00013766,-0.00022997,-0.00000021,-0.000
 02174,-0.00000123,0.00027885,0.00015995,0.00009839,-0.00000327,-0.0000
 7435,-0.00180887,0.02281059,-0.02765702,0.07685337,0.01068832,0.001102
 90,-0.00086142,-0.05566996,-0.03504607,0.00032564,-0.00275064,0.017019
 06,-0.00147711,-0.00260684,-0.00490404,0.00236715,0.00053809,-0.000049
 60,-0.00051678,0.00008764,0.00010309,0.00001283,-0.00003504,0.00028142
 ,-0.00010775,-0.00015338,-0.00077163,0.00021318,0.00048244,0.00311003,
 -0.00195002,-0.00023250,-0.00060345,0.00096987,-0.00014383,0.00021166,
 -0.00012807,-0.00070523,0.00026594,0.00020152,0.00030448,-0.00009999,-
 0.00029079,-0.00000749,0.00008182,0.00020285,0.00018904,-0.00006552,-0
 .00000545,0.00002147,-0.00001856,0.00001982,0.00026362,-0.00015405,-0.
 00012114,-0.00016900,0.00021779,0.00025713,0.00003859,-0.00004656,-0.0
 0004209,0.00007187,0.00000274,-0.00000503,0.00008007,0.00000419,0.0000
 2922,-0.00008295,0.00001912,-0.00001550,0.00050518,0.00093895,-0.00033
 087,-0.00016001,-0.00033667,-0.00037698,0.00009529,-0.00004267,-0.0000
 8458,0.00018362,0.00061148,0.00026953,0.00019074,0.00027715,-0.0003596
 8,-0.24117208,0.01873205,-0.01466452,0.50561380,-0.00043919,-0.0047958
 8,0.00041433,-0.04162815,0.00866324,-0.00402721,-0.00176500,-0.0021155
 9,-0.00050087,-0.00131155,0.00052105,0.00045760,-0.00002746,0.00008651
 ,0.00000871,0.00000951,-0.00000734,0.00000099,-0.00000409,-0.00002225,
 0.00000273,-0.00001568,-0.00001671,-0.00000517,-0.00001971,0.00002301,
 -0.00007228,-0.00001448,0.00003193,-0.00009938,-0.00000443,-0.00001728
 ,0.00000083,-0.00017081,-0.00036219,-0.00006286,-0.00002430,-0.0000228
 5,-0.00001258,0.00000219,-0.00000190,0.00000617,-0.00001188,-0.0000055
 7,0.00000003,-0.00001410,0.00000892,-0.00003311,-0.00008649,0.00006469
 ,0.00005311,0.00000805,0.00000660,-0.00000794,-0.00000196,0.00000541,-
 0.00000147,-0.00000119,0.00000300,-0.00000080,-0.00001350,0.00000374,-
 0.00000129,0.00000103,-0.00000890,-0.00000064,0.00005035,0.00009178,0.
 00008486,-0.00001363,-0.00000860,0.00000080,-0.00000507,0.00000764,-0.
 00000062,-0.00002183,-0.00001951,-0.00002027,-0.00022686,0.00025157,-0
 .00020917,0.04243328,-0.09968453,0.00705762,0.02444030,0.62067179,0.00
 065546,0.00077512,0.00228709,0.00045647,-0.00355356,-0.00165680,0.0003
 5391,0.00135325,-0.00476233,0.00046241,0.00006546,0.00215357,0.0000251
 8,0.00000659,0.00001437,-0.00001425,0.00000743,-0.00000043,0.00004606,
 0.00003435,-0.00003474,-0.00001588,-0.00006184,0.00005885,-0.00029516,
 -0.00021207,0.00017069,-0.00001934,-0.00017615,0.00010028,0.00001566,-
 0.00003353,0.00008617,-0.00018169,0.00016576,-0.00011611,0.00002048,-0
 .00001305,-0.00007664,0.00000752,-0.00001737,0.00003527,0.00002540,-0.
 00002008,-0.00001999,-0.00003236,-0.00001589,0.00000518,0.00004715,0.0
 0000445,0.00001386,0.00001404,0.00002129,0.00001380,0.00000982,-0.0000
 0836,-0.00000328,0.00000472,0.00000344,-0.00000399,0.00000223,0.000001
 74,0.00000181,-0.00001039,0.00000049,-0.00000728,0.00017704,0.00015086
 ,-0.00010103,-0.00001353,-0.00008262,0.00000286,-0.00004719,-0.0000024
 6,0.00000649,0.00004420,0.00006021,0.00005682,0.00001394,-0.00000274,-
 0.00098972,-0.01696809,0.00511350,-0.06703902,-0.00990883,-0.00140545,
 0.58202560,-0.00128942,-0.00187354,0.00006456,-0.00320969,0.00698253,-
 0.00106052,0.00259174,-0.00080226,0.00022211,-0.00020822,0.00081077,-0
 .00016766,-0.00006203,0.00003612,0.00006390,-0.00000204,-0.00001221,-0
 .00000565,0.00001256,-0.00003580,0.00000725,0.00001298,0.00004881,-0.0
 0001999,-0.00004072,-0.00034024,0.00020484,0.00002766,0.00008730,-0.00
 011552,0.00002078,-0.00002457,0.00001227,0.00004766,-0.00016111,-0.000
 05176,-0.00005147,0.00001230,0.00002766,0.00000459,-0.00000449,-0.0000
 2642,-0.00003222,0.00001006,0.00000074,-0.00000606,0.00000792,-0.00001
 527,-0.00006645,0.00004174,0.00003219,0.00002581,-0.00003299,-0.000027
 62,-0.00000942,0.00000618,0.00000836,-0.00000991,-0.00000136,0.0000019
 7,-0.00001455,0.,-0.00000291,0.00001144,-0.00000769,0.00000403,-0.0000
 2883,-0.00006138,0.00007310,0.00001914,0.00002587,0.00002106,-0.000006
 01,0.00000047,0.00000766,-0.00002007,-0.00007965,-0.00003649,0.0000209
 0,0.00002467,-0.00000467,-0.03246637,-0.03689974,0.00162804,-0.0818972
 7,-0.08916742,0.00726039,0.10722605,-0.00082617,0.00020116,0.00000813,
 0.00388149,-0.00040376,0.00017129,-0.00276720,0.00022781,-0.00011700,0
 .00028757,0.00042086,-0.00014841,-0.00002945,-0.00000655,0.00003056,-0
 .00001654,-0.00000795,-0.00000159,0.00000415,-0.00001650,0.00001107,0.
 00002852,0.00008851,-0.00001637,-0.00002494,-0.00022773,0.00015022,0.0
 0004949,0.00003428,-0.00008323,0.00001945,-0.00001420,0.00000214,0.000
 07581,-0.00001765,-0.00002874,-0.00003816,0.00000833,0.00002274,0.0000
 0052,-0.00000570,-0.00001811,-0.00001963,0.00000784,0.00000014,-0.0000
 0159,0.00000307,-0.00000052,-0.00002939,0.00001611,0.00001455,0.000018
 70,-0.00002423,-0.00002222,-0.00000542,0.00000420,0.00000580,-0.000007
 86,-0.00000056,0.00000129,-0.00000832,-0.00000107,-0.00000259,0.000011
 13,-0.00000111,0.00000476,-0.00003810,-0.00007575,0.00000861,0.0000230
 0,0.00004682,0.00005130,-0.00001502,0.00000296,0.00000270,-0.00002003,
 -0.00004773,-0.00001631,-0.00005440,0.00001362,0.00001511,0.00302130,0
 .00852126,-0.00056574,-0.09993410,-0.28855304,0.01788475,0.10623271,0.
 30047674,-0.00004428,-0.00013690,0.00012859,-0.00059394,0.00051498,0.0
 0023823,0.00032237,-0.00005271,0.00078038,-0.00004199,0.00002558,0.000
 06328,-0.00000448,0.00000299,0.00000375,0.00000413,-0.00000161,0.00000
 052,-0.00000449,-0.00000479,0.00000308,-0.00000405,-0.00000369,-0.0000
 0881,0.00001048,-0.00000833,-0.00000451,-0.00001551,0.00000734,-0.0000
 0887,-0.00000033,0.00000229,-0.00000092,-0.00001904,-0.00000448,-0.000
 00962,0.00000302,-0.00000032,-0.00000078,-0.00000016,-0.00000055,0.000
 00110,0.00000026,-0.00000117,-0.00000145,-0.00000289,-0.00000006,-0.00
 000175,-0.00000196,0.00000071,0.00000283,0.00000285,0.00000343,-0.0000
 0235,0.00000128,-0.00000031,-0.00000008,-0.00000019,0.00000014,0.,-0.0
 0000099,-0.00000027,-0.00000006,0.00000006,-0.00000105,-0.00000094,0.0
 0001037,-0.00000183,0.00001283,0.00000705,-0.00000342,-0.00000973,0.00
 000420,-0.00000009,0.00000044,-0.00000270,-0.00000006,-0.00000156,0.00
 000934,-0.00000059,-0.00001957,-0.00279091,-0.00354765,0.00097735,0.00
 854678,0.01873036,-0.05352690,-0.00679868,-0.01945620,0.04697868,-0.00
 195690,-0.00104499,-0.00031936,0.00415659,0.00971735,0.00040731,0.0017
 6521,-0.00325000,-0.00052564,0.00028191,0.00084262,-0.00070477,-0.0000
 7388,0.00004022,0.00008514,0.00000038,-0.00001650,-0.00000728,0.000017
 34,-0.00004780,0.00000489,0.00001228,0.00003212,-0.00001657,-0.0000237
 5,-0.00047686,0.00027528,0.00001300,0.00015032,-0.00011127,0.00002001,
 -0.00002297,0.00001805,0.00014819,-0.00007378,-0.00003700,-0.00003550,
 0.00002197,0.00006380,-0.00000018,-0.00000919,-0.00004271,-0.00003266,
 0.00001428,0.00000451,0.00000078,0.00000390,-0.00001084,-0.00005030,0.
 00002147,0.00001931,0.00002277,-0.00003724,-0.00004082,-0.00000566,0.0
 0000639,0.00000669,-0.00001106,-0.00000259,0.00000179,-0.00001311,-0.0
 0000135,-0.00000383,0.00000849,-0.00000800,0.00000051,-0.00011835,-0.0
 0018649,0.00008031,-0.00000096,0.00002524,0.00004047,-0.00002069,0.000
 00480,0.00000949,-0.00001759,-0.00011473,-0.00007301,0.00018534,-0.000
 04183,0.00032863,-0.03288777,0.01865912,0.02490407,-0.07493953,0.04778
 426,0.05987211,0.00556582,-0.00623883,-0.00958441,0.09388288,0.0004895
 4,0.00008514,-0.00024064,-0.00247924,-0.00147837,0.00096398,-0.0007729
 0,0.00036697,0.00005974,-0.00019760,-0.00025916,0.00008730,0.00004774,
 -0.00000257,-0.00001504,0.00001959,0.00000615,-0.00000480,-0.00000296,
 0.00000842,-0.00000680,-0.00003500,-0.00010727,0.00001426,0.00010677,0
 .00016501,-0.00009999,-0.00005352,-0.00002314,0.00008947,-0.00000830,0
 .00002558,-0.00001183,-0.00003763,0.00003840,0.00002526,0.00001951,-0.
 00000372,-0.00002181,0.00000157,0.00000683,0.00001278,0.00001261,-0.00
 000433,0.00000072,0.00000481,-0.00000316,0.00000542,0.00002256,-0.0000
 1957,-0.00001333,-0.00001006,0.00001364,0.00002097,0.00000191,-0.00000
 285,-0.00000321,0.00000581,-0.00000009,-0.00000041,0.00000781,0.000000
 81,0.00000200,-0.00000643,0.00000446,-0.00000277,0.00002455,0.00005116
 ,-0.00000936,-0.00002247,-0.00001256,-0.00004397,0.00002959,-0.0000028
 9,-0.00000269,0.00000071,0.00003900,0.00002081,0.00004395,0.00001974,-
 0.00011257,0.00815059,0.00159653,0.00052345,0.05203703,-0.14122256,-0.
 11740254,0.00915760,-0.01255475,-0.02086409,-0.06182495,0.14553253,-0.
 00007162,0.00049539,-0.00036021,-0.00026131,-0.00386118,0.00112320,-0.
 00265450,0.00099489,0.00057058,0.00000526,-0.00007054,-0.00005527,0.00
 002904,-0.00003080,-0.00001048,-0.00000354,0.00000186,0.00000270,-0.00
 001289,-0.00000177,0.00000800,0.00000734,0.00001771,-0.00001588,0.0000
 6869,0.00006659,-0.00002603,-0.00002818,-0.00004137,-0.00000724,-0.000
 00164,0.00001178,-0.00001478,0.00001043,0.00000817,0.00000964,-0.00001
 347,-0.00000383,-0.00000740,0.00000417,0.00000456,0.00000432,-0.000001
 42,0.00000054,-0.00000022,0.00000242,0.00000227,0.00000421,0.00000143,
 -0.00000275,-0.00000351,-0.00000207,-0.00000022,0.00000324,-0.00000297
 ,0.00000047,0.00000029,0.00000112,-0.00000031,0.00000058,0.00000171,-0
 .00000011,0.00000102,0.00000213,0.00000163,0.00000285,0.00000407,-0.00
 000508,-0.00001985,0.00000398,0.00001621,0.00001661,-0.00000212,0.0000
 0206,-0.00000252,-0.00000977,0.00000974,0.00000696,-0.00005298,0.00004
 254,-0.00003919,0.00264559,0.00575884,0.00992086,0.06463634,-0.1160903
 4,-0.19846724,-0.00198782,0.00374753,0.00360405,-0.07068679,0.12605662
 ,0.20261456,-0.00212319,-0.00090369,0.00075556,0.00447143,0.00892275,-
 0.00211109,0.00043651,-0.00297552,0.00073445,0.00047214,0.00107800,-0.
 00008558,-0.00008513,0.00003899,0.00010651,0.00000265,-0.00001447,-0.0
 0000304,0.00001735,-0.00005968,0.00000825,0.00000546,0.00006185,-0.000
 03420,-0.00016069,-0.00069588,0.00045446,-0.00003887,0.00008122,-0.000
 18225,0.00001573,-0.00004878,0.00004750,0.00010324,-0.00003832,-0.0000
 6367,-0.00006609,0.00000449,0.00003564,0.00000520,-0.00001236,-0.00002
 774,-0.00003006,0.00000939,-0.00000084,-0.00000684,0.00000125,-0.00000
 481,-0.00004412,0.00002706,0.00003008,0.00003159,-0.00003480,-0.000045
 46,-0.00000802,0.00000778,0.00000621,-0.00001019,-0.00000056,0.0000007
 0,-0.00001256,0.00000060,-0.00000391,0.00001220,-0.00000253,0.00000082
 ,-0.00002100,-0.00010985,0.00007101,0.00000909,-0.00000449,0.00000396,
 -0.00001098,0.00000053,0.00002464,-0.00000952,-0.00010212,-0.00004110,
 0.00015798,-0.00003547,-0.00019900,-0.02726829,0.01270491,-0.03417514,
 -0.05862849,0.02025981,-0.04200750,0.00383361,-0.00357872,0.01098880,0
 .00410689,-0.00473318,0.00836937,0.07484297,0.00049518,0.00005532,0.00
 010892,-0.00224930,-0.00057058,-0.00095864,0.00016726,-0.00022248,0.00
 010089,-0.00011725,-0.00023528,0.00005478,0.00001384,0.00002102,-0.000
 02206,0.00001299,0.00000693,0.00000037,0.00000731,0.00001957,-0.000013
 37,-0.00002410,-0.00007078,0.00001792,-0.00000942,0.00014372,-0.000077
 04,-0.00001732,-0.00002235,0.00008797,-0.00001067,0.00000675,0.0000057
 9,-0.00004640,0.00003460,0.00000918,0.00003865,0.00000164,-0.00001120,
 -0.00000702,0.00000507,0.00000828,0.00001567,-0.00000247,0.00000191,0.
 00000289,-0.00000459,-0.00000153,0.00002071,-0.00001608,-0.00001571,-0
 .00001158,0.00001412,0.00001842,0.00000589,-0.00000458,-0.00000299,0.0
 0000433,-0.00000049,-0.00000022,0.00000558,-0.00000014,0.00000148,-0.0
 0000840,-0.00000076,-0.00000309,0.00004579,0.00006771,-0.00000770,-0.0
 0001987,-0.00006287,-0.00006323,0.00000581,-0.00000845,0.00000257,0.00
 003560,0.00003044,0.00001604,0.00002832,0.00000726,0.00009565,0.006754
 06,0.00088728,0.00205464,0.02261619,-0.09357617,0.09735902,0.00601943,
 -0.00811529,0.02480234,-0.00392596,0.00773662,-0.01713108,-0.02984822,
 0.09387529,-0.00065405,-0.00081300,-0.00024293,0.00150929,0.00564604,0
 .00034911,0.00220954,-0.00151580,0.00093232,0.00009767,0.00044099,-0.0
 0023960,-0.00003127,0.00002840,0.00005228,0.00001237,-0.00000633,-0.00
 000551,-0.00000124,-0.00003374,0.00001158,-0.00002032,0.00000049,-0.00
 002426,-0.00001003,-0.00024665,0.00016492,-0.00005087,0.00003830,-0.00
 006600,0.00000985,-0.00001041,0.00001149,0.00004176,-0.00004476,0.0000
 0303,-0.00002255,0.00000243,0.00001485,0.00000250,-0.00000550,-0.00001
 014,-0.00001228,0.00000308,0.00000094,-0.00000006,0.00000125,0.0000001
 9,-0.00001822,0.00000928,0.00001044,0.00001133,-0.00001071,-0.00001747
 ,-0.00000335,0.00000489,0.00000150,-0.00000393,0.00000066,-0.00000017,
 -0.00000433,0.00000087,-0.00000238,0.00000629,0.00000162,-0.00000051,-
 0.00003398,-0.00005980,0.00006499,0.00000520,0.00002253,-0.00001786,0.
 00002743,0.00000294,0.00001506,-0.00002803,-0.00004894,-0.00001978,0.0
 0008016,-0.00005462,-0.00006490,-0.01038380,-0.00196586,0.00505380,-0.
 04680527,0.09573329,-0.26022719,0.00068085,-0.00165569,0.00080282,-0.0
 0395804,0.01097307,-0.01886384,0.05734739,-0.10643830,0.27231321\\-0.0
 0000237,-0.00000309,0.00000180,0.00000985,-0.00001250,-0.00000331,-0.0
 0001035,0.00001287,0.00000430,-0.00000950,0.00000456,-0.00000475,-0.00
 000241,0.00000759,-0.00000733,0.00000210,-0.00000025,0.00000318,0.0000
 0381,0.00000186,0.00000653,0.00000188,0.00000270,0.00000684,0.00000697
 ,0.00000337,0.00001186,0.00000329,0.00000698,-0.00000110,-0.00000129,-
 0.00000407,-0.00000341,0.00000254,-0.00000332,-0.00000320,0.00000208,-
 0.00000071,-0.00000021,-0.00000385,-0.00000218,-0.00000588,-0.00000146
 ,-0.00000102,-0.00000110,-0.00000084,-0.00000955,-0.00001021,-0.000000
 73,-0.00000096,0.00000234,-0.00000429,-0.00000006,-0.00000241,-0.00000
 287,-0.00000164,-0.00000463,-0.00000160,-0.00000417,-0.00000524,0.0000
 0401,-0.00000402,0.00000026,0.00000249,-0.00000348,-0.00000049,0.00000
 233,-0.00000604,0.00000967,0.00000234,-0.00000013,0.00000174,0.0000033
 0,-0.00000008,-0.00000355,0.00000199,-0.00000143,0.00000101,-0.0000025
 2,-0.00000248,-0.00000216,0.00000414,0.00000489,0.00000309,-0.00000384
 ,0.00000607,0.00000507,-0.00000244,0.00000458,-0.00000003,-0.00000076,
 0.00000022,0.00000180,-0.00000200,0.00000550,-0.00000049\\\@
 The archive entry for this job was punched.


 NO SCIENCE HAS EVER MADE MORE RAPID PROGRESS IN A
 SHORTER TIME THAN CHEMISTRY.
   -- MARTIN HEINRICH KLOPROTH, 1791
 (FIRST PROFESSOR OF CHEMISTRY AT THE UNIVERSITY OF BERLIN)
 Job cpu time:       0 days  0 hours 49 minutes 30.2 seconds.
 Elapsed time:       0 days  0 hours  4 minutes 11.2 seconds.
 File lengths (MBytes):  RWF=    400 Int=      0 D2E=      0 Chk=     14 Scr=      1
 Normal termination of Gaussian 16 at Sat Dec 30 21:06:45 2023.
