Unloading slurm/anatra/current
  ERROR: No such file or directory on
    '/cm/local/modulefiles/slurm/anatra/current'
environment: line 0: unalias: gv: not found
environment: line 0: unalias: sl: not found
 Entering Gaussian System, Link 0=g16
 Initial command:
 /apps/gaussian/g16/C.01/g16/l1.exe "/local/jobs/1151052/Gau-1849199.inp" -scrdir="/local/jobs/1151052/"
 Entering Link 1 = /apps/gaussian/g16/C.01/g16/l1.exe PID=   1849201.
  
 Copyright (c) 1988-2019, Gaussian, Inc.  All Rights Reserved.
  
 This is part of the Gaussian(R) 16 program.  It is based on
 the Gaussian(R) 09 system (copyright 2009, Gaussian, Inc.),
 the Gaussian(R) 03 system (copyright 2003, Gaussian, Inc.),
 the Gaussian(R) 98 system (copyright 1998, Gaussian, Inc.),
 the Gaussian(R) 94 system (copyright 1995, Gaussian, Inc.),
 the Gaussian 92(TM) system (copyright 1992, Gaussian, Inc.),
 the Gaussian 90(TM) system (copyright 1990, Gaussian, Inc.),
 the Gaussian 88(TM) system (copyright 1988, Gaussian, Inc.),
 the Gaussian 86(TM) system (copyright 1986, Carnegie Mellon
 University), and the Gaussian 82(TM) system (copyright 1983,
 Carnegie Mellon University). Gaussian is a federally registered
 trademark of Gaussian, Inc.
  
 This software contains proprietary and confidential information,
 including trade secrets, belonging to Gaussian, Inc.
  
 This software is provided under written license and may be
 used, copied, transmitted, or stored only in accord with that
 written license.
  
 The following legend is applicable only to US Government
 contracts under FAR:
  
                    RESTRICTED RIGHTS LEGEND
  
 Use, reproduction and disclosure by the US Government is
 subject to restrictions as set forth in subparagraphs (a)
 and (c) of the Commercial Computer Software - Restricted
 Rights clause in FAR 52.227-19.
  
 Gaussian, Inc.
 340 Quinnipiac St., Bldg. 40, Wallingford CT 06492
  
  
 ---------------------------------------------------------------
 Warning -- This program may not be used in any manner that
 competes with the business of Gaussian, Inc. or will provide
 assistance to any competitor of Gaussian, Inc.  The licensee
 of this program is prohibited from giving any competitor of
 Gaussian, Inc. access to this program.  By using this program,
 the user acknowledges that Gaussian, Inc. is engaged in the
 business of creating and licensing software in the field of
 computational chemistry and represents and warrants to the
 licensee that it is not a competitor of Gaussian, Inc. and that
 it will not use this program in any manner prohibited above.
 ---------------------------------------------------------------
  

 Cite this work as:
 Gaussian 16, Revision C.01,
 M. J. Frisch, G. W. Trucks, H. B. Schlegel, G. E. Scuseria, 
 M. A. Robb, J. R. Cheeseman, G. Scalmani, V. Barone, 
 G. A. Petersson, H. Nakatsuji, X. Li, M. Caricato, A. V. Marenich, 
 J. Bloino, B. G. Janesko, R. Gomperts, B. Mennucci, H. P. Hratchian, 
 J. V. Ortiz, A. F. Izmaylov, J. L. Sonnenberg, D. Williams-Young, 
 F. Ding, F. Lipparini, F. Egidi, J. Goings, B. Peng, A. Petrone, 
 T. Henderson, D. Ranasinghe, V. G. Zakrzewski, J. Gao, N. Rega, 
 G. Zheng, W. Liang, M. Hada, M. Ehara, K. Toyota, R. Fukuda, 
 J. Hasegawa, M. Ishida, T. Nakajima, Y. Honda, O. Kitao, H. Nakai, 
 T. Vreven, K. Throssell, J. A. Montgomery, Jr., J. E. Peralta, 
 F. Ogliaro, M. J. Bearpark, J. J. Heyd, E. N. Brothers, K. N. Kudin, 
 V. N. Staroverov, T. A. Keith, R. Kobayashi, J. Normand, 
 K. Raghavachari, A. P. Rendell, J. C. Burant, S. S. Iyengar, 
 J. Tomasi, M. Cossi, J. M. Millam, M. Klene, C. Adamo, R. Cammi, 
 J. W. Ochterski, R. L. Martin, K. Morokuma, O. Farkas, 
 J. B. Foresman, and D. J. Fox, Gaussian, Inc., Wallingford CT, 2019.
 
 ******************************************
 Gaussian 16:  ES64L-G16RevC.01  3-Jul-2019
                21-Dec-2023 
 ******************************************
 %chk=TS-92_opt_hf_re.chk
 %nprocshared=12
 Will use up to   12 processors via shared memory.
 %mem=48GB
 ----------------------------------------------------------------------
 # wb97xd def2svp geom=allchk scrf=(iefpcm,solvent=toluene) opt=(readfc
 ,ts,noeigen,maxcycles=50,maxstep=10)
 ----------------------------------------------------------------------
 1/5=1,6=50,8=10,10=3,11=1,18=20,26=3,29=7,38=1/1,3;
 2/9=110,12=2,40=1/2;
 3/5=43,7=101,11=2,14=-4,25=1,30=1,70=2201,71=1,72=13,74=-58/1,2,3;
 4//1;
 5/5=2,38=5,53=13/2;
 6/7=2,8=2,9=2,10=2,28=1/1;
 7//1,2,3,16;
 1/5=1,6=50,8=10,11=1,18=20,26=3/3(2);
 2/9=110/2;
 99//99;
 2/9=110/2;
 3/5=43,7=101,11=2,14=-2,25=1,30=1,70=2205,71=1,72=13,74=-58/1,2,3;
 4/5=5,16=3,69=1/1;
 5/5=2,38=5,53=13/2;
 7//1,2,3,16;
 1/5=1,6=50,8=10,11=1,18=20,26=3/3(-5);
 2/9=110/2;
 6/7=2,8=2,9=2,10=2,19=2,28=1/1;
 99/9=1/99;
 Structure from the checkpoint file:  "TS-92_opt_hf_re.chk"
 -------------------
 TS-92_opt_hf_re.out
 -------------------
 Charge =  0 Multiplicity = 1
 Redundant internal coordinates found in file.  (old form).
 C,0,-0.91717,-0.57256,-0.04708
 C,0,-2.30695,-0.44016,0.15948
 O,0,-2.96443,0.57066,0.44417
 C,0,0.06441,0.47193,0.21906
 C,0,-1.05787,2.51745,-1.13233
 H,0,-0.91246,3.30474,-0.38447
 H,0,-1.11183,2.97112,-2.13047
 H,0,-1.9764,1.96601,-0.89171
 N,0,0.07515,1.57543,-1.06911
 H,0,0.05194,0.95617,-1.88191
 H,0,0.97055,2.07285,-1.09786
 C,0,1.49742,-0.05206,0.14085
 C,0,1.89414,-0.83978,-0.95219
 C,0,3.20073,-1.30511,-1.07003
 C,0,4.14594,-0.99693,-0.09126
 C,0,3.76778,-0.21873,0.99929
 C,0,2.45912,0.25402,1.11049
 H,0,1.16339,-1.11,-1.71887
 H,0,3.48042,-1.91862,-1.92932
 H,0,5.17058,-1.36445,-0.17855
 H,0,4.49537,0.02631,1.77623
 H,0,2.19429,0.8597,1.97729
 C,0,-0.20764,1.35205,1.43436
 H,0,-1.26195,1.65054,1.44132
 H,0,-0.03168,0.75328,2.33785
 H,0,0.4376,2.24429,1.47682
 H,0,-0.55965,-1.55819,-0.34011
 O,0,-2.96679,-1.63046,-0.02382
 C,0,-4.36604,-1.60045,0.1054
 H,0,-4.70144,-2.64576,0.13509
 H,0,-4.68259,-1.08223,1.02278
 H,0,-4.8456,-1.09343,-0.74941
 Recover connectivity data from disk.

 GradGradGradGradGradGradGradGradGradGradGradGradGradGradGradGradGradGrad
 Berny optimization.
 Initialization pass.
 Force constant matrix read from checkpoint file:
 "TS-92_opt_hf_re.chk"
                           ----------------------------
                           !    Initial Parameters    !
                           ! (Angstroms and Degrees)  !
 --------------------------                            --------------------------
 ! Name  Definition              Value          Derivative Info.                !
 --------------------------------------------------------------------------------
 ! R1    R(1,2)                  1.4113         D2E/DX2 =    0.4396             !
 ! R2    R(1,4)                  1.4578         D2E/DX2 =    0.4031             !
 ! R3    R(1,27)                 1.0886         D2E/DX2 =    0.3692             !
 ! R4    R(2,3)                  1.239          D2E/DX2 =    0.72               !
 ! R5    R(2,28)                 1.3732         D2E/DX2 =    0.386              !
 ! R6    R(4,9)                  1.6962         D2E/DX2 =    0.0649             !
 ! R7    R(4,12)                 1.5278         D2E/DX2 =    0.3315             !
 ! R8    R(4,23)                 1.525          D2E/DX2 =    0.3132             !
 ! R9    R(5,6)                  1.0956         D2E/DX2 =    0.3566             !
 ! R10   R(5,7)                  1.0977         D2E/DX2 =    0.3495             !
 ! R11   R(5,8)                  1.098          D2E/DX2 =    0.354              !
 ! R12   R(5,9)                  1.4748         D2E/DX2 =    0.349              !
 ! R13   R(9,10)                 1.0221         D2E/DX2 =    0.4507             !
 ! R14   R(9,11)                 1.0247         D2E/DX2 =    0.4426             !
 ! R15   R(12,13)                1.4045         D2E/DX2 =    0.4006             !
 ! R16   R(12,17)                1.3996         D2E/DX2 =    0.4111             !
 ! R17   R(13,14)                1.392          D2E/DX2 =    0.4271             !
 ! R18   R(13,18)                1.0931         D2E/DX2 =    0.3623             !
 ! R19   R(14,15)                1.3951         D2E/DX2 =    0.4225             !
 ! R20   R(14,19)                1.0922         D2E/DX2 =    0.3643             !
 ! R21   R(15,16)                1.3921         D2E/DX2 =    0.4287             !
 ! R22   R(15,20)                1.0921         D2E/DX2 =    0.365              !
 ! R23   R(16,17)                1.3959         D2E/DX2 =    0.4196             !
 ! R24   R(16,21)                1.0923         D2E/DX2 =    0.3641             !
 ! R25   R(17,22)                1.0901         D2E/DX2 =    0.3708             !
 ! R26   R(23,24)                1.0958         D2E/DX2 =    0.3591             !
 ! R27   R(23,25)                1.0981         D2E/DX2 =    0.3497             !
 ! R28   R(23,26)                1.1019         D2E/DX2 =    0.3382             !
 ! R29   R(28,29)                1.4055         D2E/DX2 =    0.4048             !
 ! R30   R(29,30)                1.0982         D2E/DX2 =    0.3479             !
 ! R31   R(29,31)                1.1002         D2E/DX2 =    0.3448             !
 ! R32   R(29,32)                1.1035         D2E/DX2 =    0.3345             !
 ! A1    A(2,1,4)              124.6891         D2E/DX2 =    0.245              !
 ! A2    A(2,1,27)             116.5989         D2E/DX2 =    0.1342             !
 ! A3    A(4,1,27)             118.4691         D2E/DX2 =    0.1368             !
 ! A4    A(1,2,3)              129.2533         D2E/DX2 =    0.219              !
 ! A5    A(1,2,28)             111.8591         D2E/DX2 =    0.2211             !
 ! A6    A(3,2,28)             118.8715         D2E/DX2 =    0.2666             !
 ! A7    A(1,4,9)              109.3736         D2E/DX2 =    0.0534             !
 ! A8    A(1,4,12)             112.1148         D2E/DX2 =    0.0515             !
 ! A9    A(1,4,23)             116.0316         D2E/DX2 =    0.0564             !
 ! A10   A(9,4,12)             100.2711         D2E/DX2 =    0.0505             !
 ! A11   A(9,4,23)             103.3488         D2E/DX2 =    0.0609             !
 ! A12   A(12,4,23)            113.9576         D2E/DX2 =    0.057              !
 ! A13   A(6,5,7)              109.2827         D2E/DX2 =    0.0627             !
 ! A14   A(6,5,8)              108.8041         D2E/DX2 =    0.0608             !
 ! A15   A(6,5,9)              109.1338         D2E/DX2 =    0.1506             !
 ! A16   A(7,5,8)              111.4499         D2E/DX2 =    0.0632             !
 ! A17   A(7,5,9)              109.9204         D2E/DX2 =    0.1452             !
 ! A18   A(8,5,9)              108.2087         D2E/DX2 =    0.1564             !
 ! A19   A(4,9,5)              116.3096         D2E/DX2 =    0.1881             !
 ! A20   A(4,9,10)             102.1002         D2E/DX2 =    0.0505             !
 ! A21   A(4,9,11)             110.038          D2E/DX2 =    0.0585             !
 ! A22   A(5,9,10)             109.6004         D2E/DX2 =    0.0504             !
 ! A23   A(5,9,11)             111.1026         D2E/DX2 =    0.0633             !
 ! A24   A(10,9,11)            106.9564         D2E/DX2 =    0.0207             !
 ! A25   A(4,12,13)            119.8103         D2E/DX2 =    0.1857             !
 ! A26   A(4,12,17)            122.2787         D2E/DX2 =    0.195              !
 ! A27   A(13,12,17)           117.888          D2E/DX2 =    0.1011             !
 ! A28   A(12,13,14)           121.2324         D2E/DX2 =    0.0948             !
 ! A29   A(12,13,18)           119.714          D2E/DX2 =    0.0962             !
 ! A30   A(14,13,18)           119.0452         D2E/DX2 =    0.0969             !
 ! A31   A(13,14,15)           120.1795         D2E/DX2 =    0.0915             !
 ! A32   A(13,14,19)           119.6522         D2E/DX2 =    0.0936             !
 ! A33   A(15,14,19)           120.1669         D2E/DX2 =    0.0935             !
 ! A34   A(14,15,16)           119.2775         D2E/DX2 =    0.0913             !
 ! A35   A(14,15,20)           120.349          D2E/DX2 =    0.0929             !
 ! A36   A(16,15,20)           120.3733         D2E/DX2 =    0.0929             !
 ! A37   A(15,16,17)           120.4252         D2E/DX2 =    0.0918             !
 ! A38   A(15,16,21)           120.1117         D2E/DX2 =    0.0939             !
 ! A39   A(17,16,21)           119.4631         D2E/DX2 =    0.0941             !
 ! A40   A(12,17,16)           120.9945         D2E/DX2 =    0.094              !
 ! A41   A(12,17,22)           120.3629         D2E/DX2 =    0.0974             !
 ! A42   A(16,17,22)           118.6385         D2E/DX2 =    0.0991             !
 ! A43   A(4,23,24)            109.5068         D2E/DX2 =    0.1253             !
 ! A44   A(4,23,25)            108.2047         D2E/DX2 =    0.1194             !
 ! A45   A(4,23,26)            113.1762         D2E/DX2 =    0.1249             !
 ! A46   A(24,23,25)           107.307          D2E/DX2 =    0.056              !
 ! A47   A(24,23,26)           110.0348         D2E/DX2 =    0.0626             !
 ! A48   A(25,23,26)           108.4206         D2E/DX2 =    0.0597             !
 ! A49   A(2,28,29)            116.5881         D2E/DX2 =    0.3746             !
 ! A50   A(28,29,30)           106.631          D2E/DX2 =    0.1609             !
 ! A51   A(28,29,31)           111.9111         D2E/DX2 =    0.1583             !
 ! A52   A(28,29,32)           111.7914         D2E/DX2 =    0.1612             !
 ! A53   A(30,29,31)           109.7512         D2E/DX2 =    0.081              !
 ! A54   A(30,29,32)           108.9989         D2E/DX2 =    0.0829             !
 ! A55   A(31,29,32)           107.726          D2E/DX2 =    0.0842             !
 ! D1    D(4,1,2,3)              8.7625         D2E/DX2 =    0.0201             !
 ! D2    D(4,1,2,28)          -172.7368         D2E/DX2 =    0.0254             !
 ! D3    D(27,1,2,3)          -177.0052         D2E/DX2 =    0.0257             !
 ! D4    D(27,1,2,28)            1.4955         D2E/DX2 =    0.0239             !
 ! D5    D(2,1,4,9)            -80.1695         D2E/DX2 =    0.0273             !
 ! D6    D(2,1,4,12)           169.5321         D2E/DX2 =    0.0171             !
 ! D7    D(2,1,4,23)            36.1971         D2E/DX2 =    0.0166             !
 ! D8    D(27,1,4,9)           105.6976         D2E/DX2 =    0.0214             !
 ! D9    D(27,1,4,12)           -4.6008         D2E/DX2 =    0.0134             !
 ! D10   D(27,1,4,23)         -137.9358         D2E/DX2 =    0.0145             !
 ! D11   D(1,2,28,29)         -177.5471         D2E/DX2 =    0.0206             !
 ! D12   D(3,2,28,29)            1.1272         D2E/DX2 =    0.0179             !
 ! D13   D(1,4,9,5)             75.3072         D2E/DX2 =    0.0246             !
 ! D14   D(1,4,9,10)           -43.9497         D2E/DX2 =    0.0226             !
 ! D15   D(1,4,9,11)          -157.2581         D2E/DX2 =    0.0238             !
 ! D16   D(12,4,9,5)          -166.7052         D2E/DX2 =    0.0237             !
 ! D17   D(12,4,9,10)           74.0379         D2E/DX2 =    0.0243             !
 ! D18   D(12,4,9,11)          -39.2706         D2E/DX2 =    0.0234             !
 ! D19   D(23,4,9,5)           -48.857          D2E/DX2 =    0.0245             !
 ! D20   D(23,4,9,10)         -168.1139         D2E/DX2 =    0.0245             !
 ! D21   D(23,4,9,11)           78.5777         D2E/DX2 =    0.0228             !
 ! D22   D(1,4,12,13)           47.7119         D2E/DX2 =    0.0163             !
 ! D23   D(1,4,12,17)         -134.0702         D2E/DX2 =    0.0145             !
 ! D24   D(9,4,12,13)          -68.2349         D2E/DX2 =    0.0224             !
 ! D25   D(9,4,12,17)          109.983          D2E/DX2 =    0.0207             !
 ! D26   D(23,4,12,13)        -177.9461         D2E/DX2 =    0.0148             !
 ! D27   D(23,4,12,17)           0.2718         D2E/DX2 =    0.0134             !
 ! D28   D(1,4,23,24)          -45.081          D2E/DX2 =    0.0198             !
 ! D29   D(1,4,23,25)           71.5819         D2E/DX2 =    0.0187             !
 ! D30   D(1,4,23,26)         -168.2436         D2E/DX2 =    0.0198             !
 ! D31   D(9,4,23,24)           74.6102         D2E/DX2 =    0.0242             !
 ! D32   D(9,4,23,25)         -168.7268         D2E/DX2 =    0.0238             !
 ! D33   D(9,4,23,26)          -48.5524         D2E/DX2 =    0.0241             !
 ! D34   D(12,4,23,24)        -177.5731         D2E/DX2 =    0.0189             !
 ! D35   D(12,4,23,25)         -60.9102         D2E/DX2 =    0.0183             !
 ! D36   D(12,4,23,26)          59.2643         D2E/DX2 =    0.0186             !
 ! D37   D(6,5,9,4)             76.6643         D2E/DX2 =    0.0142             !
 ! D38   D(6,5,9,10)          -168.2297         D2E/DX2 =    0.0172             !
 ! D39   D(6,5,9,11)           -50.2434         D2E/DX2 =    0.0156             !
 ! D40   D(7,5,9,4)           -163.4999         D2E/DX2 =    0.015              !
 ! D41   D(7,5,9,10)           -48.3939         D2E/DX2 =    0.0161             !
 ! D42   D(7,5,9,11)            69.5923         D2E/DX2 =    0.0161             !
 ! D43   D(8,5,9,4)            -41.5839         D2E/DX2 =    0.0148             !
 ! D44   D(8,5,9,10)            73.5221         D2E/DX2 =    0.0174             !
 ! D45   D(8,5,9,11)          -168.4917         D2E/DX2 =    0.0164             !
 ! D46   D(4,12,13,14)         178.3983         D2E/DX2 =    0.0082             !
 ! D47   D(4,12,13,18)          -2.6694         D2E/DX2 =    0.009              !
 ! D48   D(17,12,13,14)          0.103          D2E/DX2 =    0.0085             !
 ! D49   D(17,12,13,18)        179.0352         D2E/DX2 =    0.0094             !
 ! D50   D(4,12,17,16)        -178.783          D2E/DX2 =    0.0084             !
 ! D51   D(4,12,17,22)           1.9566         D2E/DX2 =    0.0087             !
 ! D52   D(13,12,17,16)         -0.5324         D2E/DX2 =    0.0086             !
 ! D53   D(13,12,17,22)       -179.7928         D2E/DX2 =    0.0089             !
 ! D54   D(12,13,14,15)          0.226          D2E/DX2 =    0.0104             !
 ! D55   D(12,13,14,19)        179.8037         D2E/DX2 =    0.01               !
 ! D56   D(18,13,14,15)       -178.7133         D2E/DX2 =    0.0104             !
 ! D57   D(18,13,14,19)          0.8645         D2E/DX2 =    0.0112             !
 ! D58   D(13,14,15,16)         -0.1291         D2E/DX2 =    0.0107             !
 ! D59   D(13,14,15,20)        179.7126         D2E/DX2 =    0.01               !
 ! D60   D(19,14,15,16)       -179.7046         D2E/DX2 =    0.0099             !
 ! D61   D(19,14,15,20)          0.1371         D2E/DX2 =    0.0109             !
 ! D62   D(14,15,16,17)         -0.2973         D2E/DX2 =    0.0106             !
 ! D63   D(14,15,16,21)        179.6745         D2E/DX2 =    0.01               !
 ! D64   D(20,15,16,17)        179.861          D2E/DX2 =    0.01               !
 ! D65   D(20,15,16,21)         -0.1671         D2E/DX2 =    0.0109             !
 ! D66   D(15,16,17,12)          0.6388         D2E/DX2 =    0.0105             !
 ! D67   D(15,16,17,22)        179.9117         D2E/DX2 =    0.0099             !
 ! D68   D(21,16,17,12)       -179.3332         D2E/DX2 =    0.0099             !
 ! D69   D(21,16,17,22)         -0.0603         D2E/DX2 =    0.0109             !
 ! D70   D(2,28,29,30)        -168.6471         D2E/DX2 =    0.0311             !
 ! D71   D(2,28,29,31)         -48.6275         D2E/DX2 =    0.0305             !
 ! D72   D(2,28,29,32)          72.3188         D2E/DX2 =    0.0311             !
 --------------------------------------------------------------------------------
 Trust Radius=1.00D-01 FncErr=1.00D-07 GrdErr=1.00D-06 EigMax=2.50D+02 EigMin=1.00D-04
 Number of steps in this run=     50 maximum allowed number of steps=    192.
 Search for a saddle point of order  1.
 GradGradGradGradGradGradGradGradGradGradGradGradGradGradGradGradGradGrad

                          Input orientation:                          
 ---------------------------------------------------------------------
 Center     Atomic      Atomic             Coordinates (Angstroms)
 Number     Number       Type             X           Y           Z
 ---------------------------------------------------------------------
      1          6           0       -0.917170   -0.572560   -0.047080
      2          6           0       -2.306950   -0.440160    0.159480
      3          8           0       -2.964430    0.570660    0.444170
      4          6           0        0.064410    0.471930    0.219060
      5          6           0       -1.057870    2.517450   -1.132330
      6          1           0       -0.912460    3.304740   -0.384470
      7          1           0       -1.111830    2.971120   -2.130470
      8          1           0       -1.976400    1.966010   -0.891710
      9          7           0        0.075150    1.575430   -1.069110
     10          1           0        0.051940    0.956170   -1.881910
     11          1           0        0.970550    2.072850   -1.097860
     12          6           0        1.497420   -0.052060    0.140850
     13          6           0        1.894140   -0.839780   -0.952190
     14          6           0        3.200730   -1.305110   -1.070030
     15          6           0        4.145940   -0.996930   -0.091260
     16          6           0        3.767780   -0.218730    0.999290
     17          6           0        2.459120    0.254020    1.110490
     18          1           0        1.163390   -1.110000   -1.718870
     19          1           0        3.480420   -1.918620   -1.929320
     20          1           0        5.170580   -1.364450   -0.178550
     21          1           0        4.495370    0.026310    1.776230
     22          1           0        2.194290    0.859700    1.977290
     23          6           0       -0.207640    1.352050    1.434360
     24          1           0       -1.261950    1.650540    1.441320
     25          1           0       -0.031680    0.753280    2.337850
     26          1           0        0.437600    2.244290    1.476820
     27          1           0       -0.559650   -1.558190   -0.340110
     28          8           0       -2.966790   -1.630460   -0.023820
     29          6           0       -4.366040   -1.600450    0.105400
     30          1           0       -4.701440   -2.645760    0.135090
     31          1           0       -4.682590   -1.082230    1.022780
     32          1           0       -4.845600   -1.093430   -0.749410
 ---------------------------------------------------------------------
                    Distance matrix (angstroms):
                    1          2          3          4          5
     1  C    0.000000
     2  C    1.411271   0.000000
     3  O    2.395736   1.238986   0.000000
     4  C    1.457837   2.541418   3.038798   0.000000
     5  C    3.278067   3.460698   3.148065   2.696279   0.000000
     6  H    3.891954   4.032959   3.517445   3.056687   1.095566
     7  H    4.115346   4.278903   3.977827   3.626263   1.097730
     8  H    2.877448   2.646492   2.169742   2.762425   1.098035
     9  N    2.577422   3.353571   3.540992   1.696234   1.474833
    10  H    2.577361   3.417802   3.828545   2.156089   2.056974
    11  H    3.415526   4.317190   4.485365   2.262369   2.076859
    12  C    2.477193   3.824160   4.515295   1.527809   3.840947
    13  C    2.965484   4.364019   5.248320   2.537779   4.474126
    14  C    4.305828   5.709148   6.619706   3.828332   5.722894
    15  C    5.081055   6.481717   7.300780   4.348877   6.365087
    16  C    4.813402   6.136502   6.801025   3.847170   5.942843
    17  C    3.663678   4.909351   5.473494   2.564521   4.745796
    18  H    2.722582   4.002517   4.954014   2.732368   4.293765
    19  H    4.969256   6.327921   7.305208   4.690351   6.396091
    20  H    6.140446   7.542018   8.385155   5.440897   7.400840
    21  H    5.742708   7.007356   7.597323   4.717707   6.745663
    22  H    3.978772   5.025458   5.389471   2.788929   4.795249
    23  C    2.530261   3.040467   3.031656   1.524984   2.944307
    24  H    2.697477   2.665739   2.249197   2.154593   2.723391
    25  H    2.868769   3.368449   3.495768   2.139547   4.025855
    26  H    3.477401   4.058844   3.929531   2.205106   3.019720
    27  H    1.088648   2.133691   3.306065   2.196249   4.181707
    28  O    2.306650   1.373245   2.250322   3.696919   4.698716
    29  C    3.602015   2.364117   2.606337   4.892501   5.425225
    30  H    4.318801   3.255587   3.668527   5.695645   6.445207
    31  H    3.947499   2.607912   2.453346   5.059188   5.544438
    32  H    4.024566   2.774452   2.780761   5.243709   5.247093
                    6          7          8          9         10
     6  H    0.000000
     7  H    1.788733   0.000000
     8  H    1.783664   1.814457   0.000000
     9  N    2.105853   2.117394   2.095920   0.000000
    10  H    2.947571   2.340121   2.472739   1.022089   0.000000
    11  H    2.360552   2.491883   2.956083   1.024692   1.644857
    12  C    4.165524   4.594203   4.148037   2.477010   2.682815
    13  C    5.037495   4.994713   4.780920   3.025828   2.735602
    14  C    6.216031   6.165132   6.126557   4.250501   3.960734
    15  C    6.646634   6.895502   6.848560   4.913711   4.876665
    16  C    6.019492   6.616731   6.429975   4.597043   4.846563
    17  C    4.786371   5.535173   5.158832   3.489999   3.904099
    18  H    5.057638   4.690584   4.472618   2.969510   2.351800
    19  H    6.997674   6.711094   6.778191   4.954211   4.474499
    20  H    7.671187   7.878822   7.917063   5.949739   5.872579
    21  H    6.682915   7.441431   7.263893   5.480336   5.830154
    22  H    4.605217   5.679984   5.181673   3.779362   4.415019
    23  C    2.760057   4.018328   2.985977   2.529275   3.349888
    24  H    2.488379   3.811056   2.460282   2.845301   3.640373
    25  H    3.833634   5.104059   3.960140   3.506383   4.225462
    26  H    2.532117   3.992688   3.393342   2.657161   3.617880
    27  H    4.875913   4.901524   3.838154   3.279327   3.012175
    28  O    5.357848   5.390120   3.829974   4.541339   4.388153
    29  C    6.018976   6.040550   4.407294   5.584788   5.477614
    30  H    7.073525   7.040412   5.454226   6.487246   6.295777
    31  H    5.953128   6.254835   4.503388   5.837401   5.916762
    32  H    5.911571   5.689370   4.196752   5.607032   5.428565
                   11         12         13         14         15
    11  H    0.000000
    12  C    2.515400   0.000000
    13  C    3.059028   1.404502   0.000000
    14  C    4.047850   2.436725   1.391975   0.000000
    15  C    4.529889   2.821580   2.415885   1.395130   0.000000
    16  C    4.180176   2.432947   2.775699   2.404964   1.392085
    17  C    3.225026   1.399555   2.402134   2.781284   2.419595
    18  H    3.248596   2.165496   1.093075   2.147048   3.399633
    19  H    4.787756   3.420810   2.152896   1.092246   2.161225
    20  H    5.504581   3.913629   3.407177   2.163000   1.092052
    21  H    4.987291   3.415891   3.867917   3.398524   2.157925
    22  H    3.525028   2.165513   3.400026   3.871109   3.396309
    23  C    2.884410   2.559672   3.862282   4.994943   5.176764
    24  H    3.407321   3.493450   4.678834   5.912551   6.213145
    25  H    3.814424   2.795269   4.131705   5.128264   5.139681
    26  H    2.634844   2.860290   4.187253   5.169098   5.168768
    27  H    4.012499   2.594472   2.629038   3.838918   4.745473
    28  O    5.510963   4.737893   5.011555   6.264081   7.141207
    29  C    6.589398   6.064564   6.394292   7.663215   8.535615
    30  H    7.480436   6.719611   6.924263   8.105180   9.002556
    31  H    6.812462   6.327051   6.871147   8.159428   8.898950
    32  H    6.631316   6.489292   6.747559   8.055497   9.016111
                   16         17         18         19         20
    16  C    0.000000
    17  C    1.395869   0.000000
    18  H    3.868540   3.397756   0.000000
    19  H    3.398376   3.873482   2.463084   0.000000
    20  H    2.160516   3.410731   4.300570   2.495785   0.000000
    21  H    1.092276   2.154385   4.960747   4.306272   2.492245
    22  H    2.143680   1.090103   4.313244   4.963345   4.295671
    23  C    4.296580   2.902098   4.228980   5.967697   6.237476
    24  H    5.384027   3.988243   4.846613   6.825701   7.286397
    25  H    4.143965   2.821304   4.621361   6.138618   6.154718
    26  H    4.169485   2.860405   4.689399   6.179835   6.177730
    27  H    4.723854   3.808060   2.251826   4.356336   5.735780
    28  O    6.956592   5.854778   4.494715   6.729077   8.143187
    29  C    8.298627   7.143674   5.843210   8.112229   9.543765
    30  H    8.852401   7.786768   6.339713   8.469555   9.959764
    31  H    8.494406   7.266174   6.457004   8.720618   9.930146
    32  H    8.832518   7.657270   6.086714   8.449600  10.036095
                   21         22         23         24         25
    21  H    0.000000
    22  H    2.455592   0.000000
    23  C    4.898241   2.511264   0.000000
    24  H    5.991412   3.585845   1.095771   0.000000
    25  H    4.619316   2.257492   1.098081   1.767033   0.000000
    26  H    4.634067   2.292056   1.101921   1.800630   1.784575
    27  H    5.704626   4.335980   3.426682   3.736665   3.576747
    28  O    7.852955   6.069768   4.316777   3.977194   4.458091
    29  C    9.163111   7.252189   5.270264   4.689242   5.413922
    30  H    9.716718   7.951921   6.153440   5.656370   6.181608
    31  H    9.275317   7.209276   5.110802   4.398180   5.170055
    32  H    9.740965   7.798055   5.679780   5.017092   6.009604
                   26         27         28         29         30
    26  H    0.000000
    27  H    4.330658   0.000000
    28  O    5.371730   2.428906   0.000000
    29  C    6.303791   3.832606   1.405524   0.000000
    30  H    7.219596   4.308486   2.016209   1.098202   0.000000
    31  H    6.122764   4.368368   2.083242   1.100155   1.798048
    32  H    6.633904   4.330461   2.084421   1.103516   1.792443
                   31         32
    31  H    0.000000
    32  H    1.779706   0.000000
 Stoichiometry    C12H17NO2
 Framework group  C1[X(C12H17NO2)]
 Deg. of freedom    90
 Full point group                 C1      NOp   1
 Largest Abelian subgroup         C1      NOp   1
 Largest concise Abelian subgroup C1      NOp   1
                         Standard orientation:                         
 ---------------------------------------------------------------------
 Center     Atomic      Atomic             Coordinates (Angstroms)
 Number     Number       Type             X           Y           Z
 ---------------------------------------------------------------------
      1          6           0       -0.917170   -0.572560   -0.047080
      2          6           0       -2.306950   -0.440160    0.159480
      3          8           0       -2.964431    0.570660    0.444170
      4          6           0        0.064409    0.471930    0.219060
      5          6           0       -1.057871    2.517450   -1.132330
      6          1           0       -0.912461    3.304740   -0.384470
      7          1           0       -1.111831    2.971120   -2.130470
      8          1           0       -1.976401    1.966010   -0.891710
      9          7           0        0.075149    1.575430   -1.069110
     10          1           0        0.051939    0.956170   -1.881910
     11          1           0        0.970549    2.072851   -1.097860
     12          6           0        1.497420   -0.052059    0.140850
     13          6           0        1.894140   -0.839779   -0.952190
     14          6           0        3.200730   -1.305109   -1.070030
     15          6           0        4.145940   -0.996929   -0.091260
     16          6           0        3.767780   -0.218729    0.999290
     17          6           0        2.459119    0.254021    1.110490
     18          1           0        1.163390   -1.109999   -1.718870
     19          1           0        3.480420   -1.918619   -1.929320
     20          1           0        5.170580   -1.364448   -0.178550
     21          1           0        4.495370    0.026311    1.776230
     22          1           0        2.194289    0.859701    1.977290
     23          6           0       -0.207641    1.352050    1.434360
     24          1           0       -1.261951    1.650540    1.441320
     25          1           0       -0.031681    0.753280    2.337850
     26          1           0        0.437599    2.244290    1.476820
     27          1           0       -0.559650   -1.558190   -0.340110
     28          8           0       -2.966790   -1.630460   -0.023820
     29          6           0       -4.366040   -1.600451    0.105400
     30          1           0       -4.701440   -2.645761    0.135090
     31          1           0       -4.682590   -1.082231    1.022780
     32          1           0       -4.845600   -1.093431   -0.749410
 ---------------------------------------------------------------------
 Rotational constants (GHZ):           1.0825591           0.3301397           0.2969055
 Standard basis: def2SVP (5D, 7F)
 There are   310 symmetry adapted cartesian basis functions of A   symmetry.
 There are   295 symmetry adapted basis functions of A   symmetry.
   295 basis functions,   494 primitive gaussians,   310 cartesian basis functions
    56 alpha electrons       56 beta electrons
       nuclear repulsion energy      1007.1339758377 Hartrees.
 NAtoms=   32 NActive=   32 NUniq=   32 SFac= 1.00D+00 NAtFMM=   60 NAOKFM=F Big=F
 Integral buffers will be    131072 words long.
 Raffenetti 2 integral format.
 Two-electron integral symmetry is turned on.
 Nuclear repulsion after empirical dispersion term =     1007.1102384521 Hartrees.
 ------------------------------------------------------------------------------
 Polarizable Continuum Model (PCM)
 =================================
 Model                : PCM.
 Atomic radii         : UFF (Universal Force Field).
 Polarization charges : Total charges.
 Charge compensation  : None.
 Solution method      : On-the-fly selection.
 Cavity type          : Scaled VdW (van der Waals Surface) (Alpha=1.100).
 Cavity algorithm     : GePol (No added spheres)
                        Default sphere list used, NSphG=   32.
                        Lebedev-Laikov grids with approx.  5.0 points / Ang**2.
                        Smoothing algorithm: York/Karplus (Gamma=1.0000).
                        Polarization charges: spherical gaussians, with
                                              point-specific exponents (IZeta= 3).
                        Self-potential: point-specific (ISelfS= 7).
                        Self-field    : sphere-specific E.n sum rule (ISelfD= 2).
 1st derivatives      : Analytical E(r).r(x)/FMM algorithm (CHGder, D1EAlg=3).
                        Cavity 1st derivative terms included.
 Solvent              : Toluene, Eps=   2.374100 Eps(inf)=   2.238315
 ------------------------------------------------------------------------------
 One-electron integrals computed using PRISM.
   1 Symmetry operations used in ECPInt.
 ECPInt:  NShTT=   10011 NPrTT=   35491 LenC2=    9425 LenP2D=   24552.
 LDataN:  DoStor=T MaxTD1= 4 Len=   56
 NBasis=   295 RedAO= T EigKep=  2.76D-04  NBF=   295
 NBsUse=   295 1.00D-06 EigRej= -1.00D+00 NBFU=   295
 ExpMin= 1.22D-01 ExpMax= 2.27D+03 ExpMxC= 3.41D+02 IAcc=3 IRadAn=         5 AccDes= 0.00D+00
 Harris functional with IExCor= 4639 and IRadAn=       5 diagonalized for initial guess.
 HarFok:  IExCor= 4639 AccDes= 0.00D+00 IRadAn=         5 IDoV= 1 UseB2=F ITyADJ=14
 ICtDFT=  3500011 ScaDFX=  1.000000  1.000000  1.000000  1.000000
 FoFCou: FMM=F IPFlag=           0 FMFlag=      100000 FMFlg1=           0
         NFxFlg=           0 DoJE=T BraDBF=F KetDBF=T FulRan=T
         wScrn=  0.000000 ICntrl=       500 IOpCl=  0 I1Cent=   200000004 NGrid=           0
         NMat0=    1 NMatS0=      1 NMatT0=    0 NMatD0=    1 NMtDS0=    0 NMtDT0=    0
 Petite list used in FoFCou.
 Requested convergence on RMS density matrix=1.00D-08 within 128 cycles.
 Requested convergence on MAX density matrix=1.00D-06.
 Requested convergence on             energy=1.00D-06.
 No special actions if energy rises.
 Inv3:  Mode=1 IEnd=    14745267.
 Iteration    1 A*A^-1 deviation from unit magnitude is 2.66D-15 for   1088.
 Iteration    1 A*A^-1 deviation from orthogonality  is 2.05D-15 for   1502    990.
 Iteration    1 A^-1*A deviation from unit magnitude is 2.66D-15 for   1088.
 Iteration    1 A^-1*A deviation from orthogonality  is 1.95D-15 for    911    773.
 Error on total polarization charges =  0.00715
 SCF Done:  E(RwB97XD) =  -671.972504904     A.U. after   14 cycles
            NFock= 14  Conv=0.58D-08     -V/T= 2.0108

 **********************************************************************

            Population analysis using the SCF Density.

 **********************************************************************

 Orbital symmetries:
       Occupied  (A) (A) (A) (A) (A) (A) (A) (A) (A) (A) (A) (A)
                 (A) (A) (A) (A) (A) (A) (A) (A) (A) (A) (A) (A)
                 (A) (A) (A) (A) (A) (A) (A) (A) (A) (A) (A) (A)
                 (A) (A) (A) (A) (A) (A) (A) (A) (A) (A) (A) (A)
                 (A) (A) (A) (A) (A) (A) (A) (A)
       Virtual   (A) (A) (A) (A) (A) (A) (A) (A) (A) (A) (A) (A)
                 (A) (A) (A) (A) (A) (A) (A) (A) (A) (A) (A) (A)
                 (A) (A) (A) (A) (A) (A) (A) (A) (A) (A) (A) (A)
                 (A) (A) (A) (A) (A) (A) (A) (A) (A) (A) (A) (A)
                 (A) (A) (A) (A) (A) (A) (A) (A) (A) (A) (A) (A)
                 (A) (A) (A) (A) (A) (A) (A) (A) (A) (A) (A) (A)
                 (A) (A) (A) (A) (A) (A) (A) (A) (A) (A) (A) (A)
                 (A) (A) (A) (A) (A) (A) (A) (A) (A) (A) (A) (A)
                 (A) (A) (A) (A) (A) (A) (A) (A) (A) (A) (A) (A)
                 (A) (A) (A) (A) (A) (A) (A) (A) (A) (A) (A) (A)
                 (A) (A) (A) (A) (A) (A) (A) (A) (A) (A) (A) (A)
                 (A) (A) (A) (A) (A) (A) (A) (A) (A) (A) (A) (A)
                 (A) (A) (A) (A) (A) (A) (A) (A) (A) (A) (A) (A)
                 (A) (A) (A) (A) (A) (A) (A) (A) (A) (A) (A) (A)
                 (A) (A) (A) (A) (A) (A) (A) (A) (A) (A) (A) (A)
                 (A) (A) (A) (A) (A) (A) (A) (A) (A) (A) (A) (A)
                 (A) (A) (A) (A) (A) (A) (A) (A) (A) (A) (A) (A)
                 (A) (A) (A) (A) (A) (A) (A) (A) (A) (A) (A) (A)
                 (A) (A) (A) (A) (A) (A) (A) (A) (A) (A) (A) (A)
                 (A) (A) (A) (A) (A) (A) (A) (A) (A) (A) (A)
 The electronic state is 1-A.
 Alpha  occ. eigenvalues --  -19.24768 -19.18069 -14.53852 -10.36834 -10.36441
 Alpha  occ. eigenvalues --  -10.34391 -10.32114 -10.31944 -10.31107 -10.31062
 Alpha  occ. eigenvalues --  -10.31053 -10.31011 -10.30958 -10.28809 -10.22978
 Alpha  occ. eigenvalues --   -1.14206  -1.07035  -1.04129  -0.96355  -0.89785
 Alpha  occ. eigenvalues --   -0.84746  -0.83102  -0.80414  -0.80053  -0.75520
 Alpha  occ. eigenvalues --   -0.71108  -0.69820  -0.66551  -0.65401  -0.62446
 Alpha  occ. eigenvalues --   -0.60915  -0.58475  -0.57167  -0.55833  -0.54000
 Alpha  occ. eigenvalues --   -0.53488  -0.52948  -0.52130  -0.51147  -0.50897
 Alpha  occ. eigenvalues --   -0.49189  -0.49158  -0.46805  -0.46264  -0.46004
 Alpha  occ. eigenvalues --   -0.44912  -0.43937  -0.43693  -0.42386  -0.41775
 Alpha  occ. eigenvalues --   -0.39645  -0.34125  -0.34093  -0.33848  -0.30938
 Alpha  occ. eigenvalues --   -0.23993
 Alpha virt. eigenvalues --    0.04203   0.05082   0.10741   0.12763   0.13975
 Alpha virt. eigenvalues --    0.15095   0.17130   0.18111   0.18129   0.18450
 Alpha virt. eigenvalues --    0.19394   0.21049   0.21430   0.22004   0.23124
 Alpha virt. eigenvalues --    0.23414   0.23710   0.24200   0.24685   0.25043
 Alpha virt. eigenvalues --    0.25591   0.26083   0.26794   0.27470   0.30354
 Alpha virt. eigenvalues --    0.32654   0.36007   0.36280   0.37309   0.38462
 Alpha virt. eigenvalues --    0.39805   0.40980   0.41307   0.44112   0.46486
 Alpha virt. eigenvalues --    0.46812   0.48618   0.49610   0.50560   0.50882
 Alpha virt. eigenvalues --    0.52322   0.54409   0.55358   0.55501   0.56256
 Alpha virt. eigenvalues --    0.56958   0.57308   0.59009   0.59999   0.61280
 Alpha virt. eigenvalues --    0.62598   0.62956   0.64447   0.65605   0.65877
 Alpha virt. eigenvalues --    0.67260   0.68768   0.69314   0.71077   0.71856
 Alpha virt. eigenvalues --    0.72094   0.73038   0.73128   0.73662   0.74165
 Alpha virt. eigenvalues --    0.74718   0.75154   0.75270   0.76149   0.76337
 Alpha virt. eigenvalues --    0.76932   0.77158   0.77769   0.78776   0.79460
 Alpha virt. eigenvalues --    0.80393   0.81363   0.81738   0.81998   0.83037
 Alpha virt. eigenvalues --    0.83176   0.84206   0.85582   0.86534   0.87729
 Alpha virt. eigenvalues --    0.88314   0.89758   0.90447   0.92037   0.92409
 Alpha virt. eigenvalues --    0.97319   1.00199   1.01309   1.04723   1.05348
 Alpha virt. eigenvalues --    1.06885   1.10422   1.12912   1.14580   1.14618
 Alpha virt. eigenvalues --    1.18686   1.20494   1.22297   1.25469   1.26795
 Alpha virt. eigenvalues --    1.27891   1.28481   1.31778   1.32735   1.33417
 Alpha virt. eigenvalues --    1.35004   1.37179   1.37888   1.38457   1.39535
 Alpha virt. eigenvalues --    1.39791   1.42053   1.45682   1.47727   1.50005
 Alpha virt. eigenvalues --    1.52394   1.54662   1.57103   1.60485   1.62360
 Alpha virt. eigenvalues --    1.63682   1.65918   1.66404   1.70002   1.70210
 Alpha virt. eigenvalues --    1.72793   1.74089   1.75653   1.77391   1.77803
 Alpha virt. eigenvalues --    1.80198   1.80831   1.80933   1.82766   1.83321
 Alpha virt. eigenvalues --    1.83771   1.84245   1.84935   1.85493   1.85804
 Alpha virt. eigenvalues --    1.86564   1.87569   1.88433   1.89654   1.91716
 Alpha virt. eigenvalues --    1.92147   1.93739   1.94180   1.96282   1.97108
 Alpha virt. eigenvalues --    1.98087   1.99574   1.99827   2.00267   2.01902
 Alpha virt. eigenvalues --    2.03019   2.04784   2.05906   2.06994   2.07325
 Alpha virt. eigenvalues --    2.08977   2.09641   2.10948   2.12737   2.13164
 Alpha virt. eigenvalues --    2.14882   2.16229   2.18367   2.20077   2.22058
 Alpha virt. eigenvalues --    2.23356   2.24496   2.26084   2.27440   2.29478
 Alpha virt. eigenvalues --    2.34662   2.36370   2.37674   2.38639   2.39502
 Alpha virt. eigenvalues --    2.40865   2.41358   2.43225   2.43804   2.44402
 Alpha virt. eigenvalues --    2.45278   2.47913   2.50609   2.50809   2.52290
 Alpha virt. eigenvalues --    2.59629   2.60197   2.62309   2.63558   2.67271
 Alpha virt. eigenvalues --    2.69965   2.71159   2.72514   2.74609   2.76448
 Alpha virt. eigenvalues --    2.78755   2.78807   2.79108   2.80857   2.81971
 Alpha virt. eigenvalues --    2.83228   2.83691   2.87049   2.90867   2.92166
 Alpha virt. eigenvalues --    2.92871   2.96348   2.97077   2.99189   3.01839
 Alpha virt. eigenvalues --    3.03743   3.05395   3.06450   3.08509   3.09470
 Alpha virt. eigenvalues --    3.12486   3.13132   3.16762   3.20620   3.23738
 Alpha virt. eigenvalues --    3.27298   3.32625   3.32826   3.34106   3.47794
 Alpha virt. eigenvalues --    3.58336   3.71216   3.74609   3.82928
          Condensed to atoms (all electrons):
               1          2          3          4          5          6
     1  C    5.643997   0.382608  -0.124114   0.284874   0.007971  -0.000004
     2  C    0.382608   4.436482   0.613955  -0.020255  -0.000073  -0.000353
     3  O   -0.124114   0.613955   7.913425   0.007320  -0.020346  -0.000452
     4  C    0.284874  -0.020255   0.007320   5.495376  -0.030960  -0.010131
     5  C    0.007971  -0.000073  -0.020346  -0.030960   4.591558   0.400981
     6  H   -0.000004  -0.000353  -0.000452  -0.010131   0.400981   0.581102
     7  H   -0.001210   0.000092   0.000573   0.004303   0.391376  -0.022011
     8  H   -0.004646   0.000800   0.048824  -0.004907   0.373503  -0.011293
     9  N   -0.092033  -0.006102   0.000359   0.066766   0.285688  -0.018045
    10  H    0.008408  -0.001275  -0.000274   0.001804  -0.013381   0.005690
    11  H    0.007939  -0.000118  -0.000089  -0.000951  -0.015974  -0.007904
    12  C   -0.037836   0.007574   0.000271   0.186473   0.006910  -0.000094
    13  C   -0.016076  -0.000041  -0.000005  -0.100384  -0.000131   0.000089
    14  C    0.000615  -0.000008  -0.000000   0.012634   0.000022   0.000000
    15  C    0.000020  -0.000000  -0.000000  -0.001681  -0.000001   0.000000
    16  C   -0.000639   0.000005  -0.000000   0.021228   0.000008   0.000000
    17  C    0.004803  -0.000262  -0.000001  -0.081701  -0.000101  -0.000076
    18  H    0.008963  -0.000084  -0.000006  -0.011169   0.000002  -0.000005
    19  H   -0.000010  -0.000000   0.000000  -0.000288  -0.000000  -0.000000
    20  H    0.000001   0.000000   0.000000   0.000020   0.000000   0.000000
    21  H    0.000005  -0.000000   0.000000  -0.000269  -0.000000   0.000000
    22  H    0.000498  -0.000035   0.000003  -0.034962  -0.000029  -0.000015
    23  C   -0.042906  -0.011378  -0.021744   0.381569   0.010986   0.012862
    24  H   -0.027971   0.005345   0.040114   0.011123   0.006156  -0.002213
    25  H   -0.002138  -0.000507  -0.000185  -0.002936  -0.000095  -0.000116
    26  H    0.009524   0.000729   0.000444  -0.012736  -0.004310   0.000203
    27  H    0.392483  -0.004890   0.004503  -0.062670   0.000068  -0.000016
    28  O   -0.134772   0.367531  -0.083071   0.004684  -0.000045  -0.000004
    29  C    0.010682  -0.038962  -0.000003  -0.000408  -0.000013   0.000000
    30  H    0.000191   0.005488   0.000982   0.000006  -0.000000   0.000000
    31  H    0.001137  -0.007381   0.015591   0.000035   0.000028  -0.000000
    32  H    0.000714  -0.002591   0.003879   0.000048  -0.000045   0.000001
               7          8          9         10         11         12
     1  C   -0.001210  -0.004646  -0.092033   0.008408   0.007939  -0.037836
     2  C    0.000092   0.000800  -0.006102  -0.001275  -0.000118   0.007574
     3  O    0.000573   0.048824   0.000359  -0.000274  -0.000089   0.000271
     4  C    0.004303  -0.004907   0.066766   0.001804  -0.000951   0.186473
     5  C    0.391376   0.373503   0.285688  -0.013381  -0.015974   0.006910
     6  H   -0.022011  -0.011293  -0.018045   0.005690  -0.007904  -0.000094
     7  H    0.597580  -0.010635  -0.015422  -0.008833  -0.004283  -0.000305
     8  H   -0.010635   0.520714  -0.010838  -0.003636   0.004398   0.000896
     9  N   -0.015422  -0.010838   6.374745   0.327277   0.320985  -0.033429
    10  H   -0.008833  -0.003636   0.327277   0.505560  -0.009137  -0.011006
    11  H   -0.004283   0.004398   0.320985  -0.009137   0.526628  -0.000017
    12  C   -0.000305   0.000896  -0.033429  -0.011006  -0.000017   5.422371
    13  C   -0.000077   0.000014  -0.007276   0.010179  -0.001967   0.288322
    14  C   -0.000000  -0.000003  -0.000571  -0.000042  -0.000193   0.064883
    15  C   -0.000000   0.000000   0.000062   0.000032  -0.000015  -0.139571
    16  C   -0.000000  -0.000001  -0.000368   0.000005  -0.000085   0.060174
    17  C    0.000002  -0.000021  -0.000592  -0.000183   0.003663   0.361927
    18  H   -0.000016  -0.000008  -0.003829   0.004625   0.000618  -0.077408
    19  H    0.000000   0.000000   0.000007  -0.000004  -0.000000   0.014400
    20  H   -0.000000   0.000000   0.000000  -0.000000  -0.000001  -0.001464
    21  H    0.000000   0.000000   0.000003   0.000000   0.000001   0.014590
    22  H   -0.000000   0.000006   0.000283  -0.000025   0.000130  -0.050622
    23  C   -0.000358  -0.006442  -0.058963   0.006615  -0.001689  -0.063505
    24  H    0.000168  -0.000901  -0.008906   0.000146  -0.000021   0.006388
    25  H   -0.000000   0.000135   0.005891  -0.000285  -0.000271  -0.011009
    26  H    0.000193   0.000294   0.002132  -0.000424   0.001576  -0.015140
    27  H    0.000028  -0.000187   0.002010   0.000524  -0.000115  -0.010400
    28  O    0.000004   0.000054   0.000011  -0.000043   0.000001  -0.000060
    29  C    0.000001   0.000043   0.000007  -0.000006  -0.000000   0.000005
    30  H   -0.000000  -0.000000   0.000000  -0.000000   0.000000  -0.000000
    31  H   -0.000001  -0.000196   0.000001   0.000000   0.000000   0.000000
    32  H   -0.000001   0.000349  -0.000008   0.000007   0.000000  -0.000001
              13         14         15         16         17         18
     1  C   -0.016076   0.000615   0.000020  -0.000639   0.004803   0.008963
     2  C   -0.000041  -0.000008  -0.000000   0.000005  -0.000262  -0.000084
     3  O   -0.000005  -0.000000  -0.000000  -0.000000  -0.000001  -0.000006
     4  C   -0.100384   0.012634  -0.001681   0.021228  -0.081701  -0.011169
     5  C   -0.000131   0.000022  -0.000001   0.000008  -0.000101   0.000002
     6  H    0.000089   0.000000   0.000000   0.000000  -0.000076  -0.000005
     7  H   -0.000077  -0.000000  -0.000000  -0.000000   0.000002  -0.000016
     8  H    0.000014  -0.000003   0.000000  -0.000001  -0.000021  -0.000008
     9  N   -0.007276  -0.000571   0.000062  -0.000368  -0.000592  -0.003829
    10  H    0.010179  -0.000042   0.000032   0.000005  -0.000183   0.004625
    11  H   -0.001967  -0.000193  -0.000015  -0.000085   0.003663   0.000618
    12  C    0.288322   0.064883  -0.139571   0.060174   0.361927  -0.077408
    13  C    5.167770   0.340311   0.068219  -0.130542   0.030311   0.448588
    14  C    0.340311   5.000246   0.304741   0.072449  -0.119102  -0.049927
    15  C    0.068219   0.304741   5.072511   0.307334   0.066625   0.012673
    16  C   -0.130542   0.072449   0.307334   5.064061   0.301987  -0.001683
    17  C    0.030311  -0.119102   0.066625   0.301987   5.053287   0.011529
    18  H    0.448588  -0.049927   0.012673  -0.001683   0.011529   0.642860
    19  H   -0.061994   0.447689  -0.066945   0.012345  -0.001622  -0.011930
    20  H    0.012603  -0.064305   0.447886  -0.062869   0.012547  -0.000197
    21  H   -0.001667   0.012323  -0.067721   0.445395  -0.059238   0.000021
    22  H    0.013818  -0.001865   0.013178  -0.068018   0.448208  -0.000141
    23  C    0.013524  -0.000429   0.000109  -0.000611   0.007703   0.000551
    24  H   -0.000160   0.000006   0.000002  -0.000040   0.000495   0.000021
    25  H   -0.000036   0.000018  -0.000050   0.000717  -0.000159  -0.000008
    26  H   -0.001039  -0.000020  -0.000035   0.000599   0.004407  -0.000061
    27  H   -0.002877   0.000923  -0.000118   0.000021   0.000084   0.000915
    28  O   -0.000034  -0.000000  -0.000000   0.000000   0.000000  -0.000043
    29  C    0.000000   0.000000  -0.000000   0.000000  -0.000000  -0.000002
    30  H    0.000000  -0.000000   0.000000  -0.000000  -0.000000   0.000000
    31  H   -0.000000   0.000000  -0.000000   0.000000   0.000000  -0.000000
    32  H    0.000000   0.000000  -0.000000   0.000000  -0.000000   0.000001
              19         20         21         22         23         24
     1  C   -0.000010   0.000001   0.000005   0.000498  -0.042906  -0.027971
     2  C   -0.000000   0.000000  -0.000000  -0.000035  -0.011378   0.005345
     3  O    0.000000   0.000000   0.000000   0.000003  -0.021744   0.040114
     4  C   -0.000288   0.000020  -0.000269  -0.034962   0.381569   0.011123
     5  C   -0.000000   0.000000  -0.000000  -0.000029   0.010986   0.006156
     6  H   -0.000000   0.000000   0.000000  -0.000015   0.012862  -0.002213
     7  H    0.000000  -0.000000   0.000000  -0.000000  -0.000358   0.000168
     8  H    0.000000   0.000000   0.000000   0.000006  -0.006442  -0.000901
     9  N    0.000007   0.000000   0.000003   0.000283  -0.058963  -0.008906
    10  H   -0.000004  -0.000000   0.000000  -0.000025   0.006615   0.000146
    11  H   -0.000000  -0.000001   0.000001   0.000130  -0.001689  -0.000021
    12  C    0.014400  -0.001464   0.014590  -0.050622  -0.063505   0.006388
    13  C   -0.061994   0.012603  -0.001667   0.013818   0.013524  -0.000160
    14  C    0.447689  -0.064305   0.012323  -0.001865  -0.000429   0.000006
    15  C   -0.066945   0.447886  -0.067721   0.013178   0.000109   0.000002
    16  C    0.012345  -0.062869   0.445395  -0.068018  -0.000611  -0.000040
    17  C   -0.001622   0.012547  -0.059238   0.448208   0.007703   0.000495
    18  H   -0.011930  -0.000197   0.000021  -0.000141   0.000551   0.000021
    19  H    0.648451  -0.010571  -0.000210   0.000021   0.000004  -0.000000
    20  H   -0.010571   0.645292  -0.010618  -0.000204   0.000000   0.000000
    21  H   -0.000210  -0.010618   0.649519  -0.011900  -0.000004  -0.000000
    22  H    0.000021  -0.000204  -0.011900   0.653843   0.019856  -0.000025
    23  C    0.000004   0.000000  -0.000004   0.019856   4.589491   0.361919
    24  H   -0.000000   0.000000  -0.000000  -0.000025   0.361919   0.570522
    25  H    0.000000  -0.000000   0.000016   0.000554   0.385633  -0.010684
    26  H    0.000000  -0.000000   0.000020  -0.000625   0.367865  -0.023458
    27  H    0.000055  -0.000001   0.000001  -0.000013   0.004653  -0.000086
    28  O    0.000000  -0.000000   0.000000   0.000000  -0.000337   0.000671
    29  C   -0.000000   0.000000  -0.000000  -0.000000   0.000033  -0.000097
    30  H   -0.000000  -0.000000   0.000000  -0.000000   0.000001  -0.000002
    31  H    0.000000  -0.000000  -0.000000  -0.000000  -0.000004   0.000078
    32  H   -0.000000  -0.000000  -0.000000   0.000000   0.000002  -0.000027
              25         26         27         28         29         30
     1  C   -0.002138   0.009524   0.392483  -0.134772   0.010682   0.000191
     2  C   -0.000507   0.000729  -0.004890   0.367531  -0.038962   0.005488
     3  O   -0.000185   0.000444   0.004503  -0.083071  -0.000003   0.000982
     4  C   -0.002936  -0.012736  -0.062670   0.004684  -0.000408   0.000006
     5  C   -0.000095  -0.004310   0.000068  -0.000045  -0.000013  -0.000000
     6  H   -0.000116   0.000203  -0.000016  -0.000004   0.000000   0.000000
     7  H   -0.000000   0.000193   0.000028   0.000004   0.000001  -0.000000
     8  H    0.000135   0.000294  -0.000187   0.000054   0.000043  -0.000000
     9  N    0.005891   0.002132   0.002010   0.000011   0.000007   0.000000
    10  H   -0.000285  -0.000424   0.000524  -0.000043  -0.000006  -0.000000
    11  H   -0.000271   0.001576  -0.000115   0.000001  -0.000000   0.000000
    12  C   -0.011009  -0.015140  -0.010400  -0.000060   0.000005  -0.000000
    13  C   -0.000036  -0.001039  -0.002877  -0.000034   0.000000   0.000000
    14  C    0.000018  -0.000020   0.000923  -0.000000   0.000000  -0.000000
    15  C   -0.000050  -0.000035  -0.000118  -0.000000  -0.000000   0.000000
    16  C    0.000717   0.000599   0.000021   0.000000   0.000000  -0.000000
    17  C   -0.000159   0.004407   0.000084   0.000000  -0.000000  -0.000000
    18  H   -0.000008  -0.000061   0.000915  -0.000043  -0.000002   0.000000
    19  H    0.000000   0.000000   0.000055   0.000000  -0.000000  -0.000000
    20  H   -0.000000  -0.000000  -0.000001  -0.000000   0.000000  -0.000000
    21  H    0.000016   0.000020   0.000001   0.000000  -0.000000   0.000000
    22  H    0.000554  -0.000625  -0.000013   0.000000  -0.000000  -0.000000
    23  C    0.385633   0.367865   0.004653  -0.000337   0.000033   0.000001
    24  H   -0.010684  -0.023458  -0.000086   0.000671  -0.000097  -0.000002
    25  H    0.599837  -0.022905   0.000272  -0.000011   0.000000  -0.000000
    26  H   -0.022905   0.675836  -0.000170   0.000002  -0.000000   0.000000
    27  H    0.000272  -0.000170   0.665913   0.009916  -0.000187  -0.000239
    28  O   -0.000011   0.000002   0.009916   8.009239   0.286590  -0.026085
    29  C    0.000000  -0.000000  -0.000187   0.286590   4.402030   0.396255
    30  H   -0.000000   0.000000  -0.000239  -0.026085   0.396255   0.643941
    31  H   -0.000000   0.000001   0.000057  -0.029363   0.398966  -0.024670
    32  H   -0.000000  -0.000001   0.000039  -0.032141   0.399368  -0.029913
              31         32
     1  C    0.001137   0.000714
     2  C   -0.007381  -0.002591
     3  O    0.015591   0.003879
     4  C    0.000035   0.000048
     5  C    0.000028  -0.000045
     6  H   -0.000000   0.000001
     7  H   -0.000001  -0.000001
     8  H   -0.000196   0.000349
     9  N    0.000001  -0.000008
    10  H    0.000000   0.000007
    11  H    0.000000   0.000000
    12  C    0.000000  -0.000001
    13  C   -0.000000   0.000000
    14  C    0.000000   0.000000
    15  C   -0.000000  -0.000000
    16  C    0.000000   0.000000
    17  C    0.000000  -0.000000
    18  H   -0.000000   0.000001
    19  H    0.000000  -0.000000
    20  H   -0.000000  -0.000000
    21  H   -0.000000  -0.000000
    22  H   -0.000000   0.000000
    23  C   -0.000004   0.000002
    24  H    0.000078  -0.000027
    25  H   -0.000000  -0.000000
    26  H    0.000001  -0.000001
    27  H    0.000057   0.000039
    28  O   -0.029363  -0.032141
    29  C    0.398966   0.399368
    30  H   -0.024670  -0.029913
    31  H    0.650390  -0.036770
    32  H   -0.036770   0.676777
 Mulliken charges:
               1
     1  C   -0.281076
     2  C    0.273707
     3  O   -0.399955
     4  C   -0.101852
     5  C    0.010250
     6  H    0.071802
     7  H    0.068833
     8  H    0.103684
     9  N   -0.129844
    10  H    0.177680
    11  H    0.176891
    12  C    0.016683
    13  C   -0.069442
    14  C   -0.020393
    15  C   -0.017251
    16  C   -0.021471
    17  C   -0.044519
    18  H    0.025151
    19  H    0.030602
    20  H    0.031882
    21  H    0.029734
    22  H    0.018081
    23  C    0.044995
    24  H    0.071438
    25  H    0.058323
    26  H    0.017099
    27  H   -0.000496
    28  O   -0.372691
    29  C    0.145698
    30  H    0.034045
    31  H    0.032102
    32  H    0.020314
 Sum of Mulliken charges =  -0.00000
 Mulliken charges with hydrogens summed into heavy atoms:
               1
     1  C   -0.281572
     2  C    0.273707
     3  O   -0.399955
     4  C   -0.101852
     5  C    0.254569
     9  N    0.224727
    12  C    0.016683
    13  C   -0.044291
    14  C    0.010209
    15  C    0.014631
    16  C    0.008262
    17  C   -0.026439
    23  C    0.191854
    28  O   -0.372691
    29  C    0.232158
 Electronic spatial extent (au):  <R**2>=           3910.5351
 Charge=             -0.0000 electrons
 Dipole moment (field-independent basis, Debye):
    X=              5.5288    Y=              4.2785    Z=             -3.3457  Tot=              7.7503
 Quadrupole moment (field-independent basis, Debye-Ang):
   XX=            -93.0917   YY=            -83.8576   ZZ=            -82.6045
   XY=              1.3060   XZ=              2.8243   YZ=             -3.1408
 Traceless Quadrupole moment (field-independent basis, Debye-Ang):
   XX=             -6.5738   YY=              2.6603   ZZ=              3.9134
   XY=              1.3060   XZ=              2.8243   YZ=             -3.1408
 Octapole moment (field-independent basis, Debye-Ang**2):
  XXX=             16.6444  YYY=             34.7934  ZZZ=            -11.8934  XYY=             -6.5079
  XXY=            -29.5775  XXZ=             -2.2295  XZZ=             -1.1603  YZZ=             10.1094
  YYZ=            -16.7966  XYZ=             13.1569
 Hexadecapole moment (field-independent basis, Debye-Ang**3):
 XXXX=          -3472.4537 YYYY=           -900.2361 ZZZZ=           -481.7147 XXXY=             52.0271
 XXXZ=             46.2160 YYYX=             12.2565 YYYZ=            -26.7179 ZZZX=              3.2266
 ZZZY=            -12.6878 XXYY=           -762.4284 XXZZ=           -684.3537 YYZZ=           -225.1758
 XXYZ=              7.4514 YYXZ=            -13.9069 ZZXY=             -0.8687
 N-N= 1.007110238452D+03 E-N=-3.576395726219D+03  KE= 6.648165091453D+02
   1 Symmetry operations used in ECPInt.
 ECPInt:  NShTT=   10011 NPrTT=   35491 LenC2=    9425 LenP2D=   24552.
 LDataN:  DoStor=T MaxTD1= 5 Len=  102
 D1PCM: PCM CHGder 1st derivatives, ID1Alg=3 FixD1E=F DoIter=F DoCFld=F I1PDM=0.
 Calling FoFJK, ICntrl=      2127 FMM=F ISym2X=0 I1Cent= 0 IOpClX= 0 NMat=1 NMatS=1 NMatT=0.
 ***** Axes restored to original set *****
 -------------------------------------------------------------------
 Center     Atomic                   Forces (Hartrees/Bohr)
 Number     Number              X              Y              Z
 -------------------------------------------------------------------
      1        6           0.000278698    0.000165683    0.000493862
      2        6          -0.000386391    0.000018898   -0.000494467
      3        8          -0.000067806   -0.000180715   -0.000073118
      4        6          -0.000274205   -0.002001442    0.001741132
      5        6           0.000071262   -0.000203233   -0.000167722
      6        1           0.000011264   -0.000057542    0.000055634
      7        1          -0.000043444    0.000041002   -0.000025345
      8        1          -0.000127114    0.000109722   -0.000024566
      9        7           0.000374305    0.001232139   -0.001312590
     10        1           0.000036213   -0.000033585    0.000084066
     11        1          -0.000018830    0.000244330   -0.000004702
     12        6          -0.000009679    0.000206890   -0.000242527
     13        6           0.000018728    0.000003670    0.000020828
     14        6          -0.000036517   -0.000024537   -0.000004539
     15        6           0.000001044   -0.000002015    0.000012107
     16        6           0.000002047   -0.000004289   -0.000000404
     17        6          -0.000031021   -0.000081501    0.000042199
     18        1           0.000043552    0.000026697   -0.000049541
     19        1           0.000003597    0.000000478    0.000001685
     20        1           0.000004943   -0.000003670    0.000001236
     21        1          -0.000002138   -0.000001558    0.000001807
     22        1           0.000010861    0.000008634   -0.000006185
     23        6          -0.000033493    0.000338182   -0.000259037
     24        1           0.000012562    0.000038232    0.000007039
     25        1          -0.000025474    0.000007079    0.000016871
     26        1           0.000024320   -0.000018314   -0.000038294
     27        1          -0.000060192    0.000115139   -0.000439481
     28        8           0.000229121   -0.000099132    0.000844927
     29        6          -0.000078497    0.000099363   -0.000222568
     30        1          -0.000033446    0.000030865   -0.000196531
     31        1           0.000050752   -0.000259523    0.000146079
     32        1           0.000054977    0.000284054    0.000092147
 -------------------------------------------------------------------
 Cartesian Forces:  Max     0.002001442 RMS     0.000368642

 GradGradGradGradGradGradGradGradGradGradGradGradGradGradGradGradGradGrad
 Berny optimization.
 FormGI is forming the generalized inverse of G from B-inverse, IUseBI=4.
 Internal  Forces:  Max     0.001924396 RMS     0.000192157
 Search for a saddle point.
 Step number   1 out of a maximum of   50
 All quantities printed in internal units (Hartrees-Bohrs-Radians)
 Swapping is turned off.
 Second derivative matrix not updated -- first step.
 ITU=  0
     Eigenvalues ---   -0.00672   0.00199   0.00316   0.00388   0.00447
     Eigenvalues ---    0.00773   0.00936   0.01054   0.01461   0.01936
     Eigenvalues ---    0.02115   0.02137   0.02361   0.02728   0.02901
     Eigenvalues ---    0.02956   0.03242   0.03284   0.03317   0.03804
     Eigenvalues ---    0.04662   0.05452   0.05535   0.05700   0.05856
     Eigenvalues ---    0.07493   0.07725   0.09230   0.09267   0.09730
     Eigenvalues ---    0.10130   0.10344   0.11640   0.12249   0.13344
     Eigenvalues ---    0.13844   0.14090   0.14203   0.14762   0.14928
     Eigenvalues ---    0.15072   0.15674   0.16005   0.17316   0.19520
     Eigenvalues ---    0.20785   0.21200   0.21225   0.21457   0.21576
     Eigenvalues ---    0.21619   0.21732   0.22122   0.22452   0.22822
     Eigenvalues ---    0.26635   0.28816   0.31763   0.31967   0.32695
     Eigenvalues ---    0.33335   0.33911   0.34138   0.34501   0.34706
     Eigenvalues ---    0.34884   0.35135   0.35386   0.35866   0.36072
     Eigenvalues ---    0.36395   0.36502   0.36542   0.36722   0.37273
     Eigenvalues ---    0.37929   0.38347   0.39657   0.42785   0.44284
     Eigenvalues ---    0.45106   0.45310   0.45552   0.47184   0.51645
     Eigenvalues ---    0.51795   0.52095   0.55165   0.59220   0.77523
 Eigenvectors required to have negative eigenvalues:
                          R6        D10       D7        D27       D8
   1                   -0.69085   0.33054   0.20174  -0.19262   0.19244
                          R2        D26       D36       D34       D35
   1                    0.16647  -0.16130   0.15839   0.14600   0.14475
 RFO step:  Lambda0=4.756704693D-04 Lambda=-2.53863680D-04.
 Linear search not attempted -- option 19 set.
 Maximum step size (   0.100) exceeded in Quadratic search.
    -- Step size scaled by   0.537
 Iteration  1 RMS(Cart)=  0.01953839 RMS(Int)=  0.00042216
 Iteration  2 RMS(Cart)=  0.00048827 RMS(Int)=  0.00003979
 Iteration  3 RMS(Cart)=  0.00000033 RMS(Int)=  0.00003979
 Variable       Old X    -DE/DX   Delta X   Delta X   Delta X     New X
                                 (Linear)    (Quad)   (Total)
    R1        2.66692   0.00023   0.00000  -0.00902  -0.00902   2.65789
    R2        2.75491  -0.00014   0.00000   0.02186   0.02186   2.77677
    R3        2.05725  -0.00001   0.00000  -0.00002  -0.00002   2.05723
    R4        2.34134  -0.00013   0.00000   0.00500   0.00500   2.34635
    R5        2.59506  -0.00024   0.00000   0.00322   0.00322   2.59828
    R6        3.20542   0.00192   0.00000  -0.08864  -0.08864   3.11678
    R7        2.88714  -0.00003   0.00000   0.00564   0.00564   2.89278
    R8        2.88180  -0.00000   0.00000   0.00415   0.00415   2.88596
    R9        2.07032  -0.00000   0.00000  -0.00052  -0.00052   2.06980
   R10        2.07441   0.00004   0.00000  -0.00093  -0.00093   2.07348
   R11        2.07499   0.00005   0.00000  -0.00023  -0.00023   2.07476
   R12        2.78703   0.00001   0.00000   0.00568   0.00568   2.79271
   R13        1.93147  -0.00005   0.00000   0.00090   0.00090   1.93237
   R14        1.93639   0.00010   0.00000   0.00092   0.00092   1.93731
   R15        2.65412   0.00003   0.00000   0.00021   0.00021   2.65433
   R16        2.64478   0.00000   0.00000  -0.00019  -0.00018   2.64459
   R17        2.63045  -0.00001   0.00000   0.00011   0.00011   2.63056
   R18        2.06561  -0.00000   0.00000   0.00016   0.00016   2.06577
   R19        2.63641   0.00000   0.00000  -0.00009  -0.00009   2.63633
   R20        2.06404  -0.00000   0.00000  -0.00001  -0.00001   2.06404
   R21        2.63066  -0.00001   0.00000  -0.00007  -0.00007   2.63059
   R22        2.06368   0.00001   0.00000   0.00000   0.00000   2.06368
   R23        2.63781   0.00000   0.00000   0.00017   0.00017   2.63798
   R24        2.06410  -0.00000   0.00000   0.00000   0.00000   2.06411
   R25        2.06000  -0.00000   0.00000  -0.00003  -0.00003   2.05996
   R26        2.07071  -0.00000   0.00000   0.00081   0.00081   2.07152
   R27        2.07507   0.00001   0.00000  -0.00081  -0.00081   2.07426
   R28        2.08233  -0.00000   0.00000   0.00105   0.00105   2.08338
   R29        2.65606  -0.00001   0.00000  -0.00128  -0.00128   2.65477
   R30        2.07530  -0.00002   0.00000   0.00026   0.00026   2.07556
   R31        2.07899  -0.00002   0.00000   0.00151   0.00151   2.08050
   R32        2.08534   0.00003   0.00000  -0.00076  -0.00076   2.08459
    A1        2.17624   0.00021   0.00000  -0.00127  -0.00137   2.17487
    A2        2.03503  -0.00014   0.00000   0.00298   0.00289   2.03792
    A3        2.06768  -0.00006   0.00000  -0.00387  -0.00396   2.06372
    A4        2.25590   0.00015   0.00000   0.00070   0.00070   2.25659
    A5        1.95231   0.00007   0.00000   0.00361   0.00361   1.95592
    A6        2.07470  -0.00022   0.00000  -0.00432  -0.00432   2.07038
    A7        1.90893   0.00017   0.00000   0.00287   0.00297   1.91190
    A8        1.95677  -0.00004   0.00000  -0.00976  -0.00992   1.94685
    A9        2.02513   0.00005   0.00000  -0.01119  -0.01137   2.01376
   A10        1.75006  -0.00014   0.00000   0.01291   0.01295   1.76301
   A11        1.80378  -0.00020   0.00000   0.01856   0.01860   1.82238
   A12        1.98893   0.00013   0.00000  -0.00597  -0.00630   1.98264
   A13        1.90734   0.00002   0.00000   0.00193   0.00191   1.90925
   A14        1.89899  -0.00007   0.00000   0.00208   0.00208   1.90107
   A15        1.90474  -0.00013   0.00000  -0.00183  -0.00184   1.90290
   A16        1.94517  -0.00012   0.00000   0.00486   0.00486   1.95003
   A17        1.91847   0.00006   0.00000  -0.00759  -0.00760   1.91087
   A18        1.88860   0.00024   0.00000   0.00050   0.00050   1.88910
   A19        2.02998   0.00011   0.00000   0.00499   0.00498   2.03496
   A20        1.78198  -0.00008   0.00000   0.00986   0.00986   1.79184
   A21        1.92053   0.00007   0.00000  -0.00476  -0.00475   1.91578
   A22        1.91289  -0.00002   0.00000  -0.00358  -0.00364   1.90925
   A23        1.93911  -0.00013   0.00000  -0.00529  -0.00529   1.93381
   A24        1.86674   0.00005   0.00000  -0.00039  -0.00040   1.86635
   A25        2.09108   0.00006   0.00000  -0.00184  -0.00185   2.08924
   A26        2.13417  -0.00003   0.00000   0.00205   0.00205   2.13621
   A27        2.05753  -0.00003   0.00000  -0.00034  -0.00034   2.05719
   A28        2.11590   0.00001   0.00000   0.00024   0.00024   2.11615
   A29        2.08940   0.00004   0.00000   0.00008   0.00008   2.08948
   A30        2.07773  -0.00005   0.00000  -0.00037  -0.00037   2.07736
   A31        2.09753   0.00000   0.00000  -0.00005  -0.00005   2.09748
   A32        2.08833   0.00000   0.00000  -0.00001  -0.00001   2.08831
   A33        2.09731  -0.00001   0.00000   0.00006   0.00006   2.09737
   A34        2.08178  -0.00000   0.00000  -0.00010  -0.00010   2.08168
   A35        2.10049   0.00000   0.00000   0.00006   0.00006   2.10054
   A36        2.10091   0.00000   0.00000   0.00004   0.00004   2.10095
   A37        2.10182   0.00000   0.00000   0.00009   0.00009   2.10191
   A38        2.09634   0.00000   0.00000  -0.00001  -0.00001   2.09633
   A39        2.08502  -0.00000   0.00000  -0.00008  -0.00008   2.08494
   A40        2.11175   0.00001   0.00000   0.00016   0.00016   2.11192
   A41        2.10073   0.00000   0.00000   0.00017   0.00017   2.10090
   A42        2.07063  -0.00001   0.00000  -0.00033  -0.00033   2.07030
   A43        1.91125   0.00005   0.00000  -0.00136  -0.00136   1.90990
   A44        1.88853   0.00004   0.00000   0.00162   0.00162   1.89014
   A45        1.97530  -0.00009   0.00000   0.00134   0.00134   1.97664
   A46        1.87286  -0.00002   0.00000  -0.00010  -0.00010   1.87276
   A47        1.92047   0.00000   0.00000  -0.00165  -0.00165   1.91882
   A48        1.89230   0.00002   0.00000   0.00015   0.00015   1.89244
   A49        2.03485  -0.00044   0.00000  -0.00427  -0.00427   2.03058
   A50        1.86106   0.00006   0.00000  -0.00127  -0.00127   1.85979
   A51        1.95322  -0.00007   0.00000   0.00033   0.00033   1.95354
   A52        1.95113  -0.00006   0.00000   0.00306   0.00306   1.95418
   A53        1.91552  -0.00003   0.00000  -0.00215  -0.00215   1.91337
   A54        1.90239   0.00006   0.00000   0.00124   0.00124   1.90362
   A55        1.88017   0.00005   0.00000  -0.00123  -0.00123   1.87894
    D1        0.15293  -0.00005   0.00000   0.00890   0.00893   0.16186
    D2       -3.01483  -0.00001   0.00000   0.00798   0.00801  -3.00682
    D3       -3.08932   0.00004   0.00000  -0.01688  -0.01690  -3.10623
    D4        0.02610   0.00008   0.00000  -0.01780  -0.01783   0.00827
    D5       -1.39922  -0.00015   0.00000   0.00795   0.00798  -1.39124
    D6        2.95889  -0.00006   0.00000  -0.00403  -0.00398   2.95492
    D7        0.63176  -0.00025   0.00000   0.02668   0.02666   0.65842
    D8        1.84477  -0.00024   0.00000   0.03381   0.03380   1.87857
    D9       -0.08030  -0.00014   0.00000   0.02183   0.02184  -0.05846
   D10       -2.40743  -0.00034   0.00000   0.05255   0.05248  -2.35495
   D11       -3.09878  -0.00014   0.00000   0.01145   0.01145  -3.08734
   D12        0.01967  -0.00010   0.00000   0.01070   0.01070   0.03037
   D13        1.31436  -0.00005   0.00000   0.00304   0.00308   1.31744
   D14       -0.76707  -0.00003   0.00000  -0.00192  -0.00192  -0.76899
   D15       -2.74467  -0.00007   0.00000  -0.00445  -0.00442  -2.74909
   D16       -2.90956  -0.00010   0.00000  -0.00048  -0.00052  -2.91007
   D17        1.29220  -0.00008   0.00000  -0.00544  -0.00552   1.28668
   D18       -0.68540  -0.00012   0.00000  -0.00797  -0.00802  -0.69342
   D19       -0.85271  -0.00008   0.00000   0.00390   0.00395  -0.84876
   D20       -2.93414  -0.00006   0.00000  -0.00106  -0.00105  -2.93519
   D21        1.37144  -0.00010   0.00000  -0.00358  -0.00354   1.36789
   D22        0.83273   0.00003   0.00000   0.01013   0.01010   0.84283
   D23       -2.33997   0.00006   0.00000   0.00505   0.00503  -2.33494
   D24       -1.19092  -0.00007   0.00000   0.00375   0.00375  -1.18718
   D25        1.91957  -0.00004   0.00000  -0.00133  -0.00133   1.91823
   D26       -3.10575   0.00019   0.00000  -0.02241  -0.02238  -3.12813
   D27        0.00474   0.00021   0.00000  -0.02749  -0.02746  -0.02271
   D28       -0.78681  -0.00002   0.00000  -0.01232  -0.01227  -0.79908
   D29        1.24934   0.00000   0.00000  -0.01227  -0.01222   1.23712
   D30       -2.93640   0.00000   0.00000  -0.01012  -0.01008  -2.94648
   D31        1.30219   0.00008   0.00000  -0.00199  -0.00199   1.30020
   D32       -2.94484   0.00010   0.00000  -0.00194  -0.00194  -2.94678
   D33       -0.84740   0.00010   0.00000   0.00021   0.00020  -0.84720
   D34       -3.09924  -0.00014   0.00000   0.02075   0.02071  -3.07852
   D35       -1.06308  -0.00012   0.00000   0.02080   0.02076  -1.04232
   D36        1.03436  -0.00012   0.00000   0.02295   0.02291   1.05726
   D37        1.33805   0.00002   0.00000  -0.00002  -0.00002   1.33803
   D38       -2.93616  -0.00002   0.00000   0.01315   0.01314  -2.92302
   D39       -0.87691  -0.00005   0.00000   0.00721   0.00721  -0.86970
   D40       -2.85361   0.00000   0.00000  -0.00340  -0.00339  -2.85700
   D41       -0.84463  -0.00004   0.00000   0.00977   0.00976  -0.83487
   D42        1.21461  -0.00007   0.00000   0.00383   0.00384   1.21845
   D43       -0.72578   0.00004   0.00000  -0.00177  -0.00177  -0.72754
   D44        1.28320  -0.00000   0.00000   0.01140   0.01139   1.29459
   D45       -2.94073  -0.00003   0.00000   0.00546   0.00546  -2.93527
   D46        3.11364   0.00004   0.00000  -0.00470  -0.00469   3.10895
   D47       -0.04659   0.00005   0.00000  -0.00717  -0.00717  -0.05376
   D48        0.00180   0.00001   0.00000   0.00011   0.00011   0.00191
   D49        3.12475   0.00002   0.00000  -0.00236  -0.00237   3.12239
   D50       -3.12035  -0.00004   0.00000   0.00533   0.00534  -3.11502
   D51        0.03415  -0.00003   0.00000   0.00465   0.00465   0.03880
   D52       -0.00929  -0.00001   0.00000   0.00032   0.00032  -0.00897
   D53       -3.13798  -0.00000   0.00000  -0.00036  -0.00036  -3.13834
   D54        0.00394  -0.00000   0.00000  -0.00034  -0.00034   0.00361
   D55        3.13817   0.00000   0.00000  -0.00095  -0.00095   3.13722
   D56       -3.11913  -0.00002   0.00000   0.00212   0.00212  -3.11701
   D57        0.01509  -0.00001   0.00000   0.00151   0.00151   0.01660
   D58       -0.00225  -0.00000   0.00000   0.00012   0.00012  -0.00213
   D59        3.13658   0.00000   0.00000  -0.00016  -0.00016   3.13642
   D60       -3.13644  -0.00001   0.00000   0.00074   0.00074  -3.13570
   D61        0.00239  -0.00000   0.00000   0.00046   0.00046   0.00285
   D62       -0.00519   0.00001   0.00000   0.00031   0.00031  -0.00488
   D63        3.13591   0.00000   0.00000   0.00008   0.00008   3.13599
   D64        3.13917   0.00000   0.00000   0.00059   0.00059   3.13976
   D65       -0.00292  -0.00000   0.00000   0.00036   0.00036  -0.00255
   D66        0.01115  -0.00000   0.00000  -0.00054  -0.00054   0.01061
   D67        3.14005  -0.00001   0.00000   0.00014   0.00014   3.14019
   D68       -3.12996   0.00000   0.00000  -0.00031  -0.00031  -3.13026
   D69       -0.00105  -0.00000   0.00000   0.00037   0.00037  -0.00068
   D70       -2.94345  -0.00048   0.00000  -0.07776  -0.07776  -3.02121
   D71       -0.84871  -0.00052   0.00000  -0.08101  -0.08101  -0.92972
   D72        1.26220  -0.00055   0.00000  -0.08019  -0.08019   1.18201
         Item               Value     Threshold  Converged?
 Maximum Force            0.001924     0.000450     NO 
 RMS     Force            0.000192     0.000300     YES
 Maximum Displacement     0.109228     0.001800     NO 
 RMS     Displacement     0.019508     0.001200     NO 
 Predicted change in Energy= 8.917334D-05
 GradGradGradGradGradGradGradGradGradGradGradGradGradGradGradGradGradGrad

                          Input orientation:                          
 ---------------------------------------------------------------------
 Center     Atomic      Atomic             Coordinates (Angstroms)
 Number     Number       Type             X           Y           Z
 ---------------------------------------------------------------------
      1          6           0       -0.917479   -0.567775   -0.055587
      2          6           0       -2.303133   -0.437533    0.147474
      3          8           0       -2.967115    0.577834    0.411693
      4          6           0        0.067016    0.492329    0.201514
      5          6           0       -1.065368    2.504239   -1.123846
      6          1           0       -0.916512    3.295486   -0.381258
      7          1           0       -1.111720    2.949011   -2.125823
      8          1           0       -1.984382    1.955313   -0.879902
      9          7           0        0.069320    1.559864   -1.055725
     10          1           0        0.048520    0.944659   -1.872259
     11          1           0        0.962814    2.061793   -1.082713
     12          6           0        1.499735   -0.042498    0.133639
     13          6           0        1.894949   -0.837843   -0.954556
     14          6           0        3.199858   -1.309047   -1.068273
     15          6           0        4.145149   -0.998937   -0.090257
     16          6           0        3.768685   -0.213078    0.995328
     17          6           0        2.461557    0.265059    1.102549
     18          1           0        1.163679   -1.111472   -1.719650
     19          1           0        3.477872   -1.929097   -1.923398
     20          1           0        5.168405   -1.371089   -0.174115
     21          1           0        4.496318    0.033704    1.771677
     22          1           0        2.198488    0.876780    1.965614
     23          6           0       -0.205943    1.354703    1.431998
     24          1           0       -1.262525    1.646416    1.445737
     25          1           0       -0.023752    0.745754    2.326886
     26          1           0        0.432548    2.251906    1.485036
     27          1           0       -0.550758   -1.560123   -0.312280
     28          8           0       -2.963106   -1.633220   -0.011435
     29          6           0       -4.362554   -1.593103    0.104857
     30          1           0       -4.708935   -2.635027    0.077289
[...]
 Alpha virt. eigenvalues --    2.08721   2.09638   2.11902   2.12651   2.13010
 Alpha virt. eigenvalues --    2.15949   2.16473   2.19008   2.20271   2.21273
 Alpha virt. eigenvalues --    2.23362   2.24040   2.25514   2.28891   2.32135
 Alpha virt. eigenvalues --    2.35354   2.35462   2.37597   2.38759   2.39492
 Alpha virt. eigenvalues --    2.40509   2.41329   2.43101   2.43680   2.45024
 Alpha virt. eigenvalues --    2.46118   2.48521   2.50289   2.50527   2.52534
 Alpha virt. eigenvalues --    2.56573   2.59019   2.61862   2.62666   2.67332
 Alpha virt. eigenvalues --    2.70935   2.71547   2.73054   2.73979   2.76631
 Alpha virt. eigenvalues --    2.77528   2.78872   2.80002   2.81067   2.81840
 Alpha virt. eigenvalues --    2.82464   2.83814   2.87099   2.89981   2.91665
 Alpha virt. eigenvalues --    2.93261   2.96239   2.97176   2.99616   3.02714
 Alpha virt. eigenvalues --    3.03819   3.04191   3.05971   3.08710   3.09983
 Alpha virt. eigenvalues --    3.12354   3.13225   3.16288   3.20928   3.24446
 Alpha virt. eigenvalues --    3.28875   3.31409   3.32511   3.34469   3.47556
 Alpha virt. eigenvalues --    3.58546   3.71238   3.74154   3.82656
          Condensed to atoms (all electrons):
               1          2          3          4          5          6
     1  C    5.738108   0.352985  -0.141275   0.255404   0.002724  -0.000578
     2  C    0.352985   4.449343   0.636632  -0.016503  -0.000907   0.000199
     3  O   -0.141275   0.636632   7.928149   0.016852  -0.017139   0.000477
     4  C    0.255404  -0.016503   0.016852   5.474417  -0.031416  -0.012681
     5  C    0.002724  -0.000907  -0.017139  -0.031416   4.540230   0.395588
     6  H   -0.000578   0.000199   0.000477  -0.012681   0.395588   0.592380
     7  H   -0.000490   0.000014   0.000256   0.005240   0.397465  -0.021129
     8  H   -0.002448   0.000399   0.041316  -0.003705   0.385437  -0.012183
     9  N   -0.092123  -0.004902   0.001553   0.095367   0.303735  -0.015110
    10  H    0.001689   0.006774   0.002427   0.012847  -0.014501   0.005527
    11  H    0.006533  -0.000332  -0.000008  -0.004776  -0.015639  -0.006062
    12  C   -0.051476   0.010349   0.000817   0.166195   0.004266   0.000660
    13  C   -0.014899   0.000362  -0.000004  -0.097468   0.000064   0.000154
    14  C    0.000758  -0.000005  -0.000000   0.013081   0.000009  -0.000001
    15  C    0.000004   0.000000  -0.000000  -0.001744  -0.000001  -0.000000
    16  C   -0.000469   0.000007  -0.000000   0.021151  -0.000001  -0.000005
    17  C    0.007219  -0.000553  -0.000003  -0.089714   0.000139  -0.000151
    18  H    0.018647  -0.000761  -0.000036  -0.014645   0.000026  -0.000023
    19  H   -0.000018  -0.000001   0.000000  -0.000297  -0.000000  -0.000000
    20  H    0.000001   0.000000   0.000000   0.000020   0.000000   0.000000
    21  H    0.000005  -0.000000   0.000000  -0.000276  -0.000000  -0.000000
    22  H    0.000442  -0.000025   0.000004  -0.034897  -0.000089  -0.000080
    23  C   -0.043445  -0.016344  -0.016183   0.402121   0.020659   0.007126
    24  H   -0.024614   0.003019   0.024938   0.007933   0.004761  -0.002373
    25  H   -0.000232  -0.001284   0.000018  -0.009025  -0.000055   0.000110
    26  H    0.009572   0.000999   0.000053   0.004261  -0.002097   0.001062
    27  H    0.404032  -0.010850   0.004199  -0.062927  -0.000052   0.000004
    28  O   -0.131497   0.364734  -0.083525   0.005267  -0.000041   0.000001
    29  C    0.010642  -0.039265   0.001376  -0.000479   0.000006   0.000000
    30  H    0.000165   0.005688   0.001056   0.000001  -0.000000  -0.000000
    31  H    0.000780  -0.005479   0.009383   0.000055   0.000004  -0.000000
    32  H    0.001087  -0.003957   0.008339   0.000047  -0.000005   0.000000
               7          8          9         10         11         12
     1  C   -0.000490  -0.002448  -0.092123   0.001689   0.006533  -0.051476
     2  C    0.000014   0.000399  -0.004902   0.006774  -0.000332   0.010349
     3  O    0.000256   0.041316   0.001553   0.002427  -0.000008   0.000817
     4  C    0.005240  -0.003705   0.095367   0.012847  -0.004776   0.166195
     5  C    0.397465   0.385437   0.303735  -0.014501  -0.015639   0.004266
     6  H   -0.021129  -0.012183  -0.015110   0.005527  -0.006062   0.000660
     7  H    0.588701  -0.014125  -0.016520  -0.006381  -0.005448  -0.000278
     8  H   -0.014125   0.520897  -0.016636  -0.004430   0.005267   0.000369
     9  N   -0.016520  -0.016636   6.306318   0.320757   0.332737  -0.025183
    10  H   -0.006381  -0.004430   0.320757   0.491710  -0.007052  -0.008737
    11  H   -0.005448   0.005267   0.332737  -0.007052   0.509025  -0.008659
    12  C   -0.000278   0.000369  -0.025183  -0.008737  -0.008659   5.496677
    13  C   -0.000073  -0.000020  -0.010226   0.005242   0.005563   0.273928
    14  C   -0.000001  -0.000001  -0.000343   0.000123  -0.000338   0.071187
    15  C    0.000000   0.000000   0.000046   0.000008  -0.000030  -0.142766
    16  C    0.000000  -0.000001  -0.000177   0.000003  -0.000306   0.065550
    17  C   -0.000005  -0.000017  -0.000186  -0.000370   0.002140   0.344462
    18  H   -0.000012   0.000008  -0.003162   0.002186   0.001867  -0.080216
    19  H    0.000000   0.000000   0.000003  -0.000006   0.000013   0.014306
    20  H   -0.000000   0.000000  -0.000000   0.000000  -0.000003  -0.001482
    21  H    0.000000   0.000000   0.000002  -0.000000   0.000002   0.014434
    22  H    0.000000   0.000011   0.000377  -0.000021   0.000106  -0.050059
    23  C   -0.000267  -0.001566  -0.060138   0.006037   0.002687  -0.069451
    24  H    0.000183  -0.001098  -0.010357   0.000260  -0.000160   0.007029
    25  H   -0.000017   0.000088   0.005998  -0.000250  -0.000241  -0.008940
    26  H    0.000315  -0.000662  -0.002466  -0.000740   0.000621  -0.016193
    27  H    0.000011  -0.000131   0.003452   0.000461  -0.000100  -0.004261
    28  O    0.000001   0.000299   0.000052  -0.000509   0.000003  -0.000017
    29  C    0.000000  -0.000037   0.000012  -0.000041  -0.000001   0.000005
    30  H   -0.000000   0.000001   0.000000  -0.000002   0.000000  -0.000001
    31  H    0.000000  -0.000046   0.000004  -0.000032  -0.000000   0.000001
    32  H   -0.000002   0.000043  -0.000026   0.000166   0.000001  -0.000004
              13         14         15         16         17         18
     1  C   -0.014899   0.000758   0.000004  -0.000469   0.007219   0.018647
     2  C    0.000362  -0.000005   0.000000   0.000007  -0.000553  -0.000761
     3  O   -0.000004  -0.000000  -0.000000  -0.000000  -0.000003  -0.000036
     4  C   -0.097468   0.013081  -0.001744   0.021151  -0.089714  -0.014645
     5  C    0.000064   0.000009  -0.000001  -0.000001   0.000139   0.000026
     6  H    0.000154  -0.000001  -0.000000  -0.000005  -0.000151  -0.000023
     7  H   -0.000073  -0.000001   0.000000   0.000000  -0.000005  -0.000012
     8  H   -0.000020  -0.000001   0.000000  -0.000001  -0.000017   0.000008
     9  N   -0.010226  -0.000343   0.000046  -0.000177  -0.000186  -0.003162
    10  H    0.005242   0.000123   0.000008   0.000003  -0.000370   0.002186
    11  H    0.005563  -0.000338  -0.000030  -0.000306   0.002140   0.001867
    12  C    0.273928   0.071187  -0.142766   0.065550   0.344462  -0.080216
    13  C    5.177302   0.323132   0.073158  -0.131976   0.031706   0.453624
    14  C    0.323132   5.021754   0.296290   0.075205  -0.122566  -0.055166
    15  C    0.073158   0.296290   5.076895   0.305238   0.068687   0.013101
    16  C   -0.131976   0.075205   0.305238   5.061500   0.301166  -0.002029
    17  C    0.031706  -0.122566   0.068687   0.301166   5.068345   0.012878
    18  H    0.453624  -0.055166   0.013101  -0.002029   0.012878   0.643061
    19  H   -0.063372   0.449286  -0.067074   0.012345  -0.001627  -0.011542
    20  H    0.012520  -0.064075   0.447533  -0.062609   0.012556  -0.000187
    21  H   -0.001599   0.012221  -0.067268   0.445037  -0.058967   0.000021
    22  H    0.013412  -0.001868   0.013116  -0.067820   0.448239  -0.000137
    23  C    0.014781  -0.000475   0.000143  -0.000907   0.009331   0.000964
    24  H   -0.000096   0.000006   0.000003  -0.000045   0.000707   0.000051
    25  H   -0.000133   0.000024  -0.000048   0.000671   0.000073  -0.000029
    26  H   -0.001273  -0.000002  -0.000050   0.000934   0.004110  -0.000094
    27  H   -0.003707   0.000734  -0.000098   0.000005   0.000463   0.000716
    28  O   -0.000021  -0.000000  -0.000000   0.000000   0.000000  -0.000018
    29  C    0.000000   0.000000  -0.000000   0.000000  -0.000000  -0.000004
    30  H    0.000000  -0.000000   0.000000  -0.000000   0.000000   0.000000
    31  H   -0.000000  -0.000000  -0.000000  -0.000000   0.000000  -0.000000
    32  H    0.000001   0.000000  -0.000000   0.000000  -0.000000   0.000000
              19         20         21         22         23         24
     1  C   -0.000018   0.000001   0.000005   0.000442  -0.043445  -0.024614
     2  C   -0.000001   0.000000  -0.000000  -0.000025  -0.016344   0.003019
     3  O    0.000000   0.000000   0.000000   0.000004  -0.016183   0.024938
     4  C   -0.000297   0.000020  -0.000276  -0.034897   0.402121   0.007933
     5  C   -0.000000   0.000000  -0.000000  -0.000089   0.020659   0.004761
     6  H   -0.000000   0.000000  -0.000000  -0.000080   0.007126  -0.002373
     7  H    0.000000  -0.000000   0.000000   0.000000  -0.000267   0.000183
     8  H    0.000000   0.000000   0.000000   0.000011  -0.001566  -0.001098
     9  N    0.000003  -0.000000   0.000002   0.000377  -0.060138  -0.010357
    10  H   -0.000006   0.000000  -0.000000  -0.000021   0.006037   0.000260
    11  H    0.000013  -0.000003   0.000002   0.000106   0.002687  -0.000160
    12  C    0.014306  -0.001482   0.014434  -0.050059  -0.069451   0.007029
    13  C   -0.063372   0.012520  -0.001599   0.013412   0.014781  -0.000096
    14  C    0.449286  -0.064075   0.012221  -0.001868  -0.000475   0.000006
    15  C   -0.067074   0.447533  -0.067268   0.013116   0.000143   0.000003
    16  C    0.012345  -0.062609   0.445037  -0.067820  -0.000907  -0.000045
    17  C   -0.001627   0.012556  -0.058967   0.448239   0.009331   0.000707
    18  H   -0.011542  -0.000187   0.000021  -0.000137   0.000964   0.000051
    19  H    0.647174  -0.010563  -0.000208   0.000023   0.000004  -0.000000
    20  H   -0.010563   0.644721  -0.010587  -0.000202   0.000000   0.000000
    21  H   -0.000208  -0.010587   0.649008  -0.011790  -0.000002  -0.000000
    22  H    0.000023  -0.000202  -0.011790   0.653590   0.019736   0.000023
    23  C    0.000004   0.000000  -0.000002   0.019736   4.543068   0.373654
    24  H   -0.000000   0.000000  -0.000000   0.000023   0.373654   0.594123
    25  H    0.000000  -0.000000   0.000011   0.000632   0.388112  -0.012009
    26  H    0.000000  -0.000000   0.000019  -0.001144   0.355338  -0.027056
    27  H    0.000040  -0.000001   0.000000   0.000011   0.002023   0.000047
    28  O    0.000000  -0.000000   0.000000   0.000000  -0.000167   0.000069
    29  C   -0.000000   0.000000  -0.000000  -0.000000   0.000009  -0.000067
    30  H   -0.000000  -0.000000   0.000000  -0.000000   0.000002  -0.000003
    31  H    0.000000  -0.000000  -0.000000  -0.000000  -0.000037   0.000159
    32  H   -0.000000  -0.000000   0.000000  -0.000000   0.000014  -0.000049
              25         26         27         28         29         30
     1  C   -0.000232   0.009572   0.404032  -0.131497   0.010642   0.000165
     2  C   -0.001284   0.000999  -0.010850   0.364734  -0.039265   0.005688
     3  O    0.000018   0.000053   0.004199  -0.083525   0.001376   0.001056
     4  C   -0.009025   0.004261  -0.062927   0.005267  -0.000479   0.000001
     5  C   -0.000055  -0.002097  -0.000052  -0.000041   0.000006  -0.000000
     6  H    0.000110   0.001062   0.000004   0.000001   0.000000  -0.000000
     7  H   -0.000017   0.000315   0.000011   0.000001   0.000000  -0.000000
     8  H    0.000088  -0.000662  -0.000131   0.000299  -0.000037   0.000001
     9  N    0.005998  -0.002466   0.003452   0.000052   0.000012   0.000000
    10  H   -0.000250  -0.000740   0.000461  -0.000509  -0.000041  -0.000002
    11  H   -0.000241   0.000621  -0.000100   0.000003  -0.000001   0.000000
    12  C   -0.008940  -0.016193  -0.004261  -0.000017   0.000005  -0.000001
    13  C   -0.000133  -0.001273  -0.003707  -0.000021   0.000000   0.000000
    14  C    0.000024  -0.000002   0.000734  -0.000000   0.000000  -0.000000
    15  C   -0.000048  -0.000050  -0.000098  -0.000000  -0.000000   0.000000
    16  C    0.000671   0.000934   0.000005   0.000000   0.000000  -0.000000
    17  C    0.000073   0.004110   0.000463   0.000000  -0.000000   0.000000
    18  H   -0.000029  -0.000094   0.000716  -0.000018  -0.000004   0.000000
    19  H    0.000000   0.000000   0.000040   0.000000  -0.000000  -0.000000
    20  H   -0.000000  -0.000000  -0.000001  -0.000000   0.000000  -0.000000
    21  H    0.000011   0.000019   0.000000   0.000000  -0.000000   0.000000
    22  H    0.000632  -0.001144   0.000011   0.000000  -0.000000  -0.000000
    23  C    0.388112   0.355338   0.002023  -0.000167   0.000009   0.000002
    24  H   -0.012009  -0.027056   0.000047   0.000069  -0.000067  -0.000003
    25  H    0.604333  -0.024925   0.000784  -0.000010  -0.000001  -0.000000
    26  H   -0.024925   0.682684  -0.000158  -0.000000   0.000000   0.000000
    27  H    0.000784  -0.000158   0.658648   0.006007  -0.000183  -0.000177
    28  O   -0.000010  -0.000000   0.006007   8.011965   0.289109  -0.025949
    29  C   -0.000001   0.000000  -0.000183   0.289109   4.392615   0.395434
    30  H   -0.000000   0.000000  -0.000177  -0.025949   0.395434   0.645784
    31  H    0.000001   0.000001   0.000027  -0.030504   0.401683  -0.027324
    32  H   -0.000000  -0.000001   0.000032  -0.031987   0.397289  -0.027668
              31         32
     1  C    0.000780   0.001087
     2  C   -0.005479  -0.003957
     3  O    0.009383   0.008339
     4  C    0.000055   0.000047
     5  C    0.000004  -0.000005
     6  H   -0.000000   0.000000
     7  H    0.000000  -0.000002
     8  H   -0.000046   0.000043
     9  N    0.000004  -0.000026
    10  H   -0.000032   0.000166
    11  H   -0.000000   0.000001
    12  C    0.000001  -0.000004
    13  C   -0.000000   0.000001
    14  C   -0.000000   0.000000
    15  C   -0.000000  -0.000000
    16  C   -0.000000   0.000000
    17  C    0.000000  -0.000000
    18  H   -0.000000   0.000000
    19  H    0.000000  -0.000000
    20  H   -0.000000  -0.000000
    21  H   -0.000000   0.000000
    22  H   -0.000000  -0.000000
    23  C   -0.000037   0.000014
    24  H    0.000159  -0.000049
    25  H    0.000001  -0.000000
    26  H    0.000001  -0.000001
    27  H    0.000027   0.000032
    28  O   -0.030504  -0.031987
    29  C    0.401683   0.397289
    30  H   -0.027324  -0.027668
    31  H    0.663687  -0.038576
    32  H   -0.038576   0.676408
 Mulliken charges:
               1
     1  C   -0.307232
     2  C    0.269665
     3  O   -0.419671
     4  C   -0.099706
     5  C    0.026829
     6  H    0.067088
     7  H    0.072563
     8  H    0.102969
     9  N   -0.112858
    10  H    0.186853
    11  H    0.182590
    12  C   -0.002513
    13  C   -0.060083
    14  C   -0.018968
    15  C   -0.015143
    16  C   -0.022466
    17  C   -0.038061
    18  H    0.020913
    19  H    0.031513
    20  H    0.032358
    21  H    0.029939
    22  H    0.018412
    23  C    0.063171
    24  H    0.060961
    25  H    0.056346
    26  H    0.016892
    27  H    0.000946
    28  O   -0.373261
    29  C    0.151899
    30  H    0.032993
    31  H    0.026214
    32  H    0.018849
 Sum of Mulliken charges =  -0.00000
 Mulliken charges with hydrogens summed into heavy atoms:
               1
     1  C   -0.306286
     2  C    0.269665
     3  O   -0.419671
     4  C   -0.099706
     5  C    0.269448
     9  N    0.256585
    12  C   -0.002513
    13  C   -0.039170
    14  C    0.012544
    15  C    0.017215
    16  C    0.007473
    17  C   -0.019649
    23  C    0.197371
    28  O   -0.373261
    29  C    0.229955
 Electronic spatial extent (au):  <R**2>=           3887.8813
 Charge=              0.0000 electrons
 Dipole moment (field-independent basis, Debye):
    X=              5.2348    Y=              4.0259    Z=             -3.3733  Tot=              7.4156
 Quadrupole moment (field-independent basis, Debye-Ang):
   XX=            -92.5010   YY=            -85.3909   ZZ=            -82.7108
   XY=              0.2296   XZ=              2.1491   YZ=             -1.0287
 Traceless Quadrupole moment (field-independent basis, Debye-Ang):
   XX=             -5.6334   YY=              1.4767   ZZ=              4.1568
   XY=              0.2296   XZ=              2.1491   YZ=             -1.0287
 Octapole moment (field-independent basis, Debye-Ang**2):
  XXX=             15.3095  YYY=             30.7324  ZZZ=            -14.9350  XYY=             -3.6779
  XXY=            -25.0015  XXZ=              2.0813  XZZ=             -6.2025  YZZ=             11.7476
  YYZ=            -16.7783  XYZ=             10.1398
 Hexadecapole moment (field-independent basis, Debye-Ang**3):
 XXXX=          -3435.1488 YYYY=           -913.4307 ZZZZ=           -450.4445 XXXY=             50.3213
 XXXZ=             24.8066 YYYX=             -2.7336 YYYZ=            -21.7001 ZZZX=              7.9165
 ZZZY=            -13.7802 XXYY=           -775.8002 XXZZ=           -683.5525 YYZZ=           -219.4849
 XXYZ=             29.7156 YYXZ=             -8.2261 ZZXY=             -1.2226
 N-N= 1.010472726036D+03 E-N=-3.583077307686D+03  KE= 6.648222634519D+02
 Unable to Open any file for archive entry.
 1\1\GINC-NODE-008\FTS\RwB97XD\def2SVP\C12H17N1O2\JP2658\21-Dec-2023\0\
 \# wb97xd def2svp geom=allchk scrf=(iefpcm,solvent=toluene) opt=(readf
 c,ts,noeigen,maxcycles=50,maxstep=10)\\TS-92_opt_hf_re.out\\0,1\C,-0.8
 892598811,-0.7469382397,0.1225095321\C,-2.2752352894,-0.5377807358,0.0
 81632146\O,-2.8713790012,0.5518222351,0.0076123804\C,0.0374715604,0.39
 03759007,0.2762113905\C,-0.8593061926,2.656497834,-0.9493414605\H,-0.2
 747942366,3.3407013212,-0.3254107284\H,-0.9699620549,3.0858214606,-1.9
 538701813\H,-1.842190275,2.4581837538,-0.5090138776\N,-0.1618208446,1.
 3614492419,-1.0591804611\H,-0.6994104248,0.731902577,-1.663588921\H,0.
 7554045642,1.486519003,-1.4950079424\C,1.4962118841,-0.0502943061,0.16
 16349995\C,1.8778080418,-0.8927100373,-0.8948436959\C,3.2024984284,-1.
 2892683521,-1.056631927\C,4.1780380733,-0.8556677059,-0.1584934517\C,3
 .8135135057,-0.0224421004,0.8959007546\C,2.4863601573,0.3809190087,1.0
 512141584\H,1.1160131942,-1.2540084183,-1.5900013996\H,3.4728283254,-1
 .9480939006,-1.8848198186\H,5.2171431096,-1.1692763451,-0.2793621521\H
 ,4.5665686239,0.3197079189,1.6092323237\H,2.2313560482,1.0315648892,1.
 8879185858\C,-0.2377020387,1.2797072021,1.4874922636\H,-1.3043319372,1
 .5297561617,1.5200391698\H,-0.0033674526,0.6954541237,2.3870608884\H,0
 .3587822876,2.2048940644,1.5130380692\H,-0.4961192131,-1.7616115314,0.
 1260065922\O,-3.0058052401,-1.6990901342,0.0842421358\C,-4.3973812574,
 -1.5574289244,-0.0484041463\H,-4.8180161,-2.5717005957,-0.0310654657\H
 ,-4.8318726581,-0.9672209517,0.7740000493\H,-4.6737037065,-1.064114417
 2,-0.99472981\\Version=ES64L-G16RevC.01\State=1-A\HF=-671.970648\RMSD=
 7.965e-09\RMSF=3.366e-06\Dipole=2.0307541,1.7041984,-1.2180315\Quadrup
 ole=-4.231343,1.1814924,3.0498506,-0.0445647,1.5304899,-0.8190429\PG=C
 01 [X(C12H17N1O2)]\\@
 The archive entry for this job was punched.


 HOW IS IT THAT THE SKY FEEDS THE STARS?

                           -- LUCRETIUS
 Job cpu time:       0 days  5 hours 31 minutes 44.1 seconds.
 Elapsed time:       0 days  0 hours 28 minutes 19.1 seconds.
 File lengths (MBytes):  RWF=    219 Int=      0 D2E=      0 Chk=     15 Scr=      1
 Normal termination of Gaussian 16 at Thu Dec 21 13:52:20 2023.
