Unloading slurm/anatra/current
  ERROR: No such file or directory on
    '/cm/local/modulefiles/slurm/anatra/current'
environment: line 0: unalias: gv: not found
environment: line 0: unalias: sl: not found
 Entering Gaussian System, Link 0=g16
 Initial command:
 /apps/gaussian/g16/C.01/g16/l1.exe "/local/jobs/1152871/Gau-774083.inp" -scrdir="/local/jobs/1152871/"
 Entering Link 1 = /apps/gaussian/g16/C.01/g16/l1.exe PID=    774085.
  
 Copyright (c) 1988-2019, Gaussian, Inc.  All Rights Reserved.
  
 This is part of the Gaussian(R) 16 program.  It is based on
 the Gaussian(R) 09 system (copyright 2009, Gaussian, Inc.),
 the Gaussian(R) 03 system (copyright 2003, Gaussian, Inc.),
 the Gaussian(R) 98 system (copyright 1998, Gaussian, Inc.),
 the Gaussian(R) 94 system (copyright 1995, Gaussian, Inc.),
 the Gaussian 92(TM) system (copyright 1992, Gaussian, Inc.),
 the Gaussian 90(TM) system (copyright 1990, Gaussian, Inc.),
 the Gaussian 88(TM) system (copyright 1988, Gaussian, Inc.),
 the Gaussian 86(TM) system (copyright 1986, Carnegie Mellon
 University), and the Gaussian 82(TM) system (copyright 1983,
 Carnegie Mellon University). Gaussian is a federally registered
 trademark of Gaussian, Inc.
  
 This software contains proprietary and confidential information,
 including trade secrets, belonging to Gaussian, Inc.
  
 This software is provided under written license and may be
 used, copied, transmitted, or stored only in accord with that
 written license.
  
 The following legend is applicable only to US Government
 contracts under FAR:
  
                    RESTRICTED RIGHTS LEGEND
  
 Use, reproduction and disclosure by the US Government is
 subject to restrictions as set forth in subparagraphs (a)
 and (c) of the Commercial Computer Software - Restricted
 Rights clause in FAR 52.227-19.
  
 Gaussian, Inc.
 340 Quinnipiac St., Bldg. 40, Wallingford CT 06492
  
  
 ---------------------------------------------------------------
 Warning -- This program may not be used in any manner that
 competes with the business of Gaussian, Inc. or will provide
 assistance to any competitor of Gaussian, Inc.  The licensee
 of this program is prohibited from giving any competitor of
 Gaussian, Inc. access to this program.  By using this program,
 the user acknowledges that Gaussian, Inc. is engaged in the
 business of creating and licensing software in the field of
 computational chemistry and represents and warrants to the
 licensee that it is not a competitor of Gaussian, Inc. and that
 it will not use this program in any manner prohibited above.
 ---------------------------------------------------------------
  

 Cite this work as:
 Gaussian 16, Revision C.01,
 M. J. Frisch, G. W. Trucks, H. B. Schlegel, G. E. Scuseria, 
 M. A. Robb, J. R. Cheeseman, G. Scalmani, V. Barone, 
 G. A. Petersson, H. Nakatsuji, X. Li, M. Caricato, A. V. Marenich, 
 J. Bloino, B. G. Janesko, R. Gomperts, B. Mennucci, H. P. Hratchian, 
 J. V. Ortiz, A. F. Izmaylov, J. L. Sonnenberg, D. Williams-Young, 
 F. Ding, F. Lipparini, F. Egidi, J. Goings, B. Peng, A. Petrone, 
 T. Henderson, D. Ranasinghe, V. G. Zakrzewski, J. Gao, N. Rega, 
 G. Zheng, W. Liang, M. Hada, M. Ehara, K. Toyota, R. Fukuda, 
 J. Hasegawa, M. Ishida, T. Nakajima, Y. Honda, O. Kitao, H. Nakai, 
 T. Vreven, K. Throssell, J. A. Montgomery, Jr., J. E. Peralta, 
 F. Ogliaro, M. J. Bearpark, J. J. Heyd, E. N. Brothers, K. N. Kudin, 
 V. N. Staroverov, T. A. Keith, R. Kobayashi, J. Normand, 
 K. Raghavachari, A. P. Rendell, J. C. Burant, S. S. Iyengar, 
 J. Tomasi, M. Cossi, J. M. Millam, M. Klene, C. Adamo, R. Cammi, 
 J. W. Ochterski, R. L. Martin, K. Morokuma, O. Farkas, 
 J. B. Foresman, and D. J. Fox, Gaussian, Inc., Wallingford CT, 2019.
 
 ******************************************
 Gaussian 16:  ES64L-G16RevC.01  3-Jul-2019
                24-Dec-2023 
 ******************************************
 %chk=TS-92_opt_sqm_re.chk
 %nprocshared=12
 Will use up to   12 processors via shared memory.
 %mem=48GB
 ----------------------------------------------------------------------
 # wb97xd def2svp geom=allchk scrf=(iefpcm,solvent=toluene) opt=(readfc
 ,ts,noeigen,maxcycles=50,maxstep=10)
 ----------------------------------------------------------------------
 1/5=1,6=50,8=10,10=3,11=1,18=20,26=3,29=7,38=1/1,3;
 2/9=110,12=2,40=1/2;
 3/5=43,7=101,11=2,14=-4,25=1,30=1,70=2201,71=1,72=13,74=-58/1,2,3;
 4//1;
 5/5=2,38=5,53=13/2;
 6/7=2,8=2,9=2,10=2,28=1/1;
 7//1,2,3,16;
 1/5=1,6=50,8=10,11=1,18=20,26=3/3(2);
 2/9=110/2;
 99//99;
 2/9=110/2;
 3/5=43,7=101,11=2,14=-2,25=1,30=1,70=2205,71=1,72=13,74=-58/1,2,3;
 4/5=5,16=3,69=1/1;
 5/5=2,38=5,53=13/2;
 7//1,2,3,16;
 1/5=1,6=50,8=10,11=1,18=20,26=3/3(-5);
 2/9=110/2;
 6/7=2,8=2,9=2,10=2,19=2,28=1/1;
 99/9=1/99;
 Structure from the checkpoint file:  "TS-92_opt_sqm_re.chk"
 ---------------------
 TS-92_opt_sqm_re3.out
 ---------------------
 Charge =  0 Multiplicity = 1
 Redundant internal coordinates found in file.  (old form).
 C,0,-0.9126,-0.59362,-0.01253
 C,0,-2.29942,-0.44188,0.14842
 O,0,-2.96112,0.59541,0.32783
 C,0,0.0668,0.49166,0.19822
 C,0,-1.04595,2.51025,-1.11172
 H,0,-0.82828,3.29042,-0.37478
 H,0,-1.08715,2.95538,-2.1136
 H,0,-1.98673,2.00874,-0.84431
 N,0,0.03131,1.4963,-1.07672
 H,0,-0.09574,0.84967,-1.86015
 H,0,0.94879,1.93788,-1.19628
 C,0,1.50274,-0.03935,0.13413
 C,0,1.88887,-0.86715,-0.93277
 C,0,3.19496,-1.3352,-1.04637
 C,0,4.14908,-0.99072,-0.08873
 C,0,3.78085,-0.1736,0.97642
 C,0,2.4727,0.30174,1.08338
 H,0,1.14876,-1.16956,-1.67795
 H,0,3.46687,-1.98001,-1.88497
 H,0,5.17306,-1.36102,-0.17206
 H,0,4.51558,0.09994,1.73689
 H,0,2.21652,0.93854,1.93014
 C,0,-0.20027,1.37029,1.42008
 H,0,-1.25912,1.65314,1.43918
 H,0,-0.00423,0.77137,2.31859
 H,0,0.42972,2.27409,1.45874
 H,0,-0.5366,-1.60238,-0.17352
 O,0,-2.96891,-1.63977,0.05769
 C,0,-4.3698,-1.57609,0.13339
 H,0,-4.79852,-0.94911,-0.66531
 H,0,-4.73561,-2.60592,0.02328
 H,0,-4.714,-1.16833,1.09737
 Recover connectivity data from disk.

 GradGradGradGradGradGradGradGradGradGradGradGradGradGradGradGradGradGrad
 Berny optimization.
 Initialization pass.
 Force constant matrix read from checkpoint file:
 "TS-92_opt_sqm_re.chk"
                           ----------------------------
                           !    Initial Parameters    !
                           ! (Angstroms and Degrees)  !
 --------------------------                            --------------------------
 ! Name  Definition              Value          Derivative Info.                !
 --------------------------------------------------------------------------------
 ! R1    R(1,2)                  1.4044         D2E/DX2 =    0.535              !
 ! R2    R(1,4)                  1.477          D2E/DX2 =    0.4137             !
 ! R3    R(1,27)                 1.0885         D2E/DX2 =    0.2721             !
 ! R4    R(2,3)                  1.2434         D2E/DX2 =    0.7303             !
 ! R5    R(2,28)                 1.3753         D2E/DX2 =    0.4395             !
 ! R6    R(4,9)                  1.6236         D2E/DX2 =    0.2192             !
 ! R7    R(4,12)                 1.5323         D2E/DX2 =    0.3598             !
 ! R8    R(4,23)                 1.5285         D2E/DX2 =    0.3663             !
 ! R9    R(5,6)                  1.095          D2E/DX2 =    0.2674             !
 ! R10   R(5,7)                  1.0971         D2E/DX2 =    0.2647             !
 ! R11   R(5,8)                  1.0991         D2E/DX2 =    0.2551             !
 ! R12   R(5,9)                  1.4798         D2E/DX2 =    0.4607             !
 ! R13   R(9,10)                 1.0237         D2E/DX2 =    0.2812             !
 ! R14   R(9,11)                 1.0252         D2E/DX2 =    0.2767             !
 ! R15   R(12,13)                1.4045         D2E/DX2 =    0.4557             !
 ! R16   R(12,17)                1.3994         D2E/DX2 =    0.4648             !
 ! R17   R(13,14)                1.3921         D2E/DX2 =    0.4772             !
 ! R18   R(13,18)                1.0929         D2E/DX2 =    0.269              !
 ! R19   R(14,15)                1.395          D2E/DX2 =    0.4721             !
 ! R20   R(14,19)                1.0922         D2E/DX2 =    0.2705             !
 ! R21   R(15,16)                1.3921         D2E/DX2 =    0.4789             !
 ! R22   R(15,20)                1.0921         D2E/DX2 =    0.2703             !
 ! R23   R(16,17)                1.3959         D2E/DX2 =    0.4681             !
 ! R24   R(16,21)                1.0922         D2E/DX2 =    0.2706             !
 ! R25   R(17,22)                1.09           D2E/DX2 =    0.2703             !
 ! R26   R(23,24)                1.0961         D2E/DX2 =    0.2638             !
 ! R27   R(23,25)                1.0975         D2E/DX2 =    0.2672             !
 ! R28   R(23,26)                1.1024         D2E/DX2 =    0.2601             !
 ! R29   R(28,29)                1.4044         D2E/DX2 =    0.456              !
 ! R30   R(29,30)                1.1022         D2E/DX2 =    0.2585             !
 ! R31   R(29,31)                1.0984         D2E/DX2 =    0.263              !
 ! R32   R(29,32)                1.1018         D2E/DX2 =    0.2594             !
 ! A1    A(2,1,4)              123.9925         D2E/DX2 =    0.173              !
 ! A2    A(2,1,27)             117.2705         D2E/DX2 =    0.1013             !
 ! A3    A(4,1,27)             118.2294         D2E/DX2 =    0.1041             !
 ! A4    A(1,2,3)              129.2134         D2E/DX2 =    0.1502             !
 ! A5    A(1,2,28)             112.275          D2E/DX2 =    0.138              !
 ! A6    A(3,2,28)             118.496          D2E/DX2 =    0.1738             !
 ! A7    A(1,4,9)              109.1554         D2E/DX2 =    0.0388             !
 ! A8    A(1,4,12)             111.1492         D2E/DX2 =    0.0385             !
 ! A9    A(1,4,23)             114.8718         D2E/DX2 =    0.0427             !
 ! A10   A(9,4,12)             101.6581         D2E/DX2 =    0.0394             !
 ! A11   A(9,4,23)             105.5582         D2E/DX2 =    0.0521             !
 ! A12   A(12,4,23)            113.352          D2E/DX2 =    0.0416             !
 ! A13   A(6,5,7)              109.4491         D2E/DX2 =    0.0442             !
 ! A14   A(6,5,8)              109.3591         D2E/DX2 =    0.0435             !
 ! A15   A(6,5,9)              109.12           D2E/DX2 =    0.1214             !
 ! A16   A(7,5,8)              112.0345         D2E/DX2 =    0.0451             !
 ! A17   A(7,5,9)              109.0836         D2E/DX2 =    0.1179             !
 ! A18   A(8,5,9)              107.7404         D2E/DX2 =    0.1302             !
 ! A19   A(4,9,5)              117.2883         D2E/DX2 =    0.1846             !
 ! A20   A(4,9,10)             102.2867         D2E/DX2 =    0.054              !
 ! A21   A(4,9,11)             109.7877         D2E/DX2 =    0.0617             !
 ! A22   A(5,9,10)             108.9262         D2E/DX2 =    0.0507             !
 ! A23   A(5,9,11)             110.7073         D2E/DX2 =    0.0637             !
 ! A24   A(10,9,11)            107.0903         D2E/DX2 =    0.0169             !
 ! A25   A(4,12,13)            119.5808         D2E/DX2 =    0.1399             !
 ! A26   A(4,12,17)            122.4595         D2E/DX2 =    0.1464             !
 ! A27   A(13,12,17)           117.9297         D2E/DX2 =    0.0835             !
 ! A28   A(12,13,14)           121.205          D2E/DX2 =    0.0789             !
 ! A29   A(12,13,18)           119.659          D2E/DX2 =    0.0803             !
 ! A30   A(14,13,18)           119.1227         D2E/DX2 =    0.0801             !
 ! A31   A(13,14,15)           120.1761         D2E/DX2 =    0.0767             !
 ! A32   A(13,14,19)           119.6516         D2E/DX2 =    0.0766             !
 ! A33   A(15,14,19)           120.1705         D2E/DX2 =    0.0762             !
 ! A34   A(14,15,16)           119.2939         D2E/DX2 =    0.0761             !
 ! A35   A(14,15,20)           120.3442         D2E/DX2 =    0.0756             !
 ! A36   A(16,15,20)           120.3615         D2E/DX2 =    0.0757             !
 ! A37   A(15,16,17)           120.4239         D2E/DX2 =    0.0769             !
 ! A38   A(15,16,21)           120.12           D2E/DX2 =    0.0765             !
 ! A39   A(17,16,21)           119.456          D2E/DX2 =    0.0768             !
 ! A40   A(12,17,16)           120.969          D2E/DX2 =    0.0783             !
 ! A41   A(12,17,22)           120.4276         D2E/DX2 =    0.0805             !
 ! A42   A(16,17,22)           118.6004         D2E/DX2 =    0.0817             !
 ! A43   A(4,23,24)            109.3322         D2E/DX2 =    0.1074             !
 ! A44   A(4,23,25)            108.0323         D2E/DX2 =    0.0945             !
 ! A45   A(4,23,26)            113.545          D2E/DX2 =    0.0936             !
 ! A46   A(24,23,25)           107.4038         D2E/DX2 =    0.0392             !
 ! A47   A(24,23,26)           109.8689         D2E/DX2 =    0.0451             !
 ! A48   A(25,23,26)           108.459          D2E/DX2 =    0.0414             !
 ! A49   A(2,28,29)            116.2662         D2E/DX2 =    0.3078             !
 ! A50   A(28,29,30)           112.0081         D2E/DX2 =    0.1179             !
 ! A51   A(28,29,31)           106.5167         D2E/DX2 =    0.1106             !
 ! A52   A(28,29,32)           112.0588         D2E/DX2 =    0.1177             !
 ! A53   A(30,29,31)           109.3386         D2E/DX2 =    0.0527             !
 ! A54   A(30,29,32)           107.5756         D2E/DX2 =    0.0529             !
 ! A55   A(31,29,32)           109.3077         D2E/DX2 =    0.0531             !
 ! D1    D(4,1,2,3)              9.1836         D2E/DX2 =    0.0137             !
 ! D2    D(4,1,2,28)          -172.2969         D2E/DX2 =    0.0156             !
 ! D3    D(27,1,2,3)          -179.1538         D2E/DX2 =    0.0166             !
 ! D4    D(27,1,2,28)           -0.6343         D2E/DX2 =    0.0147             !
 ! D5    D(2,1,4,9)            -76.5703         D2E/DX2 =    0.0217             !
 ! D6    D(2,1,4,12)           172.0994         D2E/DX2 =    0.0145             !
 ! D7    D(2,1,4,23)            41.7239         D2E/DX2 =    0.0152             !
 ! D8    D(27,1,4,9)           111.8414         D2E/DX2 =    0.0176             !
 ! D9    D(27,1,4,12)            0.5111         D2E/DX2 =    0.0115             !
 ! D10   D(27,1,4,23)         -129.8644         D2E/DX2 =    0.0131             !
 ! D11   D(1,2,28,29)         -176.632          D2E/DX2 =    0.0157             !
 ! D12   D(3,2,28,29)            2.0628         D2E/DX2 =    0.012              !
 ! D13   D(1,4,9,5)             80.88           D2E/DX2 =    0.0215             !
 ! D14   D(1,4,9,10)           -38.1899         D2E/DX2 =    0.0191             !
 ! D15   D(1,4,9,11)          -151.6429         D2E/DX2 =    0.0198             !
 ! D16   D(12,4,9,5)          -161.6257         D2E/DX2 =    0.0186             !
 ! D17   D(12,4,9,10)           79.3045         D2E/DX2 =    0.0195             !
 ! D18   D(12,4,9,11)          -34.1486         D2E/DX2 =    0.0184             !
 ! D19   D(23,4,9,5)           -43.099          D2E/DX2 =    0.0194             !
 ! D20   D(23,4,9,10)         -162.1689         D2E/DX2 =    0.0198             !
 ! D21   D(23,4,9,11)           84.378          D2E/DX2 =    0.0181             !
 ! D22   D(1,4,12,13)           48.5155         D2E/DX2 =    0.0114             !
 ! D23   D(1,4,12,17)         -133.519          D2E/DX2 =    0.0101             !
 ! D24   D(9,4,12,13)          -67.5284         D2E/DX2 =    0.0169             !
 ! D25   D(9,4,12,17)          110.4371         D2E/DX2 =    0.0157             !
 ! D26   D(23,4,12,13)         179.6799         D2E/DX2 =    0.0121             !
 ! D27   D(23,4,12,17)          -2.3546         D2E/DX2 =    0.011              !
 ! D28   D(1,4,23,24)          -46.6482         D2E/DX2 =    0.0155             !
 ! D29   D(1,4,23,25)           69.939          D2E/DX2 =    0.014              !
 ! D30   D(1,4,23,26)         -169.7248         D2E/DX2 =    0.0149             !
 ! D31   D(9,4,23,24)           73.6503         D2E/DX2 =    0.0178             !
 ! D32   D(9,4,23,25)         -169.7625         D2E/DX2 =    0.0173             !
 ! D33   D(9,4,23,26)          -49.4263         D2E/DX2 =    0.017              !
 ! D34   D(12,4,23,24)        -175.9433         D2E/DX2 =    0.0146             !
 ! D35   D(12,4,23,25)         -59.3561         D2E/DX2 =    0.0137             !
 ! D36   D(12,4,23,26)          60.9802         D2E/DX2 =    0.0137             !
 ! D37   D(6,5,9,4)             73.2406         D2E/DX2 =    0.0127             !
 ! D38   D(6,5,9,10)          -171.2903         D2E/DX2 =    0.0161             !
 ! D39   D(6,5,9,11)           -53.7905         D2E/DX2 =    0.0132             !
 ! D40   D(7,5,9,4)           -167.2322         D2E/DX2 =    0.0132             !
 ! D41   D(7,5,9,10)           -51.763          D2E/DX2 =    0.0146             !
 ! D42   D(7,5,9,11)            65.7368         D2E/DX2 =    0.0137             !
 ! D43   D(8,5,9,4)            -45.3968         D2E/DX2 =    0.0137             !
 ! D44   D(8,5,9,10)            70.0724         D2E/DX2 =    0.0152             !
 ! D45   D(8,5,9,11)          -172.4278         D2E/DX2 =    0.0151             !
 ! D46   D(4,12,13,14)         178.0219         D2E/DX2 =    0.0064             !
 ! D47   D(4,12,13,18)          -3.3173         D2E/DX2 =    0.0068             !
 ! D48   D(17,12,13,14)         -0.0352         D2E/DX2 =    0.0064             !
 ! D49   D(17,12,13,18)        178.6256         D2E/DX2 =    0.007              !
 ! D50   D(4,12,17,16)        -178.3912         D2E/DX2 =    0.0065             !
 ! D51   D(4,12,17,22)           2.2514         D2E/DX2 =    0.0066             !
 ! D52   D(13,12,17,16)         -0.3937         D2E/DX2 =    0.0064             !
 ! D53   D(13,12,17,22)       -179.7511         D2E/DX2 =    0.0066             !
 ! D54   D(12,13,14,15)          0.3032         D2E/DX2 =    0.0082             !
 ! D55   D(12,13,14,19)        179.8229         D2E/DX2 =    0.0081             !
 ! D56   D(18,13,14,15)       -178.3647         D2E/DX2 =    0.0081             !
 ! D57   D(18,13,14,19)          1.155          D2E/DX2 =    0.0089             !
 ! D58   D(13,14,15,16)         -0.1419         D2E/DX2 =    0.0084             !
 ! D59   D(13,14,15,20)        179.6492         D2E/DX2 =    0.0081             !
 ! D60   D(19,14,15,16)       -179.6591         D2E/DX2 =    0.008              !
 ! D61   D(19,14,15,20)          0.1319         D2E/DX2 =    0.0089             !
 ! D62   D(14,15,16,17)         -0.2837         D2E/DX2 =    0.0084             !
 ! D63   D(14,15,16,21)        179.6578         D2E/DX2 =    0.008              !
 ! D64   D(20,15,16,17)        179.9253         D2E/DX2 =    0.0081             !
 ! D65   D(20,15,16,21)         -0.1331         D2E/DX2 =    0.0089             !
 ! D66   D(15,16,17,12)          0.5597         D2E/DX2 =    0.0083             !
 ! D67   D(15,16,17,22)        179.9286         D2E/DX2 =    0.0078             !
 ! D68   D(21,16,17,12)       -179.3822         D2E/DX2 =    0.008              !
 ! D69   D(21,16,17,22)         -0.0134         D2E/DX2 =    0.0087             !
 ! D70   D(2,28,29,30)          59.3249         D2E/DX2 =    0.0202             !
 ! D71   D(2,28,29,31)         178.8237         D2E/DX2 =    0.0208             !
 ! D72   D(2,28,29,32)         -61.6864         D2E/DX2 =    0.0215             !
 --------------------------------------------------------------------------------
 Trust Radius=1.00D-01 FncErr=1.00D-07 GrdErr=1.00D-06 EigMax=2.50D+02 EigMin=1.00D-04
 Number of steps in this run=     50 maximum allowed number of steps=    192.
 Search for a saddle point of order  1.
 GradGradGradGradGradGradGradGradGradGradGradGradGradGradGradGradGradGrad

                          Input orientation:                          
 ---------------------------------------------------------------------
 Center     Atomic      Atomic             Coordinates (Angstroms)
 Number     Number       Type             X           Y           Z
 ---------------------------------------------------------------------
      1          6           0       -0.912600   -0.593620   -0.012530
      2          6           0       -2.299420   -0.441880    0.148420
      3          8           0       -2.961120    0.595410    0.327830
      4          6           0        0.066800    0.491660    0.198220
      5          6           0       -1.045950    2.510250   -1.111720
      6          1           0       -0.828280    3.290420   -0.374780
      7          1           0       -1.087150    2.955380   -2.113600
      8          1           0       -1.986730    2.008740   -0.844310
      9          7           0        0.031310    1.496300   -1.076720
     10          1           0       -0.095740    0.849670   -1.860150
     11          1           0        0.948790    1.937880   -1.196280
     12          6           0        1.502740   -0.039350    0.134130
     13          6           0        1.888870   -0.867150   -0.932770
     14          6           0        3.194960   -1.335200   -1.046370
     15          6           0        4.149080   -0.990720   -0.088730
     16          6           0        3.780850   -0.173600    0.976420
     17          6           0        2.472700    0.301740    1.083380
     18          1           0        1.148760   -1.169560   -1.677950
     19          1           0        3.466870   -1.980010   -1.884970
     20          1           0        5.173060   -1.361020   -0.172060
     21          1           0        4.515580    0.099940    1.736890
     22          1           0        2.216520    0.938540    1.930140
     23          6           0       -0.200270    1.370290    1.420080
     24          1           0       -1.259120    1.653140    1.439180
     25          1           0       -0.004230    0.771370    2.318590
     26          1           0        0.429720    2.274090    1.458740
     27          1           0       -0.536600   -1.602380   -0.173520
     28          8           0       -2.968910   -1.639770    0.057690
     29          6           0       -4.369800   -1.576090    0.133390
     30          1           0       -4.798520   -0.949110   -0.665310
     31          1           0       -4.735610   -2.605920    0.023280
     32          1           0       -4.714000   -1.168330    1.097370
 ---------------------------------------------------------------------
                    Distance matrix (angstroms):
                    1          2          3          4          5
     1  C    0.000000
     2  C    1.404350   0.000000
     3  O    2.392921   1.243385   0.000000
     4  C    1.476981   2.544204   3.032468   0.000000
     5  C    3.295453   3.445898   3.067049   2.651200   0.000000
     6  H    3.901807   4.045745   3.507955   2.993753   1.095046
     7  H    4.127998   4.257665   3.878376   3.570158   1.097088
     8  H    2.935624   2.662485   2.078665   2.757786   1.099130
     9  N    2.528089   3.269528   3.426223   1.623586   1.479800
    10  H    2.482750   3.249409   3.614181   2.095585   2.054403
    11  H    3.357757   4.245273   4.405966   2.194103   2.076956
    12  C    2.482457   3.823435   4.512924   1.532319   3.814240
    13  C    2.961401   4.346447   5.220210   2.538788   4.477948
    14  C    4.300095   5.693308   6.596439   3.830379   5.725127
    15  C    5.077805   6.476158   7.296867   4.352563   6.347569
    16  C    4.814864   6.142251   6.816612   3.852575   5.904352
    17  C    3.669189   4.919375   5.493951   2.570590   4.698604
    18  H    2.711925   3.969268   4.901978   2.729524   4.321848
    19  H    4.960632   6.304809   7.269686   4.691408   6.412947
    20  H    6.135928   7.535614   8.381073   5.444577   7.385511
    21  H    5.745140   7.018620   7.624433   4.723621   6.697372
    22  H    3.989094   5.047158   5.430754   2.796524   4.729365
    23  C    2.533126   3.050821   3.068508   1.528483   2.902532
    24  H    2.697308   2.671590   2.291440   2.155709   2.699476
    25  H    2.849992   3.383713   3.568933   2.139919   3.984459
    26  H    3.491449   4.067141   3.949015   2.213070   2.973321
    27  H    1.088527   2.134933   3.310578   2.210721   4.248927
    28  O    2.308197   1.375278   2.251459   3.711910   4.721013
    29  C    3.597050   2.360748   2.595688   4.895223   5.412620
    30  H    3.956371   2.676740   2.597674   5.147120   5.123303
    31  H    4.320421   3.260943   3.672884   5.717407   6.409135
    32  H    4.001601   2.694148   2.602990   5.140047   5.645053
                    6          7          8          9         10
     6  H    0.000000
     7  H    1.789626   0.000000
     8  H    1.790298   1.821117   0.000000
     9  N    2.109616   2.110684   2.095017   0.000000
    10  H    2.949610   2.341185   2.439512   1.023736   0.000000
    11  H    2.379539   2.453943   2.957394   1.025211   1.648019
    12  C    4.096341   4.552826   4.162742   2.447342   2.706039
    13  C    4.997964   4.986260   4.826888   3.009509   2.783196
    14  C    6.167159   6.155040   6.170306   4.245821   4.032940
    15  C    6.571461   6.862209   6.871377   4.910949   4.954136
    16  C    5.921930   6.560195   6.429825   4.589444   4.911330
    17  C    4.685606   5.471290   5.149403   3.471799   3.944804
    18  H    5.049590   4.712135   4.541789   2.952453   2.378921
    19  H    6.964655   6.719334   6.836289   4.953895   4.549714
    20  H    7.595596   7.848001   7.941649   5.951494   5.957940
    21  H    6.572302   7.373628   7.251631   5.474934   5.896191
    22  H    4.484953   5.597652   5.148807   3.758649   4.440804
    23  C    2.702373   3.973155   2.954068   2.510681   3.322933
    24  H    2.481282   3.787829   2.422848   2.831883   3.589512
    25  H    3.778745   5.058352   3.932598   3.472019   4.180475
    26  H    2.444849   3.940389   3.348683   2.681836   3.649673
    27  H    4.905617   4.983994   3.948800   3.277211   3.008592
    28  O    5.392226   5.419495   3.884573   4.485882   4.257996
    29  C    6.040159   6.029840   4.414287   5.502156   5.303405
    30  H    5.815568   5.578248   4.084982   5.429231   5.174881
    31  H    7.084667   6.986099   5.440969   6.384492   6.084144
    32  H    6.094793   6.361553   4.615398   5.860451   5.843593
                   11         12         13         14         15
    11  H    0.000000
    12  C    2.446690   0.000000
    13  C    2.970081   1.404502   0.000000
    14  C    3.972506   2.436476   1.392066   0.000000
    15  C    4.477189   2.820973   2.415827   1.395022   0.000000
    16  C    4.147232   2.432542   2.775897   2.405049   1.392057
    17  C    3.193134   1.399371   2.402503   2.781558   2.419617
    18  H    3.150901   2.164789   1.092935   2.147851   3.399930
    19  H    4.707960   3.420633   2.152958   1.092229   2.161153
    20  H    5.456760   3.913031   3.407124   2.162860   1.092063
    21  H    4.970262   3.415472   3.868068   3.398559   2.157950
    22  H    3.518568   2.165965   3.400606   3.871285   3.395978
    23  C    2.913389   2.557537   3.860900   4.993059   5.173753
    24  H    3.449869   3.492213   4.678445   5.911596   6.210727
    25  H    3.824043   2.774904   4.103647   5.098569   5.113720
    26  H    2.726096   2.873668   4.209017   5.191253   5.185295
    27  H    3.973143   2.587783   2.645738   3.841587   4.726194
    28  O    5.451641   4.750036   5.017567   6.269370   7.149020
    29  C    6.511790   6.070280   6.388290   7.659991   8.541856
    30  H    6.453543   6.416591   6.693238   8.011866   8.966255
    31  H    7.378743   6.746598   6.915279   8.102643   9.031010
    32  H    6.853945   6.391423   6.914483   8.196043   8.943856
                   16         17         18         19         20
    16  C    0.000000
    17  C    1.395939   0.000000
    18  H    3.868529   3.397423   0.000000
    19  H    3.398419   3.873740   2.464411   0.000000
    20  H    2.160375   3.410696   4.301087   2.495655   0.000000
    21  H    1.092230   2.154335   4.960669   4.306258   2.492142
    22  H    2.143260   1.090021   4.313063   4.963504   4.295154
    23  C    4.292988   2.898264   4.227116   5.966220   6.234392
    24  H    5.380746   3.984891   4.845825   6.825301   7.283831
    25  H    4.125678   2.807397   4.590090   6.106435   6.128194
    26  H    4.177785   2.864407   4.713233   6.205001   6.194579
    27  H    4.690858   3.776421   2.300235   4.370290   5.714759
    28  O    6.967997   5.867932   4.493189   6.731193   8.149979
    29  C    8.313289   7.158808   5.822433   8.102489   9.550169
    30  H    8.769395   7.582426   6.036901   8.418254   9.992266
    31  H    8.908128   7.844618   6.291512   8.444753   9.988477
    32  H    8.553747   7.335527   6.486475   8.745274   9.970082
                   21         22         23         24         25
    21  H    0.000000
    22  H    2.454847   0.000000
    23  C    4.894221   2.507477   0.000000
    24  H    5.987338   3.582146   1.096144   0.000000
    25  H    4.606287   2.260657   1.097478   1.767945   0.000000
    26  H    4.636653   2.280036   1.102378   1.799484   1.784887
    27  H    5.663222   4.296665   3.389608   3.704220   3.482631
    28  O    7.865360   6.086250   4.310677   3.959186   4.440112
    29  C    9.183151   7.275389   5.265141   4.670048   5.416998
    30  H    9.675925   7.714296   5.556291   4.871133   5.903298
    31  H    9.789926   8.033145   6.191172   5.677178   6.249839
    32  H    9.338235   7.291400   5.188689   4.473670   5.237914
                   26         27         28         29         30
    26  H    0.000000
    27  H    4.315677   0.000000
    28  O    5.369537   2.443561   0.000000
    29  C    6.294111   3.845557   1.404378   0.000000
    30  H    6.498854   4.339652   2.084997   1.102192   0.000000
    31  H    7.249529   4.321748   2.013916   1.098404   1.795309
    32  H    6.199895   4.387964   2.085313   1.101816   1.778269
                   31         32
    31  H    0.000000
    32  H    1.794659   0.000000
 Stoichiometry    C12H17NO2
 Framework group  C1[X(C12H17NO2)]
 Deg. of freedom    90
 Full point group                 C1      NOp   1
 Largest Abelian subgroup         C1      NOp   1
 Largest concise Abelian subgroup C1      NOp   1
                         Standard orientation:                         
 ---------------------------------------------------------------------
 Center     Atomic      Atomic             Coordinates (Angstroms)
 Number     Number       Type             X           Y           Z
 ---------------------------------------------------------------------
      1          6           0       -0.912600   -0.593620   -0.012529
      2          6           0       -2.299420   -0.441881    0.148421
      3          8           0       -2.961120    0.595409    0.327831
      4          6           0        0.066800    0.491660    0.198221
      5          6           0       -1.045950    2.510250   -1.111719
      6          1           0       -0.828280    3.290420   -0.374779
      7          1           0       -1.087150    2.955380   -2.113599
      8          1           0       -1.986730    2.008739   -0.844309
      9          7           0        0.031310    1.496300   -1.076719
     10          1           0       -0.095740    0.849670   -1.860149
     11          1           0        0.948790    1.937880   -1.196279
     12          6           0        1.502740   -0.039350    0.134131
     13          6           0        1.888870   -0.867150   -0.932769
     14          6           0        3.194960   -1.335200   -1.046369
     15          6           0        4.149080   -0.990720   -0.088729
     16          6           0        3.780850   -0.173600    0.976421
     17          6           0        2.472700    0.301740    1.083381
     18          1           0        1.148760   -1.169560   -1.677949
     19          1           0        3.466870   -1.980010   -1.884969
     20          1           0        5.173060   -1.361020   -0.172059
     21          1           0        4.515580    0.099940    1.736891
     22          1           0        2.216520    0.938540    1.930141
     23          6           0       -0.200270    1.370290    1.420081
     24          1           0       -1.259120    1.653140    1.439181
     25          1           0       -0.004230    0.771370    2.318591
     26          1           0        0.429720    2.274090    1.458741
     27          1           0       -0.536600   -1.602380   -0.173519
     28          8           0       -2.968910   -1.639771    0.057691
     29          6           0       -4.369800   -1.576091    0.133391
     30          1           0       -4.798520   -0.949111   -0.665309
     31          1           0       -4.735610   -2.605921    0.023281
     32          1           0       -4.714000   -1.168331    1.097371
 ---------------------------------------------------------------------
 Rotational constants (GHZ):           1.0989005           0.3310510           0.2969345
 Standard basis: def2SVP (5D, 7F)
 There are   310 symmetry adapted cartesian basis functions of A   symmetry.
 There are   295 symmetry adapted basis functions of A   symmetry.
   295 basis functions,   494 primitive gaussians,   310 cartesian basis functions
    56 alpha electrons       56 beta electrons
       nuclear repulsion energy      1009.4821368547 Hartrees.
 NAtoms=   32 NActive=   32 NUniq=   32 SFac= 1.00D+00 NAtFMM=   60 NAOKFM=F Big=F
 Integral buffers will be    131072 words long.
 Raffenetti 2 integral format.
 Two-electron integral symmetry is turned on.
 Nuclear repulsion after empirical dispersion term =     1009.4582994612 Hartrees.
 ------------------------------------------------------------------------------
 Polarizable Continuum Model (PCM)
 =================================
 Model                : PCM.
 Atomic radii         : UFF (Universal Force Field).
 Polarization charges : Total charges.
 Charge compensation  : None.
 Solution method      : On-the-fly selection.
 Cavity type          : Scaled VdW (van der Waals Surface) (Alpha=1.100).
 Cavity algorithm     : GePol (No added spheres)
                        Default sphere list used, NSphG=   32.
                        Lebedev-Laikov grids with approx.  5.0 points / Ang**2.
                        Smoothing algorithm: York/Karplus (Gamma=1.0000).
                        Polarization charges: spherical gaussians, with
                                              point-specific exponents (IZeta= 3).
                        Self-potential: point-specific (ISelfS= 7).
                        Self-field    : sphere-specific E.n sum rule (ISelfD= 2).
 1st derivatives      : Analytical E(r).r(x)/FMM algorithm (CHGder, D1EAlg=3).
                        Cavity 1st derivative terms included.
 Solvent              : Toluene, Eps=   2.374100 Eps(inf)=   2.238315
 ------------------------------------------------------------------------------
 One-electron integrals computed using PRISM.
   1 Symmetry operations used in ECPInt.
 ECPInt:  NShTT=   10011 NPrTT=   35491 LenC2=    9427 LenP2D=   24581.
 LDataN:  DoStor=T MaxTD1= 4 Len=   56
 NBasis=   295 RedAO= T EigKep=  2.77D-04  NBF=   295
 NBsUse=   295 1.00D-06 EigRej= -1.00D+00 NBFU=   295
 ExpMin= 1.22D-01 ExpMax= 2.27D+03 ExpMxC= 3.41D+02 IAcc=3 IRadAn=         5 AccDes= 0.00D+00
 Harris functional with IExCor= 4639 and IRadAn=       5 diagonalized for initial guess.
 HarFok:  IExCor= 4639 AccDes= 0.00D+00 IRadAn=         5 IDoV= 1 UseB2=F ITyADJ=14
 ICtDFT=  3500011 ScaDFX=  1.000000  1.000000  1.000000  1.000000
 FoFCou: FMM=F IPFlag=           0 FMFlag=      100000 FMFlg1=           0
         NFxFlg=           0 DoJE=T BraDBF=F KetDBF=T FulRan=T
         wScrn=  0.000000 ICntrl=       500 IOpCl=  0 I1Cent=   200000004 NGrid=           0
         NMat0=    1 NMatS0=      1 NMatT0=    0 NMatD0=    1 NMtDS0=    0 NMtDT0=    0
 Petite list used in FoFCou.
 Requested convergence on RMS density matrix=1.00D-08 within 128 cycles.
 Requested convergence on MAX density matrix=1.00D-06.
 Requested convergence on             energy=1.00D-06.
 No special actions if energy rises.
 Inv3:  Mode=1 IEnd=    14932083.
 Iteration    1 A*A^-1 deviation from unit magnitude is 3.11D-15 for   1278.
 Iteration    1 A*A^-1 deviation from orthogonality  is 2.33D-15 for   2019    226.
 Iteration    1 A^-1*A deviation from unit magnitude is 3.11D-15 for   1278.
 Iteration    1 A^-1*A deviation from orthogonality  is 1.47D-15 for   1461    484.
 Error on total polarization charges =  0.00624
 SCF Done:  E(RwB97XD) =  -671.972050580     A.U. after   14 cycles
            NFock= 14  Conv=0.67D-08     -V/T= 2.0108

 **********************************************************************

            Population analysis using the SCF Density.

 **********************************************************************

 Orbital symmetries:
       Occupied  (A) (A) (A) (A) (A) (A) (A) (A) (A) (A) (A) (A)
                 (A) (A) (A) (A) (A) (A) (A) (A) (A) (A) (A) (A)
                 (A) (A) (A) (A) (A) (A) (A) (A) (A) (A) (A) (A)
                 (A) (A) (A) (A) (A) (A) (A) (A) (A) (A) (A) (A)
                 (A) (A) (A) (A) (A) (A) (A) (A)
       Virtual   (A) (A) (A) (A) (A) (A) (A) (A) (A) (A) (A) (A)
                 (A) (A) (A) (A) (A) (A) (A) (A) (A) (A) (A) (A)
                 (A) (A) (A) (A) (A) (A) (A) (A) (A) (A) (A) (A)
                 (A) (A) (A) (A) (A) (A) (A) (A) (A) (A) (A) (A)
                 (A) (A) (A) (A) (A) (A) (A) (A) (A) (A) (A) (A)
                 (A) (A) (A) (A) (A) (A) (A) (A) (A) (A) (A) (A)
                 (A) (A) (A) (A) (A) (A) (A) (A) (A) (A) (A) (A)
                 (A) (A) (A) (A) (A) (A) (A) (A) (A) (A) (A) (A)
                 (A) (A) (A) (A) (A) (A) (A) (A) (A) (A) (A) (A)
                 (A) (A) (A) (A) (A) (A) (A) (A) (A) (A) (A) (A)
                 (A) (A) (A) (A) (A) (A) (A) (A) (A) (A) (A) (A)
                 (A) (A) (A) (A) (A) (A) (A) (A) (A) (A) (A) (A)
                 (A) (A) (A) (A) (A) (A) (A) (A) (A) (A) (A) (A)
                 (A) (A) (A) (A) (A) (A) (A) (A) (A) (A) (A) (A)
                 (A) (A) (A) (A) (A) (A) (A) (A) (A) (A) (A) (A)
                 (A) (A) (A) (A) (A) (A) (A) (A) (A) (A) (A) (A)
                 (A) (A) (A) (A) (A) (A) (A) (A) (A) (A) (A) (A)
                 (A) (A) (A) (A) (A) (A) (A) (A) (A) (A) (A) (A)
                 (A) (A) (A) (A) (A) (A) (A) (A) (A) (A) (A) (A)
                 (A) (A) (A) (A) (A) (A) (A) (A) (A) (A) (A)
 The electronic state is 1-A.
 Alpha  occ. eigenvalues --  -19.24422 -19.17669 -14.55070 -10.36546 -10.36369
 Alpha  occ. eigenvalues --  -10.34587 -10.32046 -10.31958 -10.31167 -10.31146
 Alpha  occ. eigenvalues --  -10.31118 -10.31103 -10.31039 -10.28937 -10.22698
 Alpha  occ. eigenvalues --   -1.13819  -1.08461  -1.03647  -0.96425  -0.89822
 Alpha  occ. eigenvalues --   -0.84832  -0.83144  -0.80807  -0.80102  -0.75361
 Alpha  occ. eigenvalues --   -0.71209  -0.69877  -0.67155  -0.66144  -0.63019
 Alpha  occ. eigenvalues --   -0.60864  -0.58642  -0.57566  -0.55743  -0.54037
 Alpha  occ. eigenvalues --   -0.53337  -0.52725  -0.52152  -0.51229  -0.50982
 Alpha  occ. eigenvalues --   -0.49324  -0.49180  -0.46786  -0.46414  -0.46048
 Alpha  occ. eigenvalues --   -0.45224  -0.44052  -0.43321  -0.42346  -0.41705
 Alpha  occ. eigenvalues --   -0.39441  -0.34199  -0.33956  -0.33811  -0.30665
 Alpha  occ. eigenvalues --   -0.23614
 Alpha virt. eigenvalues --    0.04336   0.05015   0.10535   0.13408   0.14127
 Alpha virt. eigenvalues --    0.15211   0.16989   0.18074   0.18176   0.18375
 Alpha virt. eigenvalues --    0.19296   0.20776   0.21470   0.22202   0.23018
 Alpha virt. eigenvalues --    0.23356   0.23736   0.23952   0.24522   0.25011
 Alpha virt. eigenvalues --    0.25478   0.25916   0.27125   0.28010   0.30505
 Alpha virt. eigenvalues --    0.32441   0.35688   0.36150   0.37123   0.38547
 Alpha virt. eigenvalues --    0.39786   0.40586   0.41326   0.44561   0.46190
 Alpha virt. eigenvalues --    0.46741   0.48543   0.48961   0.50661   0.51071
 Alpha virt. eigenvalues --    0.52271   0.54466   0.55360   0.56071   0.56276
 Alpha virt. eigenvalues --    0.56991   0.57484   0.59330   0.60177   0.61269
 Alpha virt. eigenvalues --    0.62154   0.62670   0.64255   0.65044   0.65476
 Alpha virt. eigenvalues --    0.67255   0.68731   0.69428   0.71497   0.71651
 Alpha virt. eigenvalues --    0.71989   0.72781   0.72906   0.73805   0.73952
 Alpha virt. eigenvalues --    0.74783   0.74955   0.75496   0.76103   0.76267
 Alpha virt. eigenvalues --    0.77132   0.77245   0.78096   0.78917   0.79396
 Alpha virt. eigenvalues --    0.80309   0.81228   0.81746   0.82334   0.82642
 Alpha virt. eigenvalues --    0.83018   0.84046   0.85613   0.86585   0.87337
 Alpha virt. eigenvalues --    0.87832   0.88889   0.90412   0.91899   0.92509
 Alpha virt. eigenvalues --    0.97213   0.99541   1.01311   1.04159   1.05214
 Alpha virt. eigenvalues --    1.06395   1.10322   1.13907   1.14938   1.16097
 Alpha virt. eigenvalues --    1.18669   1.19221   1.21674   1.25374   1.27113
 Alpha virt. eigenvalues --    1.27515   1.28424   1.31957   1.32794   1.33517
 Alpha virt. eigenvalues --    1.35156   1.37024   1.37701   1.38579   1.39669
 Alpha virt. eigenvalues --    1.40009   1.42191   1.47182   1.48309   1.50489
 Alpha virt. eigenvalues --    1.53457   1.55175   1.57700   1.60651   1.62997
 Alpha virt. eigenvalues --    1.63308   1.64836   1.65612   1.69816   1.70580
 Alpha virt. eigenvalues --    1.73130   1.74869   1.76794   1.77694   1.77878
 Alpha virt. eigenvalues --    1.80152   1.80363   1.81499   1.82854   1.83429
 Alpha virt. eigenvalues --    1.83982   1.84231   1.84798   1.85239   1.86202
 Alpha virt. eigenvalues --    1.86656   1.88455   1.88942   1.89632   1.92282
 Alpha virt. eigenvalues --    1.93023   1.93359   1.94544   1.96617   1.97387
 Alpha virt. eigenvalues --    1.98627   1.99544   2.00013   2.00467   2.01787
 Alpha virt. eigenvalues --    2.02933   2.04877   2.05896   2.06946   2.07192
 Alpha virt. eigenvalues --    2.08849   2.09341   2.10723   2.12174   2.13195
 Alpha virt. eigenvalues --    2.15142   2.16090   2.18490   2.20150   2.22206
 Alpha virt. eigenvalues --    2.23459   2.24154   2.26148   2.27795   2.29398
 Alpha virt. eigenvalues --    2.35090   2.36744   2.37649   2.38645   2.39952
 Alpha virt. eigenvalues --    2.40943   2.41547   2.43560   2.43628   2.44676
 Alpha virt. eigenvalues --    2.45307   2.47853   2.50112   2.50863   2.51942
 Alpha virt. eigenvalues --    2.59017   2.59984   2.62025   2.63456   2.67163
 Alpha virt. eigenvalues --    2.70388   2.71399   2.72635   2.74752   2.76875
 Alpha virt. eigenvalues --    2.78486   2.78638   2.79563   2.80896   2.81972
 Alpha virt. eigenvalues --    2.83085   2.84171   2.87098   2.90909   2.91906
 Alpha virt. eigenvalues --    2.92581   2.96285   2.97046   2.98966   3.02335
 Alpha virt. eigenvalues --    3.04180   3.05098   3.06008   3.08753   3.10494
 Alpha virt. eigenvalues --    3.12602   3.13675   3.16783   3.20655   3.24222
 Alpha virt. eigenvalues --    3.28458   3.31965   3.32804   3.33874   3.46975
 Alpha virt. eigenvalues --    3.58770   3.71106   3.74169   3.83179
          Condensed to atoms (all electrons):
               1          2          3          4          5          6
     1  C    5.671768   0.391729  -0.126637   0.264272   0.005849  -0.000127
     2  C    0.391729   4.433045   0.604581  -0.019198   0.001099  -0.000277
     3  O   -0.126637   0.604581   7.932136   0.010334  -0.027544  -0.000282
     4  C    0.264272  -0.019198   0.010334   5.505395  -0.036597  -0.013177
     5  C    0.005849   0.001099  -0.027544  -0.036597   4.614730   0.399197
     6  H   -0.000127  -0.000277  -0.000282  -0.013177   0.399197   0.577919
     7  H   -0.001004   0.000064   0.000691   0.005531   0.390699  -0.021397
     8  H   -0.005824  -0.000673   0.060685  -0.003006   0.362971  -0.009724
     9  N   -0.092607  -0.007161   0.000054   0.090824   0.287053  -0.015856
    10  H    0.012727  -0.000968  -0.000471   0.001776  -0.012382   0.005403
    11  H    0.008631  -0.000178  -0.000106  -0.002596  -0.016205  -0.007289
    12  C   -0.042395   0.007490   0.000300   0.181762   0.007524   0.000008
    13  C   -0.016164   0.000091  -0.000003  -0.102189  -0.000149   0.000099
    14  C    0.000723  -0.000008  -0.000000   0.012356   0.000020   0.000000
    15  C    0.000007   0.000000  -0.000000  -0.001655  -0.000001   0.000000
    16  C   -0.000582   0.000005  -0.000000   0.021168   0.000006  -0.000000
    17  C    0.005313  -0.000280  -0.000001  -0.082455  -0.000122  -0.000097
    18  H    0.011306  -0.000067  -0.000007  -0.011159   0.000002  -0.000009
    19  H   -0.000014  -0.000000   0.000000  -0.000292  -0.000000  -0.000000
    20  H    0.000001   0.000000   0.000000   0.000020   0.000000   0.000000
    21  H    0.000005  -0.000000   0.000000  -0.000268  -0.000000   0.000000
    22  H    0.000538  -0.000030   0.000003  -0.034919  -0.000040  -0.000025
    23  C   -0.042326  -0.012463  -0.020843   0.385280   0.012956   0.014634
    24  H   -0.028459   0.004851   0.037687   0.010716   0.006904  -0.003012
    25  H   -0.000891  -0.000752  -0.000169  -0.004924  -0.000022  -0.000069
    26  H    0.009434   0.000735   0.000339  -0.007849  -0.004803   0.000481
    27  H    0.393455  -0.003881   0.004446  -0.063018   0.000097  -0.000012
    28  O   -0.133524   0.365691  -0.082567   0.004767  -0.000088  -0.000003
    29  C    0.011053  -0.038986   0.001920  -0.000419   0.000020   0.000000
    30  H    0.001079  -0.004752   0.009237   0.000033  -0.000065   0.000002
    31  H    0.000196   0.005724   0.001079   0.000006  -0.000000  -0.000000
    32  H    0.000600  -0.005144   0.008419   0.000043   0.000019  -0.000000
               7          8          9         10         11         12
     1  C   -0.001004  -0.005824  -0.092607   0.012727   0.008631  -0.042395
     2  C    0.000064  -0.000673  -0.007161  -0.000968  -0.000178   0.007490
     3  O    0.000691   0.060685   0.000054  -0.000471  -0.000106   0.000300
     4  C    0.005531  -0.003006   0.090824   0.001776  -0.002596   0.181762
     5  C    0.390699   0.362971   0.287053  -0.012382  -0.016205   0.007524
     6  H   -0.021397  -0.009724  -0.015856   0.005403  -0.007289   0.000008
     7  H    0.592938  -0.009051  -0.016247  -0.007958  -0.004666  -0.000353
     8  H   -0.009051   0.511556  -0.008872  -0.004614   0.004002   0.000665
     9  N   -0.016247  -0.008872   6.328362   0.323526   0.322456  -0.032581
    10  H   -0.007958  -0.004614   0.323526   0.497437  -0.007855  -0.011875
    11  H   -0.004666   0.004002   0.322456  -0.007855   0.521305  -0.003561
    12  C   -0.000353   0.000665  -0.032581  -0.011875  -0.003561   5.453458
    13  C   -0.000074   0.000002  -0.006364   0.009661  -0.001067   0.284073
    14  C   -0.000001  -0.000002  -0.000508   0.000070  -0.000275   0.066915
    15  C   -0.000000   0.000000   0.000065   0.000029  -0.000021  -0.140732
    16  C   -0.000000  -0.000001  -0.000329   0.000002  -0.000182   0.061908
    17  C    0.000002  -0.000018  -0.000026  -0.000246   0.004086   0.356802
    18  H   -0.000013  -0.000019  -0.004050   0.004778   0.000878  -0.078697
    19  H    0.000000   0.000000   0.000007  -0.000006   0.000001   0.014351
    20  H   -0.000000   0.000000   0.000000  -0.000000  -0.000001  -0.001470
    21  H    0.000000   0.000000   0.000002   0.000000   0.000003   0.014609
    22  H   -0.000000   0.000006   0.000365  -0.000025   0.000168  -0.051092
    23  C   -0.000405  -0.007014  -0.061216   0.007479  -0.000735  -0.064051
    24  H    0.000235  -0.001989  -0.009861   0.000253  -0.000041   0.006429
    25  H   -0.000008   0.000188   0.006133  -0.000295  -0.000281  -0.010530
    26  H    0.000196   0.000511   0.000553  -0.000634   0.001542  -0.015963
    27  H    0.000025  -0.000203   0.002495   0.000592  -0.000152  -0.008874
    28  O    0.000004   0.000399   0.000008  -0.000094   0.000001  -0.000061
    29  C   -0.000000  -0.000110   0.000005  -0.000006  -0.000000   0.000005
    30  H   -0.000001   0.000428  -0.000009   0.000013   0.000000  -0.000002
    31  H   -0.000000   0.000002   0.000000  -0.000000   0.000000  -0.000000
    32  H   -0.000000  -0.000149   0.000002  -0.000002  -0.000000   0.000001
              13         14         15         16         17         18
     1  C   -0.016164   0.000723   0.000007  -0.000582   0.005313   0.011306
     2  C    0.000091  -0.000008   0.000000   0.000005  -0.000280  -0.000067
     3  O   -0.000003  -0.000000  -0.000000  -0.000000  -0.000001  -0.000007
     4  C   -0.102189   0.012356  -0.001655   0.021168  -0.082455  -0.011159
     5  C   -0.000149   0.000020  -0.000001   0.000006  -0.000122   0.000002
     6  H    0.000099   0.000000   0.000000  -0.000000  -0.000097  -0.000009
     7  H   -0.000074  -0.000001  -0.000000  -0.000000   0.000002  -0.000013
     8  H    0.000002  -0.000002   0.000000  -0.000001  -0.000018  -0.000019
     9  N   -0.006364  -0.000508   0.000065  -0.000329  -0.000026  -0.004050
    10  H    0.009661   0.000070   0.000029   0.000002  -0.000246   0.004778
    11  H   -0.001067  -0.000275  -0.000021  -0.000182   0.004086   0.000878
    12  C    0.284073   0.066915  -0.140732   0.061908   0.356802  -0.078697
    13  C    5.168752   0.337595   0.069447  -0.130747   0.030882   0.450077
    14  C    0.337595   5.003642   0.302497   0.073276  -0.120075  -0.050485
    15  C    0.069447   0.302497   5.073498   0.306265   0.067510   0.012730
    16  C   -0.130747   0.073276   0.306265   5.063937   0.301120  -0.001730
    17  C    0.030882  -0.120075   0.067510   0.301120   5.054993   0.011602
    18  H    0.450077  -0.050485   0.012730  -0.001730   0.011602   0.641282
    19  H   -0.062254   0.448117  -0.066911   0.012331  -0.001617  -0.011828
    20  H    0.012585  -0.064213   0.447863  -0.062803   0.012552  -0.000194
    21  H   -0.001665   0.012302  -0.067618   0.445455  -0.059214   0.000020
    22  H    0.013627  -0.001864   0.013190  -0.067882   0.448910  -0.000142
    23  C    0.013954  -0.000434   0.000114  -0.000663   0.007918   0.000648
    24  H   -0.000153   0.000006   0.000002  -0.000040   0.000536   0.000031
    25  H    0.000000   0.000019  -0.000054   0.000749  -0.000324  -0.000015
    26  H   -0.001096  -0.000015  -0.000036   0.000674   0.004547  -0.000067
    27  H   -0.003545   0.000956  -0.000122   0.000020   0.000247   0.000853
    28  O   -0.000030  -0.000000  -0.000000   0.000000   0.000000  -0.000033
    29  C    0.000000   0.000000  -0.000000   0.000000  -0.000000  -0.000002
    30  H    0.000000   0.000000  -0.000000   0.000000  -0.000000   0.000000
    31  H    0.000000  -0.000000   0.000000  -0.000000   0.000000   0.000000
    32  H   -0.000000  -0.000000  -0.000000   0.000000   0.000000  -0.000000
              19         20         21         22         23         24
     1  C   -0.000014   0.000001   0.000005   0.000538  -0.042326  -0.028459
     2  C   -0.000000   0.000000  -0.000000  -0.000030  -0.012463   0.004851
     3  O    0.000000   0.000000   0.000000   0.000003  -0.020843   0.037687
     4  C   -0.000292   0.000020  -0.000268  -0.034919   0.385280   0.010716
     5  C   -0.000000   0.000000  -0.000000  -0.000040   0.012956   0.006904
     6  H   -0.000000   0.000000   0.000000  -0.000025   0.014634  -0.003012
     7  H    0.000000  -0.000000   0.000000  -0.000000  -0.000405   0.000235
     8  H    0.000000   0.000000   0.000000   0.000006  -0.007014  -0.001989
     9  N    0.000007   0.000000   0.000002   0.000365  -0.061216  -0.009861
    10  H   -0.000006  -0.000000   0.000000  -0.000025   0.007479   0.000253
    11  H    0.000001  -0.000001   0.000003   0.000168  -0.000735  -0.000041
    12  C    0.014351  -0.001470   0.014609  -0.051092  -0.064051   0.006429
    13  C   -0.062254   0.012585  -0.001665   0.013627   0.013954  -0.000153
    14  C    0.448117  -0.064213   0.012302  -0.001864  -0.000434   0.000006
    15  C   -0.066911   0.447863  -0.067618   0.013190   0.000114   0.000002
    16  C    0.012331  -0.062803   0.445455  -0.067882  -0.000663  -0.000040
    17  C   -0.001617   0.012552  -0.059214   0.448910   0.007918   0.000536
    18  H   -0.011828  -0.000194   0.000020  -0.000142   0.000648   0.000031
    19  H    0.647527  -0.010551  -0.000209   0.000022   0.000004  -0.000000
    20  H   -0.010551   0.644658  -0.010600  -0.000204   0.000000   0.000000
    21  H   -0.000209  -0.010600   0.648873  -0.011898  -0.000005  -0.000000
    22  H    0.000022  -0.000204  -0.011898   0.653335   0.019710  -0.000011
    23  C    0.000004   0.000000  -0.000005   0.019710   4.583132   0.363635
    24  H   -0.000000   0.000000  -0.000000  -0.000011   0.363635   0.578406
    25  H    0.000000  -0.000000   0.000017   0.000465   0.387016  -0.011113
    26  H    0.000000  -0.000000   0.000020  -0.000691   0.365365  -0.025475
    27  H    0.000050  -0.000001   0.000000  -0.000008   0.003617  -0.000090
    28  O    0.000000  -0.000000   0.000000   0.000000  -0.000311   0.000545
    29  C   -0.000000   0.000000  -0.000000  -0.000000   0.000028  -0.000067
    30  H   -0.000000  -0.000000  -0.000000  -0.000000   0.000010  -0.000058
    31  H   -0.000000  -0.000000   0.000000  -0.000000   0.000001  -0.000002
    32  H    0.000000  -0.000000  -0.000000  -0.000000  -0.000015   0.000093
              25         26         27         28         29         30
     1  C   -0.000891   0.009434   0.393455  -0.133524   0.011053   0.001079
     2  C   -0.000752   0.000735  -0.003881   0.365691  -0.038986  -0.004752
     3  O   -0.000169   0.000339   0.004446  -0.082567   0.001920   0.009237
     4  C   -0.004924  -0.007849  -0.063018   0.004767  -0.000419   0.000033
     5  C   -0.000022  -0.004803   0.000097  -0.000088   0.000020  -0.000065
     6  H   -0.000069   0.000481  -0.000012  -0.000003   0.000000   0.000002
     7  H   -0.000008   0.000196   0.000025   0.000004  -0.000000  -0.000001
     8  H    0.000188   0.000511  -0.000203   0.000399  -0.000110   0.000428
     9  N    0.006133   0.000553   0.002495   0.000008   0.000005  -0.000009
    10  H   -0.000295  -0.000634   0.000592  -0.000094  -0.000006   0.000013
    11  H   -0.000281   0.001542  -0.000152   0.000001  -0.000000   0.000000
    12  C   -0.010530  -0.015963  -0.008874  -0.000061   0.000005  -0.000002
    13  C    0.000000  -0.001096  -0.003545  -0.000030   0.000000   0.000000
    14  C    0.000019  -0.000015   0.000956  -0.000000   0.000000   0.000000
    15  C   -0.000054  -0.000036  -0.000122  -0.000000  -0.000000  -0.000000
    16  C    0.000749   0.000674   0.000020   0.000000   0.000000   0.000000
    17  C   -0.000324   0.004547   0.000247   0.000000  -0.000000  -0.000000
    18  H   -0.000015  -0.000067   0.000853  -0.000033  -0.000002   0.000000
    19  H    0.000000   0.000000   0.000050   0.000000  -0.000000  -0.000000
    20  H   -0.000000  -0.000000  -0.000001  -0.000000   0.000000  -0.000000
    21  H    0.000017   0.000020   0.000000   0.000000  -0.000000  -0.000000
    22  H    0.000465  -0.000691  -0.000008   0.000000  -0.000000  -0.000000
    23  C    0.387016   0.365365   0.003617  -0.000311   0.000028   0.000010
    24  H   -0.011113  -0.025475  -0.000090   0.000545  -0.000067  -0.000058
    25  H    0.599462  -0.022892   0.000470  -0.000014  -0.000001  -0.000000
    26  H   -0.022892   0.676883  -0.000160   0.000001  -0.000000  -0.000001
    27  H    0.000470  -0.000160   0.664425   0.008891  -0.000171   0.000065
    28  O   -0.000014   0.000001   0.008891   8.011371   0.289025  -0.031933
    29  C   -0.000001  -0.000000  -0.000171   0.289025   4.391231   0.397748
    30  H   -0.000000  -0.000001   0.000065  -0.031933   0.397748   0.674989
    31  H   -0.000000  -0.000000  -0.000238  -0.026054   0.394883  -0.027518
    32  H    0.000002   0.000001   0.000040  -0.030179   0.402023  -0.038565
              31         32
     1  C    0.000196   0.000600
     2  C    0.005724  -0.005144
     3  O    0.001079   0.008419
     4  C    0.000006   0.000043
     5  C   -0.000000   0.000019
     6  H   -0.000000  -0.000000
     7  H   -0.000000  -0.000000
     8  H    0.000002  -0.000149
     9  N    0.000000   0.000002
    10  H   -0.000000  -0.000002
    11  H    0.000000  -0.000000
    12  C   -0.000000   0.000001
    13  C    0.000000  -0.000000
    14  C   -0.000000  -0.000000
    15  C    0.000000  -0.000000
    16  C   -0.000000   0.000000
    17  C    0.000000   0.000000
    18  H    0.000000  -0.000000
    19  H   -0.000000   0.000000
    20  H   -0.000000  -0.000000
    21  H    0.000000  -0.000000
    22  H   -0.000000  -0.000000
    23  C    0.000001  -0.000015
    24  H   -0.000002   0.000093
    25  H   -0.000000   0.000002
    26  H   -0.000000   0.000001
    27  H   -0.000238   0.000040
    28  O   -0.026054  -0.030179
    29  C    0.394883   0.402023
    30  H   -0.027518  -0.038565
    31  H    0.647947  -0.027760
    32  H   -0.027760   0.665076
 Mulliken charges:
               1
     1  C   -0.298131
     2  C    0.279712
     3  O   -0.413280
     4  C   -0.110567
     5  C    0.008873
     6  H    0.073611
     7  H    0.070794
     8  H    0.109855
     9  N   -0.106225
    10  H    0.183686
    11  H    0.182137
    12  C    0.005935
    13  C   -0.065345
    14  C   -0.020614
    15  C   -0.016067
    16  C   -0.021956
    17  C   -0.042542
    18  H    0.024310
    19  H    0.031273
    20  H    0.032359
    21  H    0.030171
    22  H    0.018489
    23  C    0.044978
    24  H    0.070043
    25  H    0.057833
    26  H    0.018396
    27  H   -0.000270
    28  O   -0.375810
    29  C    0.151821
    30  H    0.019300
    31  H    0.031735
    32  H    0.025497
 Sum of Mulliken charges =  -0.00000
 Mulliken charges with hydrogens summed into heavy atoms:
               1
     1  C   -0.298402
     2  C    0.279712
     3  O   -0.413280
     4  C   -0.110567
     5  C    0.263134
     9  N    0.259597
    12  C    0.005935
    13  C   -0.041034
    14  C    0.010659
    15  C    0.016291
    16  C    0.008215
    17  C   -0.024053
    23  C    0.191250
    28  O   -0.375810
    29  C    0.228353
 Electronic spatial extent (au):  <R**2>=           3899.3539
 Charge=             -0.0000 electrons
 Dipole moment (field-independent basis, Debye):
    X=              5.8186    Y=              4.4405    Z=             -3.4569  Tot=              8.0947
 Quadrupole moment (field-independent basis, Debye-Ang):
   XX=            -94.0128   YY=            -84.0692   ZZ=            -82.4042
   XY=              0.8303   XZ=              2.6856   YZ=             -2.8971
 Traceless Quadrupole moment (field-independent basis, Debye-Ang):
   XX=             -7.1841   YY=              2.7595   ZZ=              4.4245
   XY=              0.8303   XZ=              2.6856   YZ=             -2.8971
 Octapole moment (field-independent basis, Debye-Ang**2):
  XXX=             21.6788  YYY=             34.1453  ZZZ=            -12.6240  XYY=             -5.0959
  XXY=            -28.7223  XXZ=             -0.8052  XZZ=             -2.4956  YZZ=             10.9945
  YYZ=            -17.4850  XYZ=             12.4061
 Hexadecapole moment (field-independent basis, Debye-Ang**3):
 XXXX=          -3486.4352 YYYY=           -899.4383 ZZZZ=           -467.6519 XXXY=             49.0875
 XXXZ=             43.5483 YYYX=              5.5057 YYYZ=            -25.0690 ZZZX=              3.7110
 ZZZY=            -13.9003 XXYY=           -765.8609 XXZZ=           -683.1693 YYZZ=           -221.0717
 XXYZ=             12.6488 YYXZ=            -11.5003 ZZXY=             -0.8399
 N-N= 1.009458299461D+03 E-N=-3.581040007461D+03  KE= 6.648240222311D+02
   1 Symmetry operations used in ECPInt.
 ECPInt:  NShTT=   10011 NPrTT=   35491 LenC2=    9427 LenP2D=   24581.
 LDataN:  DoStor=T MaxTD1= 5 Len=  102
 D1PCM: PCM CHGder 1st derivatives, ID1Alg=3 FixD1E=F DoIter=F DoCFld=F I1PDM=0.
 Calling FoFJK, ICntrl=      2127 FMM=F ISym2X=0 I1Cent= 0 IOpClX= 0 NMat=1 NMatS=1 NMatT=0.
 ***** Axes restored to original set *****
 -------------------------------------------------------------------
 Center     Atomic                   Forces (Hartrees/Bohr)
 Number     Number              X              Y              Z
 -------------------------------------------------------------------
      1        6           0.000568423    0.000420026    0.000040785
      2        6          -0.001006589   -0.000163093    0.000337813
      3        8           0.000130377   -0.000375543    0.000009313
      4        6          -0.000055693   -0.003217168    0.003203211
      5        6           0.000102922   -0.000151810   -0.000555913
      6        1           0.000067994    0.000098136   -0.000132970
      7        1          -0.000187577   -0.000015381   -0.000076454
      8        1          -0.000043818    0.000249182    0.000156719
      9        7          -0.000021389    0.002024089   -0.002303171
     10        1           0.000362159    0.000145299   -0.000091250
     11        1          -0.000042117    0.000391285    0.000185180
     12        6           0.000011447   -0.000080063   -0.000200272
     13        6           0.000022134   -0.000017143    0.000044356
     14        6          -0.000002946   -0.000022303    0.000012213
     15        6           0.000019546    0.000016697   -0.000012265
     16        6          -0.000022520   -0.000021004    0.000008450
     17        6          -0.000002429    0.000074491   -0.000054976
     18        1           0.000029529    0.000099031   -0.000067658
     19        1          -0.000012250   -0.000048167    0.000034072
     20        1           0.000006759    0.000019354   -0.000008806
     21        1           0.000005717   -0.000010568    0.000015771
     22        1          -0.000011189    0.000024447    0.000008580
     23        6           0.000098132    0.000236221   -0.000286095
     24        1          -0.000038004    0.000112981    0.000027626
     25        1           0.000008555    0.000029789    0.000037713
     26        1          -0.000018519   -0.000044603   -0.000037515
     27        1          -0.000124954    0.000083473   -0.000328373
     28        8           0.000208344    0.000160710   -0.000054415
     29        6          -0.000124119   -0.000082557    0.000075340
     30        1           0.000028865    0.000018671   -0.000016772
     31        1           0.000015239    0.000046166    0.000009225
     32        1           0.000027969   -0.000000644    0.000020536
 -------------------------------------------------------------------
 Cartesian Forces:  Max     0.003217168 RMS     0.000587795

 GradGradGradGradGradGradGradGradGradGradGradGradGradGradGradGradGradGrad
 Berny optimization.
 FormGI is forming the generalized inverse of G from B-inverse, IUseBI=4.
 Internal  Forces:  Max     0.003893216 RMS     0.000357166
 Search for a saddle point.
 Step number   1 out of a maximum of   50
 All quantities printed in internal units (Hartrees-Bohrs-Radians)
 Swapping is turned off.
 Second derivative matrix not updated -- first step.
 ITU=  0
     Eigenvalues ---    0.00106   0.00123   0.00155   0.00306   0.00362
     Eigenvalues ---    0.00635   0.00871   0.01065   0.01180   0.01260
     Eigenvalues ---    0.01397   0.01750   0.02024   0.02471   0.02566
     Eigenvalues ---    0.02812   0.02931   0.03060   0.03441   0.03517
     Eigenvalues ---    0.03603   0.03712   0.03741   0.03919   0.04224
     Eigenvalues ---    0.05809   0.05863   0.06165   0.06237   0.06758
     Eigenvalues ---    0.08473   0.09023   0.10684   0.10880   0.10915
     Eigenvalues ---    0.10928   0.11049   0.11126   0.11418   0.11701
     Eigenvalues ---    0.12112   0.12695   0.13312   0.14194   0.14241
     Eigenvalues ---    0.14613   0.14878   0.15208   0.15436   0.15730
     Eigenvalues ---    0.15780   0.16532   0.17140   0.19056   0.20550
     Eigenvalues ---    0.21731   0.23195   0.23539   0.25169   0.25707
     Eigenvalues ---    0.25725   0.25872   0.26040   0.26144   0.26238
     Eigenvalues ---    0.26255   0.26783   0.26949   0.27292   0.27791
     Eigenvalues ---    0.27804   0.27848   0.27908   0.28054   0.29438
     Eigenvalues ---    0.29783   0.32606   0.36059   0.38112   0.41796
     Eigenvalues ---    0.47795   0.51593   0.52687   0.54008   0.54480
     Eigenvalues ---    0.55133   0.57599   0.59283   0.70516   0.81640
 Eigenvectors required to have negative eigenvalues:
                          D70       D72       D71       D27       D23
   1                   -0.34980  -0.34281  -0.33677   0.31906   0.31884
                          D25       D26       D22       D24       D42
   1                    0.30761   0.27576   0.27554   0.26431   0.08741
 RFO step:  Lambda0=1.130763888D-03 Lambda=-4.04334683D-04.
 Linear search not attempted -- option 19 set.
 Iteration  1 RMS(Cart)=  0.08843609 RMS(Int)=  0.00270177
 Iteration  2 RMS(Cart)=  0.00394639 RMS(Int)=  0.00002906
 Iteration  3 RMS(Cart)=  0.00000775 RMS(Int)=  0.00002870
 Iteration  4 RMS(Cart)=  0.00000000 RMS(Int)=  0.00002870
 Variable       Old X    -DE/DX   Delta X   Delta X   Delta X     New X
                                 (Linear)    (Quad)   (Total)
    R1        2.65384   0.00071   0.00000   0.00404   0.00404   2.65788
    R2        2.79109   0.00009   0.00000  -0.00807  -0.00807   2.78302
    R3        2.05702  -0.00007   0.00000   0.00092   0.00092   2.05794
    R4        2.34966  -0.00038   0.00000  -0.00272  -0.00272   2.34693
    R5        2.59890  -0.00021   0.00000  -0.00038  -0.00038   2.59852
    R6        3.06813   0.00389   0.00000   0.03137   0.03137   3.09950
    R7        2.89566   0.00004   0.00000  -0.00190  -0.00190   2.89377
    R8        2.88841  -0.00002   0.00000  -0.00237  -0.00237   2.88604
    R9        2.06934  -0.00000   0.00000   0.00061   0.00061   2.06994
   R10        2.07320   0.00007   0.00000   0.00002   0.00002   2.07322
   R11        2.07706  -0.00004   0.00000  -0.00281  -0.00281   2.07425
   R12        2.79642   0.00019   0.00000  -0.00129  -0.00129   2.79513
   R13        1.93458  -0.00007   0.00000  -0.00332  -0.00332   1.93126
   R14        1.93737   0.00011   0.00000  -0.00108  -0.00108   1.93629
   R15        2.65412  -0.00001   0.00000  -0.00107  -0.00107   2.65305
   R16        2.64443  -0.00002   0.00000   0.00158   0.00158   2.64601
   R17        2.63062   0.00001   0.00000   0.00046   0.00046   2.63108
   R18        2.06535   0.00000   0.00000   0.00155   0.00155   2.06689
   R19        2.63621  -0.00000   0.00000  -0.00060  -0.00060   2.63561
   R20        2.06401   0.00000   0.00000   0.00005   0.00005   2.06406
   R21        2.63061   0.00001   0.00000   0.00072   0.00072   2.63133
   R22        2.06370   0.00000   0.00000   0.00009   0.00009   2.06379
   R23        2.63794   0.00001   0.00000  -0.00081  -0.00081   2.63714
   R24        2.06402   0.00001   0.00000  -0.00008  -0.00008   2.06393
   R25        2.05984   0.00002   0.00000   0.00005   0.00005   2.05989
   R26        2.07141   0.00007   0.00000   0.00081   0.00081   2.07222
   R27        2.07393   0.00002   0.00000  -0.00021  -0.00021   2.07372
   R28        2.08319  -0.00005   0.00000  -0.00057  -0.00057   2.08262
   R29        2.65389   0.00006   0.00000   0.00039   0.00039   2.65428
   R30        2.08284   0.00001   0.00000  -0.00058  -0.00058   2.08226
   R31        2.07568  -0.00005   0.00000   0.00004   0.00004   2.07572
   R32        2.08213   0.00001   0.00000   0.00086   0.00086   2.08299
    A1        2.16408   0.00077   0.00000   0.00603   0.00602   2.17009
    A2        2.04676  -0.00052   0.00000  -0.00962  -0.00964   2.03712
    A3        2.06349  -0.00025   0.00000   0.00451   0.00450   2.06799
    A4        2.25520   0.00018   0.00000   0.00133   0.00133   2.25653
    A5        1.95957  -0.00014   0.00000  -0.00284  -0.00284   1.95673
    A6        2.06814  -0.00004   0.00000   0.00151   0.00151   2.06965
    A7        1.90512   0.00030   0.00000   0.00106   0.00115   1.90627
    A8        1.93992  -0.00009   0.00000   0.01619   0.01614   1.95605
    A9        2.00489   0.00005   0.00000   0.00349   0.00340   2.00829
   A10        1.77427  -0.00026   0.00000  -0.01907  -0.01906   1.75520
   A11        1.84234  -0.00018   0.00000  -0.00907  -0.00910   1.83324
   A12        1.97836   0.00015   0.00000   0.00277   0.00252   1.98089
   A13        1.91025  -0.00008   0.00000   0.00058   0.00058   1.91083
   A14        1.90868  -0.00013   0.00000  -0.00395  -0.00395   1.90472
   A15        1.90450  -0.00005   0.00000  -0.00267  -0.00267   1.90183
   A16        1.95537  -0.00016   0.00000  -0.00029  -0.00030   1.95507
   A17        1.90387   0.00012   0.00000   0.00297   0.00296   1.90683
   A18        1.88042   0.00032   0.00000   0.00334   0.00333   1.88375
   A19        2.04707   0.00105   0.00000  -0.00077  -0.00077   2.04630
   A20        1.78524  -0.00032   0.00000  -0.00216  -0.00216   1.78307
   A21        1.91616  -0.00020   0.00000  -0.00103  -0.00103   1.91512
   A22        1.90112  -0.00020   0.00000   0.00477   0.00477   1.90589
   A23        1.93221  -0.00051   0.00000  -0.00031  -0.00031   1.93190
   A24        1.86908   0.00014   0.00000  -0.00043  -0.00043   1.86864
   A25        2.08708   0.00008   0.00000   0.00226   0.00222   2.08930
   A26        2.13732  -0.00008   0.00000  -0.00176  -0.00180   2.13553
   A27        2.05826  -0.00000   0.00000  -0.00099  -0.00104   2.05723
   A28        2.11543   0.00001   0.00000   0.00083   0.00081   2.11624
   A29        2.08844  -0.00000   0.00000  -0.00215  -0.00216   2.08628
   A30        2.07908  -0.00000   0.00000   0.00150   0.00149   2.08057
   A31        2.09747  -0.00000   0.00000  -0.00012  -0.00013   2.09734
   A32        2.08831   0.00000   0.00000  -0.00033  -0.00032   2.08799
   A33        2.09737   0.00000   0.00000   0.00046   0.00046   2.09783
   A34        2.08207  -0.00001   0.00000  -0.00007  -0.00007   2.08200
   A35        2.10040   0.00000   0.00000   0.00024   0.00024   2.10065
   A36        2.10070   0.00001   0.00000  -0.00017  -0.00016   2.10054
   A37        2.10179   0.00001   0.00000  -0.00016  -0.00016   2.10163
   A38        2.09649  -0.00001   0.00000  -0.00041  -0.00041   2.09608
   A39        2.08490   0.00000   0.00000   0.00057   0.00057   2.08547
   A40        2.11131  -0.00000   0.00000   0.00049   0.00049   2.11179
   A41        2.10186  -0.00001   0.00000  -0.00040  -0.00040   2.10146
   A42        2.06997   0.00001   0.00000  -0.00008  -0.00008   2.06989
   A43        1.90821   0.00012   0.00000   0.00228   0.00228   1.91049
   A44        1.88552   0.00006   0.00000  -0.00180  -0.00180   1.88372
   A45        1.98173  -0.00010   0.00000   0.00186   0.00186   1.98359
   A46        1.87455  -0.00003   0.00000   0.00276   0.00276   1.87731
   A47        1.91757  -0.00004   0.00000  -0.00417  -0.00417   1.91341
   A48        1.89297  -0.00001   0.00000  -0.00083  -0.00083   1.89214
   A49        2.02923  -0.00006   0.00000   0.00063   0.00063   2.02985
   A50        1.95491  -0.00005   0.00000  -0.01159  -0.01159   1.94332
   A51        1.85907   0.00002   0.00000  -0.00056  -0.00058   1.85849
   A52        1.95579  -0.00004   0.00000   0.01174   0.01175   1.96754
   A53        1.90832   0.00002   0.00000   0.00098   0.00096   1.90928
   A54        1.87755   0.00003   0.00000   0.00209   0.00211   1.87965
   A55        1.90778   0.00001   0.00000  -0.00276  -0.00277   1.90501
    D1        0.16028  -0.00004   0.00000  -0.00566  -0.00564   0.15464
    D2       -3.00715   0.00007   0.00000  -0.00573  -0.00572  -3.01286
    D3       -3.12682  -0.00011   0.00000   0.00203   0.00202  -3.12481
    D4       -0.01107  -0.00000   0.00000   0.00196   0.00194  -0.00913
    D5       -1.33640  -0.00042   0.00000  -0.03265  -0.03263  -1.36903
    D6        3.00370  -0.00023   0.00000  -0.01895  -0.01892   2.98478
    D7        0.72822  -0.00040   0.00000  -0.04122  -0.04124   0.68698
    D8        1.95200  -0.00033   0.00000  -0.03932  -0.03932   1.91268
    D9        0.00892  -0.00014   0.00000  -0.02562  -0.02561  -0.01669
   D10       -2.26656  -0.00031   0.00000  -0.04789  -0.04793  -2.31449
   D11       -3.08281  -0.00015   0.00000   0.00055   0.00055  -3.08226
   D12        0.03600  -0.00005   0.00000   0.00049   0.00049   0.03649
   D13        1.41162  -0.00002   0.00000  -0.05366  -0.05367   1.35795
   D14       -0.66654  -0.00010   0.00000  -0.05765  -0.05766  -0.72420
   D15       -2.64667  -0.00003   0.00000  -0.05570  -0.05571  -2.70238
   D16       -2.82090  -0.00013   0.00000  -0.04434  -0.04438  -2.86528
   D17        1.38412  -0.00021   0.00000  -0.04833  -0.04837   1.33576
   D18       -0.59601  -0.00014   0.00000  -0.04638  -0.04642  -0.64243
   D19       -0.75222  -0.00014   0.00000  -0.05296  -0.05291  -0.80513
   D20       -2.83038  -0.00023   0.00000  -0.05695  -0.05689  -2.88728
   D21        1.47267  -0.00015   0.00000  -0.05500  -0.05495   1.41773
   D22        0.84675   0.00003   0.00000  -0.12672  -0.12680   0.71996
   D23       -2.33035   0.00003   0.00000  -0.14348  -0.14357  -2.47391
   D24       -1.17859  -0.00014   0.00000  -0.12459  -0.12454  -1.30313
   D25        1.92749  -0.00014   0.00000  -0.14135  -0.14131   1.78618
   D26        3.13601   0.00015   0.00000  -0.10458  -0.10454   3.03147
   D27       -0.04110   0.00014   0.00000  -0.12134  -0.12131  -0.16240
   D28       -0.81417  -0.00012   0.00000   0.01452   0.01450  -0.79966
   D29        1.22067  -0.00006   0.00000   0.01804   0.01802   1.23868
   D30       -2.96226  -0.00008   0.00000   0.01691   0.01689  -2.94536
   D31        1.28544   0.00016   0.00000   0.01158   0.01159   1.29703
   D32       -2.96292   0.00022   0.00000   0.01509   0.01511  -2.94781
   D33       -0.86265   0.00020   0.00000   0.01397   0.01398  -0.84867
   D34       -3.07079  -0.00017   0.00000  -0.01481  -0.01480  -3.08559
   D35       -1.03596  -0.00011   0.00000  -0.01129  -0.01129  -1.04725
   D36        1.06431  -0.00013   0.00000  -0.01242  -0.01241   1.05189
   D37        1.27829   0.00014   0.00000   0.03319   0.03319   1.31148
   D38       -2.98958   0.00025   0.00000   0.03342   0.03342  -2.95616
   D39       -0.93882  -0.00000   0.00000   0.03560   0.03560  -0.90322
   D40       -2.91875   0.00009   0.00000   0.03407   0.03407  -2.88469
   D41       -0.90343   0.00019   0.00000   0.03430   0.03430  -0.86914
   D42        1.14732  -0.00006   0.00000   0.03648   0.03648   1.18380
   D43       -0.79232   0.00015   0.00000   0.03749   0.03750  -0.75483
   D44        1.22299   0.00026   0.00000   0.03773   0.03773   1.26072
   D45       -3.00943   0.00001   0.00000   0.03990   0.03991  -2.96952
   D46        3.10707   0.00004   0.00000  -0.00123  -0.00124   3.10583
   D47       -0.05790   0.00006   0.00000   0.00751   0.00749  -0.05040
   D48       -0.00061   0.00004   0.00000   0.01480   0.01480   0.01418
   D49        3.11761   0.00006   0.00000   0.02354   0.02353   3.14114
   D50       -3.11351  -0.00003   0.00000   0.00371   0.00369  -3.10983
   D51        0.03929  -0.00001   0.00000   0.00310   0.00308   0.04237
   D52       -0.00687  -0.00003   0.00000  -0.01273  -0.01272  -0.01960
   D53       -3.13725  -0.00001   0.00000  -0.01334  -0.01333   3.13261
   D54        0.00529  -0.00003   0.00000  -0.00763  -0.00764  -0.00235
   D55        3.13850  -0.00003   0.00000  -0.00598  -0.00598   3.13252
   D56       -3.11305  -0.00005   0.00000  -0.01628  -0.01630  -3.12935
   D57        0.02016  -0.00005   0.00000  -0.01463  -0.01464   0.00552
   D58       -0.00248   0.00001   0.00000  -0.00198  -0.00198  -0.00446
   D59        3.13547   0.00001   0.00000   0.00020   0.00020   3.13567
   D60       -3.13564   0.00001   0.00000  -0.00364  -0.00364  -3.13929
   D61        0.00230   0.00001   0.00000  -0.00145  -0.00146   0.00084
   D62       -0.00495  -0.00000   0.00000   0.00401   0.00401  -0.00094
   D63        3.13562  -0.00001   0.00000   0.00432   0.00432   3.13994
   D64        3.14029  -0.00001   0.00000   0.00183   0.00183  -3.14107
   D65       -0.00232  -0.00001   0.00000   0.00214   0.00214  -0.00019
   D66        0.00977   0.00001   0.00000   0.00353   0.00353   0.01330
   D67        3.14035  -0.00001   0.00000   0.00413   0.00413  -3.13871
   D68       -3.13081   0.00002   0.00000   0.00323   0.00323  -3.12758
   D69       -0.00023  -0.00000   0.00000   0.00383   0.00382   0.00359
   D70        1.03542  -0.00002   0.00000   0.17758   0.17755   1.21296
   D71        3.12106  -0.00001   0.00000   0.17182   0.17182  -2.99030
   D72       -1.07663  -0.00000   0.00000   0.17478   0.17480  -0.90183
         Item               Value     Threshold  Converged?
 Maximum Force            0.003893     0.000450     NO 
 RMS     Force            0.000357     0.000300     NO 
 Maximum Displacement     0.307503     0.001800     NO 
 RMS     Displacement     0.088584     0.001200     NO 
 Predicted change in Energy=-6.628044D-05
 GradGradGradGradGradGradGradGradGradGradGradGradGradGradGradGradGradGrad

                          Input orientation:                          
 ---------------------------------------------------------------------
 Center     Atomic      Atomic             Coordinates (Angstroms)
 Number     Number       Type             X           Y           Z
 ---------------------------------------------------------------------
      1          6           0       -0.925189   -0.588379   -0.038113
      2          6           0       -2.311936   -0.440792    0.144542
      3          8           0       -2.967681    0.584039    0.393830
      4          6           0        0.064281    0.471078    0.221451
      5          6           0       -1.040154    2.517189   -1.079647
      6          1           0       -0.858039    3.292441   -0.327553
      7          1           0       -1.071702    2.974554   -2.076365
      8          1           0       -1.973852    1.993340   -0.837541
      9          7           0        0.061244    1.531156   -1.030120
     10          1           0       -0.007441    0.909687   -1.838511
     11          1           0        0.970211    2.000526   -1.088048
     12          6           0        1.501374   -0.051921    0.142960
     13          6           0        1.858780   -0.954837   -0.870962
     14          6           0        3.165618   -1.418053   -0.997972
     15          6           0        4.151848   -0.985418   -0.111756
     16          6           0        3.815425   -0.083657    0.894492
     17          6           0        2.506131    0.383877    1.015389
     18          1           0        1.095385   -1.313329   -1.567387
     19          1           0        3.412644   -2.126847   -1.791453
     20          1           0        5.176701   -1.351022   -0.205131
     21          1           0        4.576959    0.262663    1.596630
     22          1           0        2.276226    1.091260    1.812228
     23          6           0       -0.207614    1.320748    1.461031
     24          1           0       -1.264819    1.611301    1.480143
     25          1           0       -0.019198    0.698514    2.345075
     26          1           0        0.424962    2.220740    1.527599
     27          1           0       -0.565339   -1.590503   -0.266593
     28          8           0       -2.984501   -1.629434   -0.015544
     29          6           0       -4.384883   -1.569228    0.074823
     30          1           0       -4.820037   -1.039604   -0.787901
     31          1           0       -4.741625   -2.608075    0.082867
[...]
 Alpha virt. eigenvalues --    2.15950   2.16475   2.19007   2.20270   2.21273
 Alpha virt. eigenvalues --    2.23362   2.24040   2.25513   2.28892   2.32138
 Alpha virt. eigenvalues --    2.35354   2.35462   2.37598   2.38759   2.39490
 Alpha virt. eigenvalues --    2.40509   2.41329   2.43102   2.43677   2.45023
 Alpha virt. eigenvalues --    2.46120   2.48520   2.50292   2.50527   2.52539
 Alpha virt. eigenvalues --    2.56569   2.59018   2.61863   2.62664   2.67331
 Alpha virt. eigenvalues --    2.70936   2.71548   2.73053   2.73981   2.76629
 Alpha virt. eigenvalues --    2.77526   2.78871   2.80003   2.81067   2.81841
 Alpha virt. eigenvalues --    2.82467   2.83819   2.87099   2.89979   2.91666
 Alpha virt. eigenvalues --    2.93261   2.96239   2.97176   2.99616   3.02717
 Alpha virt. eigenvalues --    3.03820   3.04190   3.05972   3.08712   3.09985
 Alpha virt. eigenvalues --    3.12355   3.13225   3.16289   3.20928   3.24448
 Alpha virt. eigenvalues --    3.28879   3.31410   3.32510   3.34469   3.47555
 Alpha virt. eigenvalues --    3.58546   3.71238   3.74155   3.82656
          Condensed to atoms (all electrons):
               1          2          3          4          5          6
     1  C    5.738149   0.352986  -0.141301   0.255392   0.002722  -0.000579
     2  C    0.352986   4.449360   0.636629  -0.016477  -0.000907   0.000199
     3  O   -0.141301   0.636629   7.928230   0.016856  -0.017136   0.000479
     4  C    0.255392  -0.016477   0.016856   5.474424  -0.031427  -0.012681
     5  C    0.002722  -0.000907  -0.017136  -0.031427   4.540165   0.395582
     6  H   -0.000579   0.000199   0.000479  -0.012681   0.395582   0.592400
     7  H   -0.000490   0.000013   0.000255   0.005242   0.397472  -0.021130
     8  H   -0.002441   0.000393   0.041305  -0.003708   0.385464  -0.012185
     9  N   -0.092126  -0.004912   0.001552   0.095456   0.303752  -0.015108
    10  H    0.001665   0.006784   0.002441   0.012825  -0.014503   0.005527
    11  H    0.006532  -0.000331  -0.000008  -0.004784  -0.015636  -0.006064
    12  C   -0.051517   0.010347   0.000818   0.166196   0.004265   0.000662
    13  C   -0.014884   0.000362  -0.000004  -0.097485   0.000064   0.000155
    14  C    0.000757  -0.000005  -0.000000   0.013079   0.000009  -0.000001
    15  C    0.000004   0.000000  -0.000000  -0.001744  -0.000001  -0.000000
    16  C   -0.000469   0.000007  -0.000000   0.021154  -0.000001  -0.000005
    17  C    0.007212  -0.000553  -0.000003  -0.089719   0.000139  -0.000152
    18  H    0.018653  -0.000763  -0.000036  -0.014649   0.000026  -0.000023
    19  H   -0.000018  -0.000001   0.000000  -0.000297  -0.000000  -0.000000
    20  H    0.000001   0.000000   0.000000   0.000020   0.000000   0.000000
    21  H    0.000005  -0.000000   0.000000  -0.000276  -0.000000  -0.000000
    22  H    0.000441  -0.000025   0.000004  -0.034902  -0.000089  -0.000080
    23  C   -0.043445  -0.016348  -0.016166   0.402108   0.020667   0.007120
    24  H   -0.024600   0.003020   0.024909   0.007927   0.004759  -0.002373
    25  H   -0.000225  -0.001285   0.000018  -0.009016  -0.000055   0.000110
    26  H    0.009570   0.000999   0.000053   0.004274  -0.002091   0.001062
    27  H    0.404051  -0.010864   0.004199  -0.062934  -0.000052   0.000004
    28  O   -0.131490   0.364732  -0.083523   0.005267  -0.000041   0.000001
    29  C    0.010640  -0.039267   0.001374  -0.000479   0.000006   0.000000
    30  H    0.001087  -0.003950   0.008323   0.000047  -0.000005  -0.000000
    31  H    0.000165   0.005688   0.001056   0.000001  -0.000000  -0.000000
    32  H    0.000781  -0.005486   0.009401   0.000055   0.000004  -0.000000
               7          8          9         10         11         12
     1  C   -0.000490  -0.002441  -0.092126   0.001665   0.006532  -0.051517
     2  C    0.000013   0.000393  -0.004912   0.006784  -0.000331   0.010347
     3  O    0.000255   0.041305   0.001552   0.002441  -0.000008   0.000818
     4  C    0.005242  -0.003708   0.095456   0.012825  -0.004784   0.166196
     5  C    0.397472   0.385464   0.303752  -0.014503  -0.015636   0.004265
     6  H   -0.021130  -0.012185  -0.015108   0.005527  -0.006064   0.000662
     7  H    0.588696  -0.014129  -0.016520  -0.006380  -0.005446  -0.000278
     8  H   -0.014129   0.520893  -0.016646  -0.004428   0.005269   0.000368
     9  N   -0.016520  -0.016646   6.306173   0.320782   0.332746  -0.025172
    10  H   -0.006380  -0.004428   0.320782   0.491665  -0.007055  -0.008733
    11  H   -0.005446   0.005269   0.332746  -0.007055   0.509023  -0.008660
    12  C   -0.000278   0.000368  -0.025172  -0.008733  -0.008660   5.496662
    13  C   -0.000073  -0.000020  -0.010234   0.005240   0.005572   0.273900
    14  C   -0.000001  -0.000001  -0.000342   0.000123  -0.000337   0.071192
    15  C    0.000000   0.000000   0.000046   0.000008  -0.000030  -0.142766
    16  C    0.000000  -0.000001  -0.000177   0.000003  -0.000306   0.065551
    17  C   -0.000005  -0.000017  -0.000180  -0.000370   0.002135   0.344506
    18  H   -0.000012   0.000008  -0.003161   0.002184   0.001870  -0.080226
    19  H    0.000000   0.000000   0.000003  -0.000006   0.000013   0.014306
    20  H   -0.000000   0.000000  -0.000000   0.000000  -0.000003  -0.001482
    21  H    0.000000   0.000000   0.000002  -0.000000   0.000002   0.014434
    22  H    0.000000   0.000011   0.000377  -0.000021   0.000106  -0.050050
    23  C   -0.000267  -0.001559  -0.060144   0.006037   0.002688  -0.069457
    24  H    0.000183  -0.001098  -0.010358   0.000259  -0.000160   0.007032
    25  H   -0.000018   0.000088   0.005999  -0.000250  -0.000241  -0.008945
    26  H    0.000314  -0.000664  -0.002470  -0.000740   0.000621  -0.016190
    27  H    0.000011  -0.000131   0.003454   0.000462  -0.000100  -0.004252
    28  O    0.000001   0.000299   0.000052  -0.000510   0.000003  -0.000017
    29  C    0.000000  -0.000037   0.000012  -0.000041  -0.000001   0.000005
    30  H   -0.000002   0.000043  -0.000027   0.000167   0.000001  -0.000004
    31  H   -0.000000   0.000001   0.000000  -0.000002   0.000000  -0.000001
    32  H    0.000000  -0.000046   0.000004  -0.000032  -0.000000   0.000001
              13         14         15         16         17         18
     1  C   -0.014884   0.000757   0.000004  -0.000469   0.007212   0.018653
     2  C    0.000362  -0.000005   0.000000   0.000007  -0.000553  -0.000763
     3  O   -0.000004  -0.000000  -0.000000  -0.000000  -0.000003  -0.000036
     4  C   -0.097485   0.013079  -0.001744   0.021154  -0.089719  -0.014649
     5  C    0.000064   0.000009  -0.000001  -0.000001   0.000139   0.000026
     6  H    0.000155  -0.000001  -0.000000  -0.000005  -0.000152  -0.000023
     7  H   -0.000073  -0.000001   0.000000   0.000000  -0.000005  -0.000012
     8  H   -0.000020  -0.000001   0.000000  -0.000001  -0.000017   0.000008
     9  N   -0.010234  -0.000342   0.000046  -0.000177  -0.000180  -0.003161
    10  H    0.005240   0.000123   0.000008   0.000003  -0.000370   0.002184
    11  H    0.005572  -0.000337  -0.000030  -0.000306   0.002135   0.001870
    12  C    0.273900   0.071192  -0.142766   0.065551   0.344506  -0.080226
    13  C    5.177310   0.323167   0.073150  -0.131980   0.031716   0.453619
    14  C    0.323167   5.021699   0.296306   0.075203  -0.122568  -0.055159
    15  C    0.073150   0.296306   5.076878   0.305247   0.068686   0.013102
    16  C   -0.131980   0.075203   0.305247   5.061502   0.301159  -0.002029
    17  C    0.031716  -0.122568   0.068686   0.301159   5.068301   0.012880
    18  H    0.453619  -0.055159   0.013102  -0.002029   0.012880   0.643078
    19  H   -0.063372   0.449284  -0.067072   0.012344  -0.001626  -0.011542
    20  H    0.012520  -0.064075   0.447532  -0.062608   0.012556  -0.000187
    21  H   -0.001599   0.012221  -0.067268   0.445035  -0.058965   0.000021
    22  H    0.013413  -0.001868   0.013116  -0.067823   0.448235  -0.000137
    23  C    0.014783  -0.000475   0.000143  -0.000907   0.009332   0.000965
    24  H   -0.000096   0.000006   0.000003  -0.000045   0.000707   0.000051
    25  H   -0.000134   0.000024  -0.000048   0.000671   0.000077  -0.000029
    26  H   -0.001273  -0.000002  -0.000050   0.000934   0.004106  -0.000095
    27  H   -0.003703   0.000733  -0.000097   0.000005   0.000462   0.000716
    28  O   -0.000021  -0.000000  -0.000000   0.000000   0.000000  -0.000018
    29  C    0.000000   0.000000  -0.000000   0.000000  -0.000000  -0.000005
    30  H    0.000001   0.000000  -0.000000   0.000000  -0.000000   0.000000
    31  H    0.000000  -0.000000   0.000000  -0.000000   0.000000   0.000000
    32  H   -0.000000  -0.000000  -0.000000  -0.000000   0.000000  -0.000000
              19         20         21         22         23         24
     1  C   -0.000018   0.000001   0.000005   0.000441  -0.043445  -0.024600
     2  C   -0.000001   0.000000  -0.000000  -0.000025  -0.016348   0.003020
     3  O    0.000000   0.000000   0.000000   0.000004  -0.016166   0.024909
     4  C   -0.000297   0.000020  -0.000276  -0.034902   0.402108   0.007927
     5  C   -0.000000   0.000000  -0.000000  -0.000089   0.020667   0.004759
     6  H   -0.000000   0.000000  -0.000000  -0.000080   0.007120  -0.002373
     7  H    0.000000  -0.000000   0.000000   0.000000  -0.000267   0.000183
     8  H    0.000000   0.000000   0.000000   0.000011  -0.001559  -0.001098
     9  N    0.000003  -0.000000   0.000002   0.000377  -0.060144  -0.010358
    10  H   -0.000006   0.000000  -0.000000  -0.000021   0.006037   0.000259
    11  H    0.000013  -0.000003   0.000002   0.000106   0.002688  -0.000160
    12  C    0.014306  -0.001482   0.014434  -0.050050  -0.069457   0.007032
    13  C   -0.063372   0.012520  -0.001599   0.013413   0.014783  -0.000096
    14  C    0.449284  -0.064075   0.012221  -0.001868  -0.000475   0.000006
    15  C   -0.067072   0.447532  -0.067268   0.013116   0.000143   0.000003
    16  C    0.012344  -0.062608   0.445035  -0.067823  -0.000907  -0.000045
    17  C   -0.001626   0.012556  -0.058965   0.448235   0.009332   0.000707
    18  H   -0.011542  -0.000187   0.000021  -0.000137   0.000965   0.000051
    19  H    0.647173  -0.010562  -0.000208   0.000023   0.000004  -0.000000
    20  H   -0.010562   0.644720  -0.010587  -0.000202   0.000000   0.000000
    21  H   -0.000208  -0.010587   0.649006  -0.011790  -0.000002  -0.000000
    22  H    0.000023  -0.000202  -0.011790   0.653591   0.019740   0.000023
    23  C    0.000004   0.000000  -0.000002   0.019740   4.543028   0.373666
    24  H   -0.000000   0.000000  -0.000000   0.000023   0.373666   0.594152
    25  H    0.000000  -0.000000   0.000011   0.000633   0.388096  -0.012009
    26  H    0.000000  -0.000000   0.000019  -0.001146   0.355336  -0.027058
    27  H    0.000040  -0.000001   0.000000   0.000011   0.002022   0.000048
    28  O    0.000000  -0.000000   0.000000   0.000000  -0.000166   0.000068
    29  C   -0.000000   0.000000  -0.000000  -0.000000   0.000009  -0.000067
    30  H   -0.000000  -0.000000   0.000000  -0.000000   0.000014  -0.000049
    31  H   -0.000000  -0.000000   0.000000  -0.000000   0.000002  -0.000003
    32  H    0.000000  -0.000000  -0.000000  -0.000000  -0.000037   0.000159
              25         26         27         28         29         30
     1  C   -0.000225   0.009570   0.404051  -0.131490   0.010640   0.001087
     2  C   -0.001285   0.000999  -0.010864   0.364732  -0.039267  -0.003950
     3  O    0.000018   0.000053   0.004199  -0.083523   0.001374   0.008323
     4  C   -0.009016   0.004274  -0.062934   0.005267  -0.000479   0.000047
     5  C   -0.000055  -0.002091  -0.000052  -0.000041   0.000006  -0.000005
     6  H    0.000110   0.001062   0.000004   0.000001   0.000000  -0.000000
     7  H   -0.000018   0.000314   0.000011   0.000001   0.000000  -0.000002
     8  H    0.000088  -0.000664  -0.000131   0.000299  -0.000037   0.000043
     9  N    0.005999  -0.002470   0.003454   0.000052   0.000012  -0.000027
    10  H   -0.000250  -0.000740   0.000462  -0.000510  -0.000041   0.000167
    11  H   -0.000241   0.000621  -0.000100   0.000003  -0.000001   0.000001
    12  C   -0.008945  -0.016190  -0.004252  -0.000017   0.000005  -0.000004
    13  C   -0.000134  -0.001273  -0.003703  -0.000021   0.000000   0.000001
    14  C    0.000024  -0.000002   0.000733  -0.000000   0.000000   0.000000
    15  C   -0.000048  -0.000050  -0.000097  -0.000000  -0.000000  -0.000000
    16  C    0.000671   0.000934   0.000005   0.000000   0.000000   0.000000
    17  C    0.000077   0.004106   0.000462   0.000000  -0.000000  -0.000000
    18  H   -0.000029  -0.000095   0.000716  -0.000018  -0.000005   0.000000
    19  H    0.000000   0.000000   0.000040   0.000000  -0.000000  -0.000000
    20  H   -0.000000  -0.000000  -0.000001  -0.000000   0.000000  -0.000000
    21  H    0.000011   0.000019   0.000000   0.000000  -0.000000   0.000000
    22  H    0.000633  -0.001146   0.000011   0.000000  -0.000000  -0.000000
    23  C    0.388096   0.355336   0.002022  -0.000166   0.000009   0.000014
    24  H   -0.012009  -0.027058   0.000048   0.000068  -0.000067  -0.000049
    25  H    0.604329  -0.024927   0.000785  -0.000010  -0.000001  -0.000000
    26  H   -0.024927   0.682683  -0.000158  -0.000000   0.000000  -0.000001
    27  H    0.000785  -0.000158   0.658648   0.006001  -0.000183   0.000032
    28  O   -0.000010  -0.000000   0.006001   8.011964   0.289113  -0.031991
    29  C   -0.000001   0.000000  -0.000183   0.289113   4.392622   0.397289
    30  H   -0.000000  -0.000001   0.000032  -0.031991   0.397289   0.676443
    31  H   -0.000000   0.000000  -0.000177  -0.025948   0.395435  -0.027676
    32  H    0.000001   0.000001   0.000027  -0.030504   0.401676  -0.038577
              31         32
     1  C    0.000165   0.000781
     2  C    0.005688  -0.005486
     3  O    0.001056   0.009401
     4  C    0.000001   0.000055
     5  C   -0.000000   0.000004
     6  H   -0.000000  -0.000000
     7  H   -0.000000   0.000000
     8  H    0.000001  -0.000046
     9  N    0.000000   0.000004
    10  H   -0.000002  -0.000032
    11  H    0.000000  -0.000000
    12  C   -0.000001   0.000001
    13  C    0.000000  -0.000000
    14  C   -0.000000  -0.000000
    15  C    0.000000  -0.000000
    16  C   -0.000000  -0.000000
    17  C    0.000000   0.000000
    18  H    0.000000  -0.000000
    19  H   -0.000000   0.000000
    20  H   -0.000000  -0.000000
    21  H    0.000000  -0.000000
    22  H   -0.000000  -0.000000
    23  C    0.000002  -0.000037
    24  H   -0.000003   0.000159
    25  H   -0.000000   0.000001
    26  H    0.000000   0.000001
    27  H   -0.000177   0.000027
    28  O   -0.025948  -0.030504
    29  C    0.395435   0.401676
    30  H   -0.027676  -0.038577
    31  H    0.645783  -0.027317
    32  H   -0.027317   0.663668
 Mulliken charges:
               1
     1  C   -0.307230
     2  C    0.269654
     3  O   -0.419723
     4  C   -0.099744
     5  C    0.026850
     6  H    0.067083
     7  H    0.072562
     8  H    0.102968
     9  N   -0.112831
    10  H    0.186898
    11  H    0.182583
    12  C   -0.002495
    13  C   -0.060097
    14  C   -0.018967
    15  C   -0.015144
    16  C   -0.022465
    17  C   -0.038051
    18  H    0.020899
    19  H    0.031513
    20  H    0.032359
    21  H    0.029940
    22  H    0.018411
    23  C    0.063213
    24  H    0.060944
    25  H    0.056350
    26  H    0.016893
    27  H    0.000939
    28  O   -0.373262
    29  C    0.151899
    30  H    0.018836
    31  H    0.032994
    32  H    0.026221
 Sum of Mulliken charges =  -0.00000
 Mulliken charges with hydrogens summed into heavy atoms:
               1
     1  C   -0.306290
     2  C    0.269654
     3  O   -0.419723
     4  C   -0.099744
     5  C    0.269462
     9  N    0.256650
    12  C   -0.002495
    13  C   -0.039197
    14  C    0.012546
    15  C    0.017215
    16  C    0.007475
    17  C   -0.019640
    23  C    0.197399
    28  O   -0.373262
    29  C    0.229949
 Electronic spatial extent (au):  <R**2>=           3887.7602
 Charge=              0.0000 electrons
 Dipole moment (field-independent basis, Debye):
    X=              5.2339    Y=              4.0259    Z=             -3.3733  Tot=              7.4149
 Quadrupole moment (field-independent basis, Debye-Ang):
   XX=            -92.4998   YY=            -85.3948   ZZ=            -82.7091
   XY=              0.2258   XZ=              2.1501   YZ=             -1.0259
 Traceless Quadrupole moment (field-independent basis, Debye-Ang):
   XX=             -5.6319   YY=              1.4731   ZZ=              4.1588
   XY=              0.2258   XZ=              2.1501   YZ=             -1.0259
 Octapole moment (field-independent basis, Debye-Ang**2):
  XXX=             15.3039  YYY=             30.7297  ZZZ=            -14.9380  XYY=             -3.6857
  XXY=            -24.9997  XXZ=              2.0860  XZZ=             -6.1983  YZZ=             11.7443
  YYZ=            -16.7738  XYZ=             10.1346
 Hexadecapole moment (field-independent basis, Debye-Ang**3):
 XXXX=          -3435.0478 YYYY=           -913.3483 ZZZZ=           -450.5037 XXXY=             50.2709
 XXXZ=             24.7913 YYYX=             -2.7352 YYYZ=            -21.7042 ZZZX=              7.9360
 ZZZY=            -13.7662 XXYY=           -775.7745 XXZZ=           -683.5272 YYZZ=           -219.4844
 XXYZ=             29.7273 YYXZ=             -8.2220 ZZXY=             -1.2368
 N-N= 1.010486340163D+03 E-N=-3.583104501000D+03  KE= 6.648224060112D+02
 Unable to Open any file for archive entry.
 1\1\GINC-NODE-001\FTS\RwB97XD\def2SVP\C12H17N1O2\JP2658\24-Dec-2023\0\
 \# wb97xd def2svp geom=allchk scrf=(iefpcm,solvent=toluene) opt=(readf
 c,ts,noeigen,maxcycles=50,maxstep=10)\\TS-92_opt_sqm_re3.out\\0,1\C,-0
 .8903067947,-0.7457286147,0.1434287504\C,-2.2761085265,-0.5351963909,0
 .1045236612\O,-2.8709471106,0.5541649693,0.0175575085\C,0.0384509236,0
 .3923754044,0.2780882879\C,-0.8599744767,2.6428701146,-0.9745368601\H,
 -0.2718239279,3.334644883,-0.3624853596\H,-0.9742103462,3.0585410657,-
 1.9843946624\H,-1.8413028668,2.4520979978,-0.5275386429\N,-0.164886030
 9,1.3453640421,-1.069541779\H,-0.7058989904,0.7084751397,-1.6631708438
 \H,0.7507337315,1.463137738,-1.5106870949\C,1.4961683796,-0.0517665017
 ,0.1639083463\C,1.8726701008,-0.9085864414,-0.8827673384\C,3.196197832
 1,-1.3091535494,-1.044192622\C,4.1756496311,-0.8651992089,-0.155416399
 2\C,3.8161903175,-0.0176443054,0.8892492183\C,2.4901932994,0.389691439
 7,1.0440823433\H,1.1078067001,-1.2779279058,-1.57028049\H,3.462547902,
 -1.9792069994,-1.8646265254\H,5.2138593361,-1.1818862236,-0.2759536175
 \H,4.5723468735,0.3327366889,1.5952674376\H,2.239195496,1.051711924,1.
 8730390304\C,-0.2309027087,1.2984065178,1.4782396588\H,-1.2970364045,1
 .550465565,1.5113838742\H,0.005940608,0.7260075581,2.3847460299\H,0.36
 70011218,2.2229639687,1.4890735335\H,-0.4984317748,-1.7607753633,0.159
 3648604\O,-3.0083122103,-1.6952880255,0.1256801984\C,-4.400136374,-1.5
 534122077,-0.0041076224\H,-4.6790594576,-1.0733048463,-0.9564505977\H,
 -4.822218121,-2.5666781114,0.0292434415\H,-4.8308361314,-0.9507903216,
 0.8112542747\\Version=ES64L-G16RevC.01\State=1-A\HF=-671.970648\RMSD=4
 .805e-09\RMSF=6.859e-06\Dipole=2.0281431,1.6848095,-1.2483418\Quadrupo
 le=-4.2187107,1.1569496,3.0617611,-0.0221776,1.5574634,-0.7938038\PG=C
 01 [X(C12H17N1O2)]\\@
 The archive entry for this job was punched.


 In the race for quality, there is no finish line.
                               -- David T. Kearns
 Job cpu time:       0 days  5 hours 34 minutes  9.2 seconds.
 Elapsed time:       0 days  0 hours 28 minutes 29.4 seconds.
 File lengths (MBytes):  RWF=    220 Int=      0 D2E=      0 Chk=     14 Scr=      1
 Normal termination of Gaussian 16 at Sun Dec 24 19:45:05 2023.
