Unloading slurm/anatra/current
  ERROR: No such file or directory on
    '/cm/local/modulefiles/slurm/anatra/current'
environment: line 0: unalias: gv: not found
environment: line 0: unalias: sl: not found
 Entering Gaussian System, Link 0=g16
 Initial command:
 /apps/gaussian/g16/C.01/g16/l1.exe "/local/jobs/1150865/Gau-1406438.inp" -scrdir="/local/jobs/1150865/"
 Entering Link 1 = /apps/gaussian/g16/C.01/g16/l1.exe PID=   1406440.
  
 Copyright (c) 1988-2019, Gaussian, Inc.  All Rights Reserved.
  
 This is part of the Gaussian(R) 16 program.  It is based on
 the Gaussian(R) 09 system (copyright 2009, Gaussian, Inc.),
 the Gaussian(R) 03 system (copyright 2003, Gaussian, Inc.),
 the Gaussian(R) 98 system (copyright 1998, Gaussian, Inc.),
 the Gaussian(R) 94 system (copyright 1995, Gaussian, Inc.),
 the Gaussian 92(TM) system (copyright 1992, Gaussian, Inc.),
 the Gaussian 90(TM) system (copyright 1990, Gaussian, Inc.),
 the Gaussian 88(TM) system (copyright 1988, Gaussian, Inc.),
 the Gaussian 86(TM) system (copyright 1986, Carnegie Mellon
 University), and the Gaussian 82(TM) system (copyright 1983,
 Carnegie Mellon University). Gaussian is a federally registered
 trademark of Gaussian, Inc.
  
 This software contains proprietary and confidential information,
 including trade secrets, belonging to Gaussian, Inc.
  
 This software is provided under written license and may be
 used, copied, transmitted, or stored only in accord with that
 written license.
  
 The following legend is applicable only to US Government
 contracts under FAR:
  
                    RESTRICTED RIGHTS LEGEND
  
 Use, reproduction and disclosure by the US Government is
 subject to restrictions as set forth in subparagraphs (a)
 and (c) of the Commercial Computer Software - Restricted
 Rights clause in FAR 52.227-19.
  
 Gaussian, Inc.
 340 Quinnipiac St., Bldg. 40, Wallingford CT 06492
  
  
 ---------------------------------------------------------------
 Warning -- This program may not be used in any manner that
 competes with the business of Gaussian, Inc. or will provide
 assistance to any competitor of Gaussian, Inc.  The licensee
 of this program is prohibited from giving any competitor of
 Gaussian, Inc. access to this program.  By using this program,
 the user acknowledges that Gaussian, Inc. is engaged in the
 business of creating and licensing software in the field of
 computational chemistry and represents and warrants to the
 licensee that it is not a competitor of Gaussian, Inc. and that
 it will not use this program in any manner prohibited above.
 ---------------------------------------------------------------
  

 Cite this work as:
 Gaussian 16, Revision C.01,
 M. J. Frisch, G. W. Trucks, H. B. Schlegel, G. E. Scuseria, 
 M. A. Robb, J. R. Cheeseman, G. Scalmani, V. Barone, 
 G. A. Petersson, H. Nakatsuji, X. Li, M. Caricato, A. V. Marenich, 
 J. Bloino, B. G. Janesko, R. Gomperts, B. Mennucci, H. P. Hratchian, 
 J. V. Ortiz, A. F. Izmaylov, J. L. Sonnenberg, D. Williams-Young, 
 F. Ding, F. Lipparini, F. Egidi, J. Goings, B. Peng, A. Petrone, 
 T. Henderson, D. Ranasinghe, V. G. Zakrzewski, J. Gao, N. Rega, 
 G. Zheng, W. Liang, M. Hada, M. Ehara, K. Toyota, R. Fukuda, 
 J. Hasegawa, M. Ishida, T. Nakajima, Y. Honda, O. Kitao, H. Nakai, 
 T. Vreven, K. Throssell, J. A. Montgomery, Jr., J. E. Peralta, 
 F. Ogliaro, M. J. Bearpark, J. J. Heyd, E. N. Brothers, K. N. Kudin, 
 V. N. Staroverov, T. A. Keith, R. Kobayashi, J. Normand, 
 K. Raghavachari, A. P. Rendell, J. C. Burant, S. S. Iyengar, 
 J. Tomasi, M. Cossi, J. M. Millam, M. Klene, C. Adamo, R. Cammi, 
 J. W. Ochterski, R. L. Martin, K. Morokuma, O. Farkas, 
 J. B. Foresman, and D. J. Fox, Gaussian, Inc., Wallingford CT, 2019.
 
 ******************************************
 Gaussian 16:  ES64L-G16RevC.01  3-Jul-2019
                19-Dec-2023 
 ******************************************
 %chk=TS-92_hf.chk
 %nprocshared=12
 Will use up to   12 processors via shared memory.
 %mem=48GB
 ----------------------------------------------------------------------
 # wb97xd def2svp geom=allchk scrf=(iefpcm,solvent=toluene) opt=(readfc
 ,ts,noeigen,maxcycles=50,maxstep=10)
 ----------------------------------------------------------------------
 1/5=1,6=50,8=10,10=3,11=1,18=20,26=3,29=7,38=1/1,3;
 2/9=110,12=2,40=1/2;
 3/5=43,7=101,11=2,14=-4,25=1,30=1,70=2201,71=1,72=13,74=-58/1,2,3;
 4//1;
 5/5=2,38=5,53=13/2;
 6/7=2,8=2,9=2,10=2,28=1/1;
 7//1,2,3,16;
 1/5=1,6=50,8=10,11=1,18=20,26=3/3(2);
 2/9=110/2;
 99//99;
 2/9=110/2;
 3/5=43,7=101,11=2,14=-2,25=1,30=1,70=2205,71=1,72=13,74=-58/1,2,3;
 4/5=5,16=3,69=1/1;
 5/5=2,38=5,53=13/2;
 7//1,2,3,16;
 1/5=1,6=50,8=10,11=1,18=20,26=3/3(-5);
 2/9=110/2;
 6/7=2,8=2,9=2,10=2,19=2,28=1/1;
 99/9=1/99;
 Structure from the checkpoint file:  "TS-92_hf.chk"
 ---------
 TS-92.out
 ---------
 Charge =  0 Multiplicity = 1
 Redundant internal coordinates found in file.  (old form).
 C,0,-0.910568769,-0.5869199573,-0.1862190046
 C,0,-2.3013409443,-0.4697045298,-0.0361629457
 O,0,-2.9690192208,0.516858968,0.3102531005
 C,0,0.0425385452,0.439206901,0.2306107101
 C,0,-1.0550655962,2.6954998872,-0.7491852877
 H,0,-0.8140174199,3.3561759617,0.0902848603
 H,0,-1.1386396767,3.2906761255,-1.6677053756
 H,0,-1.9886662435,2.1576340779,-0.5362288254
 N,0,0.0147039881,1.6916682811,-0.9029375934
 H,0,-0.1333184399,1.1716808051,-1.7718146687
 H,0,0.9371525096,2.1329824731,-0.968224334
 C,0,1.491447864,-0.0308729441,0.1038982302
 C,0,1.9012343592,-0.7140116844,-1.0530185712
 C,0,3.2220949141,-1.1189122511,-1.221993204
 C,0,4.16980009,-0.8514167957,-0.2336677246
 C,0,3.7802865216,-0.1723313871,0.917308008
 C,0,2.4564118264,0.2392995166,1.0812135354
 H,0,1.1697086789,-0.9446743066,-1.8309826102
 H,0,3.5116851362,-1.6523941605,-2.1300102317
 H,0,5.2058112747,-1.1722959301,-0.361411365
 H,0,4.5102980612,0.041179187,1.7011816887
 H,0,2.1839975659,0.7671896066,1.9951525757
 C,0,-0.2674399796,1.1293269839,1.5561311707
 H,0,-1.3381072307,1.356226072,1.6085148557
 H,0,-0.0332277256,0.4284765714,2.3679201151
 H,0,0.315596372,2.0506312253,1.7166033133
 H,0,-0.5298694099,-1.5318479735,-0.5690304943
 O,0,-2.9593395561,-1.6317239058,-0.3565166928
 C,0,-4.3632225232,-1.5800709651,-0.3199964724
 H,0,-4.7228796647,-2.5148987413,-0.7701750357
 H,0,-4.7438439175,-1.5047750948,0.7121693128
 H,0,-4.7589113898,-0.7214420164,-0.8840810394
 Recover connectivity data from disk.

 GradGradGradGradGradGradGradGradGradGradGradGradGradGradGradGradGradGrad
 Berny optimization.
 Initialization pass.
 Force constant matrix read from checkpoint file:
 "TS-92_hf.chk"
                           ----------------------------
                           !    Initial Parameters    !
                           ! (Angstroms and Degrees)  !
 --------------------------                            --------------------------
 ! Name  Definition              Value          Derivative Info.                !
 --------------------------------------------------------------------------------
 ! R1    R(1,2)                  1.4037         D2E/DX2 =    0.3447             !
 ! R2    R(1,4)                  1.4612         D2E/DX2 =    0.5567             !
 ! R3    R(1,27)                 1.0883         D2E/DX2 =    0.3775             !
 ! R4    R(2,3)                  1.2406         D2E/DX2 =    0.8207             !
 ! R5    R(2,28)                 1.3733         D2E/DX2 =    0.4005             !
 ! R6    R(4,9)                  1.6895         D2E/DX2 =    0.0893             !
 ! R7    R(4,12)                 1.5285         D2E/DX2 =    0.2964             !
 ! R8    R(4,23)                 1.5262         D2E/DX2 =    0.2821             !
 ! R9    R(5,6)                  1.0951         D2E/DX2 =    0.3602             !
 ! R10   R(5,7)                  1.0977         D2E/DX2 =    0.3538             !
 ! R11   R(5,8)                  1.0983         D2E/DX2 =    0.3611             !
 ! R12   R(5,9)                  1.475          D2E/DX2 =    0.3603             !
 ! R13   R(9,10)                 1.0233         D2E/DX2 =    0.4455             !
 ! R14   R(9,11)                 1.0247         D2E/DX2 =    0.4325             !
 ! R15   R(12,13)                1.4047         D2E/DX2 =    0.3884             !
 ! R16   R(12,17)                1.3997         D2E/DX2 =    0.3977             !
 ! R17   R(13,14)                1.3918         D2E/DX2 =    0.4115             !
 ! R18   R(13,18)                1.0925         D2E/DX2 =    0.3755             !
 ! R19   R(14,15)                1.3952         D2E/DX2 =    0.4331             !
 ! R20   R(14,19)                1.0922         D2E/DX2 =    0.3758             !
 ! R21   R(15,16)                1.392          D2E/DX2 =    0.4311             !
 ! R22   R(15,20)                1.0921         D2E/DX2 =    0.3763             !
 ! R23   R(16,17)                1.396          D2E/DX2 =    0.4104             !
 ! R24   R(16,21)                1.0922         D2E/DX2 =    0.3753             !
 ! R25   R(17,22)                1.09           D2E/DX2 =    0.3781             !
 ! R26   R(23,24)                1.0957         D2E/DX2 =    0.362              !
 ! R27   R(23,25)                1.0977         D2E/DX2 =    0.3542             !
 ! R28   R(23,26)                1.102          D2E/DX2 =    0.3484             !
 ! R29   R(28,29)                1.4053         D2E/DX2 =    0.3648             !
 ! R30   R(29,30)                1.0981         D2E/DX2 =    0.3582             !
 ! R31   R(29,31)                1.1027         D2E/DX2 =    0.3555             !
 ! R32   R(29,32)                1.1009         D2E/DX2 =    0.3551             !
 ! A1    A(2,1,4)              123.8566         D2E/DX2 =    0.2235             !
 ! A2    A(2,1,27)             117.1735         D2E/DX2 =    0.1325             !
 ! A3    A(4,1,27)             118.8103         D2E/DX2 =    0.1315             !
 ! A4    A(1,2,3)              129.0106         D2E/DX2 =    0.2057             !
 ! A5    A(1,2,28)             112.2795         D2E/DX2 =    0.2324             !
 ! A6    A(3,2,28)             118.6961         D2E/DX2 =    0.2361             !
 ! A7    A(1,4,9)              108.5694         D2E/DX2 =    0.0425             !
 ! A8    A(1,4,12)             112.2524         D2E/DX2 =    0.0507             !
 ! A9    A(1,4,23)             115.6463         D2E/DX2 =    0.0577             !
 ! A10   A(9,4,12)             100.8351         D2E/DX2 =    0.039              !
 ! A11   A(9,4,23)             104.132          D2E/DX2 =    0.0538             !
 ! A12   A(12,4,23)            113.8023         D2E/DX2 =    0.051              !
 ! A13   A(6,5,7)              109.3346         D2E/DX2 =    0.0627             !
 ! A14   A(6,5,8)              109.5066         D2E/DX2 =    0.062              !
 ! A15   A(6,5,9)              109.3194         D2E/DX2 =    0.1397             !
 ! A16   A(7,5,8)              111.2886         D2E/DX2 =    0.062              !
 ! A17   A(7,5,9)              109.6941         D2E/DX2 =    0.1418             !
 ! A18   A(8,5,9)              107.6633         D2E/DX2 =    0.1381             !
 ! A19   A(4,9,5)              116.5207         D2E/DX2 =    0.1556             !
 ! A20   A(4,9,10)             101.2659         D2E/DX2 =    0.0552             !
 ! A21   A(4,9,11)             110.3162         D2E/DX2 =    0.058              !
 ! A22   A(5,9,10)             109.2324         D2E/DX2 =    0.0669             !
 ! A23   A(5,9,11)             111.4962         D2E/DX2 =    0.0682             !
 ! A24   A(10,9,11)            107.1553         D2E/DX2 =    0.018              !
 ! A25   A(4,12,13)            119.6293         D2E/DX2 =    0.165              !
 ! A26   A(4,12,17)            122.428          D2E/DX2 =    0.1702             !
 ! A27   A(13,12,17)           117.8928         D2E/DX2 =    0.0978             !
 ! A28   A(12,13,14)           121.2207         D2E/DX2 =    0.0934             !
 ! A29   A(12,13,18)           119.5934         D2E/DX2 =    0.0948             !
 ! A30   A(14,13,18)           119.1813         D2E/DX2 =    0.097              !
 ! A31   A(13,14,15)           120.1898         D2E/DX2 =    0.0911             !
 ! A32   A(13,14,19)           119.6461         D2E/DX2 =    0.0931             !
 ! A33   A(15,14,19)           120.1632         D2E/DX2 =    0.0936             !
 ! A34   A(14,15,16)           119.2879         D2E/DX2 =    0.0913             !
 ! A35   A(14,15,20)           120.3455         D2E/DX2 =    0.0934             !
 ! A36   A(16,15,20)           120.3666         D2E/DX2 =    0.0935             !
 ! A37   A(15,16,17)           120.4166         D2E/DX2 =    0.0912             !
 ! A38   A(15,16,21)           120.1167         D2E/DX2 =    0.0937             !
 ! A39   A(17,16,21)           119.4666         D2E/DX2 =    0.0934             !
 ! A40   A(12,17,16)           120.988          D2E/DX2 =    0.093              !
 ! A41   A(12,17,22)           120.4379         D2E/DX2 =    0.0958             !
 ! A42   A(16,17,22)           118.5699         D2E/DX2 =    0.0986             !
 ! A43   A(4,23,24)            109.4887         D2E/DX2 =    0.1183             !
 ! A44   A(4,23,25)            108.0734         D2E/DX2 =    0.1107             !
 ! A45   A(4,23,26)            113.3928         D2E/DX2 =    0.1254             !
 ! A46   A(24,23,25)           107.7785         D2E/DX2 =    0.0595             !
 ! A47   A(24,23,26)           109.6872         D2E/DX2 =    0.061              !
 ! A48   A(25,23,26)           108.251          D2E/DX2 =    0.0589             !
 ! A49   A(2,28,29)            116.1994         D2E/DX2 =    0.3649             !
 ! A50   A(28,29,30)           106.5732         D2E/DX2 =    0.1596             !
 ! A51   A(28,29,31)           111.8182         D2E/DX2 =    0.1594             !
 ! A52   A(28,29,32)           111.9876         D2E/DX2 =    0.1608             !
 ! A53   A(30,29,31)           109.1964         D2E/DX2 =    0.0823             !
 ! A54   A(30,29,32)           109.6439         D2E/DX2 =    0.0827             !
 ! A55   A(31,29,32)           107.5954         D2E/DX2 =    0.0818             !
 ! D1    D(4,1,2,3)              8.7622         D2E/DX2 =    0.0191             !
 ! D2    D(4,1,2,28)          -172.629          D2E/DX2 =    0.0223             !
 ! D3    D(27,1,2,3)          -175.8939         D2E/DX2 =    0.0232             !
 ! D4    D(27,1,2,28)            2.7148         D2E/DX2 =    0.0225             !
 ! D5    D(2,1,4,9)            -76.4887         D2E/DX2 =    0.0239             !
 ! D6    D(2,1,4,12)           172.9187         D2E/DX2 =    0.0132             !
 ! D7    D(2,1,4,23)            40.0629         D2E/DX2 =    0.0151             !
 ! D8    D(27,1,4,9)           108.2389         D2E/DX2 =    0.0177             !
 ! D9    D(27,1,4,12)           -2.3537         D2E/DX2 =    0.0099             !
 ! D10   D(27,1,4,23)         -135.2095         D2E/DX2 =    0.0134             !
 ! D11   D(1,2,28,29)         -175.9629         D2E/DX2 =    0.0249             !
 ! D12   D(3,2,28,29)            2.8047         D2E/DX2 =    0.0221             !
 ! D13   D(1,4,9,5)             82.7112         D2E/DX2 =    0.0245             !
 ! D14   D(1,4,9,10)           -35.6338         D2E/DX2 =    0.0232             !
 ! D15   D(1,4,9,11)          -148.8661         D2E/DX2 =    0.025              !
 ! D16   D(12,4,9,5)          -159.1873         D2E/DX2 =    0.0205             !
 ! D17   D(12,4,9,10)           82.4677         D2E/DX2 =    0.0213             !
 ! D18   D(12,4,9,11)          -30.7646         D2E/DX2 =    0.0212             !
 ! D19   D(23,4,9,5)           -41.0282         D2E/DX2 =    0.0217             !
 ! D20   D(23,4,9,10)         -159.3732         D2E/DX2 =    0.0235             !
 ! D21   D(23,4,9,11)           87.3945         D2E/DX2 =    0.0229             !
 ! D22   D(1,4,12,13)           44.5409         D2E/DX2 =    0.0139             !
 ! D23   D(1,4,12,17)         -138.0851         D2E/DX2 =    0.013              !
 ! D24   D(9,4,12,13)          -70.8402         D2E/DX2 =    0.0198             !
 ! D25   D(9,4,12,17)          106.5339         D2E/DX2 =    0.018              !
 ! D26   D(23,4,12,13)         178.2975         D2E/DX2 =    0.013              !
 ! D27   D(23,4,12,17)          -4.3284         D2E/DX2 =    0.0119             !
 ! D28   D(1,4,23,24)          -42.8831         D2E/DX2 =    0.0182             !
 ! D29   D(1,4,23,25)           74.2588         D2E/DX2 =    0.0163             !
 ! D30   D(1,4,23,26)         -165.734          D2E/DX2 =    0.0184             !
 ! D31   D(9,4,23,24)           76.1399         D2E/DX2 =    0.0213             !
 ! D32   D(9,4,23,25)         -166.7182         D2E/DX2 =    0.0205             !
 ! D33   D(9,4,23,26)          -46.711          D2E/DX2 =    0.021              !
 ! D34   D(12,4,23,24)        -175.0198         D2E/DX2 =    0.0162             !
 ! D35   D(12,4,23,25)         -57.878          D2E/DX2 =    0.0153             !
 ! D36   D(12,4,23,26)          62.1292         D2E/DX2 =    0.0152             !
 ! D37   D(6,5,9,4)             75.0081         D2E/DX2 =    0.0128             !
 ! D38   D(6,5,9,10)          -171.0794         D2E/DX2 =    0.0145             !
 ! D39   D(6,5,9,11)           -52.8405         D2E/DX2 =    0.0146             !
 ! D40   D(7,5,9,4)           -165.1161         D2E/DX2 =    0.0135             !
 ! D41   D(7,5,9,10)           -51.2036         D2E/DX2 =    0.0142             !
 ! D42   D(7,5,9,11)            67.0353         D2E/DX2 =    0.0146             !
 ! D43   D(8,5,9,4)            -43.8723         D2E/DX2 =    0.0135             !
 ! D44   D(8,5,9,10)            70.0402         D2E/DX2 =    0.0162             !
 ! D45   D(8,5,9,11)          -171.7209         D2E/DX2 =    0.0163             !
 ! D46   D(4,12,13,14)         177.9101         D2E/DX2 =    0.008              !
 ! D47   D(4,12,13,18)          -2.8779         D2E/DX2 =    0.0088             !
 ! D48   D(17,12,13,14)          0.4178         D2E/DX2 =    0.0083             !
 ! D49   D(17,12,13,18)        179.6299         D2E/DX2 =    0.0092             !
 ! D50   D(4,12,17,16)        -178.1922         D2E/DX2 =    0.0082             !
 ! D51   D(4,12,17,22)           2.57           D2E/DX2 =    0.0086             !
 ! D52   D(13,12,17,16)         -0.7748         D2E/DX2 =    0.0085             !
 ! D53   D(13,12,17,22)        179.9875         D2E/DX2 =    0.0088             !
 ! D54   D(12,13,14,15)          0.0859         D2E/DX2 =    0.0104             !
 ! D55   D(12,13,14,19)        179.7332         D2E/DX2 =    0.0099             !
 ! D56   D(18,13,14,15)       -179.1293         D2E/DX2 =    0.0101             !
 ! D57   D(18,13,14,19)          0.518          D2E/DX2 =    0.011              !
 ! D58   D(13,14,15,16)         -0.2435         D2E/DX2 =    0.0108             !
 ! D59   D(13,14,15,20)        179.6971         D2E/DX2 =    0.01               !
 ! D60   D(19,14,15,16)       -179.8889         D2E/DX2 =    0.0099             !
 ! D61   D(19,14,15,20)          0.0516         D2E/DX2 =    0.0108             !
 ! D62   D(14,15,16,17)         -0.1115         D2E/DX2 =    0.0107             !
 ! D63   D(14,15,16,21)        179.7899         D2E/DX2 =    0.0099             !
 ! D64   D(20,15,16,17)        179.948          D2E/DX2 =    0.01               !
 ! D65   D(20,15,16,21)         -0.1507         D2E/DX2 =    0.0108             !
 ! D66   D(15,16,17,12)          0.6344         D2E/DX2 =    0.0105             !
 ! D67   D(15,16,17,22)        179.8861         D2E/DX2 =    0.0098             !
 ! D68   D(21,16,17,12)       -179.2676         D2E/DX2 =    0.0099             !
 ! D69   D(21,16,17,22)         -0.0159         D2E/DX2 =    0.0107             !
 ! D70   D(2,28,29,30)         170.0118         D2E/DX2 =    0.0309             !
 ! D71   D(2,28,29,31)         -70.7348         D2E/DX2 =    0.0301             !
 ! D72   D(2,28,29,32)          50.1161         D2E/DX2 =    0.0291             !
 --------------------------------------------------------------------------------
 Trust Radius=1.00D-01 FncErr=1.00D-07 GrdErr=1.00D-06 EigMax=2.50D+02 EigMin=1.00D-04
 Number of steps in this run=     50 maximum allowed number of steps=    192.
 Search for a saddle point of order  1.
 GradGradGradGradGradGradGradGradGradGradGradGradGradGradGradGradGradGrad

                          Input orientation:                          
 ---------------------------------------------------------------------
 Center     Atomic      Atomic             Coordinates (Angstroms)
 Number     Number       Type             X           Y           Z
 ---------------------------------------------------------------------
      1          6           0       -0.910569   -0.586920   -0.186219
      2          6           0       -2.301341   -0.469705   -0.036163
      3          8           0       -2.969019    0.516859    0.310253
      4          6           0        0.042539    0.439207    0.230611
      5          6           0       -1.055066    2.695500   -0.749185
      6          1           0       -0.814017    3.356176    0.090285
      7          1           0       -1.138640    3.290676   -1.667705
      8          1           0       -1.988666    2.157634   -0.536229
      9          7           0        0.014704    1.691668   -0.902938
     10          1           0       -0.133318    1.171681   -1.771815
     11          1           0        0.937153    2.132982   -0.968224
     12          6           0        1.491448   -0.030873    0.103898
     13          6           0        1.901234   -0.714012   -1.053019
     14          6           0        3.222095   -1.118912   -1.221993
     15          6           0        4.169800   -0.851417   -0.233668
     16          6           0        3.780287   -0.172331    0.917308
     17          6           0        2.456412    0.239300    1.081214
     18          1           0        1.169709   -0.944674   -1.830983
     19          1           0        3.511685   -1.652394   -2.130010
     20          1           0        5.205811   -1.172296   -0.361411
     21          1           0        4.510298    0.041179    1.701182
     22          1           0        2.183998    0.767190    1.995153
     23          6           0       -0.267440    1.129327    1.556131
     24          1           0       -1.338107    1.356226    1.608515
     25          1           0       -0.033228    0.428477    2.367920
     26          1           0        0.315596    2.050631    1.716603
     27          1           0       -0.529869   -1.531848   -0.569030
     28          8           0       -2.959340   -1.631724   -0.356517
     29          6           0       -4.363223   -1.580071   -0.319996
     30          1           0       -4.722880   -2.514899   -0.770175
     31          1           0       -4.743844   -1.504775    0.712169
     32          1           0       -4.758911   -0.721442   -0.884081
 ---------------------------------------------------------------------
                    Distance matrix (angstroms):
                    1          2          3          4          5
     1  C    0.000000
     2  C    1.403746   0.000000
     3  O    2.387893   1.240607   0.000000
     4  C    1.461197   2.528054   3.013611   0.000000
     5  C    3.333480   3.475647   3.087411   2.693621   0.000000
     6  H    3.953958   4.106761   3.571294   3.043368   1.095129
     7  H    4.157231   4.260783   3.867386   3.623488   1.097679
     8  H    2.969407   2.692720   2.090399   2.768904   1.098299
     9  N    2.561597   3.284341   3.428500   1.689487   1.475034
    10  H    2.492169   3.225981   3.578407   2.139428   2.053634
    11  H    3.379863   4.257999   4.416394   2.259738   2.081667
    12  C    2.482547   3.820659   4.498706   1.528519   3.826956
    13  C    2.945120   4.330741   5.205086   2.536211   4.522919
    14  C    4.293571   5.686476   6.584331   3.827189   5.750425
    15  C    5.087471   6.485397   7.289086   4.349201   6.336055
    16  C    4.836712   6.163094   6.811507   3.849194   5.863641
    17  C    3.691285   4.938363   5.486959   2.567153   4.659802
    18  H    2.675965   3.936389   4.883650   2.726868   4.401224
    19  H    4.946705   6.290805   7.256726   4.688529   6.454926
    20  H    6.146825   7.546970   8.374499   5.441215   7.369450
    21  H    5.774304   7.048248   7.622410   4.720369   6.634982
    22  H    4.020987   5.076851   5.427258   2.794106   4.662757
    23  C    2.528814   3.037936   3.037410   1.526223   2.896159
    24  H    2.679492   2.639471   2.247197   2.155395   2.726264
    25  H    2.885201   3.425008   3.586179   2.138679   3.987467
    26  H    3.475757   4.033936   3.888313   2.208942   2.893904
    27  H    1.088286   2.133122   3.304511   2.202756   4.263655
    28  O    2.306096   1.373273   2.249685   3.693879   4.743977
    29  C    3.595144   2.358989   2.595791   4.877641   5.422971
    30  H    4.311823   3.253528   3.665366   5.695395   6.371935
    31  H    4.042717   2.756301   2.720026   5.188489   5.777971
    32  H    3.913419   2.611894   2.482647   5.063948   5.041048
                    6          7          8          9         10
     6  H    0.000000
     7  H    1.788910   0.000000
     8  H    1.791318   1.812890   0.000000
     9  N    2.108046   2.114686   2.089280   0.000000
    10  H    2.950048   2.347691   2.437435   1.023350   0.000000
    11  H    2.383955   2.477588   2.957641   1.024662   1.647958
    12  C    4.097250   4.592236   4.160591   2.482265   2.757590
    13  C    5.024556   5.065195   4.862587   3.060852   2.865643
    14  C    6.167551   6.217647   6.193388   4.276507   4.099746
    15  C    6.530484   6.884252   6.860950   4.917319   4.997564
    16  C    5.851663   6.547561   6.389235   4.579017   4.934983
    17  C    4.625210   5.458191   5.104395   3.465280   3.964317
    18  H    5.111140   4.826316   4.612595   3.024170   2.486029
    19  H    6.980486   6.802440   6.878250   4.991727   4.624906
    20  H    7.546484   7.866167   7.929660   5.953414   5.999147
    21  H    6.475533   7.336152   7.191796   5.451231   5.907869
    22  H    4.395391   5.551975   5.074677   3.736231   4.441127
    23  C    2.721453   3.977881   2.897931   2.538277   3.330917
    24  H    2.565052   3.809922   2.380212   2.872284   3.593355
    25  H    3.790604   5.069556   3.904844   3.506631   4.207110
    26  H    2.371790   3.886651   3.224334   2.661087   3.625347
    27  H    4.940467   4.983415   3.967549   3.286200   2.985467
    28  O    5.448044   5.409638   3.915832   4.493156   4.224753
    29  C    6.093580   5.994867   4.433476   5.496393   5.250905
    30  H    7.105569   6.881645   5.418784   6.336997   5.971451
    31  H    6.281650   6.454274   4.750026   5.955636   5.881372
    32  H    5.756609   5.460543   4.010528   5.348912   5.076228
                   11         12         13         14         15
    11  H    0.000000
    12  C    2.477693   0.000000
    13  C    3.006995   1.404657   0.000000
    14  C    3.982484   2.436587   1.391822   0.000000
    15  C    4.460518   2.821491   2.415907   1.395165   0.000000
    16  C    4.117416   2.433193   2.776048   2.405037   1.391985
    17  C    3.177165   1.399748   2.402493   2.781325   2.419561
    18  H    3.204747   2.163865   1.092503   2.147910   3.400097
    19  H    4.723033   3.420678   2.152678   1.092227   2.161202
    20  H    5.432728   3.913548   3.407136   2.163003   1.092063
    21  H    4.926331   3.416133   3.868223   3.398563   2.157848
    22  H    3.493081   2.166419   3.400773   3.871053   3.395724
    23  C    2.971656   2.559049   3.861180   4.994938   5.178400
    24  H    3.524165   3.492033   4.675786   5.910459   6.213241
    25  H    3.869992   2.767929   4.092706   5.087142   5.106058
    26  H    2.757066   2.883766   4.222358   5.208559   5.203876
    27  H    3.967681   2.606047   2.610243   3.830680   4.760499
    28  O    5.452509   4.752285   4.995247   6.262760   7.172768
    29  C    6.503917   6.070986   6.366380   7.652667   8.564512
    30  H    7.326526   6.749241   6.870377   8.079328   9.062823
    31  H    6.952030   6.435934   6.920857   8.206464   8.987465
    32  H    6.371810   6.365531   6.662292   7.998039   8.953313
                   16         17         18         19         20
    16  C    0.000000
    17  C    1.396048   0.000000
    18  H    3.868428   3.396805   0.000000
    19  H    3.398364   3.873508   2.464780   0.000000
    20  H    2.160364   3.410713   4.301346   2.495696   0.000000
    21  H    1.092228   2.154544   4.960608   4.306211   2.492098
    22  H    2.143032   1.090028   4.312606   4.963276   4.294922
    23  C    4.299593   2.904663   4.223673   5.967193   6.239464
    24  H    5.386298   3.990482   4.838742   6.822672   7.286762
    25  H    4.124092   2.808862   4.578579   6.093259   6.120396
    26  H    4.193389   2.875367   4.720882   6.222846   6.214467
    27  H    4.757618   3.844235   2.196784   4.334207   5.750688
    28  O    7.012490   5.907466   4.437919   6.709685   8.178067
    29  C    8.356398   7.195895   5.770627   8.080566   9.577808
    30  H    8.979925   7.909202   6.189791   8.390538  10.027391
    31  H    8.630080   7.417660   6.461535   8.732327  10.012929
    32  H    8.744394   7.539648   6.007911   8.415568   9.988601
                   21         22         23         24         25
    21  H    0.000000
    22  H    2.454625   0.000000
    23  C    4.902233   2.516631   0.000000
    24  H    5.995146   3.591890   1.095699   0.000000
    25  H    4.608488   2.273713   1.097747   1.772040   0.000000
    26  H    4.651200   2.283798   1.102036   1.796835   1.782492
    27  H    5.747309   4.384710   3.415704   3.706201   3.565838
    28  O    7.926425   6.143212   4.304410   3.926524   4.497679
    29  C    9.244078   7.330460   5.257007   4.635981   5.477957
    30  H    9.894074   8.131672   6.208303   5.665727   6.364270
    31  H    9.434366   7.402895   5.262030   4.537379   5.354333
    32  H    9.653156   7.662245   5.436294   4.715044   5.850633
                   26         27         28         29         30
    26  H    0.000000
    27  H    4.332793   0.000000
    28  O    5.346286   2.440791   0.000000
    29  C    6.262674   3.841737   1.405307   0.000000
    30  H    7.239777   4.311402   2.015238   1.098143   0.000000
    31  H    6.264801   4.404519   2.083905   1.102682   1.793916
    32  H    6.340235   4.317501   2.084561   1.100911   1.797431
                   31         32
    31  H    0.000000
    32  H    1.778160   0.000000
 Stoichiometry    C12H17NO2
 Framework group  C1[X(C12H17NO2)]
 Deg. of freedom    90
 Full point group                 C1      NOp   1
 Largest Abelian subgroup         C1      NOp   1
 Largest concise Abelian subgroup C1      NOp   1
                         Standard orientation:                         
 ---------------------------------------------------------------------
 Center     Atomic      Atomic             Coordinates (Angstroms)
 Number     Number       Type             X           Y           Z
 ---------------------------------------------------------------------
      1          6           0       -0.916918   -0.611168    0.012673
      2          6           0       -2.301780   -0.440356    0.165923
      3          8           0       -2.945044    0.606128    0.339670
      4          6           0        0.062221    0.454053    0.216848
      5          6           0       -1.020234    2.516376   -1.136190
      6          1           0       -0.749221    3.313664   -0.436054
      7          1           0       -1.114985    2.936153   -2.145996
      8          1           0       -1.957443    2.045310   -0.810619
      9          7           0        0.029083    1.479776   -1.125226
     10          1           0       -0.147300    0.813561   -1.881725
     11          1           0        0.956932    1.883004   -1.287814
     12          6           0        1.499925   -0.060601    0.149725
     13          6           0        1.871861   -0.950942   -0.871067
     14          6           0        3.181673   -1.406599   -0.989120
     15          6           0        4.155999   -0.983153   -0.084760
     16          6           0        3.804126   -0.098289    0.930536
     17          6           0        2.491296    0.363124    1.042438
     18          1           0        1.119044   -1.304317   -1.579556
     19          1           0        3.441613   -2.102100   -1.790164
     20          1           0        5.183401   -1.342916   -0.172044
     21          1           0        4.555283    0.239329    1.647990
     22          1           0        2.248569    1.053855    1.849988
     23          6           0       -0.205976    1.379891    1.400170
     24          1           0       -1.271289    1.634261    1.431174
     25          1           0        0.035174    0.833750    2.321378
     26          1           0        0.395653    2.302964    1.378646
     27          1           0       -0.560666   -1.617502   -0.198849
     28          8           0       -2.985956   -1.627632    0.075608
     29          6           0       -4.387598   -1.541657    0.129451
     30          1           0       -4.772782   -2.535256   -0.135712
     31          1           0       -4.743231   -1.272175    1.137822
     32          1           0       -4.781902   -0.792068   -0.573860
 ---------------------------------------------------------------------
 Rotational constants (GHZ):           1.1010489           0.3309939           0.2956295
 Standard basis: def2SVP (5D, 7F)
 There are   310 symmetry adapted cartesian basis functions of A   symmetry.
 There are   295 symmetry adapted basis functions of A   symmetry.
   295 basis functions,   494 primitive gaussians,   310 cartesian basis functions
    56 alpha electrons       56 beta electrons
       nuclear repulsion energy      1008.4464074681 Hartrees.
 NAtoms=   32 NActive=   32 NUniq=   32 SFac= 1.00D+00 NAtFMM=   60 NAOKFM=F Big=F
 Integral buffers will be    131072 words long.
 Raffenetti 2 integral format.
 Two-electron integral symmetry is turned on.
 Nuclear repulsion after empirical dispersion term =     1008.4226370107 Hartrees.
 ------------------------------------------------------------------------------
 Polarizable Continuum Model (PCM)
 =================================
 Model                : PCM.
 Atomic radii         : UFF (Universal Force Field).
 Polarization charges : Total charges.
 Charge compensation  : None.
 Solution method      : On-the-fly selection.
 Cavity type          : Scaled VdW (van der Waals Surface) (Alpha=1.100).
 Cavity algorithm     : GePol (No added spheres)
                        Default sphere list used, NSphG=   32.
                        Lebedev-Laikov grids with approx.  5.0 points / Ang**2.
                        Smoothing algorithm: York/Karplus (Gamma=1.0000).
                        Polarization charges: spherical gaussians, with
                                              point-specific exponents (IZeta= 3).
                        Self-potential: point-specific (ISelfS= 7).
                        Self-field    : sphere-specific E.n sum rule (ISelfD= 2).
 1st derivatives      : Analytical E(r).r(x)/FMM algorithm (CHGder, D1EAlg=3).
                        Cavity 1st derivative terms included.
 Solvent              : Toluene, Eps=   2.374100 Eps(inf)=   2.238315
 ------------------------------------------------------------------------------
 One-electron integrals computed using PRISM.
   1 Symmetry operations used in ECPInt.
 ECPInt:  NShTT=   10011 NPrTT=   35491 LenC2=    9428 LenP2D=   24578.
 LDataN:  DoStor=T MaxTD1= 4 Len=   56
 NBasis=   295 RedAO= T EigKep=  2.77D-04  NBF=   295
 NBsUse=   295 1.00D-06 EigRej= -1.00D+00 NBFU=   295
 ExpMin= 1.22D-01 ExpMax= 2.27D+03 ExpMxC= 3.41D+02 IAcc=3 IRadAn=         5 AccDes= 0.00D+00
 Harris functional with IExCor= 4639 and IRadAn=       5 diagonalized for initial guess.
 HarFok:  IExCor= 4639 AccDes= 0.00D+00 IRadAn=         5 IDoV= 1 UseB2=F ITyADJ=14
 ICtDFT=  3500011 ScaDFX=  1.000000  1.000000  1.000000  1.000000
 FoFCou: FMM=F IPFlag=           0 FMFlag=      100000 FMFlg1=           0
         NFxFlg=           0 DoJE=T BraDBF=F KetDBF=T FulRan=T
         wScrn=  0.000000 ICntrl=       500 IOpCl=  0 I1Cent=   200000004 NGrid=           0
         NMat0=    1 NMatS0=      1 NMatT0=    0 NMatD0=    1 NMtDS0=    0 NMtDT0=    0
 Petite list used in FoFCou.
 Requested convergence on RMS density matrix=1.00D-08 within 128 cycles.
 Requested convergence on MAX density matrix=1.00D-06.
 Requested convergence on             energy=1.00D-06.
 No special actions if energy rises.
 Inv3:  Mode=1 IEnd=    14985675.
 Iteration    1 A*A^-1 deviation from unit magnitude is 3.33D-15 for    590.
 Iteration    1 A*A^-1 deviation from orthogonality  is 2.55D-15 for   2030    262.
 Iteration    1 A^-1*A deviation from unit magnitude is 3.11D-15 for    590.
 Iteration    1 A^-1*A deviation from orthogonality  is 4.50D-15 for   1964   1930.
 Error on total polarization charges =  0.00679
 SCF Done:  E(RwB97XD) =  -671.971956879     A.U. after   14 cycles
            NFock= 14  Conv=0.68D-08     -V/T= 2.0107

 **********************************************************************

            Population analysis using the SCF Density.

 **********************************************************************

 Orbital symmetries:
       Occupied  (A) (A) (A) (A) (A) (A) (A) (A) (A) (A) (A) (A)
                 (A) (A) (A) (A) (A) (A) (A) (A) (A) (A) (A) (A)
                 (A) (A) (A) (A) (A) (A) (A) (A) (A) (A) (A) (A)
                 (A) (A) (A) (A) (A) (A) (A) (A) (A) (A) (A) (A)
                 (A) (A) (A) (A) (A) (A) (A) (A)
       Virtual   (A) (A) (A) (A) (A) (A) (A) (A) (A) (A) (A) (A)
                 (A) (A) (A) (A) (A) (A) (A) (A) (A) (A) (A) (A)
                 (A) (A) (A) (A) (A) (A) (A) (A) (A) (A) (A) (A)
                 (A) (A) (A) (A) (A) (A) (A) (A) (A) (A) (A) (A)
                 (A) (A) (A) (A) (A) (A) (A) (A) (A) (A) (A) (A)
                 (A) (A) (A) (A) (A) (A) (A) (A) (A) (A) (A) (A)
                 (A) (A) (A) (A) (A) (A) (A) (A) (A) (A) (A) (A)
                 (A) (A) (A) (A) (A) (A) (A) (A) (A) (A) (A) (A)
                 (A) (A) (A) (A) (A) (A) (A) (A) (A) (A) (A) (A)
                 (A) (A) (A) (A) (A) (A) (A) (A) (A) (A) (A) (A)
                 (A) (A) (A) (A) (A) (A) (A) (A) (A) (A) (A) (A)
                 (A) (A) (A) (A) (A) (A) (A) (A) (A) (A) (A) (A)
                 (A) (A) (A) (A) (A) (A) (A) (A) (A) (A) (A) (A)
                 (A) (A) (A) (A) (A) (A) (A) (A) (A) (A) (A) (A)
                 (A) (A) (A) (A) (A) (A) (A) (A) (A) (A) (A) (A)
                 (A) (A) (A) (A) (A) (A) (A) (A) (A) (A) (A) (A)
                 (A) (A) (A) (A) (A) (A) (A) (A) (A) (A) (A) (A)
                 (A) (A) (A) (A) (A) (A) (A) (A) (A) (A) (A) (A)
                 (A) (A) (A) (A) (A) (A) (A) (A) (A) (A) (A) (A)
                 (A) (A) (A) (A) (A) (A) (A) (A) (A) (A) (A)
 The electronic state is 1-A.
 Alpha  occ. eigenvalues --  -19.24754 -19.18048 -14.53944 -10.36719 -10.36505
 Alpha  occ. eigenvalues --  -10.34216 -10.32106 -10.31966 -10.31097 -10.31093
 Alpha  occ. eigenvalues --  -10.31057 -10.31014 -10.30993 -10.28815 -10.22923
 Alpha  occ. eigenvalues --   -1.14216  -1.07117  -1.04090  -0.96371  -0.89795
 Alpha  occ. eigenvalues --   -0.84754  -0.83136  -0.80545  -0.79986  -0.75437
 Alpha  occ. eigenvalues --   -0.71199  -0.69810  -0.66626  -0.65451  -0.62421
 Alpha  occ. eigenvalues --   -0.60940  -0.58509  -0.57174  -0.55841  -0.54016
 Alpha  occ. eigenvalues --   -0.53615  -0.52943  -0.52130  -0.51288  -0.50995
 Alpha  occ. eigenvalues --   -0.49151  -0.48904  -0.46722  -0.46212  -0.46084
 Alpha  occ. eigenvalues --   -0.45030  -0.44065  -0.43538  -0.42401  -0.41723
 Alpha  occ. eigenvalues --   -0.39712  -0.34136  -0.34101  -0.33873  -0.30989
 Alpha  occ. eigenvalues --   -0.24000
 Alpha virt. eigenvalues --    0.04161   0.05054   0.10859   0.12875   0.14004
 Alpha virt. eigenvalues --    0.15056   0.17069   0.18116   0.18257   0.18377
 Alpha virt. eigenvalues --    0.19145   0.20874   0.21425   0.22170   0.23085
 Alpha virt. eigenvalues --    0.23473   0.23751   0.23977   0.24600   0.24970
 Alpha virt. eigenvalues --    0.25605   0.26120   0.27309   0.28472   0.30541
 Alpha virt. eigenvalues --    0.32698   0.35821   0.36329   0.37067   0.38783
 Alpha virt. eigenvalues --    0.39683   0.40878   0.41319   0.44617   0.46239
 Alpha virt. eigenvalues --    0.46833   0.48528   0.49097   0.50586   0.51198
 Alpha virt. eigenvalues --    0.52154   0.54595   0.55344   0.55628   0.56147
 Alpha virt. eigenvalues --    0.57043   0.57403   0.59181   0.60097   0.61283
 Alpha virt. eigenvalues --    0.62292   0.62953   0.64274   0.65162   0.66054
 Alpha virt. eigenvalues --    0.67353   0.69023   0.69428   0.71438   0.71770
 Alpha virt. eigenvalues --    0.72176   0.72969   0.73061   0.73685   0.74104
 Alpha virt. eigenvalues --    0.74719   0.74936   0.75951   0.76040   0.76168
 Alpha virt. eigenvalues --    0.77199   0.77276   0.78108   0.79034   0.79467
 Alpha virt. eigenvalues --    0.80323   0.81214   0.81915   0.82741   0.82921
 Alpha virt. eigenvalues --    0.83354   0.84264   0.86000   0.86558   0.87520
 Alpha virt. eigenvalues --    0.87824   0.88763   0.90536   0.91852   0.93030
 Alpha virt. eigenvalues --    0.97136   0.99820   1.02147   1.04005   1.05496
 Alpha virt. eigenvalues --    1.06378   1.10702   1.14119   1.14950   1.15497
 Alpha virt. eigenvalues --    1.18149   1.19362   1.22043   1.25263   1.26649
 Alpha virt. eigenvalues --    1.27874   1.28690   1.32314   1.32801   1.33171
 Alpha virt. eigenvalues --    1.35321   1.36878   1.38061   1.39231   1.39597
 Alpha virt. eigenvalues --    1.40107   1.42024   1.47091   1.48428   1.49665
 Alpha virt. eigenvalues --    1.53107   1.55604   1.57408   1.60517   1.62312
 Alpha virt. eigenvalues --    1.62865   1.65199   1.65826   1.69419   1.70310
 Alpha virt. eigenvalues --    1.72840   1.74460   1.76068   1.77329   1.78121
 Alpha virt. eigenvalues --    1.80140   1.80834   1.81422   1.82690   1.83408
 Alpha virt. eigenvalues --    1.83665   1.84378   1.84831   1.85349   1.86050
 Alpha virt. eigenvalues --    1.86636   1.88710   1.89254   1.90241   1.91885
 Alpha virt. eigenvalues --    1.92732   1.93780   1.94447   1.96507   1.96747
 Alpha virt. eigenvalues --    1.97898   1.99524   1.99793   2.00512   2.02145
 Alpha virt. eigenvalues --    2.03109   2.04821   2.06049   2.06932   2.07341
 Alpha virt. eigenvalues --    2.08764   2.09387   2.10605   2.12911   2.13208
 Alpha virt. eigenvalues --    2.15150   2.16089   2.19238   2.20357   2.22563
 Alpha virt. eigenvalues --    2.23540   2.24086   2.26201   2.27762   2.30168
 Alpha virt. eigenvalues --    2.34874   2.36691   2.37159   2.38523   2.39427
 Alpha virt. eigenvalues --    2.41020   2.41834   2.43262   2.43706   2.44602
 Alpha virt. eigenvalues --    2.45424   2.48029   2.50671   2.50873   2.51935
 Alpha virt. eigenvalues --    2.59464   2.59609   2.62144   2.63746   2.67262
 Alpha virt. eigenvalues --    2.70506   2.71072   2.72678   2.74460   2.76728
 Alpha virt. eigenvalues --    2.78545   2.78860   2.79470   2.80893   2.81801
 Alpha virt. eigenvalues --    2.82966   2.83837   2.86981   2.90549   2.92188
 Alpha virt. eigenvalues --    2.93067   2.96322   2.97108   2.99329   3.02603
 Alpha virt. eigenvalues --    3.03606   3.05588   3.06208   3.08735   3.09627
 Alpha virt. eigenvalues --    3.12295   3.13387   3.16715   3.20674   3.24154
 Alpha virt. eigenvalues --    3.27200   3.32184   3.32878   3.34266   3.47438
 Alpha virt. eigenvalues --    3.58561   3.71193   3.74495   3.83299
          Condensed to atoms (all electrons):
               1          2          3          4          5          6
     1  C    5.663193   0.380252  -0.126995   0.275714   0.005497  -0.000158
     2  C    0.380252   4.440330   0.609406  -0.020763   0.001209  -0.000237
     3  O   -0.126995   0.609406   7.919464   0.009512  -0.027056  -0.000079
     4  C    0.275714  -0.020763   0.009512   5.486362  -0.031098  -0.012307
     5  C    0.005497   0.001209  -0.027056  -0.031098   4.602157   0.398392
     6  H   -0.000158  -0.000237  -0.000079  -0.012307   0.398392   0.585337
     7  H   -0.000923   0.000018   0.000651   0.004641   0.391105  -0.021923
     8  H   -0.005369  -0.000394   0.059020  -0.004442   0.366165  -0.009772
     9  N   -0.091320  -0.006945   0.000524   0.071880   0.287615  -0.016638
    10  H    0.010574  -0.000821  -0.000469   0.005219  -0.012399   0.005662
    11  H    0.007634  -0.000122  -0.000104  -0.000508  -0.015706  -0.007631
    12  C   -0.039558   0.008577   0.000344   0.186463   0.006550   0.000028
    13  C   -0.017312   0.000079  -0.000004  -0.099088  -0.000113   0.000104
    14  C    0.000722  -0.000016  -0.000000   0.012907   0.000019  -0.000000
    15  C    0.000004   0.000000  -0.000000  -0.001688  -0.000001   0.000000
    16  C   -0.000590   0.000005  -0.000000   0.020724   0.000007  -0.000001
    17  C    0.006451  -0.000308  -0.000001  -0.083468  -0.000063  -0.000109
    18  H    0.010239  -0.000102  -0.000008  -0.012435   0.000006  -0.000006
    19  H   -0.000009  -0.000000   0.000000  -0.000286  -0.000000  -0.000000
    20  H    0.000001   0.000000   0.000000   0.000020   0.000000   0.000000
    21  H    0.000005  -0.000000   0.000000  -0.000269  -0.000000   0.000000
    22  H    0.000548  -0.000026   0.000003  -0.034164  -0.000051  -0.000032
    23  C   -0.040884  -0.012893  -0.022163   0.385642   0.015098   0.013196
    24  H   -0.028912   0.004446   0.038481   0.012247   0.006343  -0.002690
    25  H   -0.002005  -0.000742  -0.000062  -0.006515  -0.000102  -0.000043
    26  H    0.009820   0.000739   0.000368  -0.007977  -0.004791   0.000188
    27  H    0.394263  -0.005429   0.004489  -0.062139   0.000069  -0.000010
    28  O   -0.134635   0.368750  -0.082516   0.004803  -0.000094  -0.000002
    29  C    0.010856  -0.039038   0.000118  -0.000407   0.000036  -0.000000
    30  H    0.000245   0.005593   0.001046   0.000007   0.000000  -0.000000
    31  H    0.000271  -0.003567   0.004729   0.000033   0.000011  -0.000000
    32  H    0.001423  -0.006773   0.014407   0.000030  -0.000079   0.000002
               7          8          9         10         11         12
     1  C   -0.000923  -0.005369  -0.091320   0.010574   0.007634  -0.039558
     2  C    0.000018  -0.000394  -0.006945  -0.000821  -0.000122   0.008577
     3  O    0.000651   0.059020   0.000524  -0.000469  -0.000104   0.000344
     4  C    0.004641  -0.004442   0.071880   0.005219  -0.000508   0.186463
     5  C    0.391105   0.366165   0.287615  -0.012399  -0.015706   0.006550
     6  H   -0.021923  -0.009772  -0.016638   0.005662  -0.007631   0.000028
     7  H    0.597605  -0.010137  -0.016056  -0.008485  -0.004545  -0.000314
     8  H   -0.010137   0.517730  -0.009828  -0.004403   0.004270   0.000760
     9  N   -0.016056  -0.009828   6.366557   0.322732   0.322545  -0.034530
    10  H   -0.008485  -0.004403   0.322732   0.502940  -0.008196  -0.010144
    11  H   -0.004545   0.004270   0.322545  -0.008196   0.522610  -0.002570
    12  C   -0.000314   0.000760  -0.034530  -0.010144  -0.002570   5.438124
    13  C   -0.000071   0.000007  -0.006489   0.008526  -0.001188   0.288574
    14  C   -0.000000  -0.000002  -0.000530   0.000078  -0.000241   0.066531
    15  C   -0.000000   0.000000   0.000072   0.000019  -0.000015  -0.140438
    16  C   -0.000000  -0.000001  -0.000349   0.000009  -0.000133   0.061417
    17  C    0.000000  -0.000023  -0.001139  -0.000279   0.004127   0.352173
    18  H   -0.000013  -0.000009  -0.003470   0.003743   0.000746  -0.077128
    19  H    0.000000   0.000000   0.000005  -0.000005   0.000001   0.014379
    20  H   -0.000000   0.000000   0.000000  -0.000000  -0.000001  -0.001465
    21  H    0.000000   0.000000   0.000002   0.000000   0.000002   0.014552
    22  H   -0.000000   0.000008   0.000287  -0.000024   0.000174  -0.051801
    23  C   -0.000347  -0.006417  -0.057586   0.006578  -0.000579  -0.062129
    24  H    0.000177  -0.002160  -0.009536   0.000270  -0.000021   0.006190
    25  H   -0.000007   0.000199   0.005863  -0.000276  -0.000255  -0.010165
    26  H    0.000272   0.000357   0.000999  -0.000562   0.001162  -0.015997
    27  H    0.000025  -0.000223   0.002407   0.000450  -0.000130  -0.009729
    28  O    0.000004   0.000424   0.000016  -0.000096   0.000000  -0.000053
    29  C   -0.000001  -0.000195   0.000002  -0.000005  -0.000000   0.000005
    30  H   -0.000000   0.000003  -0.000000   0.000000   0.000000  -0.000001
    31  H   -0.000000  -0.000102   0.000002  -0.000002  -0.000000   0.000001
    32  H   -0.000001   0.000483  -0.000008   0.000013   0.000000  -0.000002
              13         14         15         16         17         18
     1  C   -0.017312   0.000722   0.000004  -0.000590   0.006451   0.010239
     2  C    0.000079  -0.000016   0.000000   0.000005  -0.000308  -0.000102
     3  O   -0.000004  -0.000000  -0.000000  -0.000000  -0.000001  -0.000008
     4  C   -0.099088   0.012907  -0.001688   0.020724  -0.083468  -0.012435
     5  C   -0.000113   0.000019  -0.000001   0.000007  -0.000063   0.000006
     6  H    0.000104  -0.000000   0.000000  -0.000001  -0.000109  -0.000006
     7  H   -0.000071  -0.000000  -0.000000  -0.000000   0.000000  -0.000013
     8  H    0.000007  -0.000002   0.000000  -0.000001  -0.000023  -0.000009
     9  N   -0.006489  -0.000530   0.000072  -0.000349  -0.001139  -0.003470
    10  H    0.008526   0.000078   0.000019   0.000009  -0.000279   0.003743
    11  H   -0.001188  -0.000241  -0.000015  -0.000133   0.004127   0.000746
    12  C    0.288574   0.066531  -0.140438   0.061417   0.352173  -0.077128
    13  C    5.165086   0.333494   0.070173  -0.129894   0.028692   0.451613
    14  C    0.333494   5.011205   0.300494   0.072975  -0.119966  -0.052444
    15  C    0.070173   0.300494   5.075206   0.306583   0.067227   0.012865
    16  C   -0.129894   0.072975   0.306583   5.061377   0.303000  -0.001770
    17  C    0.028692  -0.119966   0.067227   0.303000   5.064367   0.011747
    18  H    0.451613  -0.052444   0.012865  -0.001770   0.011747   0.643599
    19  H   -0.062359   0.448301  -0.067207   0.012371  -0.001640  -0.011894
    20  H    0.012541  -0.064113   0.447777  -0.062883   0.012556  -0.000195
    21  H   -0.001667   0.012313  -0.067597   0.445551  -0.059389   0.000021
    22  H    0.013528  -0.001847   0.013181  -0.067394   0.448825  -0.000141
    23  C    0.013707  -0.000446   0.000113  -0.000601   0.007381   0.000632
    24  H   -0.000145   0.000007   0.000002  -0.000036   0.000560   0.000031
    25  H    0.000127   0.000017  -0.000053   0.000691  -0.000713  -0.000012
    26  H   -0.001133  -0.000016  -0.000031   0.000667   0.004928  -0.000066
    27  H   -0.003742   0.001023  -0.000119   0.000014   0.000249   0.000565
    28  O   -0.000031  -0.000000  -0.000000   0.000000   0.000000  -0.000048
    29  C    0.000000   0.000000  -0.000000   0.000000  -0.000000  -0.000002
    30  H    0.000000   0.000000   0.000000  -0.000000   0.000000   0.000001
    31  H   -0.000000  -0.000000  -0.000000  -0.000000   0.000000  -0.000000
    32  H    0.000000   0.000000  -0.000000   0.000000  -0.000000  -0.000001
              19         20         21         22         23         24
     1  C   -0.000009   0.000001   0.000005   0.000548  -0.040884  -0.028912
     2  C   -0.000000   0.000000  -0.000000  -0.000026  -0.012893   0.004446
     3  O    0.000000   0.000000   0.000000   0.000003  -0.022163   0.038481
     4  C   -0.000286   0.000020  -0.000269  -0.034164   0.385642   0.012247
     5  C   -0.000000   0.000000  -0.000000  -0.000051   0.015098   0.006343
     6  H   -0.000000   0.000000   0.000000  -0.000032   0.013196  -0.002690
     7  H    0.000000  -0.000000   0.000000  -0.000000  -0.000347   0.000177
     8  H    0.000000   0.000000   0.000000   0.000008  -0.006417  -0.002160
     9  N    0.000005   0.000000   0.000002   0.000287  -0.057586  -0.009536
    10  H   -0.000005  -0.000000   0.000000  -0.000024   0.006578   0.000270
    11  H    0.000001  -0.000001   0.000002   0.000174  -0.000579  -0.000021
    12  C    0.014379  -0.001465   0.014552  -0.051801  -0.062129   0.006190
    13  C   -0.062359   0.012541  -0.001667   0.013528   0.013707  -0.000145
    14  C    0.448301  -0.064113   0.012313  -0.001847  -0.000446   0.000007
    15  C   -0.067207   0.447777  -0.067597   0.013181   0.000113   0.000002
    16  C    0.012371  -0.062883   0.445551  -0.067394  -0.000601  -0.000036
    17  C   -0.001640   0.012556  -0.059389   0.448825   0.007381   0.000560
    18  H   -0.011894  -0.000195   0.000021  -0.000141   0.000632   0.000031
    19  H    0.648197  -0.010555  -0.000209   0.000022   0.000004  -0.000000
    20  H   -0.010555   0.645086  -0.010615  -0.000204   0.000000   0.000000
    21  H   -0.000209  -0.010615   0.649400  -0.011913  -0.000005  -0.000000
    22  H    0.000022  -0.000204  -0.011913   0.653722   0.019193  -0.000011
    23  C    0.000004   0.000000  -0.000005   0.019193   4.574998   0.363821
    24  H   -0.000000   0.000000  -0.000000  -0.000011   0.363821   0.577435
    25  H    0.000000  -0.000000   0.000016   0.000431   0.388293  -0.011390
    26  H    0.000000  -0.000000   0.000019  -0.000436   0.364911  -0.024951
    27  H    0.000059  -0.000001   0.000000  -0.000010   0.003952  -0.000058
    28  O    0.000000  -0.000000   0.000000   0.000000  -0.000318   0.000530
    29  C   -0.000000   0.000000  -0.000000  -0.000000   0.000023  -0.000009
    30  H   -0.000000  -0.000000   0.000000  -0.000000   0.000001  -0.000002
    31  H    0.000000  -0.000000   0.000000  -0.000000  -0.000012   0.000076
    32  H   -0.000000  -0.000000  -0.000000  -0.000000   0.000017  -0.000091
              25         26         27         28         29         30
     1  C   -0.002005   0.009820   0.394263  -0.134635   0.010856   0.000245
     2  C   -0.000742   0.000739  -0.005429   0.368750  -0.039038   0.005593
     3  O   -0.000062   0.000368   0.004489  -0.082516   0.000118   0.001046
     4  C   -0.006515  -0.007977  -0.062139   0.004803  -0.000407   0.000007
     5  C   -0.000102  -0.004791   0.000069  -0.000094   0.000036   0.000000
     6  H   -0.000043   0.000188  -0.000010  -0.000002  -0.000000  -0.000000
     7  H   -0.000007   0.000272   0.000025   0.000004  -0.000001  -0.000000
     8  H    0.000199   0.000357  -0.000223   0.000424  -0.000195   0.000003
     9  N    0.005863   0.000999   0.002407   0.000016   0.000002  -0.000000
    10  H   -0.000276  -0.000562   0.000450  -0.000096  -0.000005   0.000000
    11  H   -0.000255   0.001162  -0.000130   0.000000  -0.000000   0.000000
    12  C   -0.010165  -0.015997  -0.009729  -0.000053   0.000005  -0.000001
    13  C    0.000127  -0.001133  -0.003742  -0.000031   0.000000   0.000000
    14  C    0.000017  -0.000016   0.001023  -0.000000   0.000000   0.000000
    15  C   -0.000053  -0.000031  -0.000119  -0.000000  -0.000000   0.000000
    16  C    0.000691   0.000667   0.000014   0.000000   0.000000  -0.000000
    17  C   -0.000713   0.004928   0.000249   0.000000  -0.000000   0.000000
    18  H   -0.000012  -0.000066   0.000565  -0.000048  -0.000002   0.000001
    19  H    0.000000   0.000000   0.000059   0.000000  -0.000000  -0.000000
    20  H   -0.000000  -0.000000  -0.000001  -0.000000   0.000000  -0.000000
    21  H    0.000016   0.000019   0.000000   0.000000  -0.000000   0.000000
    22  H    0.000431  -0.000436  -0.000010   0.000000  -0.000000  -0.000000
    23  C    0.388293   0.364911   0.003952  -0.000318   0.000023   0.000001
    24  H   -0.011390  -0.024951  -0.000058   0.000530  -0.000009  -0.000002
    25  H    0.602037  -0.023124   0.000294  -0.000004  -0.000003  -0.000000
    26  H   -0.023124   0.677607  -0.000153   0.000001  -0.000000  -0.000000
    27  H    0.000294  -0.000153   0.664455   0.009413  -0.000177  -0.000247
    28  O   -0.000004   0.000001   0.009413   8.007220   0.287664  -0.026123
    29  C   -0.000003  -0.000000  -0.000177   0.287664   4.396855   0.395099
    30  H   -0.000000  -0.000000  -0.000247  -0.026123   0.395099   0.646425
    31  H    0.000002   0.000001   0.000052  -0.030493   0.403801  -0.029311
    32  H   -0.000000  -0.000001   0.000064  -0.031041   0.396365  -0.025391
              31         32
     1  C    0.000271   0.001423
     2  C   -0.003567  -0.006773
     3  O    0.004729   0.014407
     4  C    0.000033   0.000030
     5  C    0.000011  -0.000079
     6  H   -0.000000   0.000002
     7  H   -0.000000  -0.000001
     8  H   -0.000102   0.000483
     9  N    0.000002  -0.000008
    10  H   -0.000002   0.000013
    11  H   -0.000000   0.000000
    12  C    0.000001  -0.000002
    13  C   -0.000000   0.000000
    14  C   -0.000000   0.000000
    15  C   -0.000000  -0.000000
    16  C   -0.000000   0.000000
    17  C    0.000000  -0.000000
    18  H   -0.000000  -0.000001
    19  H    0.000000  -0.000000
    20  H   -0.000000  -0.000000
    21  H    0.000000  -0.000000
    22  H   -0.000000  -0.000000
    23  C   -0.000012   0.000017
    24  H    0.000076  -0.000091
    25  H    0.000002  -0.000000
    26  H    0.000001  -0.000001
    27  H    0.000052   0.000064
    28  O   -0.030493  -0.031041
    29  C    0.403801   0.396365
    30  H   -0.029311  -0.025391
    31  H    0.665897  -0.037487
    32  H   -0.037487   0.664100
 Mulliken charges:
               1
     1  C   -0.289043
     2  C    0.278771
     3  O   -0.403103
     4  C   -0.098651
     5  C    0.011270
     6  H    0.068727
     7  H    0.068323
     8  H    0.104054
     9  N   -0.127085
    10  H    0.179351
    11  H    0.178673
    12  C    0.011353
    13  C   -0.063015
    14  C   -0.020462
    15  C   -0.016567
    16  C   -0.021741
    17  C   -0.045185
    18  H    0.023935
    19  H    0.030826
    20  H    0.032053
    21  H    0.029783
    22  H    0.018132
    23  C    0.046820
    24  H    0.069398
    25  H    0.057503
    26  H    0.017197
    27  H    0.000324
    28  O   -0.373374
    29  C    0.149015
    30  H    0.032654
    31  H    0.026098
    32  H    0.023968
 Sum of Mulliken charges =  -0.00000
 Mulliken charges with hydrogens summed into heavy atoms:
               1
     1  C   -0.288719
     2  C    0.278771
     3  O   -0.403103
     4  C   -0.098651
     5  C    0.252373
     9  N    0.230939
    12  C    0.011353
    13  C   -0.039081
    14  C    0.010364
    15  C    0.015486
    16  C    0.008043
    17  C   -0.027054
    23  C    0.190918
    28  O   -0.373374
    29  C    0.231734
 Electronic spatial extent (au):  <R**2>=           3906.1352
 Charge=             -0.0000 electrons
 Dipole moment (field-independent basis, Debye):
    X=              5.4754    Y=              4.0788    Z=             -3.5499  Tot=              7.6954
 Quadrupole moment (field-independent basis, Debye-Ang):
   XX=            -92.8963   YY=            -84.4800   ZZ=            -82.8301
   XY=              1.2737   XZ=              2.8566   YZ=             -2.2082
 Traceless Quadrupole moment (field-independent basis, Debye-Ang):
   XX=             -6.1608   YY=              2.2554   ZZ=              3.9054
   XY=              1.2737   XZ=              2.8566   YZ=             -2.2082
 Octapole moment (field-independent basis, Debye-Ang**2):
  XXX=             17.4621  YYY=             31.3684  ZZZ=            -13.0856  XYY=             -3.8574
  XXY=            -27.4540  XXZ=             -1.5249  XZZ=             -4.3770  YZZ=             10.9672
  YYZ=            -17.6070  XYZ=             12.5290
 Hexadecapole moment (field-independent basis, Debye-Ang**3):
 XXXX=          -3472.0150 YYYY=           -914.9755 ZZZZ=           -457.7583 XXXY=             57.1694
 XXXZ=             44.4490 YYYX=              4.0343 YYYZ=            -19.8869 ZZZX=              2.4043
 ZZZY=            -14.2223 XXYY=           -768.8703 XXZZ=           -687.3816 YYZZ=           -220.5894
 XXYZ=             16.3530 YYXZ=            -10.2587 ZZXY=              2.0145
 N-N= 1.008422637011D+03 E-N=-3.579024606863D+03  KE= 6.648423943422D+02
   1 Symmetry operations used in ECPInt.
 ECPInt:  NShTT=   10011 NPrTT=   35491 LenC2=    9428 LenP2D=   24578.
 LDataN:  DoStor=T MaxTD1= 5 Len=  102
 D1PCM: PCM CHGder 1st derivatives, ID1Alg=3 FixD1E=F DoIter=F DoCFld=F I1PDM=0.
 Calling FoFJK, ICntrl=      2127 FMM=F ISym2X=0 I1Cent= 0 IOpClX= 0 NMat=1 NMatS=1 NMatT=0.
 ***** Axes restored to original set *****
 -------------------------------------------------------------------
 Center     Atomic                   Forces (Hartrees/Bohr)
 Number     Number              X              Y              Z
 -------------------------------------------------------------------
      1        6           0.003389396   -0.000497822    0.000370405
      2        6          -0.003629376   -0.001019379    0.000727695
      3        8          -0.001311646   -0.000086086    0.000428007
      4        6           0.000533563   -0.000896079    0.001120933
      5        6          -0.000093954    0.000916331   -0.001332735
      6        1          -0.000030410    0.000088221   -0.000040905
      7        1           0.000281196    0.000321545   -0.000073250
      8        1          -0.000277703    0.000109496    0.000195999
      9        7           0.000321015   -0.000272178   -0.001173145
     10        1           0.000773011    0.000001455    0.000441310
     11        1          -0.000332272    0.000634218    0.000655696
     12        6           0.000001095    0.000425405   -0.001475994
     13        6           0.000181942    0.000250694    0.000111815
     14        6           0.000122727   -0.000018256    0.000040117
     15        6           0.000029878    0.000010198   -0.000108855
     16        6          -0.000184059   -0.000018833    0.000088651
     17        6          -0.000135608   -0.000290943    0.000156169
     18        1           0.000136601    0.000093029   -0.000107369
     19        1           0.000013569   -0.000019937   -0.000006345
     20        1           0.000013777   -0.000000346    0.000011517
     21        1           0.000005026    0.000019641    0.000021097
     22        1          -0.000124808    0.000119277    0.000072363
     23        6           0.000766700    0.000496977   -0.000166405
     24        1           0.000134181    0.000213123    0.000087654
     25        1          -0.000263188   -0.000335602    0.000161566
     26        1           0.000292358   -0.000504281    0.000210034
     27        1          -0.000180195   -0.000042876    0.000190949
     28        8          -0.000139713    0.000926370   -0.000972952
     29        6          -0.000302600   -0.000510990    0.000448689
     30        1          -0.000134632   -0.000173533    0.000250329
     31        1           0.000021737    0.000134915   -0.000160910
     32        1           0.000122392   -0.000073753   -0.000172129
 -------------------------------------------------------------------
 Cartesian Forces:  Max     0.003629376 RMS     0.000677242

 GradGradGradGradGradGradGradGradGradGradGradGradGradGradGradGradGradGrad
 Berny optimization.
 FormGI is forming the generalized inverse of G from B-inverse, IUseBI=4.
 Internal  Forces:  Max     0.005318467 RMS     0.000798547
 Search for a saddle point.
 Step number   1 out of a maximum of   50
 All quantities printed in internal units (Hartrees-Bohrs-Radians)
 Swapping is turned off.
 Second derivative matrix not updated -- first step.
 ITU=  0
     Eigenvalues ---   -0.00177   0.00229   0.00314   0.00461   0.00522
     Eigenvalues ---    0.00866   0.01027   0.01531   0.01893   0.01925
     Eigenvalues ---    0.02097   0.02121   0.02245   0.02634   0.02845
     Eigenvalues ---    0.02922   0.02959   0.03163   0.03272   0.03334
     Eigenvalues ---    0.04271   0.05166   0.05637   0.05651   0.05831
     Eigenvalues ---    0.07989   0.08054   0.09154   0.09399   0.09992
     Eigenvalues ---    0.10183   0.10392   0.11130   0.12247   0.13228
     Eigenvalues ---    0.13694   0.13944   0.14186   0.14227   0.14776
     Eigenvalues ---    0.14852   0.14919   0.15324   0.15910   0.18071
     Eigenvalues ---    0.18723   0.20331   0.20461   0.20982   0.21087
     Eigenvalues ---    0.21275   0.21332   0.21853   0.21954   0.23036
     Eigenvalues ---    0.25797   0.28015   0.28551   0.29354   0.29972
     Eigenvalues ---    0.31981   0.33922   0.34936   0.35207   0.35306
     Eigenvalues ---    0.35360   0.35784   0.35802   0.36228   0.36410
     Eigenvalues ---    0.37505   0.37651   0.37689   0.37824   0.38014
     Eigenvalues ---    0.38470   0.38587   0.39142   0.41482   0.42967
     Eigenvalues ---    0.43394   0.44291   0.44719   0.45541   0.50646
     Eigenvalues ---    0.50785   0.51253   0.54628   0.62292   0.85290
 Eigenvectors required to have negative eigenvalues:
                          D10       D8        D9        R6        D72
   1                    0.41905   0.36183   0.31392  -0.28032   0.18508
                          D4        D71       D70       D3        D7
   1                   -0.18314   0.18020   0.17355  -0.17297   0.16094
 RFO step:  Lambda0=7.765853931D-04 Lambda=-9.41135087D-04.
 Linear search not attempted -- option 19 set.
 Maximum step size (   0.100) exceeded in Quadratic search.
    -- Step size scaled by   0.603
 Iteration  1 RMS(Cart)=  0.05992200 RMS(Int)=  0.00474676
 Iteration  2 RMS(Cart)=  0.00517650 RMS(Int)=  0.00021033
 Iteration  3 RMS(Cart)=  0.00003737 RMS(Int)=  0.00020885
 Iteration  4 RMS(Cart)=  0.00000000 RMS(Int)=  0.00020885
 Variable       Old X    -DE/DX   Delta X   Delta X   Delta X     New X
                                 (Linear)    (Quad)   (Total)
    R1        2.65270   0.00532   0.00000  -0.00655  -0.00655   2.64614
    R2        2.76126   0.00203   0.00000   0.02301   0.02301   2.78428
    R3        2.05656  -0.00009   0.00000   0.00041   0.00041   2.05697
    R4        2.34441   0.00076   0.00000   0.00390   0.00390   2.34830
    R5        2.59511   0.00009   0.00000   0.00237   0.00237   2.59748
    R6        3.19267   0.00221   0.00000  -0.07862  -0.07862   3.11405
    R7        2.88848  -0.00002   0.00000   0.00426   0.00426   2.89274
    R8        2.88414   0.00001   0.00000   0.00285   0.00285   2.88700
    R9        2.06949   0.00002   0.00000  -0.00032  -0.00032   2.06917
   R10        2.07431   0.00021   0.00000  -0.00075  -0.00075   2.07356
   R11        2.07548   0.00022   0.00000   0.00076   0.00076   2.07625
   R12        2.78741   0.00094   0.00000   0.00557   0.00557   2.79298
   R13        1.93385  -0.00049   0.00000   0.00167   0.00167   1.93552
   R14        1.93633  -0.00007   0.00000   0.00086   0.00086   1.93719
   R15        2.65442   0.00001   0.00000  -0.00007  -0.00007   2.65434
   R16        2.64514  -0.00011   0.00000  -0.00076  -0.00076   2.64438
   R17        2.63016   0.00015   0.00000   0.00002   0.00002   2.63018
   R18        2.06453  -0.00003   0.00000   0.00023   0.00023   2.06476
   R19        2.63648  -0.00003   0.00000   0.00004   0.00004   2.63652
   R20        2.06401   0.00002   0.00000  -0.00001  -0.00001   2.06400
   R21        2.63047   0.00004   0.00000  -0.00000  -0.00000   2.63047
   R22        2.06370   0.00001   0.00000   0.00001   0.00001   2.06371
   R23        2.63815  -0.00015   0.00000   0.00019   0.00019   2.63834
   R24        2.06401   0.00002   0.00000  -0.00002  -0.00002   2.06399
   R25        2.05986   0.00015   0.00000  -0.00000  -0.00000   2.05985
   R26        2.07057  -0.00008   0.00000   0.00054   0.00054   2.07112
   R27        2.07444   0.00028   0.00000  -0.00080  -0.00080   2.07365
   R28        2.08255  -0.00024   0.00000   0.00094   0.00094   2.08348
   R29        2.65565   0.00028   0.00000  -0.00138  -0.00138   2.65426
   R30        2.07519   0.00009   0.00000   0.00015   0.00015   2.07534
   R31        2.08377  -0.00015   0.00000  -0.00168  -0.00168   2.08208
   R32        2.08042  -0.00002   0.00000   0.00239   0.00239   2.08281
    A1        2.16171   0.00343   0.00000  -0.00593  -0.00737   2.15433
    A2        2.04506  -0.00193   0.00000   0.00590   0.00440   2.04946
    A3        2.07363  -0.00152   0.00000  -0.00691  -0.00833   2.06530
    A4        2.25166   0.00169   0.00000  -0.00190  -0.00190   2.24976
    A5        1.95965  -0.00078   0.00000   0.00327   0.00327   1.96292
    A6        2.07164  -0.00091   0.00000  -0.00146  -0.00146   2.07018
    A7        1.89489   0.00103   0.00000  -0.00204  -0.00195   1.89294
    A8        1.95917   0.00025   0.00000  -0.01602  -0.01611   1.94306
    A9        2.01841  -0.00046   0.00000  -0.00525  -0.00542   2.01299
   A10        1.75991  -0.00146   0.00000   0.01690   0.01691   1.77682
   A11        1.81745   0.00075   0.00000   0.01864   0.01864   1.83609
   A12        1.98623  -0.00011   0.00000  -0.00533  -0.00571   1.98052
   A13        1.90825  -0.00012   0.00000   0.00092   0.00090   1.90915
   A14        1.91125  -0.00019   0.00000  -0.00006  -0.00006   1.91119
   A15        1.90798   0.00001   0.00000  -0.00185  -0.00186   1.90612
   A16        1.94235   0.00005   0.00000   0.00978   0.00978   1.95214
   A17        1.91452  -0.00018   0.00000  -0.00770  -0.00770   1.90682
   A18        1.87908   0.00044   0.00000  -0.00130  -0.00130   1.87778
   A19        2.03367   0.00364   0.00000   0.00995   0.00995   2.04362
   A20        1.76742  -0.00114   0.00000   0.00785   0.00784   1.77527
   A21        1.92538  -0.00122   0.00000  -0.00426  -0.00423   1.92115
   A22        1.90646  -0.00047   0.00000  -0.00478  -0.00486   1.90160
   A23        1.94598  -0.00148   0.00000  -0.00846  -0.00846   1.93752
   A24        1.87021   0.00057   0.00000   0.00060   0.00058   1.87080
   A25        2.08793   0.00123   0.00000  -0.00328  -0.00329   2.08464
   A26        2.13677  -0.00121   0.00000   0.00220   0.00219   2.13896
   A27        2.05762  -0.00002   0.00000   0.00130   0.00130   2.05891
   A28        2.11570  -0.00006   0.00000  -0.00060  -0.00061   2.11509
   A29        2.08730   0.00015   0.00000  -0.00135  -0.00136   2.08594
   A30        2.08011  -0.00009   0.00000   0.00186   0.00185   2.08195
   A31        2.09771   0.00002   0.00000  -0.00030  -0.00029   2.09741
   A32        2.08822   0.00000   0.00000   0.00025   0.00025   2.08847
   A33        2.09724  -0.00002   0.00000   0.00004   0.00003   2.09728
   A34        2.08197  -0.00004   0.00000   0.00044   0.00044   2.08241
   A35        2.10043   0.00003   0.00000  -0.00019  -0.00019   2.10024
   A36        2.10079   0.00001   0.00000  -0.00025  -0.00025   2.10054
   A37        2.10167  -0.00000   0.00000   0.00002   0.00002   2.10168
   A38        2.09643   0.00002   0.00000  -0.00004  -0.00004   2.09639
   A39        2.08509  -0.00001   0.00000   0.00002   0.00002   2.08511
   A40        2.11164   0.00011   0.00000  -0.00083  -0.00083   2.11081
   A41        2.10204  -0.00016   0.00000   0.00030   0.00030   2.10234
   A42        2.06943   0.00005   0.00000   0.00054   0.00054   2.06997
   A43        1.91094   0.00033   0.00000  -0.00162  -0.00162   1.90932
   A44        1.88624  -0.00016   0.00000  -0.00063  -0.00064   1.88560
   A45        1.97908  -0.00004   0.00000   0.00205   0.00205   1.98113
   A46        1.88109  -0.00012   0.00000  -0.00211  -0.00212   1.87897
   A47        1.91440  -0.00000   0.00000  -0.00041  -0.00041   1.91399
   A48        1.88934  -0.00002   0.00000   0.00256   0.00256   1.89190
   A49        2.02806   0.00099   0.00000  -0.00031  -0.00031   2.02775
   A50        1.86005   0.00020   0.00000  -0.00101  -0.00101   1.85904
   A51        1.95160   0.00004   0.00000   0.00366   0.00366   1.95525
   A52        1.95455  -0.00022   0.00000  -0.00011  -0.00011   1.95444
   A53        1.90584  -0.00013   0.00000   0.00265   0.00265   1.90849
   A54        1.91365   0.00007   0.00000  -0.00526  -0.00526   1.90839
   A55        1.87789   0.00005   0.00000  -0.00004  -0.00005   1.87785
    D1        0.15293  -0.00017   0.00000   0.02986   0.03002   0.18295
    D2       -3.01294   0.00012   0.00000   0.02546   0.02562  -2.98732
    D3       -3.06993  -0.00056   0.00000  -0.07143  -0.07159  -3.14152
    D4        0.04738  -0.00027   0.00000  -0.07583  -0.07599  -0.02861
    D5       -1.33498  -0.00142   0.00000   0.01558   0.01578  -1.31920
    D6        3.01800  -0.00039   0.00000   0.00474   0.00494   3.02294
    D7        0.69923  -0.00002   0.00000   0.03456   0.03471   0.73394
    D8        1.88912  -0.00101   0.00000   0.11787   0.11770   2.00683
    D9       -0.04108   0.00002   0.00000   0.10702   0.10686   0.06578
   D10       -2.35985   0.00039   0.00000   0.13684   0.13663  -2.22322
   D11       -3.07113  -0.00043   0.00000   0.00343   0.00343  -3.06770
   D12        0.04895  -0.00013   0.00000  -0.00048  -0.00048   0.04847
   D13        1.44358   0.00000   0.00000   0.01632   0.01634   1.45992
   D14       -0.62193  -0.00045   0.00000   0.01194   0.01192  -0.61001
   D15       -2.59820  -0.00007   0.00000   0.00903   0.00903  -2.58917
   D16       -2.77834  -0.00000   0.00000   0.00561   0.00555  -2.77279
   D17        1.43933  -0.00045   0.00000   0.00124   0.00113   1.44046
   D18       -0.53694  -0.00008   0.00000  -0.00168  -0.00175  -0.53870
   D19       -0.71608  -0.00043   0.00000   0.01292   0.01302  -0.70305
   D20       -2.78159  -0.00088   0.00000   0.00854   0.00860  -2.77299
   D21        1.52532  -0.00051   0.00000   0.00563   0.00572   1.53104
   D22        0.77738   0.00066   0.00000   0.03459   0.03450   0.81188
   D23       -2.41004   0.00066   0.00000   0.04024   0.04015  -2.36989
   D24       -1.23639   0.00016   0.00000   0.03426   0.03428  -1.20211
   D25        1.85937   0.00016   0.00000   0.03991   0.03993   1.89930
   D26        3.11188   0.00013   0.00000   0.00552   0.00559   3.11747
   D27       -0.07554   0.00013   0.00000   0.01117   0.01124  -0.06431
   D28       -0.74845  -0.00073   0.00000  -0.04047  -0.04048  -0.78893
   D29        1.29606  -0.00079   0.00000  -0.04424  -0.04424   1.25182
   D30       -2.89260  -0.00094   0.00000  -0.04017  -0.04017  -2.93278
   D31        1.32889   0.00081   0.00000  -0.03308  -0.03306   1.29583
   D32       -2.90978   0.00076   0.00000  -0.03684  -0.03682  -2.94661
   D33       -0.81526   0.00060   0.00000  -0.03278  -0.03275  -0.84802
   D34       -3.05467  -0.00053   0.00000  -0.00525  -0.00526  -3.05993
   D35       -1.01016  -0.00058   0.00000  -0.00901  -0.00903  -1.01919
   D36        1.08436  -0.00074   0.00000  -0.00494  -0.00496   1.07940
   D37        1.30914  -0.00004   0.00000  -0.04042  -0.04042   1.26872
   D38       -2.98590   0.00036   0.00000  -0.02780  -0.02783  -3.01373
   D39       -0.92224  -0.00014   0.00000  -0.03523  -0.03522  -0.95746
   D40       -2.88182  -0.00030   0.00000  -0.04512  -0.04511  -2.92693
   D41       -0.89367   0.00011   0.00000  -0.03251  -0.03252  -0.92620
   D42        1.16999  -0.00039   0.00000  -0.03994  -0.03991   1.13007
   D43       -0.76572  -0.00008   0.00000  -0.03857  -0.03857  -0.80428
   D44        1.22243   0.00033   0.00000  -0.02596  -0.02598   1.19645
   D45       -2.99710  -0.00017   0.00000  -0.03338  -0.03337  -3.03046
   D46        3.10512  -0.00002   0.00000   0.00159   0.00158   3.10669
   D47       -0.05023   0.00005   0.00000  -0.00647  -0.00647  -0.05670
   D48        0.00729   0.00001   0.00000  -0.00384  -0.00384   0.00345
   D49        3.13513   0.00009   0.00000  -0.01190  -0.01189   3.12324
   D50       -3.11004  -0.00006   0.00000  -0.00219  -0.00220  -3.11224
   D51        0.04486  -0.00005   0.00000  -0.00290  -0.00291   0.04195
   D52       -0.01352  -0.00003   0.00000   0.00325   0.00325  -0.01027
   D53        3.14137  -0.00002   0.00000   0.00254   0.00255  -3.13927
   D54        0.00150  -0.00000   0.00000   0.00171   0.00170   0.00320
   D55        3.13694   0.00001   0.00000  -0.00039  -0.00039   3.13655
   D56       -3.12640  -0.00008   0.00000   0.00976   0.00976  -3.11664
   D57        0.00904  -0.00006   0.00000   0.00767   0.00767   0.01671
   D58       -0.00425   0.00000   0.00000   0.00113   0.00113  -0.00312
   D59        3.13631   0.00000   0.00000  -0.00063  -0.00063   3.13567
   D60       -3.13965  -0.00002   0.00000   0.00323   0.00323  -3.13642
   D61        0.00090  -0.00001   0.00000   0.00147   0.00147   0.00237
   D62       -0.00195  -0.00001   0.00000  -0.00171  -0.00171  -0.00366
   D63        3.13793   0.00001   0.00000  -0.00195  -0.00196   3.13597
   D64        3.14068  -0.00001   0.00000   0.00005   0.00005   3.14073
   D65       -0.00263   0.00001   0.00000  -0.00020  -0.00020  -0.00282
   D66        0.01107   0.00003   0.00000  -0.00053  -0.00053   0.01054
   D67        3.13960   0.00002   0.00000   0.00016   0.00016   3.13977
   D68       -3.12881   0.00000   0.00000  -0.00029  -0.00029  -3.12910
   D69       -0.00028  -0.00000   0.00000   0.00040   0.00040   0.00013
   D70        2.96727   0.00044   0.00000   0.14739   0.14739   3.11465
   D71       -1.23456   0.00043   0.00000   0.15206   0.15206  -1.08250
   D72        0.87469   0.00036   0.00000   0.15452   0.15452   1.02921
         Item               Value     Threshold  Converged?
 Maximum Force            0.005318     0.000450     NO 
 RMS     Force            0.000799     0.000300     NO 
 Maximum Displacement     0.360044     0.001800     NO 
 RMS     Displacement     0.060783     0.001200     NO 
 Predicted change in Energy=-5.050536D-05
 GradGradGradGradGradGradGradGradGradGradGradGradGradGradGradGradGradGrad

                          Input orientation:                          
 ---------------------------------------------------------------------
 Center     Atomic      Atomic             Coordinates (Angstroms)
 Number     Number       Type             X           Y           Z
 ---------------------------------------------------------------------
      1          6           0       -0.903278   -0.580671   -0.199984
      2          6           0       -2.291612   -0.463009   -0.060467
      3          8           0       -2.963543    0.537777    0.241465
      4          6           0        0.046045    0.466560    0.215863
      5          6           0       -1.066702    2.694725   -0.740858
      6          1           0       -0.834221    3.336324    0.115437
      7          1           0       -1.119280    3.306180   -1.650465
      8          1           0       -2.007514    2.159182   -0.553213
      9          7           0       -0.000026    1.683286   -0.894535
     10          1           0       -0.155560    1.165284   -1.764324
     11          1           0        0.920633    2.128190   -0.967394
     12          6           0        1.494181   -0.014289    0.093610
     13          6           0        1.906413   -0.673249   -1.076343
     14          6           0        3.224180   -1.089024   -1.243120
     15          6           0        4.164669   -0.858560   -0.238671
     16          6           0        3.771332   -0.206684    0.926646
     17          6           0        2.450806    0.216720    1.088433
     18          1           0        1.176543   -0.882035   -1.862174
     19          1           0        3.516524   -1.603561   -2.161127
     20          1           0        5.198055   -1.188574   -0.364427
     21          1           0        4.495559   -0.024173    1.723589
     22          1           0        2.174717    0.722742    2.013569
     23          6           0       -0.262490    1.134340    1.554833
[...]
 Alpha virt. eigenvalues --    2.08719   2.09641   2.11900   2.12651   2.13013
 Alpha virt. eigenvalues --    2.15948   2.16477   2.19004   2.20270   2.21272
 Alpha virt. eigenvalues --    2.23362   2.24037   2.25514   2.28892   2.32132
 Alpha virt. eigenvalues --    2.35357   2.35463   2.37598   2.38760   2.39493
 Alpha virt. eigenvalues --    2.40510   2.41330   2.43100   2.43684   2.45025
 Alpha virt. eigenvalues --    2.46120   2.48521   2.50287   2.50528   2.52537
 Alpha virt. eigenvalues --    2.56568   2.59017   2.61860   2.62663   2.67332
 Alpha virt. eigenvalues --    2.70937   2.71548   2.73056   2.73982   2.76630
 Alpha virt. eigenvalues --    2.77526   2.78873   2.80002   2.81068   2.81841
 Alpha virt. eigenvalues --    2.82464   2.83818   2.87100   2.89980   2.91666
 Alpha virt. eigenvalues --    2.93260   2.96239   2.97176   2.99614   3.02716
 Alpha virt. eigenvalues --    3.03820   3.04189   3.05971   3.08714   3.09989
 Alpha virt. eigenvalues --    3.12356   3.13227   3.16288   3.20928   3.24448
 Alpha virt. eigenvalues --    3.28886   3.31405   3.32510   3.34469   3.47552
 Alpha virt. eigenvalues --    3.58547   3.71237   3.74154   3.82656
          Condensed to atoms (all electrons):
               1          2          3          4          5          6
     1  C    5.738240   0.353055  -0.141281   0.255277   0.002720  -0.000578
     2  C    0.353055   4.449312   0.636570  -0.016478  -0.000906   0.000199
     3  O   -0.141281   0.636570   7.928271   0.016862  -0.017160   0.000478
     4  C    0.255277  -0.016478   0.016862   5.474582  -0.031454  -0.012690
     5  C    0.002720  -0.000906  -0.017160  -0.031454   4.540298   0.395579
     6  H   -0.000578   0.000199   0.000478  -0.012690   0.395579   0.592368
     7  H   -0.000490   0.000013   0.000255   0.005247   0.397463  -0.021128
     8  H   -0.002444   0.000393   0.041348  -0.003703   0.385425  -0.012179
     9  N   -0.092151  -0.004915   0.001549   0.095533   0.303734  -0.015100
    10  H    0.001705   0.006783   0.002429   0.012835  -0.014497   0.005524
    11  H    0.006537  -0.000332  -0.000008  -0.004783  -0.015636  -0.006061
    12  C   -0.051516   0.010344   0.000818   0.166194   0.004270   0.000661
    13  C   -0.014891   0.000362  -0.000004  -0.097481   0.000064   0.000154
    14  C    0.000757  -0.000005  -0.000000   0.013078   0.000009  -0.000001
    15  C    0.000004   0.000000  -0.000000  -0.001744  -0.000001  -0.000000
    16  C   -0.000469   0.000007  -0.000000   0.021153  -0.000001  -0.000005
    17  C    0.007217  -0.000552  -0.000003  -0.089722   0.000138  -0.000152
    18  H    0.018659  -0.000760  -0.000036  -0.014645   0.000026  -0.000023
    19  H   -0.000018  -0.000001   0.000000  -0.000297  -0.000000  -0.000000
    20  H    0.000001   0.000000   0.000000   0.000020   0.000000   0.000000
    21  H    0.000005  -0.000000   0.000000  -0.000276  -0.000000  -0.000000
    22  H    0.000442  -0.000025   0.000004  -0.034902  -0.000089  -0.000080
    23  C   -0.043452  -0.016346  -0.016181   0.402101   0.020664   0.007131
    24  H   -0.024614   0.003020   0.024931   0.007930   0.004766  -0.002377
    25  H   -0.000224  -0.001284   0.000018  -0.009023  -0.000055   0.000110
    26  H    0.009569   0.000999   0.000053   0.004283  -0.002099   0.001064
    27  H    0.404043  -0.010854   0.004199  -0.062934  -0.000052   0.000004
    28  O   -0.131492   0.364728  -0.083517   0.005267  -0.000041   0.000001
    29  C    0.010644  -0.039267   0.001374  -0.000479   0.000006   0.000000
    30  H    0.000165   0.005689   0.001056   0.000001  -0.000000  -0.000000
    31  H    0.000778  -0.005471   0.009361   0.000055   0.000004  -0.000000
    32  H    0.001088  -0.003965   0.008362   0.000047  -0.000005   0.000000
               7          8          9         10         11         12
     1  C   -0.000490  -0.002444  -0.092151   0.001705   0.006537  -0.051516
     2  C    0.000013   0.000393  -0.004915   0.006783  -0.000332   0.010344
     3  O    0.000255   0.041348   0.001549   0.002429  -0.000008   0.000818
     4  C    0.005247  -0.003703   0.095533   0.012835  -0.004783   0.166194
     5  C    0.397463   0.385425   0.303734  -0.014497  -0.015636   0.004270
     6  H   -0.021128  -0.012179  -0.015100   0.005524  -0.006061   0.000661
     7  H    0.588680  -0.014118  -0.016523  -0.006377  -0.005447  -0.000278
     8  H   -0.014118   0.520829  -0.016634  -0.004430   0.005266   0.000368
     9  N   -0.016523  -0.016634   6.306046   0.320745   0.332737  -0.025187
    10  H   -0.006377  -0.004430   0.320745   0.491664  -0.007049  -0.008743
    11  H   -0.005447   0.005266   0.332737  -0.007049   0.509003  -0.008675
    12  C   -0.000278   0.000368  -0.025187  -0.008743  -0.008675   5.496744
    13  C   -0.000073  -0.000020  -0.010225   0.005243   0.005572   0.273909
    14  C   -0.000001  -0.000001  -0.000342   0.000123  -0.000338   0.071192
    15  C    0.000000   0.000000   0.000046   0.000008  -0.000030  -0.142768
    16  C    0.000000  -0.000001  -0.000177   0.000003  -0.000306   0.065551
    17  C   -0.000005  -0.000017  -0.000178  -0.000370   0.002138   0.344499
    18  H   -0.000012   0.000008  -0.003163   0.002188   0.001869  -0.080227
    19  H    0.000000   0.000000   0.000003  -0.000006   0.000013   0.014306
    20  H   -0.000000   0.000000  -0.000000   0.000000  -0.000003  -0.001482
    21  H    0.000000   0.000000   0.000002  -0.000000   0.000002   0.014434
    22  H    0.000000   0.000011   0.000377  -0.000021   0.000106  -0.050055
    23  C   -0.000267  -0.001570  -0.060155   0.006046   0.002689  -0.069463
    24  H    0.000184  -0.001102  -0.010360   0.000261  -0.000160   0.007031
    25  H   -0.000018   0.000088   0.006001  -0.000250  -0.000241  -0.008943
    26  H    0.000314  -0.000660  -0.002475  -0.000741   0.000622  -0.016197
    27  H    0.000011  -0.000131   0.003454   0.000463  -0.000100  -0.004249
    28  O    0.000001   0.000299   0.000052  -0.000509   0.000003  -0.000017
    29  C    0.000000  -0.000037   0.000012  -0.000041  -0.000001   0.000005
    30  H   -0.000000   0.000001   0.000000  -0.000002   0.000000  -0.000001
    31  H    0.000000  -0.000046   0.000004  -0.000032  -0.000000   0.000001
    32  H   -0.000002   0.000043  -0.000027   0.000166   0.000001  -0.000004
              13         14         15         16         17         18
     1  C   -0.014891   0.000757   0.000004  -0.000469   0.007217   0.018659
     2  C    0.000362  -0.000005   0.000000   0.000007  -0.000552  -0.000760
     3  O   -0.000004  -0.000000  -0.000000  -0.000000  -0.000003  -0.000036
     4  C   -0.097481   0.013078  -0.001744   0.021153  -0.089722  -0.014645
     5  C    0.000064   0.000009  -0.000001  -0.000001   0.000138   0.000026
     6  H    0.000154  -0.000001  -0.000000  -0.000005  -0.000152  -0.000023
     7  H   -0.000073  -0.000001   0.000000   0.000000  -0.000005  -0.000012
     8  H   -0.000020  -0.000001   0.000000  -0.000001  -0.000017   0.000008
     9  N   -0.010225  -0.000342   0.000046  -0.000177  -0.000178  -0.003163
    10  H    0.005243   0.000123   0.000008   0.000003  -0.000370   0.002188
    11  H    0.005572  -0.000338  -0.000030  -0.000306   0.002138   0.001869
    12  C    0.273909   0.071192  -0.142768   0.065551   0.344499  -0.080227
    13  C    5.177305   0.323151   0.073154  -0.131978   0.031710   0.453620
    14  C    0.323151   5.021717   0.296302   0.075205  -0.122569  -0.055160
    15  C    0.073154   0.296302   5.076888   0.305235   0.068689   0.013101
    16  C   -0.131978   0.075205   0.305235   5.061515   0.301157  -0.002029
    17  C    0.031710  -0.122569   0.068689   0.301157   5.068304   0.012878
    18  H    0.453620  -0.055160   0.013101  -0.002029   0.012878   0.643059
    19  H   -0.063371   0.449285  -0.067073   0.012344  -0.001626  -0.011541
    20  H    0.012520  -0.064075   0.447532  -0.062608   0.012556  -0.000187
    21  H   -0.001599   0.012221  -0.067268   0.445036  -0.058966   0.000021
    22  H    0.013412  -0.001868   0.013116  -0.067823   0.448240  -0.000137
    23  C    0.014784  -0.000475   0.000143  -0.000907   0.009330   0.000965
    24  H   -0.000096   0.000006   0.000003  -0.000045   0.000706   0.000051
    25  H   -0.000133   0.000024  -0.000048   0.000671   0.000075  -0.000029
    26  H   -0.001273  -0.000002  -0.000050   0.000934   0.004109  -0.000094
    27  H   -0.003706   0.000733  -0.000097   0.000005   0.000464   0.000717
    28  O   -0.000021  -0.000000  -0.000000   0.000000   0.000000  -0.000018
    29  C    0.000000   0.000000  -0.000000   0.000000  -0.000000  -0.000004
    30  H    0.000000   0.000000   0.000000  -0.000000   0.000000   0.000000
    31  H   -0.000000  -0.000000  -0.000000  -0.000000   0.000000  -0.000000
    32  H    0.000001   0.000000  -0.000000   0.000000  -0.000000   0.000000
              19         20         21         22         23         24
     1  C   -0.000018   0.000001   0.000005   0.000442  -0.043452  -0.024614
     2  C   -0.000001   0.000000  -0.000000  -0.000025  -0.016346   0.003020
     3  O    0.000000   0.000000   0.000000   0.000004  -0.016181   0.024931
     4  C   -0.000297   0.000020  -0.000276  -0.034902   0.402101   0.007930
     5  C   -0.000000   0.000000  -0.000000  -0.000089   0.020664   0.004766
     6  H   -0.000000   0.000000  -0.000000  -0.000080   0.007131  -0.002377
     7  H    0.000000  -0.000000   0.000000   0.000000  -0.000267   0.000184
     8  H    0.000000   0.000000   0.000000   0.000011  -0.001570  -0.001102
     9  N    0.000003  -0.000000   0.000002   0.000377  -0.060155  -0.010360
    10  H   -0.000006   0.000000  -0.000000  -0.000021   0.006046   0.000261
    11  H    0.000013  -0.000003   0.000002   0.000106   0.002689  -0.000160
    12  C    0.014306  -0.001482   0.014434  -0.050055  -0.069463   0.007031
    13  C   -0.063371   0.012520  -0.001599   0.013412   0.014784  -0.000096
    14  C    0.449285  -0.064075   0.012221  -0.001868  -0.000475   0.000006
    15  C   -0.067073   0.447532  -0.067268   0.013116   0.000143   0.000003
    16  C    0.012344  -0.062608   0.445036  -0.067823  -0.000907  -0.000045
    17  C   -0.001626   0.012556  -0.058966   0.448240   0.009330   0.000706
    18  H   -0.011541  -0.000187   0.000021  -0.000137   0.000965   0.000051
    19  H    0.647172  -0.010563  -0.000208   0.000023   0.000004  -0.000000
    20  H   -0.010563   0.644720  -0.010587  -0.000202   0.000000   0.000000
    21  H   -0.000208  -0.010587   0.649007  -0.011790  -0.000002  -0.000000
    22  H    0.000023  -0.000202  -0.011790   0.653589   0.019740   0.000023
    23  C    0.000004   0.000000  -0.000002   0.019740   4.543092   0.373659
    24  H   -0.000000   0.000000  -0.000000   0.000023   0.373659   0.594148
    25  H    0.000000  -0.000000   0.000011   0.000632   0.388104  -0.012011
    26  H    0.000000  -0.000000   0.000019  -0.001146   0.355337  -0.027060
    27  H    0.000040  -0.000001   0.000000   0.000011   0.002019   0.000047
    28  O    0.000000  -0.000000   0.000000   0.000000  -0.000166   0.000068
    29  C   -0.000000   0.000000  -0.000000  -0.000000   0.000009  -0.000066
    30  H   -0.000000  -0.000000   0.000000  -0.000000   0.000002  -0.000003
    31  H    0.000000  -0.000000  -0.000000  -0.000000  -0.000037   0.000159
    32  H   -0.000000  -0.000000   0.000000  -0.000000   0.000014  -0.000049
              25         26         27         28         29         30
     1  C   -0.000224   0.009569   0.404043  -0.131492   0.010644   0.000165
     2  C   -0.001284   0.000999  -0.010854   0.364728  -0.039267   0.005689
     3  O    0.000018   0.000053   0.004199  -0.083517   0.001374   0.001056
     4  C   -0.009023   0.004283  -0.062934   0.005267  -0.000479   0.000001
     5  C   -0.000055  -0.002099  -0.000052  -0.000041   0.000006  -0.000000
     6  H    0.000110   0.001064   0.000004   0.000001   0.000000  -0.000000
     7  H   -0.000018   0.000314   0.000011   0.000001   0.000000  -0.000000
     8  H    0.000088  -0.000660  -0.000131   0.000299  -0.000037   0.000001
     9  N    0.006001  -0.002475   0.003454   0.000052   0.000012   0.000000
    10  H   -0.000250  -0.000741   0.000463  -0.000509  -0.000041  -0.000002
    11  H   -0.000241   0.000622  -0.000100   0.000003  -0.000001   0.000000
    12  C   -0.008943  -0.016197  -0.004249  -0.000017   0.000005  -0.000001
    13  C   -0.000133  -0.001273  -0.003706  -0.000021   0.000000   0.000000
    14  C    0.000024  -0.000002   0.000733  -0.000000   0.000000   0.000000
    15  C   -0.000048  -0.000050  -0.000097  -0.000000  -0.000000   0.000000
    16  C    0.000671   0.000934   0.000005   0.000000   0.000000  -0.000000
    17  C    0.000075   0.004109   0.000464   0.000000  -0.000000   0.000000
    18  H   -0.000029  -0.000094   0.000717  -0.000018  -0.000004   0.000000
    19  H    0.000000   0.000000   0.000040   0.000000  -0.000000  -0.000000
    20  H   -0.000000  -0.000000  -0.000001  -0.000000   0.000000  -0.000000
    21  H    0.000011   0.000019   0.000000   0.000000  -0.000000   0.000000
    22  H    0.000632  -0.001146   0.000011   0.000000  -0.000000  -0.000000
    23  C    0.388104   0.355337   0.002019  -0.000166   0.000009   0.000002
    24  H   -0.012011  -0.027060   0.000047   0.000068  -0.000066  -0.000003
    25  H    0.604335  -0.024925   0.000785  -0.000010  -0.000001  -0.000000
    26  H   -0.024925   0.682678  -0.000158  -0.000000   0.000000   0.000000
    27  H    0.000785  -0.000158   0.658656   0.006002  -0.000183  -0.000177
    28  O   -0.000010  -0.000000   0.006002   8.011973   0.289117  -0.025950
    29  C   -0.000001   0.000000  -0.000183   0.289117   4.392601   0.395431
    30  H   -0.000000   0.000000  -0.000177  -0.025950   0.395431   0.645799
    31  H    0.000001   0.000001   0.000027  -0.030508   0.401690  -0.027335
    32  H   -0.000000  -0.000001   0.000032  -0.031986   0.397282  -0.027660
              31         32
     1  C    0.000778   0.001088
     2  C   -0.005471  -0.003965
     3  O    0.009361   0.008362
     4  C    0.000055   0.000047
     5  C    0.000004  -0.000005
     6  H   -0.000000   0.000000
     7  H    0.000000  -0.000002
     8  H   -0.000046   0.000043
     9  N    0.000004  -0.000027
    10  H   -0.000032   0.000166
    11  H   -0.000000   0.000001
    12  C    0.000001  -0.000004
    13  C   -0.000000   0.000001
    14  C   -0.000000   0.000000
    15  C   -0.000000  -0.000000
    16  C   -0.000000   0.000000
    17  C    0.000000  -0.000000
    18  H   -0.000000   0.000000
    19  H    0.000000  -0.000000
    20  H   -0.000000  -0.000000
    21  H   -0.000000   0.000000
    22  H   -0.000000  -0.000000
    23  C   -0.000037   0.000014
    24  H    0.000159  -0.000049
    25  H    0.000001  -0.000000
    26  H    0.000001  -0.000001
    27  H    0.000027   0.000032
    28  O   -0.030508  -0.031986
    29  C    0.401690   0.397282
    30  H   -0.027335  -0.027660
    31  H    0.663733  -0.038580
    32  H   -0.038580   0.676395
 Mulliken charges:
               1
     1  C   -0.307283
     2  C    0.269689
     3  O   -0.419746
     4  C   -0.099854
     5  C    0.026830
     6  H    0.067102
     7  H    0.072569
     8  H    0.103015
     9  N   -0.112684
    10  H    0.186882
    11  H    0.182613
    12  C   -0.002524
    13  C   -0.060090
    14  C   -0.018966
    15  C   -0.015141
    16  C   -0.022468
    17  C   -0.038050
    18  H    0.020907
    19  H    0.031514
    20  H    0.032359
    21  H    0.029940
    22  H    0.018413
    23  C    0.063190
    24  H    0.060953
    25  H    0.056339
    26  H    0.016900
    27  H    0.000929
    28  O   -0.373274
    29  C    0.151910
    30  H    0.032985
    31  H    0.026194
    32  H    0.018849
 Sum of Mulliken charges =  -0.00000
 Mulliken charges with hydrogens summed into heavy atoms:
               1
     1  C   -0.306354
     2  C    0.269689
     3  O   -0.419746
     4  C   -0.099854
     5  C    0.269515
     9  N    0.256810
    12  C   -0.002524
    13  C   -0.039183
    14  C    0.012548
    15  C    0.017218
    16  C    0.007472
    17  C   -0.019637
    23  C    0.197382
    28  O   -0.373274
    29  C    0.229939
 Electronic spatial extent (au):  <R**2>=           3887.7869
 Charge=             -0.0000 electrons
 Dipole moment (field-independent basis, Debye):
    X=              5.2355    Y=              4.0273    Z=             -3.3729  Tot=              7.4167
 Quadrupole moment (field-independent basis, Debye-Ang):
   XX=            -92.5046   YY=            -85.3930   ZZ=            -82.7088
   XY=              0.2256   XZ=              2.1484   YZ=             -1.0304
 Traceless Quadrupole moment (field-independent basis, Debye-Ang):
   XX=             -5.6358   YY=              1.4758   ZZ=              4.1600
   XY=              0.2256   XZ=              2.1484   YZ=             -1.0304
 Octapole moment (field-independent basis, Debye-Ang**2):
  XXX=             15.3214  YYY=             30.7352  ZZZ=            -14.9342  XYY=             -3.6808
  XXY=            -24.9991  XXZ=              2.0874  XZZ=             -6.1976  YZZ=             11.7468
  YYZ=            -16.7751  XYZ=             10.1386
 Hexadecapole moment (field-independent basis, Debye-Ang**3):
 XXXX=          -3435.2468 YYYY=           -913.2723 ZZZZ=           -450.4575 XXXY=             50.2671
 XXXZ=             24.8041 YYYX=             -2.7431 YYYZ=            -21.7044 ZZZX=              7.9193
 ZZZY=            -13.7784 XXYY=           -775.7940 XXZZ=           -683.5482 YYZZ=           -219.4632
 XXYZ=             29.7170 YYXZ=             -8.2190 ZZXY=             -1.2319
 N-N= 1.010491968294D+03 E-N=-3.583115455825D+03  KE= 6.648223329503D+02
 Unable to Open any file for archive entry.
 1\1\GINC-NODE-008\FTS\RwB97XD\def2SVP\C12H17N1O2\JP2658\19-Dec-2023\0\
 \# wb97xd def2svp geom=allchk scrf=(iefpcm,solvent=toluene) opt=(readf
 c,ts,noeigen,maxcycles=50,maxstep=10)\\TS-92.out\\0,1\C,-0.8875656478,
 -0.7344664489,-0.068955653\C,-2.2757215124,-0.5387693058,-0.1013768501
 \O,-2.8867257519,0.5421998598,-0.0219120059\C,0.0198178174,0.378690625
 5,0.2684356292\C,-0.8925322372,2.7908464244,-0.619461594\H,-0.32749488
 9,3.3813056371,0.1093463508\H,-0.9947173732,3.3640940345,-1.5503610715
 \H,-1.8787599664,2.5166033336,-0.2302963973\N,-0.1743269686,1.53559555
 27,-0.9097803951\H,-0.6935523662,0.9968104275,-1.6103437975\H,0.747209
 048,1.7359683804,-1.3066703116\C,1.4864786479,-0.0217387183,0.11387835
 08\C,1.896123446,-0.6915904756,-1.0501239282\C,3.2287956213,-1.0429875
 797,-1.2470109224\C,4.184369371,-0.7367852389,-0.2777625799\C,3.791948
 7721,-0.075516484,0.8831135221\C,2.4568238179,0.2835504638,1.074570115
 4\H,1.1501698125,-0.9541125241,-1.8042771041\H,3.5211013305,-1.5669060
 594,-2.1597491257\H,5.2296764431,-1.0158483674,-0.4266104671\H,4.52918
 6862,0.1651968684,1.6522281811\H,2.1798228538,0.7982793823,1.994768909
 6\C,-0.2862885986,1.0731180859,1.5943135433\H,-1.3568503559,1.30225875
 08,1.64598008\H,-0.0567093402,0.3636691859,2.400203159\H,0.2960499324,
 1.9913454288,1.7679839759\H,-0.4794938435,-1.7333557996,-0.2097856644\
 O,-2.9890405716,-1.6964002183,-0.2843304423\C,-4.3804589841,-1.5537554
 14,-0.4175555091\H,-4.7862297787,-2.5642880173,-0.5595318135\H,-4.8357
 022391,-1.0991846741,0.4766550521\H,-4.6501133513,-0.9274071164,-1.283
 7012366\\Version=ES64L-G16RevC.01\State=1-A\HF=-671.9706479\RMSD=5.568
 e-09\RMSF=5.717e-06\Dipole=2.0232887,1.8928952,-0.9152125\Quadrupole=-
 4.274166,1.4577799,2.8163861,-0.3291192,1.400361,-1.0474624\PG=C01 [X(
 C12H17N1O2)]\\@
 The archive entry for this job was punched.


  THE LARGE PRINT GIVETH,
  AND THE SMALL PRINT TAKETH AWAY.

                     -- TOM WAITS
 Job cpu time:       0 days  4 hours 48 minutes 18.8 seconds.
 Elapsed time:       0 days  0 hours 24 minutes 34.4 seconds.
 File lengths (MBytes):  RWF=    143 Int=      0 D2E=      0 Chk=     16 Scr=      1
 Normal termination of Gaussian 16 at Tue Dec 19 23:19:14 2023.
