Unloading slurm/anatra/current
  ERROR: No such file or directory on
    '/cm/local/modulefiles/slurm/anatra/current'
environment: line 0: unalias: gv: not found
environment: line 0: unalias: sl: not found
 Entering Gaussian System, Link 0=g16
 Initial command:
 /apps/gaussian/g16/C.01/g16/l1.exe "/local/jobs/1150842/Gau-871228.inp" -scrdir="/local/jobs/1150842/"
 Entering Link 1 = /apps/gaussian/g16/C.01/g16/l1.exe PID=    871231.
  
 Copyright (c) 1988-2019, Gaussian, Inc.  All Rights Reserved.
  
 This is part of the Gaussian(R) 16 program.  It is based on
 the Gaussian(R) 09 system (copyright 2009, Gaussian, Inc.),
 the Gaussian(R) 03 system (copyright 2003, Gaussian, Inc.),
 the Gaussian(R) 98 system (copyright 1998, Gaussian, Inc.),
 the Gaussian(R) 94 system (copyright 1995, Gaussian, Inc.),
 the Gaussian 92(TM) system (copyright 1992, Gaussian, Inc.),
 the Gaussian 90(TM) system (copyright 1990, Gaussian, Inc.),
 the Gaussian 88(TM) system (copyright 1988, Gaussian, Inc.),
 the Gaussian 86(TM) system (copyright 1986, Carnegie Mellon
 University), and the Gaussian 82(TM) system (copyright 1983,
 Carnegie Mellon University). Gaussian is a federally registered
 trademark of Gaussian, Inc.
  
 This software contains proprietary and confidential information,
 including trade secrets, belonging to Gaussian, Inc.
  
 This software is provided under written license and may be
 used, copied, transmitted, or stored only in accord with that
 written license.
  
 The following legend is applicable only to US Government
 contracts under FAR:
  
                    RESTRICTED RIGHTS LEGEND
  
 Use, reproduction and disclosure by the US Government is
 subject to restrictions as set forth in subparagraphs (a)
 and (c) of the Commercial Computer Software - Restricted
 Rights clause in FAR 52.227-19.
  
 Gaussian, Inc.
 340 Quinnipiac St., Bldg. 40, Wallingford CT 06492
  
  
 ---------------------------------------------------------------
 Warning -- This program may not be used in any manner that
 competes with the business of Gaussian, Inc. or will provide
 assistance to any competitor of Gaussian, Inc.  The licensee
 of this program is prohibited from giving any competitor of
 Gaussian, Inc. access to this program.  By using this program,
 the user acknowledges that Gaussian, Inc. is engaged in the
 business of creating and licensing software in the field of
 computational chemistry and represents and warrants to the
 licensee that it is not a competitor of Gaussian, Inc. and that
 it will not use this program in any manner prohibited above.
 ---------------------------------------------------------------
  

 Cite this work as:
 Gaussian 16, Revision C.01,
 M. J. Frisch, G. W. Trucks, H. B. Schlegel, G. E. Scuseria, 
 M. A. Robb, J. R. Cheeseman, G. Scalmani, V. Barone, 
 G. A. Petersson, H. Nakatsuji, X. Li, M. Caricato, A. V. Marenich, 
 J. Bloino, B. G. Janesko, R. Gomperts, B. Mennucci, H. P. Hratchian, 
 J. V. Ortiz, A. F. Izmaylov, J. L. Sonnenberg, D. Williams-Young, 
 F. Ding, F. Lipparini, F. Egidi, J. Goings, B. Peng, A. Petrone, 
 T. Henderson, D. Ranasinghe, V. G. Zakrzewski, J. Gao, N. Rega, 
 G. Zheng, W. Liang, M. Hada, M. Ehara, K. Toyota, R. Fukuda, 
 J. Hasegawa, M. Ishida, T. Nakajima, Y. Honda, O. Kitao, H. Nakai, 
 T. Vreven, K. Throssell, J. A. Montgomery, Jr., J. E. Peralta, 
 F. Ogliaro, M. J. Bearpark, J. J. Heyd, E. N. Brothers, K. N. Kudin, 
 V. N. Staroverov, T. A. Keith, R. Kobayashi, J. Normand, 
 K. Raghavachari, A. P. Rendell, J. C. Burant, S. S. Iyengar, 
 J. Tomasi, M. Cossi, J. M. Millam, M. Klene, C. Adamo, R. Cammi, 
 J. W. Ochterski, R. L. Martin, K. Morokuma, O. Farkas, 
 J. B. Foresman, and D. J. Fox, Gaussian, Inc., Wallingford CT, 2019.
 
 ******************************************
 Gaussian 16:  ES64L-G16RevC.01  3-Jul-2019
                19-Dec-2023 
 ******************************************
 %chk=TS-92_opt_sqm.chk
 %nprocshared=12
 Will use up to   12 processors via shared memory.
 %mem=48GB
 ----------------------------------------------------------------------
 # wb97xd chkbasis guess=read geom=allchk scrf=(iefpcm,solvent=toluene)
  opt=(readfc,ts,noeigen,maxcycles=50,maxstep=10)
 ----------------------------------------------------------------------
 1/5=1,6=50,8=10,10=3,11=1,18=20,26=3,29=7,38=1/1,3;
 2/9=110,12=2,40=1/2;
 3/5=7,6=2,11=2,14=-4,25=1,30=1,67=1,70=2201,71=1,72=13,74=-58,116=-2/1,2,3;
 4/5=1/1;
 5/5=2,38=6,53=13/2;
 6/7=2,8=2,9=2,10=2,28=1/1;
 7//1,2,3,16;
 1/5=1,6=50,8=10,11=1,18=20,26=3/3(2);
 2/9=110/2;
 99//99;
 2/9=110/2;
 3/5=7,6=1,11=2,14=-2,25=1,30=1,70=2205,71=1,72=13,74=-58,82=7/1,2,3;
 4/5=5,16=3,69=1/1;
 5/5=2,38=5,53=13/2;
 7//1,2,3,16;
 1/5=1,6=50,8=10,11=1,18=20,26=3/3(-5);
 2/9=110/2;
 6/7=2,8=2,9=2,10=2,19=2,28=1/1;
 99/9=1/99;
 Structure from the checkpoint file:  "TS-92_opt_sqm.chk"
 ---------
 TS-92.out
 ---------
 Charge =  0 Multiplicity = 1
 Redundant internal coordinates found in file.  (old form).
 C,0,-0.9111755357,-0.6998412541,0.1761670245
 C,0,-2.2921910746,-0.458469243,0.1515865871
 O,0,-2.8645378199,0.640898598,0.042796562
 C,0,0.0508042732,0.4150463191,0.2644687164
 C,0,-0.8146755368,2.6312756054,-1.0561041652
 H,0,-0.2224914839,3.3355944294,-0.461888852
 H,0,-0.9237253756,3.018986323,-2.0775315474
 H,0,-1.7973993415,2.4617531176,-0.6039337009
 N,0,-0.126558412,1.3277859615,-1.1124092762
 H,0,-0.6637927051,0.681543853,-1.6984971401
 H,0,0.7968550799,1.4304819811,-1.5422958601
 C,0,1.4944243182,-0.0750904682,0.1585099274
 C,0,1.8426524033,-0.9785965914,-0.8573512904
 C,0,3.1554008405,-1.4177639807,-1.011265091
 C,0,4.1505469105,-0.9679616986,-0.1438427562
 C,0,3.8184589391,-0.075084591,0.8723627937
 C,0,2.5047686104,0.3717182287,1.0181368699
 H,0,1.0651764696,-1.355367973,-1.5260279047
 H,0,3.3995699638,-2.122254833,-1.8093723563
 H,0,5.1798941959,-1.3145509618,-0.2577042216
 H,0,4.5873435409,0.2792780773,1.5624178573
 H,0,2.2749304639,1.0695058351,1.8239444848
 C,0,-0.1845815039,1.3704595357,1.4334858891
 H,0,-1.2439824892,1.6486201012,1.4685724397
 H,0,0.0476957208,0.8269432169,2.3584861058
 H,0,0.435604993,2.2803618074,1.4025257178
 H,0,-0.5454686802,-1.724111183,0.2215280335
 O,0,-3.0488088379,-1.6012581762,0.2164063839
 C,0,-4.4392271538,-1.4348242244,0.1008566868
 H,0,-4.8819668504,-2.4375908618,0.1621116528
 H,0,-4.8465727279,-0.8051613963,0.9078647056
 H,0,-4.7202215691,-0.9708624637,-0.8590252013
 Recover connectivity data from disk.

 GradGradGradGradGradGradGradGradGradGradGradGradGradGradGradGradGradGrad
 Berny optimization.
 Initialization pass.
 Force constant matrix read from checkpoint file:
 "TS-92_opt_sqm.chk"
                           ----------------------------
                           !    Initial Parameters    !
                           ! (Angstroms and Degrees)  !
 --------------------------                            --------------------------
 ! Name  Definition              Value          Derivative Info.                !
 --------------------------------------------------------------------------------
 ! R1    R(1,2)                  1.4022         D2E/DX2 =    0.3877             !
 ! R2    R(1,4)                  1.4752         D2E/DX2 =    0.651              !
 ! R3    R(1,27)                 1.0885         D2E/DX2 =    0.287              !
 ! R4    R(2,3)                  1.2442         D2E/DX2 =    0.8175             !
 ! R5    R(2,28)                 1.3721         D2E/DX2 =    0.4559             !
 ! R6    R(4,9)                  1.6614         D2E/DX2 =    0.0854             !
 ! R7    R(4,12)                 1.5282         D2E/DX2 =    0.3296             !
 ! R8    R(4,23)                 1.528          D2E/DX2 =    0.3265             !
 ! R9    R(5,6)                  1.0954         D2E/DX2 =    0.2734             !
 ! R10   R(5,7)                  1.098          D2E/DX2 =    0.2684             !
 ! R11   R(5,8)                  1.095          D2E/DX2 =    0.2761             !
 ! R12   R(5,9)                  1.475          D2E/DX2 =    0.4883             !
 ! R13   R(9,10)                 1.0246         D2E/DX2 =    0.3102             !
 ! R14   R(9,11)                 1.0237         D2E/DX2 =    0.2939             !
 ! R15   R(12,13)                1.4034         D2E/DX2 =    0.4391             !
 ! R16   R(12,17)                1.3998         D2E/DX2 =    0.449              !
 ! R17   R(13,14)                1.3928         D2E/DX2 =    0.462              !
 ! R18   R(13,18)                1.0925         D2E/DX2 =    0.2734             !
 ! R19   R(14,15)                1.3947         D2E/DX2 =    0.4845             !
 ! R20   R(14,19)                1.0922         D2E/DX2 =    0.2739             !
 ! R21   R(15,16)                1.3929         D2E/DX2 =    0.4826             !
 ! R22   R(15,20)                1.0921         D2E/DX2 =    0.2743             !
 ! R23   R(16,17)                1.3952         D2E/DX2 =    0.4598             !
 ! R24   R(16,21)                1.0922         D2E/DX2 =    0.2737             !
 ! R25   R(17,22)                1.0904         D2E/DX2 =    0.2739             !
 ! R26   R(23,24)                1.0959         D2E/DX2 =    0.2734             !
 ! R27   R(23,25)                1.0977         D2E/DX2 =    0.267              !
 ! R28   R(23,26)                1.1016         D2E/DX2 =    0.2669             !
 ! R29   R(28,29)                1.4051         D2E/DX2 =    0.4198             !
 ! R30   R(29,30)                1.0979         D2E/DX2 =    0.2664             !
 ! R31   R(29,31)                1.1017         D2E/DX2 =    0.2634             !
 ! R32   R(29,32)                1.1025         D2E/DX2 =    0.2637             !
 ! A1    A(2,1,4)              120.8787         D2E/DX2 =    0.1811             !
 ! A2    A(2,1,27)             119.5775         D2E/DX2 =    0.1068             !
 ! A3    A(4,1,27)             119.3116         D2E/DX2 =    0.1116             !
 ! A4    A(1,2,3)              127.3521         D2E/DX2 =    0.1551             !
 ! A5    A(1,2,28)             113.5103         D2E/DX2 =    0.1587             !
 ! A6    A(3,2,28)             119.1039         D2E/DX2 =    0.1938             !
 ! A7    A(1,4,9)              107.2158         D2E/DX2 =    0.0414             !
 ! A8    A(1,4,12)             111.6825         D2E/DX2 =    0.0408             !
 ! A9    A(1,4,23)             114.7015         D2E/DX2 =    0.0477             !
 ! A10   A(9,4,12)             102.6842         D2E/DX2 =    0.0398             !
 ! A11   A(9,4,23)             105.9072         D2E/DX2 =    0.0486             !
 ! A12   A(12,4,23)            113.5218         D2E/DX2 =    0.0429             !
 ! A13   A(6,5,7)              109.348          D2E/DX2 =    0.0441             !
 ! A14   A(6,5,8)              111.1455         D2E/DX2 =    0.046              !
 ! A15   A(6,5,9)              109.6768         D2E/DX2 =    0.1086             !
 ! A16   A(7,5,8)              110.4689         D2E/DX2 =    0.0454             !
 ! A17   A(7,5,9)              108.8366         D2E/DX2 =    0.1135             !
 ! A18   A(8,5,9)              107.3157         D2E/DX2 =    0.1095             !
 ! A19   A(4,9,5)              120.2413         D2E/DX2 =    0.1552             !
 ! A20   A(4,9,10)             100.5751         D2E/DX2 =    0.0553             !
 ! A21   A(4,9,11)             107.8676         D2E/DX2 =    0.0625             !
 ! A22   A(5,9,10)             109.5487         D2E/DX2 =    0.0674             !
 ! A23   A(5,9,11)             110.3754         D2E/DX2 =    0.0692             !
 ! A24   A(10,9,11)            107.2193         D2E/DX2 =    0.0152             !
 ! A25   A(4,12,13)            119.4101         D2E/DX2 =    0.1292             !
 ! A26   A(4,12,17)            122.4708         D2E/DX2 =    0.1349             !
 ! A27   A(13,12,17)           118.0946         D2E/DX2 =    0.0812             !
 ! A28   A(12,13,14)           121.1218         D2E/DX2 =    0.0781             !
 ! A29   A(12,13,18)           119.2411         D2E/DX2 =    0.0777             !
 ! A30   A(14,13,18)           119.6283         D2E/DX2 =    0.0794             !
 ! A31   A(13,14,15)           120.1397         D2E/DX2 =    0.0762             !
 ! A32   A(13,14,19)           119.6596         D2E/DX2 =    0.0763             !
 ! A33   A(15,14,19)           120.1988         D2E/DX2 =    0.0764             !
 ! A34   A(14,15,16)           119.3655         D2E/DX2 =    0.0758             !
 ! A35   A(14,15,20)           120.3546         D2E/DX2 =    0.0762             !
 ! A36   A(16,15,20)           120.2795         D2E/DX2 =    0.0762             !
 ! A37   A(15,16,17)           120.3966         D2E/DX2 =    0.0762             !
 ! A38   A(15,16,21)           120.0708         D2E/DX2 =    0.0765             !
 ! A39   A(17,16,21)           119.5326         D2E/DX2 =    0.0765             !
 ! A40   A(12,17,16)           120.8787         D2E/DX2 =    0.0775             !
 ! A41   A(12,17,22)           120.3938         D2E/DX2 =    0.0793             !
 ! A42   A(16,17,22)           118.7239         D2E/DX2 =    0.0814             !
 ! A43   A(4,23,24)            109.3977         D2E/DX2 =    0.0948             !
 ! A44   A(4,23,25)            107.6075         D2E/DX2 =    0.0841             !
 ! A45   A(4,23,26)            114.0938         D2E/DX2 =    0.094              !
 ! A46   A(24,23,25)           107.6533         D2E/DX2 =    0.0427             !
 ! A47   A(24,23,26)           109.6027         D2E/DX2 =    0.0426             !
 ! A48   A(25,23,26)           108.2719         D2E/DX2 =    0.0403             !
 ! A49   A(2,28,29)            116.3038         D2E/DX2 =    0.2996             !
 ! A50   A(28,29,30)           106.6354         D2E/DX2 =    0.1104             !
 ! A51   A(28,29,31)           111.9224         D2E/DX2 =    0.1181             !
 ! A52   A(28,29,32)           111.9402         D2E/DX2 =    0.1196             !
 ! A53   A(30,29,31)           109.394          D2E/DX2 =    0.053              !
 ! A54   A(30,29,32)           109.2783         D2E/DX2 =    0.0531             !
 ! A55   A(31,29,32)           107.6378         D2E/DX2 =    0.0536             !
 ! D1    D(4,1,2,3)              8.9431         D2E/DX2 =    0.0155             !
 ! D2    D(4,1,2,28)          -173.2109         D2E/DX2 =    0.0165             !
 ! D3    D(27,1,2,3)          -176.6309         D2E/DX2 =    0.0177             !
 ! D4    D(27,1,2,28)            1.2151         D2E/DX2 =    0.0164             !
 ! D5    D(2,1,4,9)            -63.473          D2E/DX2 =    0.0212             !
 ! D6    D(2,1,4,12)          -175.2242         D2E/DX2 =    0.0134             !
 ! D7    D(2,1,4,23)            53.8084         D2E/DX2 =    0.0156             !
 ! D8    D(27,1,4,9)           122.0864         D2E/DX2 =    0.016              !
 ! D9    D(27,1,4,12)           10.3352         D2E/DX2 =    0.01               !
 ! D10   D(27,1,4,23)         -120.6322         D2E/DX2 =    0.0136             !
 ! D11   D(1,2,28,29)         -175.66           D2E/DX2 =    0.0196             !
 ! D12   D(3,2,28,29)            2.3805         D2E/DX2 =    0.0152             !
 ! D13   D(1,4,9,5)            105.2367         D2E/DX2 =    0.0199             !
 ! D14   D(1,4,9,10)           -14.9519         D2E/DX2 =    0.0194             !
 ! D15   D(1,4,9,11)          -127.0746         D2E/DX2 =    0.0204             !
 ! D16   D(12,4,9,5)          -136.9749         D2E/DX2 =    0.0158             !
 ! D17   D(12,4,9,10)          102.8365         D2E/DX2 =    0.018              !
 ! D18   D(12,4,9,11)           -9.2862         D2E/DX2 =    0.0178             !
 ! D19   D(23,4,9,5)           -17.6662         D2E/DX2 =    0.0174             !
 ! D20   D(23,4,9,10)         -137.8549         D2E/DX2 =    0.0189             !
 ! D21   D(23,4,9,11)          110.0225         D2E/DX2 =    0.0174             !
 ! D22   D(1,4,12,13)           47.2482         D2E/DX2 =    0.0128             !
 ! D23   D(1,4,12,17)         -134.5854         D2E/DX2 =    0.0111             !
 ! D24   D(9,4,12,13)          -67.3317         D2E/DX2 =    0.0174             !
 ! D25   D(9,4,12,17)          110.8347         D2E/DX2 =    0.0162             !
 ! D26   D(23,4,12,13)         178.8172         D2E/DX2 =    0.0128             !
 ! D27   D(23,4,12,17)          -3.0163         D2E/DX2 =    0.0115             !
 ! D28   D(1,4,23,24)          -47.8151         D2E/DX2 =    0.0158             !
 ! D29   D(1,4,23,25)           68.868          D2E/DX2 =    0.014              !
 ! D30   D(1,4,23,26)         -170.9829         D2E/DX2 =    0.0157             !
 ! D31   D(9,4,23,24)           70.2091         D2E/DX2 =    0.0189             !
 ! D32   D(9,4,23,25)         -173.1078         D2E/DX2 =    0.0183             !
 ! D33   D(9,4,23,26)          -52.9588         D2E/DX2 =    0.0182             !
 ! D34   D(12,4,23,24)        -177.8865         D2E/DX2 =    0.0139             !
 ! D35   D(12,4,23,25)         -61.2034         D2E/DX2 =    0.0143             !
 ! D36   D(12,4,23,26)          58.9457         D2E/DX2 =    0.0134             !
 ! D37   D(6,5,9,4)             66.5572         D2E/DX2 =    0.0099             !
 ! D38   D(6,5,9,10)          -177.8209         D2E/DX2 =    0.0132             !
 ! D39   D(6,5,9,11)           -59.9823         D2E/DX2 =    0.0121             !
 ! D40   D(7,5,9,4)           -173.8553         D2E/DX2 =    0.0099             !
 ! D41   D(7,5,9,10)           -58.2334         D2E/DX2 =    0.0127             !
 ! D42   D(7,5,9,11)            59.6052         D2E/DX2 =    0.0123             !
 ! D43   D(8,5,9,4)            -54.292          D2E/DX2 =    0.0118             !
 ! D44   D(8,5,9,10)            61.3299         D2E/DX2 =    0.0139             !
 ! D45   D(8,5,9,11)           179.1685         D2E/DX2 =    0.0139             !
 ! D46   D(4,12,13,14)         178.081          D2E/DX2 =    0.0064             !
 ! D47   D(4,12,13,18)          -3.0023         D2E/DX2 =    0.0068             !
 ! D48   D(17,12,13,14)         -0.1655         D2E/DX2 =    0.0065             !
 ! D49   D(17,12,13,18)        178.7512         D2E/DX2 =    0.0072             !
 ! D50   D(4,12,17,16)        -178.5358         D2E/DX2 =    0.0067             !
 ! D51   D(4,12,17,22)           2.1649         D2E/DX2 =    0.007              !
 ! D52   D(13,12,17,16)         -0.3464         D2E/DX2 =    0.0066             !
 ! D53   D(13,12,17,22)       -179.6457         D2E/DX2 =    0.0069             !
 ! D54   D(12,13,14,15)          0.4218         D2E/DX2 =    0.0083             !
 ! D55   D(12,13,14,19)        179.921          D2E/DX2 =    0.0081             !
 ! D56   D(18,13,14,15)       -178.4908         D2E/DX2 =    0.0082             !
 ! D57   D(18,13,14,19)          1.0084         D2E/DX2 =    0.009              !
 ! D58   D(13,14,15,16)         -0.1631         D2E/DX2 =    0.0085             !
 ! D59   D(13,14,15,20)        179.6419         D2E/DX2 =    0.0081             !
 ! D60   D(19,14,15,16)       -179.6595         D2E/DX2 =    0.0079             !
 ! D61   D(19,14,15,20)          0.1455         D2E/DX2 =    0.0089             !
 ! D62   D(14,15,16,17)         -0.3449         D2E/DX2 =    0.0085             !
 ! D63   D(14,15,16,21)        179.5799         D2E/DX2 =    0.0079             !
 ! D64   D(20,15,16,17)        179.85           D2E/DX2 =    0.0081             !
 ! D65   D(20,15,16,21)         -0.2252         D2E/DX2 =    0.0089             !
 ! D66   D(15,16,17,12)          0.6067         D2E/DX2 =    0.0084             !
 ! D67   D(15,16,17,22)        179.9175         D2E/DX2 =    0.0079             !
 ! D68   D(21,16,17,12)       -179.3185         D2E/DX2 =    0.0081             !
 ! D69   D(21,16,17,22)         -0.0078         D2E/DX2 =    0.0088             !
 ! D70   D(2,28,29,30)         179.3913         D2E/DX2 =    0.0206             !
 ! D71   D(2,28,29,31)         -61.0162         D2E/DX2 =    0.0214             !
 ! D72   D(2,28,29,32)          59.9298         D2E/DX2 =    0.0205             !
 --------------------------------------------------------------------------------
 Trust Radius=1.00D-01 FncErr=1.00D-07 GrdErr=1.00D-06 EigMax=2.50D+02 EigMin=1.00D-04
 Number of steps in this run=     50 maximum allowed number of steps=    192.
 Search for a saddle point of order  1.
 GradGradGradGradGradGradGradGradGradGradGradGradGradGradGradGradGradGrad

                          Input orientation:                          
 ---------------------------------------------------------------------
 Center     Atomic      Atomic             Coordinates (Angstroms)
 Number     Number       Type             X           Y           Z
 ---------------------------------------------------------------------
      1          6           0       -0.911176   -0.699841    0.176167
      2          6           0       -2.292191   -0.458469    0.151587
      3          8           0       -2.864538    0.640899    0.042797
      4          6           0        0.050804    0.415046    0.264469
      5          6           0       -0.814676    2.631276   -1.056104
      6          1           0       -0.222491    3.335594   -0.461889
      7          1           0       -0.923725    3.018986   -2.077532
      8          1           0       -1.797399    2.461753   -0.603934
      9          7           0       -0.126558    1.327786   -1.112409
     10          1           0       -0.663793    0.681544   -1.698497
     11          1           0        0.796855    1.430482   -1.542296
     12          6           0        1.494424   -0.075090    0.158510
     13          6           0        1.842652   -0.978597   -0.857351
     14          6           0        3.155401   -1.417764   -1.011265
     15          6           0        4.150547   -0.967962   -0.143843
     16          6           0        3.818459   -0.075085    0.872363
     17          6           0        2.504769    0.371718    1.018137
     18          1           0        1.065176   -1.355368   -1.526028
     19          1           0        3.399570   -2.122255   -1.809372
     20          1           0        5.179894   -1.314551   -0.257704
     21          1           0        4.587344    0.279278    1.562418
     22          1           0        2.274930    1.069506    1.823944
     23          6           0       -0.184582    1.370460    1.433486
     24          1           0       -1.243982    1.648620    1.468572
     25          1           0        0.047696    0.826943    2.358486
     26          1           0        0.435605    2.280362    1.402526
     27          1           0       -0.545469   -1.724111    0.221528
     28          8           0       -3.048809   -1.601258    0.216406
     29          6           0       -4.439227   -1.434824    0.100857
     30          1           0       -4.881967   -2.437591    0.162112
     31          1           0       -4.846573   -0.805161    0.907865
     32          1           0       -4.720222   -0.970862   -0.859025
 ---------------------------------------------------------------------
                    Distance matrix (angstroms):
                    1          2          3          4          5
     1  C    0.000000
     2  C    1.402166   0.000000
     3  O    2.372972   1.244197   0.000000
     4  C    1.475187   2.503078   2.932468   0.000000
     5  C    3.553047   3.631541   3.061228   2.721147   0.000000
     6  H    4.143204   4.365195   3.807427   3.021901   1.095372
     7  H    4.348447   4.351363   3.730663   3.635268   1.097964
     8  H    3.374852   3.056686   2.207387   2.891191   1.094962
     9  N    2.527316   3.078694   3.050057   1.661428   1.475046
    10  H    2.341749   2.715533   2.806606   2.105921   2.058370
    11  H    3.226261   3.997447   4.067156   2.202748   2.067684
    12  C    2.485465   3.805980   4.418889   1.528234   3.759208
    13  C    2.954561   4.287822   5.058722   2.532082   4.486878
    14  C    4.296795   5.652321   6.448938   3.824292   5.670823
    15  C    5.078910   6.469601   7.199631   4.345954   6.200013
    16  C    4.821250   6.164945   6.772242   3.847725   5.701693
    17  C    3.677748   4.944789   5.463808   2.567457   4.519600
    18  H    2.689452   3.858851   4.678562   2.714626   4.432606
    19  H    4.954609   6.245773   7.092573   4.685397   6.397134
    20  H    6.137364   7.532095   8.284140   5.437990   7.220932
    21  H    5.754483   7.061353   7.613840   4.720518   6.447508
    22  H    3.999629   5.098047   5.456219   2.794104   4.503273
    23  C    2.528821   3.070874   3.106194   1.528012   2.860897
    24  H    2.701174   2.696853   2.382129   2.155932   2.742974
    25  H    2.830728   3.463778   3.725337   2.134146   3.957111
    26  H    3.492762   4.062870   3.927804   2.218704   2.780504
    27  H    1.088544   2.158189   3.317122   2.221121   4.546890
    28  O    2.320269   1.372093   2.256405   3.698026   4.952270
    29  C    3.604583   2.359154   2.606078   4.858927   5.568582
    30  H    4.334415   3.259443   3.682574   5.699144   6.612134
    31  H    4.004226   2.686451   2.601518   5.087943   5.649997
    32  H    3.956502   2.679406   2.618133   5.093689   5.316722
                    6          7          8          9         10
     6  H    0.000000
     7  H    1.789489   0.000000
     8  H    1.806685   1.801473   0.000000
     9  N    2.112741   2.104066   2.082340   0.000000
    10  H    2.961069   2.382198   2.377452   1.024572   0.000000
    11  H    2.415740   2.402128   2.945199   1.023739   1.648878
    12  C    3.868522   4.518920   4.225281   2.492164   2.945992
    13  C    4.799318   5.012221   5.014998   3.043394   3.121836
    14  C    5.857165   6.120535   6.304506   4.280132   4.411986
    15  C    6.143713   6.736701   6.881329   4.949971   5.321248
    16  C    5.453645   6.384627   6.336629   4.633630   5.222297
    17  C    4.291036   5.324074   5.050545   3.518121   4.185197
    18  H    4.979519   4.836824   4.859528   2.964899   2.677329
    19  H    6.687538   6.722734   7.033826   4.982180   4.938066
    20  H    7.131011   7.703602   7.941220   5.989232   6.341053
    21  H    6.047595   7.150323   7.086693   5.520411   6.194337
    22  H    4.073979   5.408640   4.941337   3.802109   4.603716
    23  C    2.730501   3.948572   2.818365   2.546914   3.242463
    24  H    2.759711   3.815144   2.294066   2.830731   3.361872
    25  H    3.784289   5.042516   3.853947   3.511171   4.121465
    26  H    2.241127   3.808431   3.007506   2.747422   3.658037
    27  H    5.115857   5.284480   4.446367   3.356926   3.080207
    28  O    5.728933   5.578960   4.329786   4.345641   3.816588
    29  C    6.391748   6.077874   4.760178   5.263377   4.687280
    30  H    7.445116   7.103373   5.839945   6.198095   5.566315
    31  H    6.356431   6.239025   4.717597   5.559632   5.147724
    32  H    6.239621   5.640659   4.515619   5.142930   4.459795
                   11         12         13         14         15
    11  H    0.000000
    12  C    2.376151   0.000000
    13  C    2.714130   1.403410   0.000000
    14  C    3.735939   2.435157   1.392791   0.000000
    15  C    4.353786   2.818443   2.415695   1.394654   0.000000
    16  C    4.150590   2.431198   2.777059   2.406343   1.392905
    17  C    3.254806   1.399783   2.403997   2.782812   2.419406
    18  H    2.798789   2.158942   1.092499   2.153581   3.402944
    19  H    4.412187   3.419506   2.153669   1.092200   2.161099
    20  H    5.328829   3.910522   3.407290   2.162656   1.092083
    21  H    5.033122   3.415067   3.869220   3.399155   2.158176
    22  H    3.694128   2.166325   3.401608   3.873003   3.397263
    23  C    3.134023   2.556216   3.856900   4.990639   5.171994
    24  H    3.643889   3.490890   4.673275   5.908204   6.208650
    25  H    4.017661   2.783269   4.101640   5.104093   5.129983
    26  H    3.086223   2.866501   4.208044   5.186503   5.171427
    27  H    3.855433   2.623815   2.724499   3.912808   4.770516
    28  O    5.203231   4.793069   5.046489   6.327169   7.236129
    29  C    6.190839   6.087727   6.370896   7.675642   8.605931
    30  H    7.079266   6.799984   6.956182   8.186339   9.156403
    31  H    6.545966   6.426724   6.920390   8.251662   9.059843
    32  H    6.055696   6.360787   6.562879   7.889761   8.899552
                   16         17         18         19         20
    16  C    0.000000
    17  C    1.395229   0.000000
    18  H    3.869363   3.395295   0.000000
    19  H    3.399717   3.874968   2.473417   0.000000
    20  H    2.160286   3.409922   4.305951   2.495919   0.000000
    21  H    1.092214   2.154508   4.961474   4.306639   2.490834
    22  H    2.144312   1.090440   4.308809   4.965193   4.296022
    23  C    4.292877   2.898724   4.213164   5.963332   6.232737
    24  H    5.380979   3.985788   4.829471   6.821070   7.281937
    25  H    4.152213   2.835661   4.570251   6.107690   6.145723
    26  H    4.156068   2.841146   4.710766   6.203580   6.179647
    27  H    4.710280   3.785635   2.405016   4.454930   5.759964
    28  O    7.065327   5.947910   4.474530   6.779145   8.247335
    29  C    8.404373   7.233538   5.740342   8.097424   9.626553
    30  H    9.043412   7.949142   6.276108   8.518805  10.133041
    31  H    8.695806   7.445766   6.416801   8.781628  10.106833
    32  H    8.758378   7.584639   5.836400   8.255900   9.924314
                   21         22         23         24         25
    21  H    0.000000
    22  H    2.457664   0.000000
    23  C    4.896792   2.508432   0.000000
    24  H    5.990682   3.583910   1.095872   0.000000
    25  H    4.641343   2.303290   1.097719   1.770743   0.000000
    26  H    4.611598   2.242071   1.101595   1.795682   1.782347
    27  H    5.670742   4.280968   3.342970   3.663108   3.380283
    28  O    7.978658   6.169227   4.303044   3.922630   4.480291
    29  C    9.303402   7.370252   5.267592   4.646274   5.508626
    30  H    9.950381   8.141412   6.179245   5.624846   6.307362
    31  H    9.518573   7.420875   5.171438   4.394780   5.359285
    32  H    9.698299   7.764894   5.595483   4.935954   6.026402
                   26         27         28         29         30
    26  H    0.000000
    27  H    4.288714   0.000000
    28  O    5.349298   2.506358   0.000000
    29  C    6.265855   3.906354   1.405103   0.000000
    30  H    7.216251   4.395202   2.015656   1.097867   0.000000
    31  H    6.137308   4.451407   2.084188   1.101666   1.795056
    32  H    6.501355   4.377618   2.085083   1.102539   1.794484
                   31         32
    31  H    0.000000
    32  H    1.779135   0.000000
 Stoichiometry    C12H17NO2
 Framework group  C1[X(C12H17NO2)]
 Deg. of freedom    90
 Full point group                 C1      NOp   1
 Largest Abelian subgroup         C1      NOp   1
 Largest concise Abelian subgroup C1      NOp   1
                         Standard orientation:                         
 ---------------------------------------------------------------------
 Center     Atomic      Atomic             Coordinates (Angstroms)
 Number     Number       Type             X           Y           Z
 ---------------------------------------------------------------------
      1          6           0       -0.911176   -0.699841    0.176167
      2          6           0       -2.292191   -0.458469    0.151587
      3          8           0       -2.864538    0.640899    0.042797
      4          6           0        0.050804    0.415046    0.264469
      5          6           0       -0.814676    2.631276   -1.056104
      6          1           0       -0.222491    3.335594   -0.461889
      7          1           0       -0.923725    3.018986   -2.077532
      8          1           0       -1.797399    2.461753   -0.603934
      9          7           0       -0.126558    1.327786   -1.112409
     10          1           0       -0.663793    0.681544   -1.698497
     11          1           0        0.796855    1.430482   -1.542296
     12          6           0        1.494424   -0.075090    0.158510
     13          6           0        1.842652   -0.978597   -0.857351
     14          6           0        3.155401   -1.417764   -1.011265
     15          6           0        4.150547   -0.967962   -0.143843
     16          6           0        3.818459   -0.075085    0.872363
     17          6           0        2.504769    0.371718    1.018137
     18          1           0        1.065176   -1.355368   -1.526028
     19          1           0        3.399570   -2.122255   -1.809372
     20          1           0        5.179894   -1.314551   -0.257704
     21          1           0        4.587344    0.279278    1.562418
     22          1           0        2.274930    1.069506    1.823944
     23          6           0       -0.184582    1.370460    1.433486
     24          1           0       -1.243982    1.648620    1.468572
     25          1           0        0.047696    0.826943    2.358486
     26          1           0        0.435605    2.280362    1.402526
     27          1           0       -0.545469   -1.724111    0.221528
     28          8           0       -3.048809   -1.601258    0.216406
     29          6           0       -4.439227   -1.434824    0.100857
     30          1           0       -4.881967   -2.437591    0.162112
     31          1           0       -4.846573   -0.805161    0.907865
     32          1           0       -4.720222   -0.970862   -0.859025
 ---------------------------------------------------------------------
 Rotational constants (GHZ):           1.1148477           0.3325220           0.2964165
 Basis read from chk: "TS-92_opt_sqm.chk" (5D, 7F)
 Pseudo-potential data read from chk file.
 There are   310 symmetry adapted cartesian basis functions of A   symmetry.
 There are   295 symmetry adapted basis functions of A   symmetry.
   295 basis functions,   494 primitive gaussians,   310 cartesian basis functions
    56 alpha electrons       56 beta electrons
       nuclear repulsion energy      1010.3305297990 Hartrees.
 NAtoms=   32 NActive=   32 NUniq=   32 SFac= 1.00D+00 NAtFMM=   60 NAOKFM=F Big=F
 Integral buffers will be    131072 words long.
 Raffenetti 2 integral format.
 Two-electron integral symmetry is turned on.
 Nuclear repulsion after empirical dispersion term =     1010.3067273766 Hartrees.
 ------------------------------------------------------------------------------
 Polarizable Continuum Model (PCM)
 =================================
 Model                : PCM.
 Atomic radii         : UFF (Universal Force Field).
 Polarization charges : Total charges.
 Charge compensation  : None.
 Solution method      : On-the-fly selection.
 Cavity type          : Scaled VdW (van der Waals Surface) (Alpha=1.100).
 Cavity algorithm     : GePol (No added spheres)
                        Default sphere list used, NSphG=   32.
                        Lebedev-Laikov grids with approx.  5.0 points / Ang**2.
                        Smoothing algorithm: York/Karplus (Gamma=1.0000).
                        Polarization charges: spherical gaussians, with
                                              point-specific exponents (IZeta= 3).
                        Self-potential: point-specific (ISelfS= 7).
                        Self-field    : sphere-specific E.n sum rule (ISelfD= 2).
 1st derivatives      : Analytical E(r).r(x)/FMM algorithm (CHGder, D1EAlg=3).
                        Cavity 1st derivative terms included.
 Solvent              : Toluene, Eps=   2.374100 Eps(inf)=   2.238315
 ------------------------------------------------------------------------------
 One-electron integrals computed using PRISM.
   1 Symmetry operations used in ECPInt.
 ECPInt:  NShTT=   10011 NPrTT=   35491 LenC2=    9435 LenP2D=   24606.
 LDataN:  DoStor=T MaxTD1= 4 Len=   56
 NBasis=   295 RedAO= T EigKep=  2.79D-04  NBF=   295
 NBsUse=   295 1.00D-06 EigRej= -1.00D+00 NBFU=   295
 Initial guess from the checkpoint file:  "TS-92_opt_sqm.chk"
 B after Tr=     0.000000    0.000000    0.000000
         Rot=    1.000000    0.000000    0.000000    0.000000 Ang=   0.00 deg.
 Requested convergence on RMS density matrix=1.00D-08 within 128 cycles.
 Requested convergence on MAX density matrix=1.00D-06.
 Requested convergence on             energy=1.00D-06.
 No special actions if energy rises.
 Inv3:  Mode=1 IEnd=    14665563.
 Iteration    1 A*A^-1 deviation from unit magnitude is 4.00D-15 for    915.
 Iteration    1 A*A^-1 deviation from orthogonality  is 1.91D-15 for   1337    420.
 Iteration    1 A^-1*A deviation from unit magnitude is 3.77D-15 for    915.
 Iteration    1 A^-1*A deviation from orthogonality  is 4.20D-15 for   1601   1567.
 Error on total polarization charges =  0.00650
 SCF Done:  E(RwB97XD) =  -671.970637430     A.U. after    4 cycles
            NFock=  4  Conv=0.73D-08     -V/T= 2.0108

 **********************************************************************

            Population analysis using the SCF Density.

 **********************************************************************

 Orbital symmetries:
       Occupied  (A) (A) (A) (A) (A) (A) (A) (A) (A) (A) (A) (A)
                 (A) (A) (A) (A) (A) (A) (A) (A) (A) (A) (A) (A)
                 (A) (A) (A) (A) (A) (A) (A) (A) (A) (A) (A) (A)
                 (A) (A) (A) (A) (A) (A) (A) (A) (A) (A) (A) (A)
                 (A) (A) (A) (A) (A) (A) (A) (A)
       Virtual   (A) (A) (A) (A) (A) (A) (A) (A) (A) (A) (A) (A)
                 (A) (A) (A) (A) (A) (A) (A) (A) (A) (A) (A) (A)
                 (A) (A) (A) (A) (A) (A) (A) (A) (A) (A) (A) (A)
                 (A) (A) (A) (A) (A) (A) (A) (A) (A) (A) (A) (A)
                 (A) (A) (A) (A) (A) (A) (A) (A) (A) (A) (A) (A)
                 (A) (A) (A) (A) (A) (A) (A) (A) (A) (A) (A) (A)
                 (A) (A) (A) (A) (A) (A) (A) (A) (A) (A) (A) (A)
                 (A) (A) (A) (A) (A) (A) (A) (A) (A) (A) (A) (A)
                 (A) (A) (A) (A) (A) (A) (A) (A) (A) (A) (A) (A)
                 (A) (A) (A) (A) (A) (A) (A) (A) (A) (A) (A) (A)
                 (A) (A) (A) (A) (A) (A) (A) (A) (A) (A) (A) (A)
                 (A) (A) (A) (A) (A) (A) (A) (A) (A) (A) (A) (A)
                 (A) (A) (A) (A) (A) (A) (A) (A) (A) (A) (A) (A)
                 (A) (A) (A) (A) (A) (A) (A) (A) (A) (A) (A) (A)
                 (A) (A) (A) (A) (A) (A) (A) (A) (A) (A) (A) (A)
                 (A) (A) (A) (A) (A) (A) (A) (A) (A) (A) (A) (A)
                 (A) (A) (A) (A) (A) (A) (A) (A) (A) (A) (A) (A)
                 (A) (A) (A) (A) (A) (A) (A) (A) (A) (A) (A) (A)
                 (A) (A) (A) (A) (A) (A) (A) (A) (A) (A) (A) (A)
                 (A) (A) (A) (A) (A) (A) (A) (A) (A) (A) (A)
 The electronic state is 1-A.
 Alpha  occ. eigenvalues --  -19.24602 -19.17790 -14.54391 -10.36530 -10.36353
 Alpha  occ. eigenvalues --  -10.34690 -10.32107 -10.31941 -10.31140 -10.31130
 Alpha  occ. eigenvalues --  -10.31096 -10.31050 -10.31011 -10.28940 -10.22704
 Alpha  occ. eigenvalues --   -1.13967  -1.07677  -1.03738  -0.96412  -0.89821
 Alpha  occ. eigenvalues --   -0.84790  -0.83119  -0.80988  -0.79898  -0.75085
 Alpha  occ. eigenvalues --   -0.71448  -0.69855  -0.66595  -0.65851  -0.62447
 Alpha  occ. eigenvalues --   -0.60913  -0.58531  -0.57609  -0.55611  -0.54043
 Alpha  occ. eigenvalues --   -0.53565  -0.52946  -0.52135  -0.51673  -0.50928
 Alpha  occ. eigenvalues --   -0.49293  -0.48653  -0.46586  -0.46303  -0.46102
 Alpha  occ. eigenvalues --   -0.45510  -0.44035  -0.43314  -0.42346  -0.41786
 Alpha  occ. eigenvalues --   -0.39517  -0.34174  -0.33996  -0.33908  -0.30929
 Alpha  occ. eigenvalues --   -0.23582
 Alpha virt. eigenvalues --    0.04223   0.05020   0.11252   0.13431   0.14045
 Alpha virt. eigenvalues --    0.15145   0.16710   0.18052   0.18321   0.18421
 Alpha virt. eigenvalues --    0.19099   0.20552   0.21339   0.21945   0.22323
 Alpha virt. eigenvalues --    0.23306   0.23563   0.23776   0.24238   0.24677
 Alpha virt. eigenvalues --    0.25303   0.25648   0.27355   0.28504   0.30893
 Alpha virt. eigenvalues --    0.32650   0.35832   0.36496   0.36811   0.38694
 Alpha virt. eigenvalues --    0.39378   0.40548   0.42519   0.45145   0.45919
 Alpha virt. eigenvalues --    0.46395   0.48315   0.48740   0.50159   0.51860
 Alpha virt. eigenvalues --    0.52836   0.54684   0.55372   0.55926   0.56243
 Alpha virt. eigenvalues --    0.56783   0.57679   0.59222   0.60298   0.60562
 Alpha virt. eigenvalues --    0.62008   0.62736   0.64650   0.65049   0.66272
 Alpha virt. eigenvalues --    0.67578   0.69125   0.70062   0.71570   0.71748
 Alpha virt. eigenvalues --    0.72624   0.73033   0.73314   0.73798   0.74044
 Alpha virt. eigenvalues --    0.74737   0.75063   0.75647   0.76020   0.76236
 Alpha virt. eigenvalues --    0.76974   0.77504   0.77930   0.79235   0.79459
 Alpha virt. eigenvalues --    0.79616   0.80132   0.81718   0.82311   0.82890
 Alpha virt. eigenvalues --    0.83282   0.84175   0.85451   0.86712   0.87065
 Alpha virt. eigenvalues --    0.88651   0.90009   0.90709   0.91769   0.94582
 Alpha virt. eigenvalues --    0.95982   0.97084   1.02436   1.03004   1.04258
 Alpha virt. eigenvalues --    1.05889   1.10043   1.13621   1.15021   1.16600
 Alpha virt. eigenvalues --    1.18130   1.20133   1.21257   1.23634   1.27689
 Alpha virt. eigenvalues --    1.28852   1.30527   1.31852   1.32703   1.33329
 Alpha virt. eigenvalues --    1.35596   1.36999   1.37811   1.38545   1.39670
 Alpha virt. eigenvalues --    1.40878   1.43114   1.48373   1.50201   1.51501
 Alpha virt. eigenvalues --    1.53326   1.54947   1.57636   1.59841   1.61446
 Alpha virt. eigenvalues --    1.62920   1.63736   1.64189   1.68635   1.70780
 Alpha virt. eigenvalues --    1.72847   1.74563   1.76824   1.77629   1.78476
 Alpha virt. eigenvalues --    1.80197   1.80567   1.81011   1.82550   1.83389
 Alpha virt. eigenvalues --    1.83708   1.84268   1.84820   1.85301   1.86112
 Alpha virt. eigenvalues --    1.87595   1.88759   1.90256   1.90954   1.91835
 Alpha virt. eigenvalues --    1.93268   1.94335   1.95379   1.95651   1.98210
 Alpha virt. eigenvalues --    1.98766   1.98901   1.99430   2.00527   2.02154
 Alpha virt. eigenvalues --    2.03188   2.04962   2.05870   2.07301   2.08154
 Alpha virt. eigenvalues --    2.08777   2.09562   2.11787   2.12663   2.12996
 Alpha virt. eigenvalues --    2.15903   2.16398   2.19047   2.20297   2.21478
 Alpha virt. eigenvalues --    2.23389   2.24019   2.25609   2.28798   2.31943
 Alpha virt. eigenvalues --    2.35346   2.35536   2.37572   2.38725   2.39540
 Alpha virt. eigenvalues --    2.40564   2.41326   2.43095   2.43712   2.44979
 Alpha virt. eigenvalues --    2.46033   2.48495   2.50322   2.50538   2.52464
 Alpha virt. eigenvalues --    2.56698   2.58995   2.61808   2.62679   2.67280
 Alpha virt. eigenvalues --    2.70947   2.71468   2.73094   2.73954   2.76695
 Alpha virt. eigenvalues --    2.77689   2.78853   2.79987   2.81081   2.81833
 Alpha virt. eigenvalues --    2.82346   2.83819   2.87121   2.90039   2.91703
 Alpha virt. eigenvalues --    2.93198   2.96262   2.97166   2.99558   3.02757
 Alpha virt. eigenvalues --    3.03806   3.04337   3.05949   3.08701   3.09943
 Alpha virt. eigenvalues --    3.12370   3.13248   3.16322   3.20896   3.24415
 Alpha virt. eigenvalues --    3.28853   3.31419   3.32536   3.34453   3.47377
 Alpha virt. eigenvalues --    3.58550   3.71229   3.74158   3.82694
          Condensed to atoms (all electrons):
               1          2          3          4          5          6
     1  C    5.731759   0.356157  -0.140312   0.256529   0.002546  -0.000577
     2  C    0.356157   4.446482   0.635626  -0.017347  -0.000853   0.000197
     3  O   -0.140312   0.635626   7.926661   0.016541  -0.018327   0.000472
     4  C    0.256529  -0.017347   0.016541   5.477513  -0.032191  -0.013069
     5  C    0.002546  -0.000853  -0.018327  -0.032191   4.545222   0.395426
     6  H   -0.000577   0.000197   0.000472  -0.013069   0.395426   0.592552
     7  H   -0.000493   0.000010   0.000288   0.005297   0.397099  -0.021144
     8  H   -0.002695   0.000445   0.043421  -0.003458   0.383775  -0.011808
     9  N   -0.091678  -0.004726   0.001498   0.094227   0.303560  -0.015001
    10  H    0.003084   0.006089   0.001729   0.012921  -0.014352   0.005503
    11  H    0.006691  -0.000332  -0.000024  -0.004572  -0.015615  -0.006293
    12  C   -0.050194   0.010169   0.000782   0.165824   0.004561   0.000597
    13  C   -0.014970   0.000353  -0.000004  -0.098284   0.000054   0.000152
    14  C    0.000750  -0.000006  -0.000000   0.013085   0.000010  -0.000001
    15  C    0.000003   0.000000  -0.000000  -0.001747  -0.000001  -0.000000
    16  C   -0.000474   0.000007  -0.000000   0.021224  -0.000000  -0.000004
    17  C    0.007106  -0.000539  -0.000003  -0.089089   0.000120  -0.000158
    18  H    0.018229  -0.000711  -0.000032  -0.014535   0.000020  -0.000022
    19  H   -0.000018  -0.000001   0.000000  -0.000296  -0.000000  -0.000000
    20  H    0.000001   0.000000   0.000000   0.000020   0.000000   0.000000
    21  H    0.000005  -0.000000   0.000000  -0.000277  -0.000000  -0.000000
    22  H    0.000448  -0.000026   0.000004  -0.035014  -0.000088  -0.000080
    23  C   -0.043426  -0.016096  -0.016455   0.401449   0.020860   0.007789
    24  H   -0.024913   0.002998   0.025496   0.008168   0.004998  -0.002532
    25  H   -0.000316  -0.001250   0.000013  -0.008735  -0.000047   0.000115
    26  H    0.009672   0.000981   0.000068   0.003672  -0.002533   0.000981
    27  H    0.403155  -0.010429   0.004217  -0.062904  -0.000039   0.000004
    28  O   -0.131625   0.364652  -0.083308   0.005225  -0.000046   0.000001
    29  C    0.010674  -0.039080   0.001447  -0.000475   0.000008   0.000000
    30  H    0.000166   0.005658   0.001046   0.000001  -0.000000  -0.000000
    31  H    0.000766  -0.005402   0.009231   0.000053   0.000005  -0.000000
    32  H    0.001093  -0.003966   0.008454   0.000046  -0.000006   0.000000
               7          8          9         10         11         12
     1  C   -0.000493  -0.002695  -0.091678   0.003084   0.006691  -0.050194
     2  C    0.000010   0.000445  -0.004726   0.006089  -0.000332   0.010169
     3  O    0.000288   0.043421   0.001498   0.001729  -0.000024   0.000782
     4  C    0.005297  -0.003458   0.094227   0.012921  -0.004572   0.165824
     5  C    0.397099   0.383775   0.303560  -0.014352  -0.015615   0.004561
     6  H   -0.021144  -0.011808  -0.015001   0.005503  -0.006293   0.000597
     7  H    0.589238  -0.013837  -0.016721  -0.006520  -0.005333  -0.000283
     8  H   -0.013837   0.519238  -0.016158  -0.004321   0.005194   0.000385
     9  N   -0.016721  -0.016158   6.308791   0.320388   0.332356  -0.026363
    10  H   -0.006520  -0.004321   0.320388   0.492005  -0.007159  -0.009110
    11  H   -0.005333   0.005194   0.332356  -0.007159   0.509074  -0.008643
    12  C   -0.000283   0.000385  -0.026363  -0.009110  -0.008643   5.498220
    13  C   -0.000073  -0.000019  -0.009821   0.005495   0.005104   0.274262
    14  C   -0.000001  -0.000001  -0.000360   0.000129  -0.000358   0.071225
    15  C    0.000000   0.000000   0.000050   0.000009  -0.000026  -0.142821
    16  C    0.000000  -0.000001  -0.000189   0.000003  -0.000315   0.065187
    17  C   -0.000005  -0.000018  -0.000196  -0.000360   0.002401   0.344013
    18  H   -0.000012   0.000007  -0.003199   0.002332   0.001755  -0.080102
    19  H    0.000000   0.000000   0.000004  -0.000006   0.000012   0.014325
    20  H   -0.000000   0.000000  -0.000000   0.000000  -0.000003  -0.001482
    21  H    0.000000   0.000000   0.000002  -0.000000   0.000002   0.014439
    22  H    0.000000   0.000011   0.000381  -0.000021   0.000117  -0.049988
    23  C   -0.000281  -0.002086  -0.060195   0.006154   0.002502  -0.068976
    24  H    0.000194  -0.001259  -0.010384   0.000282  -0.000162   0.007007
    25  H   -0.000018   0.000100   0.006003  -0.000250  -0.000242  -0.009106
    26  H    0.000323  -0.000573  -0.002329  -0.000754   0.000671  -0.016222
    27  H    0.000012  -0.000140   0.003397   0.000456  -0.000104  -0.004563
    28  O    0.000001   0.000324   0.000049  -0.000460   0.000002  -0.000020
    29  C    0.000000  -0.000040   0.000011  -0.000037  -0.000001   0.000005
    30  H   -0.000000   0.000001   0.000000  -0.000001   0.000000  -0.000001
    31  H    0.000000  -0.000050   0.000003  -0.000026  -0.000000   0.000001
    32  H   -0.000002   0.000050  -0.000024   0.000144   0.000001  -0.000003
              13         14         15         16         17         18
     1  C   -0.014970   0.000750   0.000003  -0.000474   0.007106   0.018229
     2  C    0.000353  -0.000006   0.000000   0.000007  -0.000539  -0.000711
     3  O   -0.000004  -0.000000  -0.000000  -0.000000  -0.000003  -0.000032
     4  C   -0.098284   0.013085  -0.001747   0.021224  -0.089089  -0.014535
     5  C    0.000054   0.000010  -0.000001  -0.000000   0.000120   0.000020
     6  H    0.000152  -0.000001  -0.000000  -0.000004  -0.000158  -0.000022
     7  H   -0.000073  -0.000001   0.000000   0.000000  -0.000005  -0.000012
     8  H   -0.000019  -0.000001   0.000000  -0.000001  -0.000018   0.000007
     9  N   -0.009821  -0.000360   0.000050  -0.000189  -0.000196  -0.003199
    10  H    0.005495   0.000129   0.000009   0.000003  -0.000360   0.002332
    11  H    0.005104  -0.000358  -0.000026  -0.000315   0.002401   0.001755
    12  C    0.274262   0.071225  -0.142821   0.065187   0.344013  -0.080102
    13  C    5.177482   0.322898   0.073255  -0.131947   0.031733   0.453794
    14  C    0.322898   5.022064   0.296254   0.075259  -0.122592  -0.055130
    15  C    0.073255   0.296254   5.077139   0.304997   0.068733   0.013107
    16  C   -0.131947   0.075259   0.304997   5.061797   0.301276  -0.002022
    17  C    0.031733  -0.122592   0.068733   0.301276   5.068100   0.012843
    18  H    0.453794  -0.055130   0.013107  -0.002022   0.012843   0.643083
    19  H   -0.063279   0.449250  -0.067124   0.012336  -0.001628  -0.011557
    20  H    0.012502  -0.064144   0.447554  -0.062556   0.012575  -0.000187
    21  H   -0.001607   0.012239  -0.067258   0.445103  -0.059047   0.000021
    22  H    0.013414  -0.001866   0.013102  -0.067783   0.448174  -0.000137
    23  C    0.014783  -0.000474   0.000142  -0.000890   0.009230   0.000943
    24  H   -0.000096   0.000006   0.000003  -0.000046   0.000706   0.000050
    25  H   -0.000121   0.000024  -0.000050   0.000693  -0.000022  -0.000028
    26  H   -0.001281  -0.000002  -0.000050   0.000920   0.004175  -0.000093
    27  H   -0.003707   0.000742  -0.000098   0.000005   0.000467   0.000761
    28  O   -0.000020  -0.000000  -0.000000   0.000000   0.000000  -0.000019
    29  C    0.000000   0.000000  -0.000000   0.000000  -0.000000  -0.000004
    30  H    0.000000  -0.000000   0.000000  -0.000000   0.000000   0.000000
    31  H   -0.000000  -0.000000  -0.000000  -0.000000   0.000000  -0.000000
    32  H    0.000001   0.000000  -0.000000   0.000000  -0.000000   0.000000
              19         20         21         22         23         24
     1  C   -0.000018   0.000001   0.000005   0.000448  -0.043426  -0.024913
     2  C   -0.000001   0.000000  -0.000000  -0.000026  -0.016096   0.002998
     3  O    0.000000   0.000000   0.000000   0.000004  -0.016455   0.025496
     4  C   -0.000296   0.000020  -0.000277  -0.035014   0.401449   0.008168
     5  C   -0.000000   0.000000  -0.000000  -0.000088   0.020860   0.004998
     6  H   -0.000000   0.000000  -0.000000  -0.000080   0.007789  -0.002532
     7  H    0.000000  -0.000000   0.000000   0.000000  -0.000281   0.000194
     8  H    0.000000   0.000000   0.000000   0.000011  -0.002086  -0.001259
     9  N    0.000004  -0.000000   0.000002   0.000381  -0.060195  -0.010384
    10  H   -0.000006   0.000000  -0.000000  -0.000021   0.006154   0.000282
    11  H    0.000012  -0.000003   0.000002   0.000117   0.002502  -0.000162
    12  C    0.014325  -0.001482   0.014439  -0.049988  -0.068976   0.007007
    13  C   -0.063279   0.012502  -0.001607   0.013414   0.014783  -0.000096
    14  C    0.449250  -0.064144   0.012239  -0.001866  -0.000474   0.000006
    15  C   -0.067124   0.447554  -0.067258   0.013102   0.000142   0.000003
    16  C    0.012336  -0.062556   0.445103  -0.067783  -0.000890  -0.000046
    17  C   -0.001628   0.012575  -0.059047   0.448174   0.009230   0.000706
    18  H   -0.011557  -0.000187   0.000021  -0.000137   0.000943   0.000050
    19  H    0.647170  -0.010555  -0.000208   0.000022   0.000004  -0.000000
    20  H   -0.010555   0.644727  -0.010596  -0.000203   0.000000   0.000000
    21  H   -0.000208  -0.010596   0.649020  -0.011792  -0.000002  -0.000000
    22  H    0.000022  -0.000203  -0.011792   0.653275   0.019826   0.000026
    23  C    0.000004   0.000000  -0.000002   0.019826   4.543939   0.373176
    24  H   -0.000000   0.000000  -0.000000   0.000026   0.373176   0.594023
    25  H    0.000000  -0.000000   0.000012   0.000610   0.388090  -0.012108
    26  H    0.000000  -0.000000   0.000020  -0.001115   0.355689  -0.027078
    27  H    0.000039  -0.000001   0.000000   0.000011   0.002069   0.000046
    28  O    0.000000  -0.000000   0.000000   0.000000  -0.000174   0.000081
    29  C   -0.000000   0.000000  -0.000000  -0.000000   0.000010  -0.000065
    30  H   -0.000000  -0.000000   0.000000  -0.000000   0.000002  -0.000003
    31  H    0.000000  -0.000000  -0.000000  -0.000000  -0.000035   0.000156
    32  H   -0.000000  -0.000000  -0.000000  -0.000000   0.000014  -0.000050
              25         26         27         28         29         30
     1  C   -0.000316   0.009672   0.403155  -0.131625   0.010674   0.000166
     2  C   -0.001250   0.000981  -0.010429   0.364652  -0.039080   0.005658
     3  O    0.000013   0.000068   0.004217  -0.083308   0.001447   0.001046
     4  C   -0.008735   0.003672  -0.062904   0.005225  -0.000475   0.000001
     5  C   -0.000047  -0.002533  -0.000039  -0.000046   0.000008  -0.000000
     6  H    0.000115   0.000981   0.000004   0.000001   0.000000  -0.000000
     7  H   -0.000018   0.000323   0.000012   0.000001   0.000000  -0.000000
     8  H    0.000100  -0.000573  -0.000140   0.000324  -0.000040   0.000001
     9  N    0.006003  -0.002329   0.003397   0.000049   0.000011   0.000000
    10  H   -0.000250  -0.000754   0.000456  -0.000460  -0.000037  -0.000001
    11  H   -0.000242   0.000671  -0.000104   0.000002  -0.000001   0.000000
    12  C   -0.009106  -0.016222  -0.004563  -0.000020   0.000005  -0.000001
    13  C   -0.000121  -0.001281  -0.003707  -0.000020   0.000000   0.000000
    14  C    0.000024  -0.000002   0.000742  -0.000000   0.000000  -0.000000
    15  C   -0.000050  -0.000050  -0.000098  -0.000000  -0.000000   0.000000
    16  C    0.000693   0.000920   0.000005   0.000000   0.000000  -0.000000
    17  C   -0.000022   0.004175   0.000467   0.000000  -0.000000   0.000000
    18  H   -0.000028  -0.000093   0.000761  -0.000019  -0.000004   0.000000
    19  H    0.000000   0.000000   0.000039   0.000000  -0.000000  -0.000000
    20  H   -0.000000  -0.000000  -0.000001  -0.000000   0.000000  -0.000000
    21  H    0.000012   0.000020   0.000000   0.000000  -0.000000   0.000000
    22  H    0.000610  -0.001115   0.000011   0.000000  -0.000000  -0.000000
    23  C    0.388090   0.355689   0.002069  -0.000174   0.000010   0.000002
    24  H   -0.012108  -0.027078   0.000046   0.000081  -0.000065  -0.000003
    25  H    0.604243  -0.024769   0.000761  -0.000010  -0.000001  -0.000000
    26  H   -0.024769   0.682973  -0.000159  -0.000000   0.000000   0.000000
    27  H    0.000761  -0.000159   0.659240   0.006198  -0.000185  -0.000180
    28  O   -0.000010  -0.000000   0.006198   8.012361   0.289006  -0.025853
    29  C   -0.000001   0.000000  -0.000185   0.289006   4.392280   0.395464
    30  H   -0.000000   0.000000  -0.000180  -0.025853   0.395464   0.645830
    31  H    0.000001   0.000001   0.000027  -0.030575   0.401756  -0.027418
    32  H   -0.000000  -0.000001   0.000034  -0.032019   0.397276  -0.027660
              31         32
     1  C    0.000766   0.001093
     2  C   -0.005402  -0.003966
     3  O    0.009231   0.008454
     4  C    0.000053   0.000046
     5  C    0.000005  -0.000006
     6  H   -0.000000   0.000000
     7  H    0.000000  -0.000002
     8  H   -0.000050   0.000050
     9  N    0.000003  -0.000024
    10  H   -0.000026   0.000144
    11  H   -0.000000   0.000001
    12  C    0.000001  -0.000003
    13  C   -0.000000   0.000001
    14  C   -0.000000   0.000000
    15  C   -0.000000  -0.000000
    16  C   -0.000000   0.000000
    17  C    0.000000  -0.000000
    18  H   -0.000000   0.000000
    19  H    0.000000  -0.000000
    20  H   -0.000000  -0.000000
    21  H   -0.000000  -0.000000
    22  H   -0.000000  -0.000000
    23  C   -0.000035   0.000014
    24  H    0.000156  -0.000050
    25  H    0.000001  -0.000000
    26  H    0.000001  -0.000001
    27  H    0.000027   0.000034
    28  O   -0.030575  -0.032019
    29  C    0.401756   0.397276
    30  H   -0.027418  -0.027660
    31  H    0.663818  -0.038469
    32  H   -0.038469   0.676121
 Mulliken charges:
               1
     1  C   -0.307142
     2  C    0.270942
     3  O   -0.418529
     4  C   -0.099803
     5  C    0.025837
     6  H    0.066901
     7  H    0.072260
     8  H    0.103512
     9  N   -0.113374
    10  H    0.186657
    11  H    0.183298
    12  C   -0.003124
    13  C   -0.060052
    14  C   -0.018999
    15  C   -0.015174
    16  C   -0.022580
    17  C   -0.037994
    18  H    0.020845
    19  H    0.031510
    20  H    0.032347
    21  H    0.029925
    22  H    0.018693
    23  C    0.062421
    24  H    0.061281
    25  H    0.056409
    26  H    0.016810
    27  H    0.000868
    28  O   -0.373770
    29  C    0.151951
    30  H    0.032947
    31  H    0.026157
    32  H    0.018968
 Sum of Mulliken charges =  -0.00000
 Mulliken charges with hydrogens summed into heavy atoms:
               1
     1  C   -0.306274
     2  C    0.270942
     3  O   -0.418529
     4  C   -0.099803
     5  C    0.268511
     9  N    0.256582
    12  C   -0.003124
    13  C   -0.039207
    14  C    0.012511
    15  C    0.017172
    16  C    0.007345
    17  C   -0.019301
    23  C    0.196921
    28  O   -0.373770
    29  C    0.230023
 Electronic spatial extent (au):  <R**2>=           3890.2748
 Charge=             -0.0000 electrons
 Dipole moment (field-independent basis, Debye):
    X=              5.2826    Y=              4.0392    Z=             -3.3844  Tot=              7.4616
 Quadrupole moment (field-independent basis, Debye-Ang):
   XX=            -92.5810   YY=            -85.3458   ZZ=            -82.6744
   XY=              0.3262   XZ=              2.1509   YZ=             -1.1131
 Traceless Quadrupole moment (field-independent basis, Debye-Ang):
   XX=             -5.7139   YY=              1.5213   ZZ=              4.1927
   XY=              0.3262   XZ=              2.1509   YZ=             -1.1131
 Octapole moment (field-independent basis, Debye-Ang**2):
  XXX=             15.6869  YYY=             30.7255  ZZZ=            -14.8701  XYY=             -3.7086
  XXY=            -25.3108  XXZ=              1.9546  XZZ=             -6.1073  YZZ=             11.7375
  YYZ=            -16.8185  XYZ=             10.1805
 Hexadecapole moment (field-independent basis, Debye-Ang**3):
 XXXX=          -3439.6296 YYYY=           -914.0718 ZZZZ=           -449.8909 XXXY=             51.3989
 XXXZ=             25.5662 YYYX=             -2.1777 YYYZ=            -21.6283 ZZZX=              7.6893
 ZZZY=            -13.7830 XXYY=           -775.9508 XXZZ=           -683.6439 YYZZ=           -219.5262
 XXYZ=             28.9332 YYXZ=             -8.4222 ZZXY=             -1.1201
 N-N= 1.010306727377D+03 E-N=-3.582748849494D+03  KE= 6.648225088530D+02
   1 Symmetry operations used in ECPInt.
 ECPInt:  NShTT=   10011 NPrTT=   35491 LenC2=    9435 LenP2D=   24606.
 LDataN:  DoStor=T MaxTD1= 5 Len=  102
 D1PCM: PCM CHGder 1st derivatives, ID1Alg=3 FixD1E=F DoIter=F DoCFld=F I1PDM=0.
 Calling FoFJK, ICntrl=      2127 FMM=F ISym2X=0 I1Cent= 0 IOpClX= 0 NMat=1 NMatS=1 NMatT=0.
 ***** Axes restored to original set *****
 -------------------------------------------------------------------
 Center     Atomic                   Forces (Hartrees/Bohr)
 Number     Number              X              Y              Z
 -------------------------------------------------------------------
      1        6           0.000488963   -0.000450286   -0.000029083
      2        6          -0.000115186    0.000579459   -0.000230762
      3        8          -0.000324449   -0.000323539    0.000113592
      4        6          -0.000385532   -0.000366613    0.000188018
      5        6           0.000367974    0.000809052   -0.000213053
      6        1          -0.000160868   -0.000041102   -0.000331111
      7        1           0.000020998    0.000067202   -0.000004684
      8        1          -0.000182090   -0.000359302   -0.000039984
      9        7           0.000331622    0.000437083    0.000294759
     10        1           0.000014313   -0.000493479    0.000003804
     11        1          -0.000538347   -0.000064118    0.000013335
     12        6           0.000222519    0.000347880    0.000773240
     13        6           0.000373228   -0.000308436   -0.000182376
     14        6          -0.000463182    0.000039915   -0.000050946
     15        6           0.000104815    0.000259677    0.000296170
     16        6           0.000286697   -0.000282371   -0.000225977
     17        6          -0.000356605    0.000098562   -0.000027435
     18        1          -0.000121834    0.000108445   -0.000192700
     19        1           0.000036379   -0.000081961    0.000037586
     20        1           0.000001465   -0.000036850   -0.000033580
     21        1          -0.000006839    0.000070291    0.000009337
     22        1           0.000138329   -0.000159214   -0.000164924
     23        6           0.000278577    0.000149678   -0.000114559
     24        1          -0.000071606    0.000109506   -0.000149473
     25        1           0.000122096   -0.000084748    0.000066214
     26        1          -0.000184196   -0.000264128    0.000263086
     27        1          -0.000046344    0.000169171   -0.000125404
     28        8          -0.000040281   -0.000266867    0.000031426
     29        6           0.000235039    0.000561634   -0.000127892
     30        1           0.000082518   -0.000242539    0.000096997
     31        1          -0.000077212   -0.000006187   -0.000092818
     32        1          -0.000030960    0.000024185    0.000149198
 -------------------------------------------------------------------
 Cartesian Forces:  Max     0.000809052 RMS     0.000257192

 GradGradGradGradGradGradGradGradGradGradGradGradGradGradGradGradGradGrad
 Berny optimization.
 FormGI is forming the generalized inverse of G from B-inverse, IUseBI=4.
 Internal  Forces:  Max     0.001199227 RMS     0.000212688
 Search for a saddle point.
 Step number   1 out of a maximum of   50
 All quantities printed in internal units (Hartrees-Bohrs-Radians)
 Swapping is turned off.
 Second derivative matrix not updated -- first step.
 ITU=  0
     Eigenvalues ---   -0.00304   0.00145   0.00327   0.00456   0.00490
     Eigenvalues ---    0.00806   0.01141   0.01157   0.01268   0.01355
     Eigenvalues ---    0.01510   0.01863   0.02023   0.02181   0.02467
     Eigenvalues ---    0.02528   0.02567   0.02817   0.02913   0.03030
     Eigenvalues ---    0.03609   0.03675   0.03696   0.03911   0.04179
     Eigenvalues ---    0.05979   0.06200   0.06238   0.06471   0.06908
     Eigenvalues ---    0.07937   0.09050   0.10214   0.10703   0.10817
     Eigenvalues ---    0.10925   0.10987   0.11027   0.11170   0.11389
     Eigenvalues ---    0.11767   0.12041   0.12311   0.12794   0.13536
     Eigenvalues ---    0.14294   0.14850   0.14871   0.15020   0.15218
     Eigenvalues ---    0.15690   0.16013   0.16570   0.17266   0.20698
     Eigenvalues ---    0.22922   0.23396   0.24870   0.25762   0.26002
     Eigenvalues ---    0.26148   0.26201   0.26263   0.26516   0.26567
     Eigenvalues ---    0.26909   0.27094   0.27421   0.27797   0.27978
     Eigenvalues ---    0.28199   0.28244   0.28257   0.28926   0.29074
     Eigenvalues ---    0.32015   0.33021   0.33811   0.36993   0.40275
     Eigenvalues ---    0.42106   0.51109   0.52762   0.52990   0.54155
     Eigenvalues ---    0.54284   0.56028   0.69584   0.71969   0.86947
 Eigenvectors required to have negative eigenvalues:
                          D19       D16       D13       D21       D20
   1                   -0.31352  -0.29566  -0.29207  -0.28467  -0.27024
                          D18       D15       D17       D14       D8
   1                   -0.26681  -0.26322  -0.25238  -0.24880  -0.22326
 RFO step:  Lambda0=2.147669233D-05 Lambda=-7.92815516D-05.
 Linear search not attempted -- option 19 set.
 Iteration  1 RMS(Cart)=  0.01857750 RMS(Int)=  0.00024475
 Iteration  2 RMS(Cart)=  0.00038441 RMS(Int)=  0.00001165
 Iteration  3 RMS(Cart)=  0.00000009 RMS(Int)=  0.00001165
 Variable       Old X    -DE/DX   Delta X   Delta X   Delta X     New X
                                 (Linear)    (Quad)   (Total)
    R1        2.64971   0.00033   0.00000   0.00172   0.00172   2.65143
    R2        2.78770  -0.00014   0.00000  -0.00361  -0.00361   2.78409
    R3        2.05705  -0.00018   0.00000  -0.00142  -0.00142   2.05563
    R4        2.35119  -0.00015   0.00000  -0.00064  -0.00064   2.35055
    R5        2.59288  -0.00016   0.00000  -0.00054  -0.00054   2.59234
    R6        3.13964   0.00043   0.00000   0.01649   0.01649   3.15614
    R7        2.88794   0.00017   0.00000  -0.00084  -0.00084   2.88711
    R8        2.88753  -0.00003   0.00000  -0.00189  -0.00189   2.88563
    R9        2.06995  -0.00029   0.00000  -0.00135  -0.00135   2.06860
   R10        2.07485   0.00002   0.00000   0.00024   0.00024   2.07509
   R11        2.06918   0.00020   0.00000   0.00094   0.00094   2.07012
   R12        2.78743   0.00038   0.00000  -0.00047  -0.00047   2.78696
   R13        1.93616   0.00030   0.00000   0.00099   0.00099   1.93716
   R14        1.93459  -0.00050   0.00000  -0.00240  -0.00240   1.93218
   R15        2.65206   0.00033   0.00000   0.00259   0.00259   2.65465
   R16        2.64521  -0.00017   0.00000  -0.00225  -0.00225   2.64296
   R17        2.63199  -0.00030   0.00000  -0.00220  -0.00220   2.62980
   R18        2.06452   0.00017   0.00000   0.00092   0.00092   2.06545
   R19        2.63551   0.00017   0.00000   0.00174   0.00174   2.63726
   R20        2.06396   0.00004   0.00000   0.00023   0.00023   2.06419
   R21        2.63221  -0.00022   0.00000  -0.00179  -0.00179   2.63042
   R22        2.06374   0.00002   0.00000   0.00009   0.00009   2.06382
   R23        2.63660   0.00027   0.00000   0.00201   0.00201   2.63861
   R24        2.06399   0.00002   0.00000   0.00014   0.00014   2.06413
   R25        2.06063  -0.00026   0.00000  -0.00107  -0.00107   2.05957
   R26        2.07090   0.00009   0.00000   0.00054   0.00054   2.07144
   R27        2.07439   0.00013   0.00000   0.00102   0.00102   2.07541
   R28        2.08171  -0.00033   0.00000  -0.00204  -0.00204   2.07967
   R29        2.65526  -0.00017   0.00000  -0.00008  -0.00008   2.65518
   R30        2.07467   0.00019   0.00000   0.00121   0.00121   2.07588
   R31        2.08185  -0.00004   0.00000  -0.00061  -0.00061   2.08124
   R32        2.08350  -0.00011   0.00000  -0.00049  -0.00049   2.08301
    A1        2.10973  -0.00001   0.00000  -0.00610  -0.00617   2.10356
    A2        2.08702   0.00001   0.00000   0.00345   0.00339   2.09041
    A3        2.08238   0.00000   0.00000   0.00441   0.00435   2.08673
    A4        2.22271   0.00061   0.00000  -0.00019  -0.00019   2.22252
    A5        1.98113  -0.00017   0.00000   0.00057   0.00057   1.98170
    A6        2.07875  -0.00043   0.00000  -0.00038  -0.00038   2.07838
    A7        1.87127  -0.00028   0.00000  -0.00699  -0.00699   1.86428
    A8        1.94923  -0.00003   0.00000   0.00092   0.00091   1.95014
    A9        2.00192   0.00004   0.00000   0.00190   0.00189   2.00381
   A10        1.79218  -0.00004   0.00000   0.00187   0.00187   1.79405
   A11        1.84843   0.00035   0.00000  -0.00005  -0.00005   1.84838
   A12        1.98133  -0.00004   0.00000   0.00156   0.00156   1.98289
   A13        1.90848  -0.00016   0.00000  -0.00196  -0.00196   1.90652
   A14        1.93985   0.00019   0.00000   0.00309   0.00309   1.94295
   A15        1.91422   0.00029   0.00000   0.00365   0.00365   1.91787
   A16        1.92805   0.00010   0.00000  -0.00159  -0.00159   1.92646
   A17        1.89956   0.00006   0.00000   0.00116   0.00115   1.90071
   A18        1.87301  -0.00049   0.00000  -0.00432  -0.00432   1.86869
   A19        2.09861   0.00120   0.00000   0.01056   0.01054   2.10915
   A20        1.75537  -0.00066   0.00000  -0.01208  -0.01207   1.74330
   A21        1.88264  -0.00027   0.00000   0.00006   0.00001   1.88265
   A22        1.91199  -0.00005   0.00000   0.00046   0.00051   1.91249
   A23        1.92641  -0.00041   0.00000   0.00101   0.00097   1.92738
   A24        1.87133   0.00010   0.00000  -0.00224  -0.00225   1.86908
   A25        2.08410  -0.00058   0.00000  -0.00433  -0.00433   2.07977
   A26        2.13752   0.00065   0.00000   0.00449   0.00449   2.14201
   A27        2.06114  -0.00007   0.00000  -0.00010  -0.00011   2.06103
   A28        2.11397   0.00005   0.00000   0.00024   0.00024   2.11421
   A29        2.08115  -0.00008   0.00000  -0.00155  -0.00155   2.07960
   A30        2.08791   0.00003   0.00000   0.00135   0.00135   2.08926
   A31        2.09683   0.00001   0.00000  -0.00017  -0.00017   2.09667
   A32        2.08845   0.00004   0.00000   0.00129   0.00130   2.08975
   A33        2.09787  -0.00005   0.00000  -0.00113  -0.00113   2.09673
   A34        2.08332  -0.00001   0.00000  -0.00003  -0.00004   2.08329
   A35        2.10058  -0.00005   0.00000  -0.00118  -0.00118   2.09941
   A36        2.09927   0.00006   0.00000   0.00121   0.00122   2.10049
   A37        2.10132   0.00003   0.00000   0.00030   0.00030   2.10162
   A38        2.09563   0.00003   0.00000   0.00102   0.00102   2.09665
   A39        2.08624  -0.00006   0.00000  -0.00132  -0.00132   2.08492
   A40        2.10973  -0.00002   0.00000  -0.00020  -0.00020   2.10953
   A41        2.10127   0.00010   0.00000   0.00106   0.00106   2.10233
   A42        2.07212  -0.00008   0.00000  -0.00085  -0.00085   2.07127
   A43        1.90935  -0.00013   0.00000  -0.00091  -0.00091   1.90844
   A44        1.87811  -0.00014   0.00000  -0.00196  -0.00196   1.87615
   A45        1.99131   0.00034   0.00000   0.00314   0.00315   1.99446
   A46        1.87890   0.00014   0.00000   0.00279   0.00279   1.88169
   A47        1.91293  -0.00009   0.00000  -0.00074  -0.00074   1.91219
   A48        1.88970  -0.00013   0.00000  -0.00231  -0.00230   1.88740
   A49        2.02988  -0.00050   0.00000  -0.00232  -0.00232   2.02757
   A50        1.86114  -0.00030   0.00000  -0.00324  -0.00324   1.85790
   A51        1.95341   0.00016   0.00000   0.00162   0.00162   1.95503
   A52        1.95372   0.00013   0.00000   0.00140   0.00140   1.95513
   A53        1.90929   0.00001   0.00000   0.00060   0.00060   1.90989
   A54        1.90727   0.00012   0.00000   0.00121   0.00122   1.90848
   A55        1.87863  -0.00012   0.00000  -0.00155  -0.00155   1.87709
    D1        0.15609  -0.00007   0.00000  -0.00300  -0.00299   0.15309
    D2       -3.02310   0.00008   0.00000  -0.00291  -0.00291  -3.02601
    D3       -3.08279  -0.00007   0.00000   0.01826   0.01826  -3.06453
    D4        0.02121   0.00008   0.00000   0.01834   0.01834   0.03955
    D5       -1.10781  -0.00024   0.00000   0.01453   0.01453  -1.09328
    D6       -3.05824  -0.00002   0.00000   0.01572   0.01572  -3.04251
    D7        0.93913   0.00003   0.00000   0.01085   0.01085   0.94998
    D8        2.13081  -0.00023   0.00000  -0.00662  -0.00662   2.12419
    D9        0.18038  -0.00001   0.00000  -0.00543  -0.00543   0.17495
   D10       -2.10543   0.00004   0.00000  -0.01030  -0.01031  -2.11574
   D11       -3.06584  -0.00013   0.00000  -0.00511  -0.00511  -3.07096
   D12        0.04155   0.00003   0.00000  -0.00504  -0.00504   0.03651
   D13        1.83673   0.00001   0.00000   0.03540   0.03538   1.87211
   D14       -0.26096  -0.00008   0.00000   0.03840   0.03842  -0.22254
   D15       -2.21787   0.00018   0.00000   0.04596   0.04596  -2.17191
   D16       -2.39066  -0.00017   0.00000   0.03439   0.03437  -2.35629
   D17        1.79484  -0.00025   0.00000   0.03739   0.03741   1.83224
   D18       -0.16207   0.00001   0.00000   0.04495   0.04495  -0.11713
   D19       -0.30833  -0.00008   0.00000   0.03696   0.03694  -0.27139
   D20       -2.40602  -0.00016   0.00000   0.03997   0.03998  -2.36604
   D21        1.92025   0.00010   0.00000   0.04753   0.04752   1.96778
   D22        0.82464  -0.00011   0.00000   0.00083   0.00083   0.82547
   D23       -2.34896  -0.00012   0.00000   0.00305   0.00305  -2.34591
   D24       -1.17516   0.00025   0.00000   0.00753   0.00753  -1.16763
   D25        1.93443   0.00024   0.00000   0.00975   0.00975   1.94418
   D26        3.12095  -0.00012   0.00000   0.00582   0.00582   3.12677
   D27       -0.05264  -0.00013   0.00000   0.00804   0.00804  -0.04460
   D28       -0.83453  -0.00003   0.00000  -0.01155  -0.01155  -0.84608
   D29        1.20197  -0.00000   0.00000  -0.00982  -0.00981   1.19216
   D30       -2.98422  -0.00006   0.00000  -0.01213  -0.01213  -2.99634
   D31        1.22538  -0.00012   0.00000  -0.01917  -0.01917   1.20621
   D32       -3.02130  -0.00009   0.00000  -0.01743  -0.01743  -3.03873
   D33       -0.92430  -0.00015   0.00000  -0.01974  -0.01975  -0.94405
   D34       -3.10471   0.00002   0.00000  -0.01621  -0.01621  -3.12092
   D35       -1.06820   0.00005   0.00000  -0.01447  -0.01448  -1.08268
   D36        1.02880  -0.00001   0.00000  -0.01679  -0.01679   1.01201
   D37        1.16164   0.00015   0.00000  -0.01513  -0.01513   1.14651
   D38       -3.10356   0.00003   0.00000  -0.02382  -0.02381  -3.12737
   D39       -1.04689  -0.00012   0.00000  -0.02567  -0.02568  -1.07257
   D40       -3.03435   0.00017   0.00000  -0.01465  -0.01464  -3.04899
   D41       -1.01636   0.00005   0.00000  -0.02333  -0.02333  -1.03969
   D42        1.04031  -0.00010   0.00000  -0.02519  -0.02520   1.01511
   D43       -0.94757   0.00005   0.00000  -0.01836  -0.01835  -0.96593
   D44        1.07041  -0.00007   0.00000  -0.02705  -0.02704   1.04337
   D45        3.12708  -0.00023   0.00000  -0.02890  -0.02891   3.09817
   D46        3.10810   0.00006   0.00000   0.00643   0.00642   3.11452
   D47       -0.05240   0.00009   0.00000   0.00903   0.00903  -0.04337
   D48       -0.00289   0.00006   0.00000   0.00422   0.00422   0.00133
   D49        3.11980   0.00009   0.00000   0.00682   0.00682   3.12662
   D50       -3.11604   0.00000   0.00000  -0.00298  -0.00299  -3.11903
   D51        0.03778  -0.00001   0.00000  -0.00306  -0.00307   0.03472
   D52       -0.00605  -0.00002   0.00000  -0.00087  -0.00087  -0.00692
   D53       -3.13541  -0.00003   0.00000  -0.00095  -0.00095  -3.13636
   D54        0.00736  -0.00005   0.00000  -0.00429  -0.00429   0.00307
   D55        3.14021  -0.00005   0.00000  -0.00472  -0.00472   3.13549
   D56       -3.11525  -0.00008   0.00000  -0.00687  -0.00688  -3.12213
   D57        0.01760  -0.00007   0.00000  -0.00730  -0.00731   0.01029
   D58       -0.00285   0.00001   0.00000   0.00092   0.00092  -0.00192
   D59        3.13534   0.00002   0.00000   0.00110   0.00111   3.13645
   D60       -3.13565   0.00001   0.00000   0.00134   0.00134  -3.13431
   D61        0.00254   0.00001   0.00000   0.00152   0.00152   0.00406
   D62       -0.00602   0.00002   0.00000   0.00239   0.00239  -0.00363
   D63        3.13426   0.00003   0.00000   0.00309   0.00309   3.13735
   D64        3.13897   0.00002   0.00000   0.00221   0.00221   3.14119
   D65       -0.00393   0.00002   0.00000   0.00292   0.00292  -0.00101
   D66        0.01059  -0.00002   0.00000  -0.00241  -0.00241   0.00818
   D67        3.14015  -0.00001   0.00000  -0.00232  -0.00232   3.13783
   D68       -3.12970  -0.00002   0.00000  -0.00312  -0.00311  -3.13281
   D69       -0.00014  -0.00001   0.00000  -0.00302  -0.00302  -0.00316
   D70        3.13097   0.00005   0.00000   0.02500   0.02500  -3.12722
   D71       -1.06493  -0.00003   0.00000   0.02461   0.02461  -1.04032
   D72        1.04597   0.00002   0.00000   0.02476   0.02476   1.07073
         Item               Value     Threshold  Converged?
 Maximum Force            0.001199     0.000450     NO 
 RMS     Force            0.000213     0.000300     YES
 Maximum Displacement     0.092045     0.001800     NO 
 RMS     Displacement     0.018630     0.001200     NO 
 Predicted change in Energy=-2.960244D-05
 GradGradGradGradGradGradGradGradGradGradGradGradGradGradGradGradGradGrad

                          Input orientation:                          
 ---------------------------------------------------------------------
 Center     Atomic      Atomic             Coordinates (Angstroms)
 Number     Number       Type             X           Y           Z
 ---------------------------------------------------------------------
      1          6           0       -0.905609   -0.708998    0.190051
      2          6           0       -2.286805   -0.465219    0.151470
      3          8           0       -2.855810    0.634377    0.031860
      4          6           0        0.049484    0.409328    0.277723
      5          6           0       -0.801728    2.639767   -1.060495
      6          1           0       -0.192138    3.338309   -0.478504
      7          1           0       -0.910121    3.020734   -2.084663
      8          1           0       -1.785732    2.492415   -0.602180
      9          7           0       -0.144649    1.320313   -1.108581
     10          1           0       -0.712501    0.673900   -1.665826
     11          1           0        0.766422    1.391790   -1.567146
     12          6           0        1.495388   -0.071505    0.166788
     13          6           0        1.841172   -0.970849   -0.855473
     14          6           0        3.151958   -1.410513   -1.014103
     15          6           0        4.150786   -0.962263   -0.148626
     16          6           0        3.822475   -0.071948    0.869757
     17          6           0        2.507913    0.373085    1.023060
     18          1           0        1.061032   -1.340489   -1.525823
     19          1           0        3.394268   -2.114516   -1.813375
     20          1           0        5.179405   -1.309372   -0.267801
     21          1           0        4.593587    0.283855    1.556697
     22          1           0        2.281813    1.067286    1.832252
     23          6           0       -0.189198    1.365860    1.443847
     24          1           0       -1.247886    1.648755    1.470598
     25          1           0        0.036259    0.820209    2.369918
     26          1           0        0.433990    2.272613    1.420059
     27          1           0       -0.538559   -1.732338    0.226721
     28          8           0       -3.046507   -1.605682    0.215134
     29          6           0       -4.435432   -1.432760    0.091944
     30          1           0       -4.882349   -2.432417    0.179550
     31          1           0       -4.841644   -0.779515    0.880120
[...]
 Alpha virt. eigenvalues --    2.08721   2.09638   2.11904   2.12649   2.13011
 Alpha virt. eigenvalues --    2.15949   2.16472   2.19008   2.20270   2.21273
 Alpha virt. eigenvalues --    2.23362   2.24042   2.25512   2.28889   2.32136
 Alpha virt. eigenvalues --    2.35353   2.35460   2.37595   2.38760   2.39492
 Alpha virt. eigenvalues --    2.40509   2.41327   2.43102   2.43680   2.45025
 Alpha virt. eigenvalues --    2.46118   2.48524   2.50284   2.50528   2.52536
 Alpha virt. eigenvalues --    2.56576   2.59020   2.61860   2.62666   2.67332
 Alpha virt. eigenvalues --    2.70935   2.71550   2.73053   2.73979   2.76632
 Alpha virt. eigenvalues --    2.77528   2.78873   2.79999   2.81067   2.81841
 Alpha virt. eigenvalues --    2.82466   2.83813   2.87098   2.89978   2.91667
 Alpha virt. eigenvalues --    2.93261   2.96239   2.97176   2.99613   3.02712
 Alpha virt. eigenvalues --    3.03818   3.04197   3.05970   3.08708   3.09983
 Alpha virt. eigenvalues --    3.12350   3.13224   3.16289   3.20929   3.24445
 Alpha virt. eigenvalues --    3.28875   3.31407   3.32511   3.34470   3.47558
 Alpha virt. eigenvalues --    3.58546   3.71238   3.74154   3.82655
          Condensed to atoms (all electrons):
               1          2          3          4          5          6
     1  C    5.738146   0.352957  -0.141254   0.255418   0.002728  -0.000578
     2  C    0.352957   4.449360   0.636616  -0.016500  -0.000906   0.000199
     3  O   -0.141254   0.636616   7.928090   0.016854  -0.017143   0.000477
     4  C    0.255418  -0.016500   0.016854   5.474349  -0.031396  -0.012673
     5  C    0.002728  -0.000906  -0.017143  -0.031396   4.540244   0.395588
     6  H   -0.000578   0.000199   0.000477  -0.012673   0.395588   0.592385
     7  H   -0.000490   0.000014   0.000256   0.005236   0.397463  -0.021129
     8  H   -0.002445   0.000398   0.041316  -0.003705   0.385437  -0.012185
     9  N   -0.092200  -0.004897   0.001555   0.095327   0.303729  -0.015111
    10  H    0.001701   0.006776   0.002420   0.012866  -0.014503   0.005528
    11  H    0.006534  -0.000332  -0.000008  -0.004763  -0.015642  -0.006058
    12  C   -0.051470   0.010348   0.000817   0.166248   0.004267   0.000659
    13  C   -0.014904   0.000362  -0.000004  -0.097460   0.000064   0.000154
    14  C    0.000757  -0.000005  -0.000000   0.013080   0.000009  -0.000001
    15  C    0.000004   0.000000  -0.000000  -0.001744  -0.000001  -0.000000
    16  C   -0.000469   0.000007  -0.000000   0.021145  -0.000001  -0.000005
    17  C    0.007217  -0.000552  -0.000003  -0.089715   0.000139  -0.000151
    18  H    0.018637  -0.000760  -0.000036  -0.014646   0.000026  -0.000023
    19  H   -0.000018  -0.000001   0.000000  -0.000297  -0.000000  -0.000000
    20  H    0.000001   0.000000   0.000000   0.000020   0.000000   0.000000
    21  H    0.000005  -0.000000   0.000000  -0.000276  -0.000000  -0.000000
    22  H    0.000442  -0.000025   0.000004  -0.034889  -0.000089  -0.000080
    23  C   -0.043420  -0.016346  -0.016198   0.402101   0.020643   0.007127
    24  H   -0.024617   0.003018   0.024962   0.007939   0.004762  -0.002370
    25  H   -0.000234  -0.001282   0.000018  -0.009029  -0.000055   0.000109
    26  H    0.009570   0.000998   0.000053   0.004252  -0.002094   0.001062
    27  H    0.404041  -0.010851   0.004198  -0.062918  -0.000052   0.000004
    28  O   -0.131497   0.364743  -0.083527   0.005268  -0.000041   0.000001
    29  C    0.010645  -0.039262   0.001378  -0.000479   0.000006   0.000000
    30  H    0.000165   0.005688   0.001055   0.000001  -0.000000  -0.000000
    31  H    0.000777  -0.005468   0.009351   0.000054   0.000004  -0.000000
    32  H    0.001088  -0.003969   0.008369   0.000047  -0.000005   0.000000
               7          8          9         10         11         12
     1  C   -0.000490  -0.002445  -0.092200   0.001701   0.006534  -0.051470
     2  C    0.000014   0.000398  -0.004897   0.006776  -0.000332   0.010348
     3  O    0.000256   0.041316   0.001555   0.002420  -0.000008   0.000817
     4  C    0.005236  -0.003705   0.095327   0.012866  -0.004763   0.166248
     5  C    0.397463   0.385437   0.303729  -0.014503  -0.015642   0.004267
     6  H   -0.021129  -0.012185  -0.015111   0.005528  -0.006058   0.000659
     7  H    0.588710  -0.014124  -0.016516  -0.006380  -0.005450  -0.000278
     8  H   -0.014124   0.520897  -0.016631  -0.004433   0.005266   0.000369
     9  N   -0.016516  -0.016631   6.306459   0.320728   0.332732  -0.025165
    10  H   -0.006380  -0.004433   0.320728   0.491744  -0.007046  -0.008745
    11  H   -0.005450   0.005266   0.332732  -0.007046   0.509038  -0.008657
    12  C   -0.000278   0.000369  -0.025165  -0.008745  -0.008657   5.496523
    13  C   -0.000073  -0.000020  -0.010220   0.005242   0.005560   0.273921
    14  C   -0.000001  -0.000001  -0.000343   0.000123  -0.000337   0.071183
    15  C    0.000000   0.000000   0.000046   0.000008  -0.000030  -0.142762
    16  C    0.000000  -0.000001  -0.000177   0.000003  -0.000306   0.065558
    17  C   -0.000005  -0.000017  -0.000187  -0.000370   0.002137   0.344492
    18  H   -0.000012   0.000008  -0.003163   0.002188   0.001867  -0.080210
    19  H    0.000000   0.000000   0.000003  -0.000006   0.000013   0.014305
    20  H   -0.000000   0.000000  -0.000000   0.000000  -0.000003  -0.001482
    21  H    0.000000   0.000000   0.000002  -0.000000   0.000002   0.014435
    22  H    0.000000   0.000011   0.000376  -0.000021   0.000106  -0.050072
    23  C   -0.000267  -0.001567  -0.060133   0.006038   0.002687  -0.069432
    24  H    0.000183  -0.001098  -0.010358   0.000261  -0.000159   0.007028
    25  H   -0.000017   0.000088   0.005998  -0.000250  -0.000241  -0.008944
    26  H    0.000314  -0.000660  -0.002466  -0.000740   0.000621  -0.016187
    27  H    0.000011  -0.000131   0.003451   0.000461  -0.000100  -0.004264
    28  O    0.000001   0.000299   0.000052  -0.000509   0.000003  -0.000017
    29  C    0.000000  -0.000037   0.000012  -0.000041  -0.000001   0.000005
    30  H   -0.000000   0.000001   0.000000  -0.000002   0.000000  -0.000001
    31  H    0.000000  -0.000046   0.000004  -0.000032  -0.000000   0.000001
    32  H   -0.000002   0.000043  -0.000026   0.000166   0.000001  -0.000004
              13         14         15         16         17         18
     1  C   -0.014904   0.000757   0.000004  -0.000469   0.007217   0.018637
     2  C    0.000362  -0.000005   0.000000   0.000007  -0.000552  -0.000760
     3  O   -0.000004  -0.000000  -0.000000  -0.000000  -0.000003  -0.000036
     4  C   -0.097460   0.013080  -0.001744   0.021145  -0.089715  -0.014646
     5  C    0.000064   0.000009  -0.000001  -0.000001   0.000139   0.000026
     6  H    0.000154  -0.000001  -0.000000  -0.000005  -0.000151  -0.000023
     7  H   -0.000073  -0.000001   0.000000   0.000000  -0.000005  -0.000012
     8  H   -0.000020  -0.000001   0.000000  -0.000001  -0.000017   0.000008
     9  N   -0.010220  -0.000343   0.000046  -0.000177  -0.000187  -0.003163
    10  H    0.005242   0.000123   0.000008   0.000003  -0.000370   0.002188
    11  H    0.005560  -0.000337  -0.000030  -0.000306   0.002137   0.001867
    12  C    0.273921   0.071183  -0.142762   0.065558   0.344492  -0.080210
    13  C    5.177236   0.323195   0.073147  -0.131973   0.031708   0.453613
    14  C    0.323195   5.021687   0.296299   0.075196  -0.122561  -0.055159
    15  C    0.073147   0.296299   5.076888   0.305249   0.068685   0.013100
    16  C   -0.131973   0.075196   0.305249   5.061471   0.301181  -0.002029
    17  C    0.031708  -0.122561   0.068685   0.301181   5.068310   0.012878
    18  H    0.453613  -0.055159   0.013100  -0.002029   0.012878   0.643072
    19  H   -0.063375   0.449286  -0.067069   0.012346  -0.001627  -0.011542
    20  H    0.012521  -0.064069   0.447532  -0.062614   0.012554  -0.000187
    21  H   -0.001599   0.012220  -0.067274   0.445036  -0.058961   0.000021
    22  H    0.013413  -0.001868   0.013118  -0.067819   0.448249  -0.000137
    23  C    0.014776  -0.000475   0.000143  -0.000906   0.009329   0.000964
    24  H   -0.000096   0.000006   0.000003  -0.000045   0.000706   0.000051
    25  H   -0.000133   0.000024  -0.000048   0.000671   0.000076  -0.000029
    26  H   -0.001271  -0.000002  -0.000050   0.000932   0.004111  -0.000094
    27  H   -0.003703   0.000734  -0.000098   0.000005   0.000462   0.000715
    28  O   -0.000021  -0.000000  -0.000000   0.000000   0.000000  -0.000018
    29  C    0.000000   0.000000  -0.000000   0.000000  -0.000000  -0.000004
    30  H    0.000000  -0.000000   0.000000  -0.000000   0.000000   0.000000
    31  H   -0.000000  -0.000000  -0.000000  -0.000000   0.000000  -0.000000
    32  H    0.000001   0.000000  -0.000000   0.000000  -0.000000   0.000000
              19         20         21         22         23         24
     1  C   -0.000018   0.000001   0.000005   0.000442  -0.043420  -0.024617
     2  C   -0.000001   0.000000  -0.000000  -0.000025  -0.016346   0.003018
     3  O    0.000000   0.000000   0.000000   0.000004  -0.016198   0.024962
     4  C   -0.000297   0.000020  -0.000276  -0.034889   0.402101   0.007939
     5  C   -0.000000   0.000000  -0.000000  -0.000089   0.020643   0.004762
     6  H   -0.000000   0.000000  -0.000000  -0.000080   0.007127  -0.002370
     7  H    0.000000  -0.000000   0.000000   0.000000  -0.000267   0.000183
     8  H    0.000000   0.000000   0.000000   0.000011  -0.001567  -0.001098
     9  N    0.000003  -0.000000   0.000002   0.000376  -0.060133  -0.010358
    10  H   -0.000006   0.000000  -0.000000  -0.000021   0.006038   0.000261
    11  H    0.000013  -0.000003   0.000002   0.000106   0.002687  -0.000159
    12  C    0.014305  -0.001482   0.014435  -0.050072  -0.069432   0.007028
    13  C   -0.063375   0.012521  -0.001599   0.013413   0.014776  -0.000096
    14  C    0.449286  -0.064069   0.012220  -0.001868  -0.000475   0.000006
    15  C   -0.067069   0.447532  -0.067274   0.013118   0.000143   0.000003
    16  C    0.012346  -0.062614   0.445036  -0.067819  -0.000906  -0.000045
    17  C   -0.001627   0.012554  -0.058961   0.448249   0.009329   0.000706
    18  H   -0.011542  -0.000187   0.000021  -0.000137   0.000964   0.000051
    19  H    0.647175  -0.010563  -0.000208   0.000023   0.000004  -0.000000
    20  H   -0.010563   0.644722  -0.010587  -0.000202   0.000000   0.000000
    21  H   -0.000208  -0.010587   0.649010  -0.011792  -0.000002  -0.000000
    22  H    0.000023  -0.000202  -0.011792   0.653610   0.019730   0.000022
    23  C    0.000004   0.000000  -0.000002   0.019730   4.543088   0.373646
    24  H   -0.000000   0.000000  -0.000000   0.000022   0.373646   0.594084
    25  H    0.000000  -0.000000   0.000011   0.000632   0.388110  -0.012007
    26  H    0.000000  -0.000000   0.000019  -0.001140   0.355356  -0.027056
    27  H    0.000040  -0.000001   0.000000   0.000011   0.002027   0.000047
    28  O    0.000000  -0.000000   0.000000   0.000000  -0.000167   0.000069
    29  C   -0.000000   0.000000  -0.000000  -0.000000   0.000009  -0.000066
    30  H   -0.000000  -0.000000   0.000000  -0.000000   0.000002  -0.000003
    31  H    0.000000  -0.000000  -0.000000  -0.000000  -0.000037   0.000159
    32  H   -0.000000  -0.000000   0.000000  -0.000000   0.000014  -0.000049
              25         26         27         28         29         30
     1  C   -0.000234   0.009570   0.404041  -0.131497   0.010645   0.000165
     2  C   -0.001282   0.000998  -0.010851   0.364743  -0.039262   0.005688
     3  O    0.000018   0.000053   0.004198  -0.083527   0.001378   0.001055
     4  C   -0.009029   0.004252  -0.062918   0.005268  -0.000479   0.000001
     5  C   -0.000055  -0.002094  -0.000052  -0.000041   0.000006  -0.000000
     6  H    0.000109   0.001062   0.000004   0.000001   0.000000  -0.000000
     7  H   -0.000017   0.000314   0.000011   0.000001   0.000000  -0.000000
     8  H    0.000088  -0.000660  -0.000131   0.000299  -0.000037   0.000001
     9  N    0.005998  -0.002466   0.003451   0.000052   0.000012   0.000000
    10  H   -0.000250  -0.000740   0.000461  -0.000509  -0.000041  -0.000002
    11  H   -0.000241   0.000621  -0.000100   0.000003  -0.000001   0.000000
    12  C   -0.008944  -0.016187  -0.004264  -0.000017   0.000005  -0.000001
    13  C   -0.000133  -0.001271  -0.003703  -0.000021   0.000000   0.000000
    14  C    0.000024  -0.000002   0.000734  -0.000000   0.000000  -0.000000
    15  C   -0.000048  -0.000050  -0.000098  -0.000000  -0.000000   0.000000
    16  C    0.000671   0.000932   0.000005   0.000000   0.000000  -0.000000
    17  C    0.000076   0.004111   0.000462   0.000000  -0.000000   0.000000
    18  H   -0.000029  -0.000094   0.000715  -0.000018  -0.000004   0.000000
    19  H    0.000000   0.000000   0.000040   0.000000  -0.000000  -0.000000
    20  H   -0.000000  -0.000000  -0.000001  -0.000000   0.000000  -0.000000
    21  H    0.000011   0.000019   0.000000   0.000000  -0.000000   0.000000
    22  H    0.000632  -0.001140   0.000011   0.000000  -0.000000  -0.000000
    23  C    0.388110   0.355356   0.002027  -0.000167   0.000009   0.000002
    24  H   -0.012007  -0.027056   0.000047   0.000069  -0.000066  -0.000003
    25  H    0.604331  -0.024921   0.000782  -0.000010  -0.000001  -0.000000
    26  H   -0.024921   0.682668  -0.000158  -0.000000   0.000000   0.000000
    27  H    0.000782  -0.000158   0.658609   0.006009  -0.000183  -0.000177
    28  O   -0.000010  -0.000000   0.006009   8.011964   0.289100  -0.025949
    29  C   -0.000001   0.000000  -0.000183   0.289100   4.392602   0.395432
    30  H   -0.000000   0.000000  -0.000177  -0.025949   0.395432   0.645777
    31  H    0.000001   0.000001   0.000027  -0.030508   0.401697  -0.027337
    32  H   -0.000000  -0.000001   0.000032  -0.031982   0.397289  -0.027653
              31         32
     1  C    0.000777   0.001088
     2  C   -0.005468  -0.003969
     3  O    0.009351   0.008369
     4  C    0.000054   0.000047
     5  C    0.000004  -0.000005
     6  H   -0.000000   0.000000
     7  H    0.000000  -0.000002
     8  H   -0.000046   0.000043
     9  N    0.000004  -0.000026
    10  H   -0.000032   0.000166
    11  H   -0.000000   0.000001
    12  C    0.000001  -0.000004
    13  C   -0.000000   0.000001
    14  C   -0.000000   0.000000
    15  C   -0.000000  -0.000000
    16  C   -0.000000   0.000000
    17  C    0.000000  -0.000000
    18  H   -0.000000   0.000000
    19  H    0.000000  -0.000000
    20  H   -0.000000  -0.000000
    21  H   -0.000000   0.000000
    22  H   -0.000000  -0.000000
    23  C   -0.000037   0.000014
    24  H    0.000159  -0.000049
    25  H    0.000001  -0.000000
    26  H    0.000001  -0.000001
    27  H    0.000027   0.000032
    28  O   -0.030508  -0.031982
    29  C    0.401697   0.397289
    30  H   -0.027337  -0.027653
    31  H    0.663723  -0.038574
    32  H   -0.038574   0.676346
 Mulliken charges:
               1
     1  C   -0.307235
     2  C    0.269673
     3  O   -0.419615
     4  C   -0.099717
     5  C    0.026821
     6  H    0.067073
     7  H    0.072557
     8  H    0.102967
     9  N   -0.112880
    10  H    0.186825
    11  H    0.182566
    12  C   -0.002469
    13  C   -0.060061
    14  C   -0.018979
    15  C   -0.015146
    16  C   -0.022456
    17  C   -0.038082
    18  H    0.020910
    19  H    0.031513
    20  H    0.032357
    21  H    0.029939
    22  H    0.018389
    23  C    0.063158
    24  H    0.060980
    25  H    0.056349
    26  H    0.016882
    27  H    0.000971
    28  O   -0.373262
    29  C    0.151901
    30  H    0.033001
    31  H    0.026202
    32  H    0.018870
 Sum of Mulliken charges =  -0.00000
 Mulliken charges with hydrogens summed into heavy atoms:
               1
     1  C   -0.306264
     2  C    0.269673
     3  O   -0.419615
     4  C   -0.099717
     5  C    0.269417
     9  N    0.256511
    12  C   -0.002469
    13  C   -0.039150
    14  C    0.012534
    15  C    0.017211
    16  C    0.007483
    17  C   -0.019693
    23  C    0.197369
    28  O   -0.373262
    29  C    0.229973
 Electronic spatial extent (au):  <R**2>=           3887.8964
 Charge=             -0.0000 electrons
 Dipole moment (field-independent basis, Debye):
    X=              5.2332    Y=              4.0255    Z=             -3.3730  Tot=              7.4141
 Quadrupole moment (field-independent basis, Debye-Ang):
   XX=            -92.4975   YY=            -85.3907   ZZ=            -82.7111
   XY=              0.2287   XZ=              2.1514   YZ=             -1.0302
 Traceless Quadrupole moment (field-independent basis, Debye-Ang):
   XX=             -5.6311   YY=              1.4758   ZZ=              4.1554
   XY=              0.2287   XZ=              2.1514   YZ=             -1.0302
 Octapole moment (field-independent basis, Debye-Ang**2):
  XXX=             15.2977  YYY=             30.7355  ZZZ=            -14.9265  XYY=             -3.6866
  XXY=            -25.0098  XXZ=              2.0754  XZZ=             -6.2008  YZZ=             11.7463
  YYZ=            -16.7795  XYZ=             10.1461
 Hexadecapole moment (field-independent basis, Debye-Ang**3):
 XXXX=          -3435.0929 YYYY=           -913.4454 ZZZZ=           -450.5040 XXXY=             50.3200
 XXXZ=             24.8379 YYYX=             -2.7365 YYYZ=            -21.7010 ZZZX=              7.9121
 ZZZY=            -13.7763 XXYY=           -775.7729 XXZZ=           -683.5326 YYZZ=           -219.5026
 XXYZ=             29.6999 YYXZ=             -8.2185 ZZXY=             -1.2225
 N-N= 1.010466714802D+03 E-N=-3.583065323473D+03  KE= 6.648222588666D+02
 Unable to Open any file for archive entry.
 1\1\GINC-NODE-006\FTS\RwB97XD\Gen\C12H17N1O2\JP2658\19-Dec-2023\0\\# w
 b97xd chkbasis guess=read geom=allchk scrf=(iefpcm,solvent=toluene) op
 t=(readfc,ts,noeigen,maxcycles=50,maxstep=10)\\TS-92.out\\0,1\C,-0.907
 7299799,-0.7072030278,0.1843976106\C,-2.2883110931,-0.463922706,0.1489
 022161\O,-2.8572071418,0.6359957839,0.0280428357\C,0.0497004429,0.4115
 703753,0.2714502205\C,-0.8040727491,2.6373416046,-1.0551978091\H,-0.19
 47912447,3.3361052475,-0.4725197919\H,-0.9160538559,3.019358475,-2.078
 5125312\H,-1.7862225372,2.4867427584,-0.5947426652\N,-0.1412461728,1.3
 2069782,-1.1082152881\H,-0.702251648,0.6762360221,-1.6744137428\H,0.77
 33394186,1.3999808395,-1.5599657289\C,1.4951094876,-0.0723488197,0.162
 5311849\C,1.8416871976,-0.9754117501,-0.8552781235\C,3.1535023642,-1.4
 144023534,-1.0119289852\C,4.1510472371,-0.9631002927,-0.1472490267\C,3
 .8213268826,-0.0697255914,0.8685986876\C,2.5070299736,0.3757141071,1.0
 185838624\H,1.0622426314,-1.3499661376,-1.5233494419\H,3.3964247369,-2
 .1201385556,-1.8093972317\H,5.1801012834,-1.3096477346,-0.2640737226\H
 ,4.5917534062,0.2871115086,1.5557015724\H,2.2794278743,1.0731555574,1.
 8248929191\C,-0.1875501184,1.3664337475,1.4400865806\H,-1.2469646874,1
 .6456167726,1.4720709949\H,0.043054167,0.8213616569,2.364870193\H,0.43
 25872258,2.2758538721,1.4129898057\H,-0.5408056981,-1.7304862475,0.233
 4168745\O,-3.0483295936,-1.6041498964,0.2169377699\C,-4.4373851967,-1.
 4327188592,0.09330527\H,-4.8835445701,-2.4336715542,0.164424014\H,-4.8
 46295469,-0.7926107095,0.8911424088\H,-4.7128229481,-0.9783088229,-0.8
 725218569\\Version=ES64L-G16RevC.01\State=1-A\HF=-671.9706479\RMSD=7.9
 67e-09\RMSF=1.466e-05\Dipole=2.057999,1.5878305,-1.3235594\Quadrupole=
 -4.1896124,1.0993603,3.0902521,0.1622603,1.594762,-0.766104\PG=C01 [X(
 C12H17N1O2)]\\@
 The archive entry for this job was punched.


 SCIENCE AND PEACE WILL TRIUMPH OVER IGNORANCE AND WAR

                          -- PASTEUR
 Job cpu time:       0 days  0 hours 34 minutes 32.5 seconds.
 Elapsed time:       0 days  0 hours  2 minutes 57.0 seconds.
 File lengths (MBytes):  RWF=    141 Int=      0 D2E=      0 Chk=     14 Scr=      1
 Normal termination of Gaussian 16 at Tue Dec 19 14:16:24 2023.
